<LesHouchesEvents version="3.0">
<header>
<!--
#*********************************************************************
#                                                                    *
#                        MadGraph5_aMC@NLO                           *
#                                                                    *
#                           Going Beyond                             *
#                                                                    *
#                   http://madgraph.hep.uiuc.edu                     *
#                   http://madgraph.phys.ucl.ac.be                   *
#                   http://amcatnlo.cern.ch                          *
#                                                                    *
#                     The MadGraph5_aMC@NLO team                     *
#                                                                    *
#....................................................................*
#                                                                    *
# This file contains all the information necessary to reproduce      *
# the events generated:                                              *
#                                                                    *
# 1. software version                                                *
# 2. proc_card          : code generation info including model       *
# 3. param_card         : model primary parameters in the LH format  *
# 4. run_card           : running parameters (collider and cuts)     *
# 5. pythia_card        : present only if pythia has been run        *
# 6. pgs_card           : present only if pgs has been run           *
# 7. delphes_cards      : present only if delphes has been run       *
#                                                                    *
#                                                                    *
#*********************************************************************
-->
<MGVersion>
#5.2.2.3
</MGVersion>
<MG5ProcCard>
#************************************************************
#*                     MadGraph5_aMC@NLO                    *
#*                                                          *
#*                *                       *                 *
#*                  *        * *        *                   *
#*                    * * * * 5 * * * *                     *
#*                  *        * *        *                   *
#*                *                       *                 *
#*                                                          *
#*                                                          *
#*         VERSION 2.2.3                 2015-02-10         *
#*                                                          *
#*    The MadGraph5_aMC@NLO Development Team - Find us at   *
#*    https://server06.fynu.ucl.ac.be/projects/madgraph     *
#*                                                          *
#************************************************************
#*                                                          *
#*               Command File for MadGraph5_aMC@NLO         *
#*                                                          *
#*     run as ./bin/mg5_aMC  filename                       *
#*                                                          *
#************************************************************
set group_subprocesses Auto
set ignore_six_quark_processes False
set loop_optimized_output True
set gauge unitary
set complex_mass_scheme False
import model sm
define p = g u c d s u~ c~ d~ s~
define j = g u c d s u~ c~ d~ s~
define l+ = e+ mu+
define l- = e- mu-
define vl = ve vm vt
define vl~ = ve~ vm~ vt~
import model Zprime_UFO
generate p p > zph, zph > j j
add process p p > zph, zph > b b~
output Dijet_signal
</MG5ProcCard>
<MGProcCard>
#*********************************************************************
#                        MadGraph/MadEvent                           *
#                   http://madgraph.hep.uiuc.edu                     *
#                                                                    *
#                          proc_card.dat                             *
#*********************************************************************
#                                                                    *
#            This Files is generated by MADGRAPH 5                   *
#                                                                    *
# WARNING: This Files is generated for MADEVENT (compatibility issue)*
#          This files is NOT a valid MG4 proc_card.dat               *
#          Running this in MG4 will NEVER reproduce the result of MG5*
#                                                                    *
#*********************************************************************
#*********************************************************************
# Process(es) requested : mg2 input                                  *
#*********************************************************************
# Begin PROCESS # This is TAG. Do not modify this line
p p > zph , zph > j j           #Process
# Be carefull the coupling are here in MG5 convention
          
end_coup           # End the couplings input

done               # this tells MG there are no more procs
# End PROCESS  # This is TAG. Do not modify this line
#*********************************************************************
# Model information                                                  *
#*********************************************************************
# Begin MODEL  # This is TAG. Do not modify this line
Zprime_UFO
# End   MODEL  # This is TAG. Do not modify this line
#*********************************************************************
# Start multiparticle definitions                                    *
#*********************************************************************
# Begin MULTIPARTICLES # This is TAG. Do not modify this line

# End  MULTIPARTICLES # This is TAG. Do not modify this line
</MGProcCard>
<MGRunCard>
#*********************************************************************
#                       MadGraph5_aMC@NLO                            *
#                                                                    *
#                     run_card.dat MadEvent                          *
#                                                                    *
#  This file is used to set the parameters of the run.               *
#                                                                    *
#  Some notation/conventions:                                        *
#                                                                    *
#   Lines starting with a '# ' are info or comments                  *
#                                                                    *
#   mind the format:   value    = variable     ! comment             *
#*********************************************************************
#
#*******************                                                 
# Running parameters
#*******************                                                 
#                                                                    
#*********************************************************************
# Tag name for the run (one word)                                    *
#*********************************************************************
  tag_1     = run_tag ! name of the run 
#*********************************************************************
# Run to generate the grid pack                                      *
#*********************************************************************
  .false.     = gridpack  !True = setting up the grid pack
#*********************************************************************
# Number of events and rnd seed                                      *
# Warning: Do not generate more than 1M events in a single run       *
# If you want to run Pythia, avoid more than 50k events in a run.    *
#*********************************************************************
  2000 = nevents ! Number of unweighted events requested 
 2568 = iseed   ! rnd seed (0=assigned automatically=default))
#*********************************************************************
# Collider type and energy                                           *
# lpp: 0=No PDF, 1=proton, -1=antiproton, 2=photon from proton,      *
#                                         3=photon from electron     *
#*********************************************************************
        1     = lpp1    ! beam 1 type 
        1     = lpp2    ! beam 2 type
     4000     = ebeam1  ! beam 1 total energy in GeV
     4000     = ebeam2  ! beam 2 total energy in GeV
#*********************************************************************
# Beam polarization from -100 (left-handed) to 100 (right-handed)    *
#*********************************************************************
        0     = polbeam1 ! beam polarization for beam 1
        0     = polbeam2 ! beam polarization for beam 2
#*********************************************************************
# PDF CHOICE: this automatically fixes also alpha_s and its evol.    *
#*********************************************************************
 'nn23lo1'    = pdlabel     ! PDF set                                     
 230000    = lhaid     ! if pdlabel=lhapdf, this is the lhapdf number
#*********************************************************************
# Renormalization and factorization scales                           *
#*********************************************************************
 F        = fixed_ren_scale  ! if .true. use fixed ren scale
 F        = fixed_fac_scale  ! if .true. use fixed fac scale
 91.1880  = scale            ! fixed ren scale
 91.1880  = dsqrt_q2fact1    ! fixed fact scale for pdf1
 91.1880  = dsqrt_q2fact2    ! fixed fact scale for pdf2
 1        = scalefact        ! scale factor for event-by-event scales
#*********************************************************************
# Matching - Warning! ickkw > 1 is still beta
#*********************************************************************
 0        = ickkw            ! 0 no matching, 1 MLM, 2 CKKW matching
 1        = highestmult      ! for ickkw=2, highest mult group
 1        = ktscheme         ! for ickkw=1, 1 Durham kT, 2 Pythia pTE
 1        = alpsfact         ! scale factor for QCD emission vx
 F        = chcluster        ! cluster only according to channel diag
 T        = pdfwgt           ! for ickkw=1, perform pdf reweighting
 5        = asrwgtflavor     ! highest quark flavor for a_s reweight
 T        = clusinfo         ! include clustering tag in output
 3.0      = lhe_version       ! Change the way clustering information pass to shower.        
#*********************************************************************
#**********************************************************
#
#**********************************************************
# Automatic ptj and mjj cuts if xqcut > 0
# (turn off for VBF and single top processes)
#**********************************************************
   T  = auto_ptj_mjj  ! Automatic setting of ptj and mjj
#**********************************************************
#                                                                    
#**********************************
# BW cutoff (M+/-bwcutoff*Gamma)
#**********************************
  15  = bwcutoff      ! (M+/-bwcutoff*Gamma)
#**********************************************************
# Apply pt/E/eta/dr/mij cuts on decay products or not
# (note that etmiss/ptll/ptheavy/ht/sorted cuts always apply)
#**********************************************************
   T  = cut_decays    ! Cut decay products 
#*************************************************************
# Number of helicities to sum per event (0 = all helicities)
# 0 gives more stable result, but longer run time (needed for
# long decay chains e.g.).
# Use >=2 if most helicities contribute, e.g. pure QCD.
#*************************************************************
   0  = nhel          ! Number of helicities used per event
#*******************                                                 
# Standard Cuts
#*******************                                                 
#                                                                    
#*********************************************************************
# Minimum and maximum pt's (for max, -1 means no cut)                *
#*********************************************************************
 20  = ptj       ! minimum pt for the jets 
  0  = ptb       ! minimum pt for the b 
 10  = pta       ! minimum pt for the photons 
 10  = ptl       ! minimum pt for the charged leptons 
  0  = misset    ! minimum missing Et (sum of neutrino's momenta)
  0  = ptheavy   ! minimum pt for one heavy final state
 1.0 = ptonium   ! minimum pt for the quarkonium states
 -1  = ptjmax    ! maximum pt for the jets
 -1  = ptbmax    ! maximum pt for the b
 -1  = ptamax    ! maximum pt for the photons
 -1  = ptlmax    ! maximum pt for the charged leptons
 -1  = missetmax ! maximum missing Et (sum of neutrino's momenta)
#*********************************************************************
# Minimum and maximum E's (in the center of mass frame)              *
#*********************************************************************
  0  = ej     ! minimum E for the jets 
  0  = eb     ! minimum E for the b 
  0  = ea     ! minimum E for the photons 
  0  = el     ! minimum E for the charged leptons 
 -1   = ejmax ! maximum E for the jets
 -1   = ebmax ! maximum E for the b
 -1   = eamax ! maximum E for the photons
 -1   = elmax ! maximum E for the charged leptons
#*********************************************************************
# Maximum and minimum absolute rapidity (for max, -1 means no cut)   *
#*********************************************************************
   5  = etaj    ! max rap for the jets 
  -1  = etab    ! max rap for the b
 2.5  = etaa    ! max rap for the photons 
 2.5  = etal    ! max rap for the charged leptons 
 0.6  = etaonium ! max rap for the quarkonium states
   0  = etajmin ! min rap for the jets
   0  = etabmin ! min rap for the b
   0  = etaamin ! min rap for the photons
   0  = etalmin ! main rap for the charged leptons
#*********************************************************************
# Minimum and maximum DeltaR distance                                *
#*********************************************************************
 0.4 = drjj    ! min distance between jets 
 0   = drbb    ! min distance between b's 
 0.4 = drll    ! min distance between leptons 
 0.4 = draa    ! min distance between gammas 
 0   = drbj    ! min distance between b and jet 
 0.4 = draj    ! min distance between gamma and jet 
 0.4 = drjl    ! min distance between jet and lepton 
 0   = drab    ! min distance between gamma and b 
 0   = drbl    ! min distance between b and lepton 
 0.4 = dral    ! min distance between gamma and lepton 
 -1  = drjjmax ! max distance between jets
 -1  = drbbmax ! max distance between b's
 -1  = drllmax ! max distance between leptons
 -1  = draamax ! max distance between gammas
 -1  = drbjmax ! max distance between b and jet
 -1  = drajmax ! max distance between gamma and jet
 -1  = drjlmax ! max distance between jet and lepton
 -1  = drabmax ! max distance between gamma and b
 -1  = drblmax ! max distance between b and lepton
 -1  = dralmax ! maxdistance between gamma and lepton
#*********************************************************************
# Minimum and maximum invariant mass for pairs                       *
# WARNING: for four lepton final state mmll cut require to have      *
#          different lepton masses for each flavor!                  *           
#*********************************************************************
 0   = mmjj    ! min invariant mass of a jet pair 
 0   = mmbb    ! min invariant mass of a b pair 
 0   = mmaa    ! min invariant mass of gamma gamma pair
 0   = mmll    ! min invariant mass of l+l- (same flavour) lepton pair
 -1  = mmjjmax ! max invariant mass of a jet pair
 -1  = mmbbmax ! max invariant mass of a b pair
 -1  = mmaamax ! max invariant mass of gamma gamma pair
 -1  = mmllmax ! max invariant mass of l+l- (same flavour) lepton pair
#*********************************************************************
# Minimum and maximum invariant mass for all letpons                 *
#*********************************************************************
 0   = mmnl    ! min invariant mass for all letpons (l+- and vl) 
 -1  = mmnlmax ! max invariant mass for all letpons (l+- and vl) 
#*********************************************************************
# Minimum and maximum pt for 4-momenta sum of leptons                *
#*********************************************************************
 0   = ptllmin  ! Minimum pt for 4-momenta sum of leptons(l and vl)
 -1  = ptllmax  ! Maximum pt for 4-momenta sum of leptons(l and vl)
#*********************************************************************
# Inclusive cuts                                                     *
#*********************************************************************
 0  = xptj ! minimum pt for at least one jet  
 0  = xptb ! minimum pt for at least one b 
 0  = xpta ! minimum pt for at least one photon 
 0  = xptl ! minimum pt for at least one charged lepton 
#*********************************************************************
# Control the pt's of the jets sorted by pt                          *
#*********************************************************************
 0   = ptj1min ! minimum pt for the leading jet in pt
 0   = ptj2min ! minimum pt for the second jet in pt
 0   = ptj3min ! minimum pt for the third jet in pt
 0   = ptj4min ! minimum pt for the fourth jet in pt
 -1  = ptj1max ! maximum pt for the leading jet in pt 
 -1  = ptj2max ! maximum pt for the second jet in pt
 -1  = ptj3max ! maximum pt for the third jet in pt
 -1  = ptj4max ! maximum pt for the fourth jet in pt
 0   = cutuse  ! reject event if fails any (0) / all (1) jet pt cuts
#*********************************************************************
# Control the pt's of leptons sorted by pt                           *
#*********************************************************************
 0   = ptl1min ! minimum pt for the leading lepton in pt
 0   = ptl2min ! minimum pt for the second lepton in pt
 0   = ptl3min ! minimum pt for the third lepton in pt
 0   = ptl4min ! minimum pt for the fourth lepton in pt
 -1  = ptl1max ! maximum pt for the leading lepton in pt 
 -1  = ptl2max ! maximum pt for the second lepton in pt
 -1  = ptl3max ! maximum pt for the third lepton in pt
 -1  = ptl4max ! maximum pt for the fourth lepton in pt
#*********************************************************************
# Control the Ht(k)=Sum of k leading jets                            *
#*********************************************************************
 0   = htjmin ! minimum jet HT=Sum(jet pt)
 -1  = htjmax ! maximum jet HT=Sum(jet pt)
 0   = ihtmin  !inclusive Ht for all partons (including b)
 -1  = ihtmax  !inclusive Ht for all partons (including b)
 0   = ht2min ! minimum Ht for the two leading jets
 0   = ht3min ! minimum Ht for the three leading jets
 0   = ht4min ! minimum Ht for the four leading jets
 -1  = ht2max ! maximum Ht for the two leading jets
 -1  = ht3max ! maximum Ht for the three leading jets
 -1  = ht4max ! maximum Ht for the four leading jets
#***********************************************************************
# Photon-isolation cuts, according to hep-ph/9801442                   *
# When ptgmin=0, all the other parameters are ignored                  *
# When ptgmin>0, pta and draj are not going to be used                 *
#***********************************************************************
   0 = ptgmin ! Min photon transverse momentum
 0.4 = R0gamma ! Radius of isolation code
 1.0 = xn ! n parameter of eq.(3.4) in hep-ph/9801442
 1.0 = epsgamma ! epsilon_gamma parameter of eq.(3.4) in hep-ph/9801442
 .true. = isoEM ! isolate photons from EM energy (photons and leptons)
#*********************************************************************
# WBF cuts                                                           *
#*********************************************************************
 0   = xetamin ! minimum rapidity for two jets in the WBF case  
 0   = deltaeta ! minimum rapidity for two jets in the WBF case 
#*********************************************************************
# KT DURHAM CUT                                                      *
#*********************************************************************
 -1    =  ktdurham        
 0.4  =  dparameter 
#*********************************************************************
# maximal pdg code for quark to be considered as a light jet         *
# (otherwise b cuts are applied)                                     *
#*********************************************************************
 4 = maxjetflavor    ! Maximum jet pdg code
#*********************************************************************
# Jet measure cuts                                                   *
#*********************************************************************
 0   = xqcut   ! minimum kt jet measure between partons
#*********************************************************************
#
#*********************************************************************
# Store info for systematics studies                                 *
# WARNING: If use_syst is T, matched Pythia output is                *
#          meaningful ONLY if plotted taking matchscale              *
#          reweighting into account!                                 *
#*********************************************************************
   F  = use_syst      ! Enable systematics studies
#
#**************************************
# Parameter of the systematics study
#  will be used by SysCalc (if installed)
#**************************************                                  
#
0.5 1 2 = sys_scalefact  # factorization/renormalization scale factor
0.5 1 2 = sys_alpsfact  # \alpha_s emission scale factors
30 50 = sys_matchscale # variation of merging scale
# PDF sets and number of members (0 or none for all members).
CT10nlo.LHgrid = sys_pdf # matching scales
# MSTW2008nlo68cl.LHgrid 1  = sys_pdf
</MGRunCard>
<slha>
######################################################################
## PARAM_CARD AUTOMATICALY GENERATED BY MG5 FOLLOWING UFO MODEL   ####
######################################################################
##                                                                  ##
##  Width set on Auto will be computed following the information    ##
##        present in the decay.py files of the model.               ##
##        See  arXiv:1402.1178 for more details.                    ##
##                                                                  ##
######################################################################

###################################
## INFORMATION FOR CKMBLOCK
###################################
Block ckmblock 
    1 2.277360e-01 # cabi 

###################################
## INFORMATION FOR FRBLOCK
###################################
Block frblock 
    1 1.400000e+00 # gz 

###################################
## INFORMATION FOR MASS
###################################
Block mass 
    1 5.040000e-03 # MD 
    2 2.550000e-03 # MU 
    3 1.010000e-01 # MS 
    4 1.270000e+00 # MC 
    5 4.700000e+00 # MB 
    6 1.720000e+02 # MT 
   11 5.110000e-04 # Me 
   13 1.056600e-01 # MM 
   15 1.777000e+00 # MTA 
   23 9.118760e+01 # MZ 
   25 1.200000e+02 # MH 
  10030 1.900000e+03 # MZph 
  10031 3.000000e+02 # MZpl 
## Dependent parameters, given by model restrictions.
## Those values should be edited following the 
## analytical expression. MG5 ignores those values 
## but they are important for interfacing the output of MG5
## to external program such as Pythia.
  12 0.000000 # ve : 0.0 
  14 0.000000 # vm : 0.0 
  16 0.000000 # vt : 0.0 
  21 0.000000 # g : 0.0 
  22 0.000000 # a : 0.0 
  24 79.824360 # w+ : cmath.sqrt(MZ__exp__2/2. + cmath.sqrt(MZ__exp__4/4. - (aEW*cmath.pi*MZ__exp__2)/(Gf*sqrt__2))) 

###################################
## INFORMATION FOR SMINPUTS
###################################
Block sminputs 
    1 1.279000e+02 # aEWM1 
    2 1.166370e-05 # Gf 
    3 1.184000e-01 # aS 

###################################
## INFORMATION FOR YUKAWA
###################################
Block yukawa 
    1 5.040000e-03 # ymdo 
    2 2.550000e-03 # ymup 
    3 1.010000e-01 # yms 
    4 1.270000e+00 # ymc 
    5 4.700000e+00 # ymb 
    6 1.720000e+02 # ymt 
   11 5.110000e-04 # yme 
   13 1.056600e-01 # ymm 
   15 1.777000e+00 # ymtau 

###################################
## INFORMATION FOR DECAY
###################################
DECAY   6 1.508336e+00 # WT 
DECAY  23 2.495200e+00 # WZ 
DECAY  24 2.085000e+00 # WW 
DECAY  25 5.753088e-03 # WH 
## Dependent parameters, given by model restrictions.
## Those values should be edited following the 
## analytical expression. MG5 ignores those values 
## but they are important for interfacing the output of MG5
## to external program such as Pythia.
DECAY  1 0.000000 # d : 0.0 
DECAY  2 0.000000 # u : 0.0 
DECAY  3 0.000000 # s : 0.0 
DECAY  4 0.000000 # c : 0.0 
DECAY  5 0.000000 # b : 0.0 
DECAY  11 0.000000 # e- : 0.0 
DECAY  12 0.000000 # ve : 0.0 
DECAY  13 0.000000 # mu- : 0.0 
DECAY  14 0.000000 # vm : 0.0 
DECAY  15 0.000000 # ta- : 0.0 
DECAY  16 0.000000 # vt : 0.0 
DECAY  21 0.000000 # g : 0.0 
DECAY  22 0.000000 # a : 0.0 
DECAY  10030 0.308725 # zph : (gz__exp__2*MZph*(5 + cmath.sqrt(1 - (4*MT__exp__2)/MZph__exp__2)))/(144.*cmath.pi) 
DECAY  10031 0.132629 # zpl : (5*gz__exp__2*MZpl)/(144.*cmath.pi) 
#===========================================================
# QUANTUM NUMBERS OF NEW STATE(S) (NON SM PDG CODE)
#===========================================================

Block QNUMBERS 10030  # zph 
        1 0  # 3 times electric charge
        2 3  # number of spin states (2S+1)
        3 1  # colour rep (1: singlet, 3: triplet, 8: octet)
        4 0  # Particle/Antiparticle distinction (0=own anti)
Block QNUMBERS 10031  # zpl 
        1 0  # 3 times electric charge
        2 3  # number of spin states (2S+1)
        3 1  # colour rep (1: singlet, 3: triplet, 8: octet)
        4 0  # Particle/Antiparticle distinction (0=own anti)
</slha>
## END BANNER##
<MGGenerationInfo>
#  Number of Events        :         3948
#  Integrated weight (pb)  :  0.10296E+00
#  Max wgt                 :  0.37210E-04
#  Average wgt             :  0.26079E-04
</MGGenerationInfo>
</header>
<init>
     2212     2212  0.40000000000E+04  0.40000000000E+04 0 0  247000  247000 2   1
  0.10303264194E+00  0.21420101988E-03  0.37209780000E-04   0
</init>
<event>
 5   0  0.3720978E-04  0.1887184E+04  0.7818609E-02  0.8661262E-01
        2   -1    0    0  501    0  0.00000000000E+00  0.00000000000E+00  0.87494204554E+03  0.87494204554E+03  0.25500000920E-02 0. -1.
       -2   -1    0    0    0  501  0.00000000000E+00  0.00000000000E+00 -0.10176287136E+04  0.10176287136E+04  0.25500000920E-02 0.  1.
    10030    2    1    2    0    0  0.00000000000E+00  0.00000000000E+00 -0.14268666808E+03  0.18925707592E+04  0.18871843029E+04 0.  0.
        1    1    3    3  502    0 -0.89206490069E+02  0.19667824961E+03 -0.99251067206E+03  0.10157349880E+04  0.50400001928E-02 0.  1.
       -1    1    3    3    0  502  0.89206490069E+02 -0.19667824961E+03  0.84982400399E+03  0.87683577112E+03  0.50400001928E-02 0. -1.
</event>
<event>
 5   0  0.3720978E-04  0.1913402E+04  0.7818609E-02  0.8648214E-01
       -2   -1    0    0    0  501  0.00000000000E+00  0.00000000000E+00  0.32194557736E+03  0.32194557737E+03  0.25500000920E-02 0. -1.
        2   -1    0    0  501    0  0.00000000000E+00  0.00000000000E+00 -0.28429561134E+04  0.28429561134E+04  0.25500000920E-02 0.  1.
    10030    2    1    2    0    0  0.00000000000E+00  0.00000000000E+00 -0.25210105360E+04  0.31649016907E+04  0.19134023595E+04 0.  0.
        1    1    3    3  502    0  0.11003408329E+03  0.87378340484E+03 -0.18786766853E+04  0.20748568688E+04  0.50400001928E-02 0.  1.
       -1    1    3    3    0  502 -0.11003408329E+03 -0.87378340484E+03 -0.64233385071E+03  0.10900448219E+04  0.50400001928E-02 0. -1.
</event>
<event>
 5   0  0.3459485E-04  0.1859203E+04  0.7818609E-02  0.8675434E-01
        2   -1    0    0  501    0  0.00000000000E+00  0.00000000000E+00  0.13872049918E+04  0.13872049918E+04  0.25500000920E-02 0.  1.
       -2   -1    0    0    0  501  0.00000000000E+00  0.00000000000E+00 -0.62294996277E+03  0.62294996277E+03  0.25500000920E-02 0. -1.
    10030    2    1    2    0    0  0.00000000000E+00  0.00000000000E+00  0.76425502905E+03  0.20101549546E+04  0.18592033757E+04 0.  0.
        3    1    3    3  502    0  0.34083653443E+03 -0.28936726060E+03 -0.49906437106E+03  0.67005090207E+03  0.10100000352E+00 0. -1.
       -3    1    3    3    0  502 -0.34083653443E+03  0.28936726060E+03  0.12633194001E+04  0.13401040525E+04  0.10100000352E+00 0.  1.
</event>
<event>
 5   0  0.3720978E-04  0.1401074E+04  0.7818609E-02  0.8953041E-01
       -2   -1    0    0    0  501  0.00000000000E+00  0.00000000000E+00  0.35054565224E+03  0.35054565225E+03  0.25500000920E-02 0.  1.
        2   -1    0    0  501    0  0.00000000000E+00  0.00000000000E+00 -0.13999671444E+04  0.13999671444E+04  0.25500000920E-02 0. -1.
    10030    2    1    2    0    0  0.00000000000E+00  0.00000000000E+00 -0.10494214922E+04  0.17505127967E+04  0.14010744388E+04 0.  0.
        1    1    3    3  502    0 -0.62253599182E+03  0.27994464305E+03 -0.32782565618E+03  0.75722501620E+03  0.50400001928E-02 0.  1.
       -1    1    3    3    0  502  0.62253599182E+03 -0.27994464305E+03 -0.72159583599E+03  0.99328778047E+03  0.50400001928E-02 0. -1.
</event>
<event>
 5   0  0.3459485E-04  0.1894006E+04  0.7818609E-02  0.8657846E-01
        2   -1    0    0  501    0  0.00000000000E+00  0.00000000000E+00  0.12163193417E+04  0.12163193417E+04  0.25500000920E-02 0.  1.
       -2   -1    0    0    0  501  0.00000000000E+00  0.00000000000E+00 -0.73731828063E+03  0.73731828064E+03  0.25500000920E-02 0. -1.
    10030    2    1    2    0    0  0.00000000000E+00  0.00000000000E+00  0.47900106109E+03  0.19536376224E+04  0.18940057928E+04 0.  0.
        3    1    3    3  502    0 -0.83473485092E+03 -0.42735687242E+03  0.37555606484E+03  0.10101774774E+04  0.10100000352E+00 0.  1.
       -3    1    3    3    0  502  0.83473485092E+03  0.42735687242E+03  0.10344499626E+03  0.94346014500E+03  0.10100000352E+00 0. -1.
</event>
<event>
 5   0  0.1694830E-04  0.1877746E+04  0.7818609E-02  0.8666014E-01
       -1   -1    0    0    0  501  0.00000000000E+00  0.00000000000E+00  0.10375861474E+04  0.10375861475E+04  0.50400001928E-02 0.  1.
        1   -1    0    0  501    0  0.00000000000E+00  0.00000000000E+00 -0.84955128251E+03  0.84955128253E+03  0.50400001928E-02 0. -1.
    10030    2    1    2    0    0  0.00000000000E+00  0.00000000000E+00  0.18803486493E+03  0.18871374300E+04  0.18777461408E+04 0.  0.
        1    1    3    3  502    0  0.49142107527E+03  0.53298611261E+03  0.69358626349E+03  0.10033099094E+04  0.50400001928E-02 0. -1.
       -1    1    3    3    0  502 -0.49142107527E+03 -0.53298611261E+03 -0.50555139856E+03  0.88382752054E+03  0.50400001928E-02 0.  1.
</event>
<event>
 5   0  0.1782613E-04  0.1878611E+04  0.7818609E-02  0.8665577E-01
        1   -1    0    0  501    0  0.00000000000E+00  0.00000000000E+00  0.13714063655E+04  0.13714063655E+04  0.50400001928E-02 0. -1.
       -1   -1    0    0    0  501  0.00000000000E+00  0.00000000000E+00 -0.64335070462E+03  0.64335070464E+03  0.50400001928E-02 0.  1.
    10030    2    1    2    0    0  0.00000000000E+00  0.00000000000E+00  0.72805566086E+03  0.20147570701E+04  0.18786114570E+04 0.  0.
        3    1    3    3  502    0 -0.50649845046E+03 -0.40392777394E+03 -0.36540799217E+03  0.74378850342E+03  0.10100000352E+00 0.  1.
       -3    1    3    3    0  502  0.50649845046E+03  0.40392777394E+03  0.10934636530E+04  0.12709685667E+04  0.10100000352E+00 0. -1.
</event>
<event>
 5   0  0.3720978E-04  0.1935960E+04  0.7818609E-02  0.8637161E-01
        2   -1    0    0  501    0  0.00000000000E+00  0.00000000000E+00  0.12003766392E+04  0.12003766393E+04  0.25500000920E-02 0.  1.
       -2   -1    0    0    0  501  0.00000000000E+00  0.00000000000E+00 -0.78057642152E+03  0.78057642153E+03  0.25500000920E-02 0. -1.
    10030    2    1    2    0    0  0.00000000000E+00  0.00000000000E+00  0.41980021773E+03  0.19809530608E+04  0.19359604351E+04 0.  0.
        1    1    3    3  502    0  0.27617785523E+03  0.43096605043E+03 -0.63076511410E+03  0.81232418008E+03  0.50400001928E-02 0. -1.
       -1    1    3    3    0  502 -0.27617785523E+03 -0.43096605043E+03  0.10505653318E+04  0.11686288807E+04  0.50400001928E-02 0.  1.
</event>
<event>
 5   0  0.1758946E-04  0.2045547E+04  0.7818609E-02  0.8585617E-01
        1   -1    0    0  501    0  0.00000000000E+00  0.00000000000E+00  0.14238662146E+04  0.14238662146E+04  0.50400001928E-02 0. -1.
       -1   -1    0    0    0  501  0.00000000000E+00  0.00000000000E+00 -0.73466552575E+03  0.73466552576E+03  0.50400001928E-02 0.  1.
    10030    2    1    2    0    0  0.00000000000E+00  0.00000000000E+00  0.68920068889E+03  0.21585317404E+04  0.20455467936E+04 0.  0.
        2    1    3    3  502    0 -0.55872427343E+03 -0.10731666314E+03 -0.55227192656E+03  0.79290223911E+03  0.25500000920E-02 0.  1.
       -2    1    3    3    0  502  0.55872427343E+03  0.10731666314E+03  0.12414726154E+04  0.13656295013E+04  0.25500000920E-02 0. -1.
</event>
<event>
 5   0  0.3720978E-04  0.1880055E+04  0.7818609E-02  0.8664848E-01
       -2   -1    0    0    0  501  0.00000000000E+00  0.00000000000E+00  0.50665630664E+03  0.50665630665E+03  0.25500000920E-02 0.  1.
        2   -1    0    0  501    0  0.00000000000E+00  0.00000000000E+00 -0.17440853203E+04  0.17440853203E+04  0.25500000920E-02 0. -1.
    10030    2    1    2    0    0  0.00000000000E+00  0.00000000000E+00 -0.12374290137E+04  0.22507416270E+04  0.18800551342E+04 0.  0.
        1    1    3    3  502    0  0.31553165833E+03  0.53266986428E+03 -0.14655400042E+04  0.15909446614E+04  0.50400001928E-02 0. -1.
       -1    1    3    3    0  502 -0.31553165833E+03 -0.53266986428E+03  0.22811099054E+03  0.65979696555E+03  0.50400001928E-02 0.  1.
</event>
<event>
 5   0  0.1287000E-04  0.1899459E+04  0.7818609E-02  0.8655126E-01
       -4   -1    0    0    0  501  0.00000000000E+00  0.00000000000E+00  0.60020216018E+03  0.60020350381E+03  0.12699999809E+01 0.  1.
        4   -1    0    0  501    0  0.00000000000E+00  0.00000000000E+00 -0.15028001140E+04  0.15028006506E+04  0.12699999809E+01 0. -1.
    10030    2    1    2    0    0  0.00000000000E+00  0.00000000000E+00 -0.90259795383E+03  0.21030041545E+04  0.18994587143E+04 0.  0.
        1    1    3    3  502    0 -0.33520952885E+03 -0.63767368873E+03 -0.11364802977E+04  0.13455781763E+04  0.50400001928E-02 0. -1.
       -1    1    3    3    0  502  0.33520952885E+03  0.63767368873E+03  0.23388234387E+03  0.75742597812E+03  0.50400001928E-02 0.  1.
</event>
<event>
 5   0  0.3623359E-04  0.1853425E+04  0.7818609E-02  0.8678394E-01
       -2   -1    0    0    0  501  0.00000000000E+00  0.00000000000E+00  0.84714223803E+03  0.84714223804E+03  0.25500000920E-02 0. -1.
        2   -1    0    0  501    0  0.00000000000E+00  0.00000000000E+00 -0.10137563534E+04  0.10137563534E+04  0.25500000920E-02 0.  1.
    10030    2    1    2    0    0  0.00000000000E+00  0.00000000000E+00 -0.16661411539E+03  0.18608985915E+04  0.18534247501E+04 0.  0.
        5    1    3    3  502    0 -0.45400530300E+03  0.74098226772E+03 -0.40647171139E+03  0.95938359293E+03  0.46999998093E+01 0.  1.
       -5    1    3    3    0  502  0.45400530300E+03 -0.74098226772E+03  0.23985759600E+03  0.90151499853E+03  0.46999998093E+01 0. -1.
</event>
<event>
 5   0  0.1813834E-04  0.1915214E+04  0.7818609E-02  0.8647320E-01
       -1   -1    0    0    0  501  0.00000000000E+00  0.00000000000E+00  0.91052927294E+03  0.91052927296E+03  0.50400001928E-02 0. -1.
        1   -1    0    0  501    0  0.00000000000E+00  0.00000000000E+00 -0.10071185589E+04  0.10071185589E+04  0.50400001928E-02 0.  1.
    10030    2    1    2    0    0  0.00000000000E+00  0.00000000000E+00 -0.96589285993E+02  0.19176478319E+04  0.19152137523E+04 0.  0.
        5    1    3    3  502    0 -0.73080785548E+03 -0.27492914309E+03  0.50677683362E+03  0.93086572847E+03  0.46999998093E+01 0.  1.
       -5    1    3    3    0  502  0.73080785548E+03  0.27492914309E+03 -0.60336611961E+03  0.98678210343E+03  0.46999998093E+01 0. -1.
</event>
<event>
 5   0  0.1694830E-04  0.1875589E+04  0.7818609E-02  0.8667104E-01
       -1   -1    0    0    0  501  0.00000000000E+00  0.00000000000E+00  0.12332584035E+04  0.12332584035E+04  0.50400001928E-02 0. -1.
        1   -1    0    0  501    0  0.00000000000E+00  0.00000000000E+00 -0.71311772743E+03  0.71311772745E+03  0.50400001928E-02 0.  1.
    10030    2    1    2    0    0  0.00000000000E+00  0.00000000000E+00  0.52014067607E+03  0.19463761310E+04  0.18755888996E+04 0.  0.
        1    1    3    3  502    0  0.44370450082E+03 -0.45293611792E+01 -0.59728504538E+03  0.74407232486E+03  0.50400001928E-02 0.  1.
       -1    1    3    3    0  502 -0.44370450082E+03  0.45293611792E+01  0.11174257215E+04  0.12023038061E+04  0.50400001928E-02 0. -1.
</event>
<event>
 5   0  0.1782613E-04  0.1846475E+04  0.7818609E-02  0.8681968E-01
        1   -1    0    0  501    0  0.00000000000E+00  0.00000000000E+00  0.74740389669E+03  0.74740389671E+03  0.50400001928E-02 0. -1.
       -1   -1    0    0    0  501  0.00000000000E+00  0.00000000000E+00 -0.11404378911E+04  0.11404378911E+04  0.50400001928E-02 0.  1.
    10030    2    1    2    0    0  0.00000000000E+00  0.00000000000E+00 -0.39303399437E+03  0.18878417878E+04  0.18464752625E+04 0.  0.
        3    1    3    3  502    0 -0.84200377155E+03 -0.85724932501E+02  0.18059394758E+03  0.86540932481E+03  0.10100000352E+00 0. -1.
       -3    1    3    3    0  502  0.84200377155E+03  0.85724932501E+02 -0.57362794195E+03  0.10224324630E+04  0.10100000352E+00 0.  1.
</event>
<event>
 5   0  0.1782613E-04  0.1901038E+04  0.7818609E-02  0.8654340E-01
        1   -1    0    0  501    0  0.00000000000E+00  0.00000000000E+00  0.18075375795E+04  0.18075375795E+04  0.50400001928E-02 0. -1.
       -1   -1    0    0    0  501  0.00000000000E+00  0.00000000000E+00 -0.49984349889E+03  0.49984349891E+03  0.50400001928E-02 0.  1.
    10030    2    1    2    0    0  0.00000000000E+00  0.00000000000E+00  0.13076940806E+04  0.23073810784E+04  0.19010375148E+04 0.  0.
        3    1    3    3  502    0 -0.37258785305E+03 -0.66797230655E+03  0.13388111311E+04  0.15418897384E+04  0.10100000352E+00 0. -1.
       -3    1    3    3    0  502  0.37258785305E+03  0.66797230655E+03 -0.31117050473E+02  0.76549133999E+03  0.10100000352E+00 0.  1.
</event>
<event>
 5   0  0.3720978E-04  0.2005223E+04  0.7818609E-02  0.8604183E-01
       -2   -1    0    0    0  501  0.00000000000E+00  0.00000000000E+00  0.10979587039E+04  0.10979587039E+04  0.25500000920E-02 0. -1.
        2   -1    0    0  501    0  0.00000000000E+00  0.00000000000E+00 -0.91554441948E+03  0.91554441948E+03  0.25500000920E-02 0.  1.
    10030    2    1    2    0    0  0.00000000000E+00  0.00000000000E+00  0.18241428440E+03  0.20135031234E+04  0.20052231439E+04 0.  0.
        1    1    3    3  502    0  0.39253296342E+02 -0.96989256443E+03  0.34323668459E+03  0.10295842994E+04  0.50400001928E-02 0. -1.
       -1    1    3    3    0  502 -0.39253296342E+02  0.96989256443E+03 -0.16082240019E+03  0.98391882401E+03  0.50400001928E-02 0.  1.
</event>
<event>
 5   0  0.1711979E-04  0.1967017E+04  0.7818609E-02  0.8622199E-01
       -1   -1    0    0    0  501  0.00000000000E+00  0.00000000000E+00  0.67734779527E+03  0.67734779529E+03  0.50400001928E-02 0. -1.
        1   -1    0    0  501    0  0.00000000000E+00  0.00000000000E+00 -0.14280532369E+04  0.14280532369E+04  0.50400001928E-02 0.  1.
    10030    2    1    2    0    0  0.00000000000E+00  0.00000000000E+00 -0.75070544162E+03  0.21054010322E+04  0.19670167377E+04 0.  0.
        4    1    3    3  502    0  0.74739793491E+03  0.56995520308E+03 -0.65440897792E+02  0.94219781927E+03  0.12699999809E+01 0. -1.
       -4    1    3    3    0  502 -0.74739793491E+03 -0.56995520308E+03 -0.68526454383E+03  0.11632032129E+04  0.12699999809E+01 0.  1.
</event>
<event>
 5   0  0.1694830E-04  0.1635007E+04  0.7818609E-02  0.8799326E-01
       -1   -1    0    0    0  501  0.00000000000E+00  0.00000000000E+00  0.86097440830E+03  0.86097440832E+03  0.50400001928E-02 0.  1.
        1   -1    0    0  501    0  0.00000000000E+00  0.00000000000E+00 -0.77622750907E+03  0.77622750909E+03  0.50400001928E-02 0. -1.
    10030    2    1    2    0    0  0.00000000000E+00  0.00000000000E+00  0.84746899233E+02  0.16372019174E+04  0.16350070585E+04 0.  0.
        1    1    3    3  502    0 -0.57543722061E+03 -0.45382110092E+03 -0.32037026412E+03  0.79982416359E+03  0.50400001928E-02 0. -1.
       -1    1    3    3    0  502  0.57543722061E+03  0.45382110092E+03  0.40511716335E+03  0.83737775381E+03  0.50400001928E-02 0.  1.
</event>
<event>
 5   0  0.3535876E-04  0.1541209E+04  0.7818609E-02  0.8857503E-01
       -2   -1    0    0    0  501  0.00000000000E+00  0.00000000000E+00  0.53126390536E+03  0.53126390536E+03  0.25500000920E-02 0.  1.
        2   -1    0    0  501    0  0.00000000000E+00  0.00000000000E+00 -0.11177705043E+04  0.11177705043E+04  0.25500000920E-02 0. -1.
    10030    2    1    2    0    0  0.00000000000E+00  0.00000000000E+00 -0.58650659897E+03  0.16490344097E+04  0.15412087768E+04 0.  0.
        2    1    3    3  502    0  0.31872455679E+03  0.60271715403E+03  0.91007204465E+02  0.68784854592E+03  0.25500000920E-02 0.  1.
       -2    1    3    3    0  502 -0.31872455679E+03 -0.60271715403E+03 -0.67751380343E+03  0.96118586377E+03  0.25500000920E-02 0. -1.
</event>
<event>
 5   0  0.1782613E-04  0.1863120E+04  0.7818609E-02  0.8673435E-01
       -1   -1    0    0    0  501  0.00000000000E+00  0.00000000000E+00  0.57289172264E+03  0.57289172266E+03  0.50400001928E-02 0. -1.
        1   -1    0    0  501    0  0.00000000000E+00  0.00000000000E+00 -0.15147783175E+04  0.15147783175E+04  0.50400001928E-02 0.  1.
    10030    2    1    2    0    0  0.00000000000E+00  0.00000000000E+00 -0.94188659483E+03  0.20876700401E+04  0.18631199207E+04 0.  0.
        3    1    3    3  502    0  0.50659267712E+03 -0.44422895038E+03 -0.11917705882E+04  0.13690480803E+04  0.10100000352E+00 0.  1.
       -3    1    3    3    0  502 -0.50659267712E+03  0.44422895038E+03  0.24988399341E+03  0.71862195988E+03  0.10100000352E+00 0. -1.
</event>
<event>
 5   0  0.3459485E-04  0.1893276E+04  0.7818609E-02  0.8658211E-01
        2   -1    0    0  501    0  0.00000000000E+00  0.00000000000E+00  0.62517053437E+03  0.62517053438E+03  0.25500000920E-02 0.  1.
       -2   -1    0    0    0  501  0.00000000000E+00  0.00000000000E+00 -0.14334064529E+04  0.14334064529E+04  0.25500000920E-02 0. -1.
    10030    2    1    2    0    0  0.00000000000E+00  0.00000000000E+00 -0.80823591848E+03  0.20585769872E+04  0.18932759737E+04 0.  0.
        3    1    3    3  502    0  0.48441018416E+03 -0.62904368589E+03 -0.96466190623E+03  0.12493685560E+04  0.10100000352E+00 0. -1.
       -3    1    3    3    0  502 -0.48441018416E+03  0.62904368589E+03  0.15642598775E+03  0.80920843120E+03  0.10100000352E+00 0.  1.
</event>
<event>
 5   0  0.1694830E-04  0.1893555E+04  0.7818609E-02  0.8658071E-01
        1   -1    0    0  501    0  0.00000000000E+00  0.00000000000E+00  0.14126146602E+04  0.14126146602E+04  0.50400001928E-02 0. -1.
       -1   -1    0    0    0  501  0.00000000000E+00  0.00000000000E+00 -0.63455939546E+03  0.63455939548E+03  0.50400001928E-02 0.  1.
    10030    2    1    2    0    0  0.00000000000E+00  0.00000000000E+00  0.77805526473E+03  0.20471740557E+04  0.18935552855E+04 0.  0.
        1    1    3    3  502    0  0.75395854598E+03  0.44929465277E+03  0.51609055150E+01  0.87769345960E+03  0.50400001928E-02 0.  1.
       -1    1    3    3    0  502 -0.75395854598E+03 -0.44929465277E+03  0.77289435922E+03  0.11694805961E+04  0.50400001928E-02 0. -1.
</event>
<event>
 5   0  0.3535876E-04  0.1887660E+04  0.7818609E-02  0.8661023E-01
        2   -1    0    0  501    0  0.00000000000E+00  0.00000000000E+00  0.12789526776E+04  0.12789526776E+04  0.25500000920E-02 0. -1.
       -2   -1    0    0    0  501  0.00000000000E+00  0.00000000000E+00 -0.69651888733E+03  0.69651888733E+03  0.25500000920E-02 0.  1.
    10030    2    1    2    0    0  0.00000000000E+00  0.00000000000E+00  0.58243379029E+03  0.19754715650E+04  0.18876596049E+04 0.  0.
        2    1    3    3  502    0  0.17596067824E+03 -0.78468399130E+03  0.80829000885E+03  0.11401858905E+04  0.25500000920E-02 0. -1.
       -2    1    3    3    0  502 -0.17596067824E+03  0.78468399130E+03 -0.22585621855E+03  0.83528567446E+03  0.25500000920E-02 0.  1.
</event>
<event>
 5   0  0.1758946E-04  0.1920026E+04  0.7818609E-02  0.8644952E-01
        1   -1    0    0  501    0  0.00000000000E+00  0.00000000000E+00  0.16183985793E+04  0.16183985793E+04  0.50400001928E-02 0.  1.
       -1   -1    0    0    0  501  0.00000000000E+00  0.00000000000E+00 -0.56946716582E+03  0.56946716584E+03  0.50400001928E-02 0. -1.
    10030    2    1    2    0    0  0.00000000000E+00  0.00000000000E+00  0.10489314135E+04  0.21878657451E+04  0.19200258875E+04 0.  0.
        2    1    3    3  502    0 -0.77533113151E+03 -0.35341331346E+03  0.10284093046E+04  0.13355392287E+04  0.25500000920E-02 0.  1.
       -2    1    3    3    0  502  0.77533113151E+03  0.35341331346E+03  0.20522108851E+02  0.85232651641E+03  0.25500000920E-02 0. -1.
</event>
<event>
 5   0  0.3459485E-04  0.1889097E+04  0.7818609E-02  0.8660302E-01
       -2   -1    0    0    0  501  0.00000000000E+00  0.00000000000E+00  0.76940435361E+03  0.76940435362E+03  0.25500000920E-02 0. -1.
        2   -1    0    0  501    0  0.00000000000E+00  0.00000000000E+00 -0.11595620888E+04  0.11595620888E+04  0.25500000920E-02 0.  1.
    10030    2    1    2    0    0  0.00000000000E+00  0.00000000000E+00 -0.39015773517E+03  0.19289664424E+04  0.18890972653E+04 0.  0.
        3    1    3    3  502    0  0.28308436054E+03  0.64138261735E+02 -0.11128934906E+04  0.11501227776E+04  0.10100000352E+00 0.  1.
       -3    1    3    3    0  502 -0.28308436054E+03 -0.64138261735E+02  0.72273575547E+03  0.77884366482E+03  0.10100000352E+00 0. -1.
</event>
<event>
 5   0  0.3623359E-04  0.1904725E+04  0.7818609E-02  0.8652508E-01
       -2   -1    0    0    0  501  0.00000000000E+00  0.00000000000E+00  0.85230670780E+03  0.85230670781E+03  0.25500000920E-02 0. -1.
        2   -1    0    0  501    0  0.00000000000E+00  0.00000000000E+00 -0.10641646532E+04  0.10641646532E+04  0.25500000920E-02 0.  1.
    10030    2    1    2    0    0  0.00000000000E+00  0.00000000000E+00 -0.21185794538E+03  0.19164713610E+04  0.19047253578E+04 0.  0.
        5    1    3    3  502    0  0.28848577279E+03  0.84977922859E+03  0.21482178661E+03  0.92277801688E+03  0.46999998093E+01 0.  1.
       -5    1    3    3    0  502 -0.28848577279E+03 -0.84977922859E+03 -0.42667973199E+03  0.99369334411E+03  0.46999998093E+01 0. -1.
</event>
<event>
 5   0  0.1758946E-04  0.1948574E+04  0.7818609E-02  0.8631049E-01
       -1   -1    0    0    0  501  0.00000000000E+00  0.00000000000E+00  0.69143491079E+03  0.69143491081E+03  0.50400001928E-02 0. -1.
        1   -1    0    0  501    0  0.00000000000E+00  0.00000000000E+00 -0.13728476467E+04  0.13728476467E+04  0.50400001928E-02 0.  1.
    10030    2    1    2    0    0  0.00000000000E+00  0.00000000000E+00 -0.68141273595E+03  0.20642825576E+04  0.19485736221E+04 0.  0.
        2    1    3    3  502    0 -0.86289242391E+03 -0.26324018697E+03  0.49048164302E+02  0.90348461731E+03  0.25500000920E-02 0. -1.
       -2    1    3    3    0  502  0.86289242391E+03  0.26324018697E+03 -0.73046090025E+03  0.11607979402E+04  0.25500000920E-02 0.  1.
</event>
<event>
 5   0  0.3459485E-04  0.1893407E+04  0.7818609E-02  0.8658145E-01
        2   -1    0    0  501    0  0.00000000000E+00  0.00000000000E+00  0.12704035101E+04  0.12704035101E+04  0.25500000920E-02 0.  1.
       -2   -1    0    0    0  501  0.00000000000E+00  0.00000000000E+00 -0.70548261738E+03  0.70548261738E+03  0.25500000920E-02 0. -1.
    10030    2    1    2    0    0  0.00000000000E+00  0.00000000000E+00  0.56492089270E+03  0.19758861275E+04  0.18934070808E+04 0.  0.
        3    1    3    3  502    0 -0.14114795043E+03 -0.40397009596E+03 -0.59879777646E+03  0.73598462594E+03  0.10100000352E+00 0. -1.
       -3    1    3    3    0  502  0.14114795043E+03  0.40397009596E+03  0.11637186692E+04  0.12399015015E+04  0.10100000352E+00 0.  1.
</event>
<event>
 5   0  0.3720978E-04  0.1898029E+04  0.7818609E-02  0.8655838E-01
       -2   -1    0    0    0  501  0.00000000000E+00  0.00000000000E+00  0.85821199349E+03  0.85821199349E+03  0.25500000920E-02 0.  1.
        2   -1    0    0  501    0  0.00000000000E+00  0.00000000000E+00 -0.10494248168E+04  0.10494248168E+04  0.25500000920E-02 0. -1.
    10030    2    1    2    0    0  0.00000000000E+00  0.00000000000E+00 -0.19121282334E+03  0.19076368103E+04  0.18980294667E+04 0.  0.
        1    1    3    3  502    0  0.47556525482E+03 -0.50562209749E+03 -0.74603974975E+03  0.10190148798E+04  0.50400001928E-02 0. -1.
       -1    1    3    3    0  502 -0.47556525482E+03  0.50562209749E+03  0.55482692641E+03  0.88862193050E+03  0.50400001928E-02 0.  1.
</event>
<event>
 5   0  0.1813834E-04  0.1782730E+04  0.7818609E-02  0.8715538E-01
        1   -1    0    0  501    0  0.00000000000E+00  0.00000000000E+00  0.66938388892E+03  0.66938388894E+03  0.50400001928E-02 0. -1.
       -1   -1    0    0    0  501  0.00000000000E+00  0.00000000000E+00 -0.11869591144E+04  0.11869591144E+04  0.50400001928E-02 0.  1.
    10030    2    1    2    0    0  0.00000000000E+00  0.00000000000E+00 -0.51757522551E+03  0.18563430034E+04  0.17827297137E+04 0.  0.
        5    1    3    3  502    0 -0.29065653170E+03  0.60092800836E+02  0.61640420439E+03  0.68415538975E+03  0.46999998093E+01 0. -1.
       -5    1    3    3    0  502  0.29065653170E+03 -0.60092800836E+02 -0.11339794299E+04  0.11721876136E+04  0.46999998093E+01 0.  1.
</event>
<event>
 5   0  0.3459485E-04  0.1904699E+04  0.7818609E-02  0.8652521E-01
       -2   -1    0    0    0  501  0.00000000000E+00  0.00000000000E+00  0.80354545211E+03  0.80354545212E+03  0.25500000920E-02 0.  1.
        2   -1    0    0  501    0  0.00000000000E+00  0.00000000000E+00 -0.11287099511E+04  0.11287099511E+04  0.25500000920E-02 0. -1.
    10030    2    1    2    0    0  0.00000000000E+00  0.00000000000E+00 -0.32516449899E+03  0.19322554032E+04  0.19046991867E+04 0.  0.
        3    1    3    3  502    0 -0.23357165123E+03  0.36983759273E+03  0.69560818700E+03  0.82170938980E+03  0.10100000352E+00 0.  1.
       -3    1    3    3    0  502  0.23357165123E+03 -0.36983759273E+03 -0.10207726860E+04  0.11105460134E+04  0.10100000352E+00 0. -1.
</event>
<event>
 5   0  0.1711979E-04  0.1966218E+04  0.7818609E-02  0.8622580E-01
       -1   -1    0    0    0  501  0.00000000000E+00  0.00000000000E+00  0.15493307404E+04  0.15493307404E+04  0.50400001928E-02 0. -1.
        1   -1    0    0  501    0  0.00000000000E+00  0.00000000000E+00 -0.62381969339E+03  0.62381969341E+03  0.50400001928E-02 0.  1.
    10030    2    1    2    0    0  0.00000000000E+00  0.00000000000E+00  0.92551104697E+03  0.21731504338E+04  0.19662177168E+04 0.  0.
        4    1    3    3  502    0  0.81263236960E+03 -0.36701423130E+03  0.51383029334E+01  0.89168314393E+03  0.12699999809E+01 0.  1.
       -4    1    3    3    0  502 -0.81263236960E+03  0.36701423130E+03  0.92037274403E+03  0.12814672899E+04  0.12699999809E+01 0. -1.
</event>
<event>
 5   0  0.1694830E-04  0.1884825E+04  0.7818609E-02  0.8662447E-01
        1   -1    0    0  501    0  0.00000000000E+00  0.00000000000E+00  0.67904721857E+03  0.67904721859E+03  0.50400001928E-02 0. -1.
       -1   -1    0    0    0  501  0.00000000000E+00  0.00000000000E+00 -0.13079232279E+04  0.13079232279E+04  0.50400001928E-02 0.  1.
    10030    2    1    2    0    0  0.00000000000E+00  0.00000000000E+00 -0.62887600933E+03  0.19869704465E+04  0.18848253288E+04 0.  0.
        1    1    3    3  502    0  0.19702890671E+02  0.78130770180E+03 -0.86958040113E+03  0.11691877535E+04  0.50400001928E-02 0.  1.
       -1    1    3    3    0  502 -0.19702890671E+02 -0.78130770180E+03  0.24070439180E+03  0.81778269305E+03  0.50400001928E-02 0. -1.
</event>
<event>
 5   0  0.1782613E-04  0.1877464E+04  0.7818609E-02  0.8666156E-01
        1   -1    0    0  501    0  0.00000000000E+00  0.00000000000E+00  0.18139519533E+04  0.18139519533E+04  0.50400001928E-02 0.  1.
       -1   -1    0    0    0  501  0.00000000000E+00  0.00000000000E+00 -0.48579992838E+03  0.48579992841E+03  0.50400001928E-02 0. -1.
    10030    2    1    2    0    0  0.00000000000E+00  0.00000000000E+00  0.13281520250E+04  0.22997518818E+04  0.18774639587E+04 0.  0.
        3    1    3    3  502    0  0.99613540238E+02 -0.36692154889E+02  0.18065758785E+04  0.18096921248E+04  0.10100000352E+00 0.  1.
       -3    1    3    3    0  502 -0.99613540238E+02  0.36692154889E+02 -0.47842385350E+03  0.49005975699E+03  0.10100000352E+00 0. -1.
</event>
<event>
 5   0  0.3516539E-04  0.1899380E+04  0.7818609E-02  0.8655165E-01
        2   -1    0    0  501    0  0.00000000000E+00  0.00000000000E+00  0.11057553771E+04  0.11057553771E+04  0.25500000920E-02 0. -1.
       -2   -1    0    0    0  501  0.00000000000E+00  0.00000000000E+00 -0.81565181437E+03  0.81565181437E+03  0.25500000920E-02 0.  1.
    10030    2    1    2    0    0  0.00000000000E+00  0.00000000000E+00  0.29010356274E+03  0.19214071915E+04  0.18993802985E+04 0.  0.
        4    1    3    3  502    0  0.63056607842E+02 -0.79432222130E+02 -0.81015719535E+03  0.81648141913E+03  0.12699999809E+01 0.  1.
       -4    1    3    3    0  502 -0.63056607842E+02  0.79432222130E+02  0.11002607581E+04  0.11049257723E+04  0.12699999809E+01 0. -1.
</event>
<event>
 5   0  0.3516539E-04  0.1895207E+04  0.7818609E-02  0.8657246E-01
        2   -1    0    0  501    0  0.00000000000E+00  0.00000000000E+00  0.14575937104E+04  0.14575937104E+04  0.25500000920E-02 0. -1.
       -2   -1    0    0    0  501  0.00000000000E+00  0.00000000000E+00 -0.61605126932E+03  0.61605126933E+03  0.25500000920E-02 0.  1.
    10030    2    1    2    0    0  0.00000000000E+00  0.00000000000E+00  0.84154244104E+03  0.20736449797E+04  0.18952070657E+04 0.  0.
        4    1    3    3  502    0  0.59255289809E+03 -0.10895970858E+03  0.12210444072E+04  0.13615954657E+04  0.12699999809E+01 0. -1.
       -4    1    3    3    0  502 -0.59255289809E+03  0.10895970858E+03 -0.37950196614E+03  0.71204951396E+03  0.12699999809E+01 0.  1.
</event>
<event>
 5   0  0.1758946E-04  0.1879375E+04  0.7818609E-02  0.8665191E-01
       -1   -1    0    0    0  501  0.00000000000E+00  0.00000000000E+00  0.61939103834E+03  0.61939103837E+03  0.50400001928E-02 0. -1.
        1   -1    0    0  501    0  0.00000000000E+00  0.00000000000E+00 -0.14256139961E+04  0.14256139961E+04  0.50400001928E-02 0.  1.
    10030    2    1    2    0    0  0.00000000000E+00  0.00000000000E+00 -0.80622295773E+03  0.20450050344E+04  0.18793749316E+04 0.  0.
        2    1    3    3  502    0  0.93968247743E+03  0.19261130082E+01 -0.40052158568E+03  0.10214814775E+04  0.25500000920E-02 0.  1.
       -2    1    3    3    0  502 -0.93968247743E+03 -0.19261130082E+01 -0.40570137204E+03  0.10235235569E+04  0.25500000920E-02 0. -1.
</event>
<event>
 5   0  0.1782613E-04  0.1891028E+04  0.7818609E-02  0.8659335E-01
       -1   -1    0    0    0  501  0.00000000000E+00  0.00000000000E+00  0.82713430555E+03  0.82713430556E+03  0.50400001928E-02 0. -1.
        1   -1    0    0  501    0  0.00000000000E+00  0.00000000000E+00 -0.10808363505E+04  0.10808363505E+04  0.50400001928E-02 0.  1.
    10030    2    1    2    0    0  0.00000000000E+00  0.00000000000E+00 -0.25370204492E+03  0.19079706560E+04  0.18910281057E+04 0.  0.
        3    1    3    3  502    0  0.65329368992E+03 -0.48484083077E+03  0.35926804073E+03  0.88934628338E+03  0.10100000352E+00 0. -1.
       -3    1    3    3    0  502 -0.65329368992E+03  0.48484083077E+03 -0.61297008565E+03  0.10186243727E+04  0.10100000352E+00 0.  1.
</event>
<event>
 5   0  0.1813834E-04  0.1941873E+04  0.7818609E-02  0.8634290E-01
       -1   -1    0    0    0  501  0.00000000000E+00  0.00000000000E+00  0.76351130495E+03  0.76351130497E+03  0.50400001928E-02 0.  1.
        1   -1    0    0  501    0  0.00000000000E+00  0.00000000000E+00 -0.12347138285E+04  0.12347138285E+04  0.50400001928E-02 0. -1.
    10030    2    1    2    0    0  0.00000000000E+00  0.00000000000E+00 -0.47120252357E+03  0.19982251335E+04  0.19418732878E+04 0.  0.
        5    1    3    3  502    0 -0.20285932258E+03 -0.41712005120E+03  0.64211954775E+03  0.79213675932E+03  0.46999998093E+01 0.  1.
       -5    1    3    3    0  502  0.20285932258E+03  0.41712005120E+03 -0.11133220713E+04  0.12060883742E+04  0.46999998093E+01 0. -1.
</event>
<event>
 5   0  0.3535876E-04  0.1879089E+04  0.7818609E-02  0.8665336E-01
       -2   -1    0    0    0  501  0.00000000000E+00  0.00000000000E+00  0.98168293906E+03  0.98168293906E+03  0.25500000920E-02 0.  1.
        2   -1    0    0  501    0  0.00000000000E+00  0.00000000000E+00 -0.89921461569E+03  0.89921461569E+03  0.25500000920E-02 0. -1.
    10030    2    1    2    0    0  0.00000000000E+00  0.00000000000E+00  0.82468323369E+02  0.18808975548E+04  0.18790887651E+04 0.  0.
        2    1    3    3  502    0 -0.18694460299E+03 -0.48245860505E+03  0.82622694289E+03  0.97486694032E+03  0.25500000920E-02 0.  1.
       -2    1    3    3    0  502  0.18694460299E+03  0.48245860505E+03 -0.74375861952E+03  0.90603061443E+03  0.25500000920E-02 0. -1.
</event>
<event>
 5   0  0.3459485E-04  0.2083241E+04  0.7818609E-02  0.8568662E-01
        2   -1    0    0  501    0  0.00000000000E+00  0.00000000000E+00  0.12073173040E+04  0.12073173040E+04  0.25500000920E-02 0.  1.
       -2   -1    0    0    0  501  0.00000000000E+00  0.00000000000E+00 -0.89866485224E+03  0.89866485225E+03  0.25500000920E-02 0. -1.
    10030    2    1    2    0    0  0.00000000000E+00  0.00000000000E+00  0.30865245173E+03  0.21059821562E+04  0.20832413462E+04 0.  0.
        3    1    3    3  502    0  0.86095512401E+03  0.42410369250E+03 -0.25489623175E+03  0.99301549167E+03  0.10100000352E+00 0.  1.
       -3    1    3    3    0  502 -0.86095512401E+03 -0.42410369250E+03  0.56354868348E+03  0.11129666645E+04  0.10100000352E+00 0. -1.
</event>
<event>
 5   0  0.3720978E-04  0.1870509E+04  0.7818609E-02  0.8669677E-01
        2   -1    0    0  501    0  0.00000000000E+00  0.00000000000E+00  0.11807189805E+04  0.11807189805E+04  0.25500000920E-02 0. -1.
       -2   -1    0    0    0  501  0.00000000000E+00  0.00000000000E+00 -0.74082033951E+03  0.74082033952E+03  0.25500000920E-02 0.  1.
    10030    2    1    2    0    0  0.00000000000E+00  0.00000000000E+00  0.43989864098E+03  0.19215393200E+04  0.18705086324E+04 0.  0.
        1    1    3    3  502    0 -0.14928850628E+02 -0.89552493076E+03  0.49657792608E+03  0.10240983395E+04  0.50400001928E-02 0. -1.
       -1    1    3    3    0  502  0.14928850628E+02  0.89552493076E+03 -0.56679285100E+02  0.89744098055E+03  0.50400001928E-02 0.  1.
</event>
<event>
 5   0  0.3535876E-04  0.1919454E+04  0.7818609E-02  0.8645233E-01
        2   -1    0    0  501    0  0.00000000000E+00  0.00000000000E+00  0.66209217132E+03  0.66209217132E+03  0.25500000920E-02 0.  1.
       -2   -1    0    0    0  501  0.00000000000E+00  0.00000000000E+00 -0.13911603606E+04  0.13911603606E+04  0.25500000920E-02 0. -1.
    10030    2    1    2    0    0  0.00000000000E+00  0.00000000000E+00 -0.72906818928E+03  0.20532525319E+04  0.19194544890E+04 0.  0.
        2    1    3    3  502    0 -0.44074342266E+03  0.44659107454E+02  0.54617942538E+03  0.70325042852E+03  0.25500000920E-02 0.  1.
       -2    1    3    3    0  502  0.44074342266E+03 -0.44659107454E+02 -0.12752476147E+04  0.13500021034E+04  0.25500000920E-02 0. -1.
</event>
<event>
 5   0  0.3459485E-04  0.1895874E+04  0.7818609E-02  0.8656913E-01
        2   -1    0    0  501    0  0.00000000000E+00  0.00000000000E+00  0.23823339398E+04  0.23823339398E+04  0.25500000920E-02 0. -1.
       -2   -1    0    0    0  501  0.00000000000E+00  0.00000000000E+00 -0.37718649990E+03  0.37718649991E+03  0.25500000920E-02 0.  1.
    10030    2    1    2    0    0  0.00000000000E+00  0.00000000000E+00  0.20051474399E+04  0.27595204397E+04  0.18958736249E+04 0.  0.
        3    1    3    3  502    0  0.58374140234E+03  0.74631586282E+03  0.96031794735E+03  0.13490559522E+04  0.10100000352E+00 0.  1.
       -3    1    3    3    0  502 -0.58374140234E+03 -0.74631586282E+03  0.10448294926E+04  0.14104644876E+04  0.10100000352E+00 0. -1.
</event>
<event>
 5   0  0.1782613E-04  0.1851549E+04  0.7818609E-02  0.8679357E-01
        1   -1    0    0  501    0  0.00000000000E+00  0.00000000000E+00  0.29944531976E+04  0.29944531976E+04  0.50400001928E-02 0.  1.
       -1   -1    0    0    0  501  0.00000000000E+00  0.00000000000E+00 -0.28621525581E+03  0.28621525586E+03  0.50400001928E-02 0. -1.
    10030    2    1    2    0    0  0.00000000000E+00  0.00000000000E+00  0.27082379418E+04  0.32806684534E+04  0.18515487442E+04 0.  0.
        3    1    3    3  502    0  0.82249063766E+03  0.35898010626E+03  0.95123959546E+03  0.13077516369E+04  0.10100000352E+00 0. -1.
       -3    1    3    3    0  502 -0.82249063766E+03 -0.35898010626E+03  0.17569983463E+04  0.19729168165E+04  0.10100000352E+00 0.  1.
</event>
<event>
 5   0  0.3623359E-04  0.1896553E+04  0.7818609E-02  0.8656574E-01
        2   -1    0    0  501    0  0.00000000000E+00  0.00000000000E+00  0.16655801687E+04  0.16655801687E+04  0.25500000920E-02 0. -1.
       -2   -1    0    0    0  501  0.00000000000E+00  0.00000000000E+00 -0.53988880010E+03  0.53988880011E+03  0.25500000920E-02 0.  1.
    10030    2    1    2    0    0  0.00000000000E+00  0.00000000000E+00  0.11256913686E+04  0.22054689688E+04  0.18965527451E+04 0.  0.
        5    1    3    3  502    0 -0.56995834972E+03 -0.75749059894E+03  0.53529097920E+03  0.10886703130E+04  0.46999998093E+01 0.  1.
       -5    1    3    3    0  502  0.56995834972E+03  0.75749059894E+03  0.59040038938E+03  0.11167986558E+04  0.46999998093E+01 0. -1.
</event>
<event>
 5   0  0.1813834E-04  0.1883128E+04  0.7818609E-02  0.8663300E-01
       -1   -1    0    0    0  501  0.00000000000E+00  0.00000000000E+00  0.33321291848E+03  0.33321291852E+03  0.50400001928E-02 0. -1.
        1   -1    0    0  501    0  0.00000000000E+00  0.00000000000E+00 -0.26605904531E+04  0.26605904531E+04  0.50400001928E-02 0.  1.
    10030    2    1    2    0    0  0.00000000000E+00  0.00000000000E+00 -0.23273775346E+04  0.29938033717E+04  0.18831283651E+04 0.  0.
        5    1    3    3  502    0 -0.55669529798E+03 -0.22432755301E+02  0.43000229213E+02  0.55882375845E+03  0.46999998093E+01 0. -1.
       -5    1    3    3    0  502  0.55669529798E+03  0.22432755301E+02 -0.23703777639E+04  0.24349796132E+04  0.46999998093E+01 0.  1.
</event>
<event>
 5   0  0.1782613E-04  0.1906612E+04  0.7818609E-02  0.8651572E-01
        1   -1    0    0  501    0  0.00000000000E+00  0.00000000000E+00  0.13391973645E+04  0.13391973645E+04  0.50400001928E-02 0.  1.
       -1   -1    0    0    0  501  0.00000000000E+00  0.00000000000E+00 -0.67860949592E+03  0.67860949594E+03  0.50400001928E-02 0. -1.
    10030    2    1    2    0    0  0.00000000000E+00  0.00000000000E+00  0.66058786854E+03  0.20178068604E+04  0.19066117051E+04 0.  0.
        3    1    3    3  502    0 -0.93457781234E+02  0.84789709582E+03 -0.12011849919E+03  0.86144779646E+03  0.10100000352E+00 0. -1.
       -3    1    3    3    0  502  0.93457781234E+02 -0.84789709582E+03  0.78070636772E+03  0.11563590639E+04  0.10100000352E+00 0.  1.
</event>
<event>
 5   0  0.3459485E-04  0.1894772E+04  0.7818609E-02  0.8657463E-01
        2   -1    0    0  501    0  0.00000000000E+00  0.00000000000E+00  0.15124014703E+04  0.15124014703E+04  0.25500000920E-02 0.  1.
       -2   -1    0    0    0  501  0.00000000000E+00  0.00000000000E+00 -0.59345383688E+03  0.59345383688E+03  0.25500000920E-02 0. -1.
    10030    2    1    2    0    0  0.00000000000E+00  0.00000000000E+00  0.91894763343E+03  0.21058553072E+04  0.18947722348E+04 0.  0.
        3    1    3    3  502    0  0.40789923413E+03 -0.27852337668E+03 -0.43903432827E+03  0.66083901833E+03  0.10100000352E+00 0. -1.
       -3    1    3    3    0  502 -0.40789923413E+03  0.27852337668E+03  0.13579819617E+04  0.14450162888E+04  0.10100000352E+00 0.  1.
</event>
<event>
 5   0  0.1694830E-04  0.1859256E+04  0.7818609E-02  0.8675407E-01
       -1   -1    0    0    0  501  0.00000000000E+00  0.00000000000E+00  0.11016182231E+04  0.11016182231E+04  0.50400001928E-02 0. -1.
        1   -1    0    0  501    0  0.00000000000E+00  0.00000000000E+00 -0.78448969268E+03  0.78448969269E+03  0.50400001928E-02 0.  1.
    10030    2    1    2    0    0  0.00000000000E+00  0.00000000000E+00  0.31712853038E+03  0.18861079158E+04  0.18592559171E+04 0.  0.
        1    1    3    3  502    0  0.20682202813E+03  0.60817440844E+03  0.84024889286E+03  0.10576718132E+04  0.50400001928E-02 0. -1.
       -1    1    3    3    0  502 -0.20682202813E+03 -0.60817440844E+03 -0.52312036248E+03  0.82843610259E+03  0.50400001928E-02 0.  1.
</event>
<event>
 5   0  0.1782613E-04  0.2180782E+04  0.7818609E-02  0.8526470E-01
       -1   -1    0    0    0  501  0.00000000000E+00  0.00000000000E+00  0.12030266358E+04  0.12030266358E+04  0.50400001928E-02 0.  1.
        1   -1    0    0  501    0  0.00000000000E+00  0.00000000000E+00 -0.98830118902E+03  0.98830118903E+03  0.50400001928E-02 0. -1.
    10030    2    1    2    0    0  0.00000000000E+00  0.00000000000E+00  0.21472544675E+03  0.21913278248E+04  0.21807821116E+04 0.  0.
        3    1    3    3  502    0  0.44324384149E+03 -0.45464320139E+03 -0.78337024061E+03  0.10083821139E+04  0.10100000352E+00 0. -1.
       -3    1    3    3    0  502 -0.44324384149E+03  0.45464320139E+03  0.99809568736E+03  0.11829457109E+04  0.10100000352E+00 0.  1.
</event>
<event>
 5   0  0.1758946E-04  0.1892595E+04  0.7818609E-02  0.8658551E-01
       -1   -1    0    0    0  501  0.00000000000E+00  0.00000000000E+00  0.60251187167E+03  0.60251187170E+03  0.50400001928E-02 0. -1.
        1   -1    0    0  501    0  0.00000000000E+00  0.00000000000E+00 -0.14862423484E+04  0.14862423484E+04  0.50400001928E-02 0.  1.
    10030    2    1    2    0    0  0.00000000000E+00  0.00000000000E+00 -0.88373047671E+03  0.20887542201E+04  0.18925946836E+04 0.  0.
        2    1    3    3  502    0  0.20369929989E+03  0.66401331472E+03 -0.11511855208E+04  0.13444832429E+04  0.25500000920E-02 0.  1.
       -2    1    3    3    0  502 -0.20369929989E+03 -0.66401331472E+03  0.26745504414E+03  0.74427097723E+03  0.25500000920E-02 0. -1.
</event>
<event>
 5   0  0.1813834E-04  0.1872102E+04  0.7818609E-02  0.8668869E-01
        1   -1    0    0  501    0  0.00000000000E+00  0.00000000000E+00  0.71851601781E+03  0.71851601783E+03  0.50400001928E-02 0.  1.
       -1   -1    0    0    0  501  0.00000000000E+00  0.00000000000E+00 -0.12194458195E+04  0.12194458195E+04  0.50400001928E-02 0. -1.
    10030    2    1    2    0    0  0.00000000000E+00  0.00000000000E+00 -0.50092980166E+03  0.19379618373E+04  0.18721018713E+04 0.  0.
        5    1    3    3  502    0  0.26108039924E+03  0.88389897049E+03 -0.81223628977E+02  0.92523496086E+03  0.46999998093E+01 0.  1.
       -5    1    3    3    0  502 -0.26108039924E+03 -0.88389897049E+03 -0.41970617268E+03  0.10127268765E+04  0.46999998093E+01 0. -1.
</event>
<event>
 5   0  0.3516539E-04  0.1927877E+04  0.7818609E-02  0.8641104E-01
       -2   -1    0    0    0  501  0.00000000000E+00  0.00000000000E+00  0.17940873745E+04  0.17940873745E+04  0.25500000920E-02 0.  1.
        2   -1    0    0  501    0  0.00000000000E+00  0.00000000000E+00 -0.51791067900E+03  0.51791067900E+03  0.25500000920E-02 0. -1.
    10030    2    1    2    0    0  0.00000000000E+00  0.00000000000E+00  0.12761766955E+04  0.23119980536E+04  0.19278765628E+04 0.  0.
        4    1    3    3  502    0  0.38953188982E+03 -0.37652528439E+03  0.15942333552E+04  0.16837719521E+04  0.12699999809E+01 0.  1.
       -4    1    3    3    0  502 -0.38953188982E+03  0.37652528439E+03 -0.31805665960E+03  0.62822610149E+03  0.12699999809E+01 0. -1.
</event>
<event>
 5   0  0.3720978E-04  0.1929257E+04  0.7818609E-02  0.8640429E-01
       -2   -1    0    0    0  501  0.00000000000E+00  0.00000000000E+00  0.41737089724E+03  0.41737089725E+03  0.25500000920E-02 0.  1.
        2   -1    0    0  501    0  0.00000000000E+00  0.00000000000E+00 -0.22294517425E+04  0.22294517425E+04  0.25500000920E-02 0. -1.
    10030    2    1    2    0    0  0.00000000000E+00  0.00000000000E+00 -0.18120808453E+04  0.26468226398E+04  0.19292571359E+04 0.  0.
        1    1    3    3  502    0  0.86060911309E+03  0.32659639027E+03 -0.13017562378E+04  0.15943282442E+04  0.50400001928E-02 0.  1.
       -1    1    3    3    0  502 -0.86060911309E+03 -0.32659639027E+03 -0.51032460754E+03  0.10524943956E+04  0.50400001928E-02 0. -1.
</event>
<event>
 5   0  0.1711979E-04  0.1885950E+04  0.7818609E-02  0.8661881E-01
       -1   -1    0    0    0  501  0.00000000000E+00  0.00000000000E+00  0.41608999648E+03  0.41608999651E+03  0.50400001928E-02 0.  1.
        1   -1    0    0  501    0  0.00000000000E+00  0.00000000000E+00 -0.21370432253E+04  0.21370432253E+04  0.50400001928E-02 0. -1.
    10030    2    1    2    0    0  0.00000000000E+00  0.00000000000E+00 -0.17209532288E+04  0.25531332218E+04  0.18859504852E+04 0.  0.
        4    1    3    3  502    0 -0.32668303062E+03  0.54729050559E+02 -0.20556934122E+04  0.20822089447E+04  0.12699999809E+01 0. -1.
       -4    1    3    3    0  502  0.32668303062E+03 -0.54729050559E+02  0.33474018341E+03  0.47092427710E+03  0.12699999809E+01 0.  1.
</event>
<event>
 5   0  0.3535876E-04  0.1900164E+04  0.7818609E-02  0.8654775E-01
       -2   -1    0    0    0  501  0.00000000000E+00  0.00000000000E+00  0.61295341151E+03  0.61295341151E+03  0.25500000920E-02 0.  1.
        2   -1    0    0  501    0  0.00000000000E+00  0.00000000000E+00 -0.14726337482E+04  0.14726337482E+04  0.25500000920E-02 0. -1.
    10030    2    1    2    0    0  0.00000000000E+00  0.00000000000E+00 -0.85968033667E+03  0.20855871597E+04  0.19001640770E+04 0.  0.
        2    1    3    3  502    0  0.75367441289E+03  0.22830645718E+03  0.15354016829E+03  0.80232383881E+03  0.25500000920E-02 0.  1.
       -2    1    3    3    0  502 -0.75367441289E+03 -0.22830645718E+03 -0.10132205050E+04  0.12832633209E+04  0.25500000920E-02 0. -1.
</event>
<event>
 5   0  0.1813834E-04  0.1910306E+04  0.7818609E-02  0.8649743E-01
        1   -1    0    0  501    0  0.00000000000E+00  0.00000000000E+00  0.98550934260E+03  0.98550934261E+03  0.50400001928E-02 0.  1.
       -1   -1    0    0    0  501  0.00000000000E+00  0.00000000000E+00 -0.92573196515E+03  0.92573196516E+03  0.50400001928E-02 0. -1.
    10030    2    1    2    0    0  0.00000000000E+00  0.00000000000E+00  0.59777377450E+02  0.19112413078E+04  0.19103062586E+04 0.  0.
        5    1    3    3  502    0  0.10689703969E+03 -0.93256119554E+03 -0.14682746440E+03  0.95009355056E+03  0.46999998093E+01 0. -1.
       -5    1    3    3    0  502 -0.10689703969E+03  0.93256119554E+03  0.20660484185E+03  0.96114775721E+03  0.46999998093E+01 0.  1.
</event>
<event>
 5   0  0.3535876E-04  0.1917300E+04  0.7818609E-02  0.8646293E-01
       -2   -1    0    0    0  501  0.00000000000E+00  0.00000000000E+00  0.51038224329E+03  0.51038224329E+03  0.25500000920E-02 0.  1.
        2   -1    0    0  501    0  0.00000000000E+00  0.00000000000E+00 -0.18006301071E+04  0.18006301071E+04  0.25500000920E-02 0. -1.
    10030    2    1    2    0    0  0.00000000000E+00  0.00000000000E+00 -0.12902478638E+04  0.23110123504E+04  0.19172998027E+04 0.  0.
        2    1    3    3  502    0 -0.80748791680E+03 -0.35140229353E+03 -0.11017093488E+04  0.14104197236E+04  0.25500000920E-02 0. -1.
       -2    1    3    3    0  502  0.80748791680E+03  0.35140229353E+03 -0.18853851504E+03  0.90059262674E+03  0.25500000920E-02 0.  1.
</event>
<event>
 5   0  0.1711979E-04  0.1917323E+04  0.7818609E-02  0.8646281E-01
        1   -1    0    0  501    0  0.00000000000E+00  0.00000000000E+00  0.18783952507E+04  0.18783952507E+04  0.50400001928E-02 0.  1.
       -1   -1    0    0    0  501  0.00000000000E+00  0.00000000000E+00 -0.48926427495E+03  0.48926427497E+03  0.50400001928E-02 0. -1.
    10030    2    1    2    0    0  0.00000000000E+00  0.00000000000E+00  0.13891309758E+04  0.23676595257E+04  0.19173228111E+04 0.  0.
        4    1    3    3  502    0  0.43103667111E+03  0.29897592165E+03 -0.29630444944E+03  0.60247585281E+03  0.12699999809E+01 0. -1.
       -4    1    3    3    0  502 -0.43103667111E+03 -0.29897592165E+03  0.16854354252E+04  0.17651836729E+04  0.12699999809E+01 0.  1.
</event>
<event>
 5   0  0.1711979E-04  0.1893606E+04  0.7818609E-02  0.8658046E-01
        1   -1    0    0  501    0  0.00000000000E+00  0.00000000000E+00  0.15479988614E+04  0.15479988614E+04  0.50400001928E-02 0. -1.
       -1   -1    0    0    0  501  0.00000000000E+00  0.00000000000E+00 -0.57909332103E+03  0.57909332105E+03  0.50400001928E-02 0.  1.
    10030    2    1    2    0    0  0.00000000000E+00  0.00000000000E+00  0.96890554041E+03  0.21270921825E+04  0.18936058741E+04 0.  0.
        4    1    3    3  502    0 -0.55787015508E+03  0.62624899538E-01 -0.37486634331E+03  0.67212015451E+03  0.12699999809E+01 0.  1.
       -4    1    3    3    0  502  0.55787015508E+03 -0.62624899538E-01  0.13437718837E+04  0.14549720280E+04  0.12699999809E+01 0. -1.
</event>
<event>
 5   0  0.1758946E-04  0.1778070E+04  0.7818609E-02  0.8718049E-01
       -1   -1    0    0    0  501  0.00000000000E+00  0.00000000000E+00  0.61856001023E+03  0.61856001025E+03  0.50400001928E-02 0. -1.
        1   -1    0    0  501    0  0.00000000000E+00  0.00000000000E+00 -0.12777800903E+04  0.12777800903E+04  0.50400001928E-02 0.  1.
    10030    2    1    2    0    0  0.00000000000E+00  0.00000000000E+00 -0.65922008007E+03  0.18963401006E+04  0.17780704888E+04 0.  0.
        2    1    3    3  502    0 -0.11624636999E+03  0.59726729734E+03 -0.10209082293E+04  0.11884843523E+04  0.25500000920E-02 0.  1.
       -2    1    3    3    0  502  0.11624636999E+03 -0.59726729734E+03  0.36168814925E+03  0.70785574824E+03  0.25500000920E-02 0. -1.
</event>
<event>
 5   0  0.3535876E-04  0.1903066E+04  0.7818609E-02  0.8653332E-01
       -2   -1    0    0    0  501  0.00000000000E+00  0.00000000000E+00  0.17115753228E+04  0.17115753228E+04  0.25500000920E-02 0.  1.
        2   -1    0    0  501    0  0.00000000000E+00  0.00000000000E+00 -0.52899541829E+03  0.52899541829E+03  0.25500000920E-02 0. -1.
    10030    2    1    2    0    0  0.00000000000E+00  0.00000000000E+00  0.11825799046E+04  0.22405707411E+04  0.19030664769E+04 0.  0.
        2    1    3    3  502    0  0.67612521890E+02 -0.43054241050E+03 -0.40457999332E+03  0.59466224982E+03  0.25500000920E-02 0. -1.
       -2    1    3    3    0  502 -0.67612521890E+02  0.43054241050E+03  0.15871598979E+04  0.16459084913E+04  0.25500000920E-02 0.  1.
</event>
<event>
 5   0  0.1287000E-04  0.1736839E+04  0.7818609E-02  0.8740628E-01
        3   -1    0    0  501    0  0.00000000000E+00  0.00000000000E+00  0.16892924314E+04  0.16892924344E+04  0.10100000352E+00 0. -1.
       -3   -1    0    0    0  501  0.00000000000E+00  0.00000000000E+00 -0.44643096923E+03  0.44643098066E+03  0.10100000352E+00 0.  1.
    10030    2    1    2    0    0  0.00000000000E+00  0.00000000000E+00  0.12428614622E+04  0.21357234151E+04  0.17368390517E+04 0.  0.
        2    1    3    3  502    0 -0.60527540289E+03 -0.59048600220E+03  0.86464402146E+03  0.12093970878E+04  0.25500000920E-02 0. -1.
       -2    1    3    3    0  502  0.60527540289E+03  0.59048600220E+03  0.37821744070E+03  0.92632632727E+03  0.25500000920E-02 0.  1.
</event>
<event>
 5   0  0.3623359E-04  0.1854536E+04  0.7818609E-02  0.8677824E-01
        2   -1    0    0  501    0  0.00000000000E+00  0.00000000000E+00  0.20838498236E+04  0.20838498236E+04  0.25500000920E-02 0. -1.
       -2   -1    0    0    0  501  0.00000000000E+00  0.00000000000E+00 -0.41261416984E+03  0.41261416985E+03  0.25500000920E-02 0.  1.
    10030    2    1    2    0    0  0.00000000000E+00  0.00000000000E+00  0.16712356538E+04  0.24964639935E+04  0.18545360229E+04 0.  0.
        5    1    3    3  502    0 -0.57327746483E+03 -0.52264045233E+03  0.15193768465E+04  0.17059684012E+04  0.46999998093E+01 0. -1.
       -5    1    3    3    0  502  0.57327746483E+03  0.52264045233E+03  0.15185880726E+03  0.79049559229E+03  0.46999998093E+01 0.  1.
</event>
<event>
 5   0  0.3623359E-04  0.1892595E+04  0.7818609E-02  0.8658551E-01
       -2   -1    0    0    0  501  0.00000000000E+00  0.00000000000E+00  0.63475278757E+03  0.63475278757E+03  0.25500000920E-02 0.  1.
        2   -1    0    0  501    0  0.00000000000E+00  0.00000000000E+00 -0.14107530125E+04  0.14107530125E+04  0.25500000920E-02 0. -1.
    10030    2    1    2    0    0  0.00000000000E+00  0.00000000000E+00 -0.77600022496E+03  0.20455058001E+04  0.18925954742E+04 0.  0.
        5    1    3    3  502    0 -0.88165644135E+03  0.34186438602E+03 -0.42648576235E+03  0.10373531388E+04  0.46999998093E+01 0.  1.
       -5    1    3    3    0  502  0.88165644135E+03 -0.34186438602E+03 -0.34951446261E+03  0.10081526613E+04  0.46999998093E+01 0. -1.
</event>
<event>
 5   0  0.3516539E-04  0.1897433E+04  0.7818609E-02  0.8656135E-01
        2   -1    0    0  501    0  0.00000000000E+00  0.00000000000E+00  0.10472555634E+04  0.10472555634E+04  0.25500000920E-02 0. -1.
       -2   -1    0    0    0  501  0.00000000000E+00  0.00000000000E+00 -0.85944951687E+03  0.85944951688E+03  0.25500000920E-02 0.  1.
    10030    2    1    2    0    0  0.00000000000E+00  0.00000000000E+00  0.18780604654E+03  0.19067050803E+04  0.18974333064E+04 0.  0.
        4    1    3    3  502    0  0.47178455158E+03  0.77522332498E+03  0.37185870846E+03  0.98073053315E+03  0.12699999809E+01 0.  1.
       -4    1    3    3    0  502 -0.47178455158E+03 -0.77522332498E+03 -0.18405266191E+03  0.92597454714E+03  0.12699999809E+01 0. -1.
</event>
<event>
 5   0  0.1711979E-04  0.1893585E+04  0.7818609E-02  0.8658056E-01
        1   -1    0    0  501    0  0.00000000000E+00  0.00000000000E+00  0.18324716193E+04  0.18324716193E+04  0.50400001928E-02 0. -1.
       -1   -1    0    0    0  501  0.00000000000E+00  0.00000000000E+00 -0.48918424391E+03  0.48918424394E+03  0.50400001928E-02 0.  1.
    10030    2    1    2    0    0  0.00000000000E+00  0.00000000000E+00  0.13432873754E+04  0.23216558632E+04  0.18935852171E+04 0.  0.
        4    1    3    3  502    0 -0.33168110889E+03  0.18776248058E+03 -0.39097050092E+03  0.54600975504E+03  0.12699999809E+01 0.  1.
       -4    1    3    3    0  502  0.33168110889E+03 -0.18776248058E+03  0.17342578763E+04  0.17756461082E+04  0.12699999809E+01 0. -1.
</event>
<event>
 5   0  0.1758946E-04  0.1812655E+04  0.7818609E-02  0.8699599E-01
       -1   -1    0    0    0  501  0.00000000000E+00  0.00000000000E+00  0.58161220669E+03  0.58161220671E+03  0.50400001928E-02 0. -1.
        1   -1    0    0  501    0  0.00000000000E+00  0.00000000000E+00 -0.14123315871E+04  0.14123315871E+04  0.50400001928E-02 0.  1.
    10030    2    1    2    0    0  0.00000000000E+00  0.00000000000E+00 -0.83071938041E+03  0.19939437938E+04  0.18126547283E+04 0.  0.
        2    1    3    3  502    0 -0.51193327813E+03  0.12009923090E+03  0.39666287286E+03  0.65866603164E+03  0.25500000920E-02 0. -1.
       -2    1    3    3    0  502  0.51193327813E+03 -0.12009923090E+03 -0.12273822533E+04  0.13352777622E+04  0.25500000920E-02 0.  1.
</event>
<event>
 5   0  0.3535876E-04  0.1923919E+04  0.7818609E-02  0.8643041E-01
       -2   -1    0    0    0  501  0.00000000000E+00  0.00000000000E+00  0.90493540993E+03  0.90493540993E+03  0.25500000920E-02 0.  1.
        2   -1    0    0  501    0  0.00000000000E+00  0.00000000000E+00 -0.10225769690E+04  0.10225769690E+04  0.25500000920E-02 0. -1.
    10030    2    1    2    0    0  0.00000000000E+00  0.00000000000E+00 -0.11764155908E+03  0.19275123789E+04  0.19239190301E+04 0.  0.
        2    1    3    3  502    0 -0.15127823613E+02  0.32913053700E+03  0.84664283007E+03  0.90849317176E+03  0.25500000920E-02 0.  1.
       -2    1    3    3    0  502  0.15127823613E+02 -0.32913053700E+03 -0.96428438915E+03  0.10190192072E+04  0.25500000920E-02 0. -1.
</event>
<event>
 5   0  0.1758946E-04  0.1861284E+04  0.7818609E-02  0.8674371E-01
        1   -1    0    0  501    0  0.00000000000E+00  0.00000000000E+00  0.19938665667E+04  0.19938665667E+04  0.50400001928E-02 0. -1.
       -1   -1    0    0    0  501  0.00000000000E+00  0.00000000000E+00 -0.43437940812E+03  0.43437940815E+03  0.50400001928E-02 0.  1.
    10030    2    1    2    0    0  0.00000000000E+00  0.00000000000E+00  0.15594871586E+04  0.24282459749E+04  0.18612840505E+04 0.  0.
        2    1    3    3  502    0 -0.58400435870E+03 -0.33664361909E+03  0.16168349429E+04  0.17517263627E+04  0.25500000920E-02 0. -1.
       -2    1    3    3    0  502  0.58400435870E+03  0.33664361909E+03 -0.57347784317E+02  0.67651961215E+03  0.25500000920E-02 0.  1.
</event>
<event>
 5   0  0.3459485E-04  0.1573472E+04  0.7818609E-02  0.8837013E-01
        2   -1    0    0  501    0  0.00000000000E+00  0.00000000000E+00  0.25925179260E+04  0.25925179260E+04  0.25500000920E-02 0. -1.
       -2   -1    0    0    0  501  0.00000000000E+00  0.00000000000E+00 -0.23874600981E+03  0.23874600983E+03  0.25500000920E-02 0.  1.
    10030    2    1    2    0    0  0.00000000000E+00  0.00000000000E+00  0.23537719161E+04  0.28312639358E+04  0.15734717159E+04 0.  0.
        3    1    3    3  502    0  0.57619030075E+03 -0.36951210323E+02  0.21384870017E+04  0.22150592140E+04  0.10100000352E+00 0. -1.
       -3    1    3    3    0  502 -0.57619030075E+03  0.36951210323E+02  0.21528491443E+03  0.61620472183E+03  0.10100000352E+00 0.  1.
</event>
<event>
 5   0  0.3623359E-04  0.1868066E+04  0.7818609E-02  0.8670917E-01
       -2   -1    0    0    0  501  0.00000000000E+00  0.00000000000E+00  0.83011993130E+03  0.83011993130E+03  0.25500000920E-02 0. -1.
        2   -1    0    0  501    0  0.00000000000E+00  0.00000000000E+00 -0.10509537288E+04  0.10509537288E+04  0.25500000920E-02 0.  1.
    10030    2    1    2    0    0  0.00000000000E+00  0.00000000000E+00 -0.22083379748E+03  0.18810736601E+04  0.18680659915E+04 0.  0.
        5    1    3    3  502    0  0.71538140522E+03  0.41528352641E+03 -0.54721679995E+03  0.99181615151E+03  0.46999998093E+01 0.  1.
       -5    1    3    3    0  502 -0.71538140522E+03 -0.41528352641E+03  0.32638300248E+03  0.88925750857E+03  0.46999998093E+01 0. -1.
</event>
<event>
 5   0  0.1813834E-04  0.1909689E+04  0.7818609E-02  0.8650049E-01
        1   -1    0    0  501    0  0.00000000000E+00  0.00000000000E+00  0.13442570547E+04  0.13442570547E+04  0.50400001928E-02 0. -1.
       -1   -1    0    0    0  501  0.00000000000E+00  0.00000000000E+00 -0.67823925915E+03  0.67823925917E+03  0.50400001928E-02 0.  1.
    10030    2    1    2    0    0  0.00000000000E+00  0.00000000000E+00  0.66601779553E+03  0.20224963139E+04  0.19096888845E+04 0.  0.
        5    1    3    3  502    0 -0.53254611642E+03  0.63713771429E+03 -0.16616759830E+03  0.84686692804E+03  0.46999998093E+01 0.  1.
       -5    1    3    3    0  502  0.53254611642E+03 -0.63713771429E+03  0.83218539383E+03  0.11756293858E+04  0.46999998093E+01 0. -1.
</event>
<event>
 5   0  0.1782613E-04  0.1835804E+04  0.7818609E-02  0.8687487E-01
        1   -1    0    0  501    0  0.00000000000E+00  0.00000000000E+00  0.92730279857E+03  0.92730279858E+03  0.50400001928E-02 0. -1.
       -1   -1    0    0    0  501  0.00000000000E+00  0.00000000000E+00 -0.90859697866E+03  0.90859697867E+03  0.50400001928E-02 0.  1.
    10030    2    1    2    0    0  0.00000000000E+00  0.00000000000E+00  0.18705819910E+02  0.18358997773E+04  0.18358044788E+04 0.  0.
        3    1    3    3  502    0 -0.50622379090E+03  0.10788266480E+03  0.76744457805E+03  0.92567401736E+03  0.10100000352E+00 0. -1.
       -3    1    3    3    0  502  0.50622379090E+03 -0.10788266480E+03 -0.74873875814E+03  0.91022575990E+03  0.10100000352E+00 0.  1.
</event>
<event>
 5   0  0.3459485E-04  0.1919757E+04  0.7818609E-02  0.8645084E-01
       -2   -1    0    0    0  501  0.00000000000E+00  0.00000000000E+00  0.47224391482E+03  0.47224391483E+03  0.25500000920E-02 0.  1.
        2   -1    0    0  501    0  0.00000000000E+00  0.00000000000E+00 -0.19510394935E+04  0.19510394935E+04  0.25500000920E-02 0. -1.
    10030    2    1    2    0    0  0.00000000000E+00  0.00000000000E+00 -0.14787955787E+04  0.24232834084E+04  0.19197567850E+04 0.  0.
        3    1    3    3  502    0  0.65743771304E+03 -0.48144668042E+03 -0.13797533008E+04  0.16024151877E+04  0.10100000352E+00 0.  1.
       -3    1    3    3    0  502 -0.65743771304E+03  0.48144668042E+03 -0.99042277908E+02  0.82086822062E+03  0.10100000352E+00 0. -1.
</event>
<event>
 5   0  0.3720978E-04  0.1897175E+04  0.7818609E-02  0.8656264E-01
        2   -1    0    0  501    0  0.00000000000E+00  0.00000000000E+00  0.12532117573E+04  0.12532117573E+04  0.25500000920E-02 0. -1.
       -2   -1    0    0    0  501  0.00000000000E+00  0.00000000000E+00 -0.71800978814E+03  0.71800978814E+03  0.25500000920E-02 0.  1.
    10030    2    1    2    0    0  0.00000000000E+00  0.00000000000E+00  0.53520196915E+03  0.19712215454E+04  0.18971750666E+04 0.  0.
        1    1    3    3  502    0  0.33119490433E+03 -0.85597163560E+03  0.18578662095E+02  0.91799927686E+03  0.50400001928E-02 0. -1.
       -1    1    3    3    0  502 -0.33119490433E+03  0.85597163560E+03  0.51662330706E+03  0.10532222686E+04  0.50400001928E-02 0.  1.
</event>
<event>
 5   0  0.3720978E-04  0.1883524E+04  0.7818609E-02  0.8663101E-01
        2   -1    0    0  501    0  0.00000000000E+00  0.00000000000E+00  0.14156051906E+04  0.14156051906E+04  0.25500000920E-02 0. -1.
       -2   -1    0    0    0  501  0.00000000000E+00  0.00000000000E+00 -0.62652743619E+03  0.62652743620E+03  0.25500000920E-02 0.  1.
    10030    2    1    2    0    0  0.00000000000E+00  0.00000000000E+00  0.78907775443E+03  0.20421326268E+04  0.18835238154E+04 0.  0.
        1    1    3    3  502    0 -0.37427814025E+03  0.56967454343E+03 -0.31003176111E+03  0.74882100974E+03  0.50400001928E-02 0.  1.
       -1    1    3    3    0  502  0.37427814025E+03 -0.56967454343E+03  0.10991095155E+04  0.12933116171E+04  0.50400001928E-02 0. -1.
</event>
<event>
 5   0  0.3535876E-04  0.2015786E+04  0.7818609E-02  0.8599275E-01
       -2   -1    0    0    0  501  0.00000000000E+00  0.00000000000E+00  0.67649167586E+03  0.67649167587E+03  0.25500000920E-02 0. -1.
        2   -1    0    0  501    0  0.00000000000E+00  0.00000000000E+00 -0.15016426990E+04  0.15016426990E+04  0.25500000920E-02 0.  1.
    10030    2    1    2    0    0  0.00000000000E+00  0.00000000000E+00 -0.82515102312E+03  0.21781343749E+04  0.20157864827E+04 0.  0.
        2    1    3    3  502    0  0.96116140281E+03  0.24993931762E+03 -0.59831460127E+03  0.11594314412E+04  0.25500000920E-02 0.  1.
       -2    1    3    3    0  502 -0.96116140281E+03 -0.24993931762E+03 -0.22683642185E+03  0.10187029337E+04  0.25500000920E-02 0. -1.
</event>
<event>
 5   0  0.1694830E-04  0.1683311E+04  0.7818609E-02  0.8770941E-01
        1   -1    0    0  501    0  0.00000000000E+00  0.00000000000E+00  0.55677365806E+03  0.55677365808E+03  0.50400001928E-02 0. -1.
       -1   -1    0    0    0  501  0.00000000000E+00  0.00000000000E+00 -0.12723011240E+04  0.12723011240E+04  0.50400001928E-02 0.  1.
    10030    2    1    2    0    0  0.00000000000E+00  0.00000000000E+00 -0.71552746591E+03  0.18290747821E+04  0.16833107271E+04 0.  0.
        1    1    3    3  502    0  0.71273791771E+03  0.12585977256E+03  0.10902624591E+03  0.73193083281E+03  0.50400001928E-02 0. -1.
       -1    1    3    3    0  502 -0.71273791771E+03 -0.12585977256E+03 -0.82455371183E+03  0.10971439493E+04  0.50400001928E-02 0.  1.
</event>
<event>
 5   0  0.3720978E-04  0.1957778E+04  0.7818609E-02  0.8626619E-01
       -2   -1    0    0    0  501  0.00000000000E+00  0.00000000000E+00  0.46423091898E+03  0.46423091899E+03  0.25500000920E-02 0. -1.
        2   -1    0    0  501    0  0.00000000000E+00  0.00000000000E+00 -0.20641090385E+04  0.20641090385E+04  0.25500000920E-02 0.  1.
    10030    2    1    2    0    0  0.00000000000E+00  0.00000000000E+00 -0.15998781195E+04  0.25283399575E+04  0.19577775521E+04 0.  0.
        1    1    3    3  502    0  0.88580911762E+02 -0.27158632722E+03 -0.20090807567E+04  0.20292883476E+04  0.50400001928E-02 0.  1.
       -1    1    3    3    0  502 -0.88580911762E+02  0.27158632722E+03  0.40920263712E+03  0.49905160987E+03  0.50400001928E-02 0. -1.
</event>
<event>
 5   0  0.3516539E-04  0.2058437E+04  0.7818609E-02  0.8579776E-01
        2   -1    0    0  501    0  0.00000000000E+00  0.00000000000E+00  0.15494781289E+04  0.15494781289E+04  0.25500000920E-02 0. -1.
       -2   -1    0    0    0  501  0.00000000000E+00  0.00000000000E+00 -0.68364362348E+03  0.68364362349E+03  0.25500000920E-02 0.  1.
    10030    2    1    2    0    0  0.00000000000E+00  0.00000000000E+00  0.86583450541E+03  0.22331217524E+04  0.20584371184E+04 0.  0.
        4    1    3    3  502    0  0.62287634191E+03  0.70899697570E+03 -0.12587128176E+02  0.94382821401E+03  0.12699999809E+01 0. -1.
       -4    1    3    3    0  502 -0.62287634191E+03 -0.70899697570E+03  0.87842163359E+03  0.12892935384E+04  0.12699999809E+01 0.  1.
</event>
<event>
 5   0  0.3459485E-04  0.1876421E+04  0.7818609E-02  0.8666683E-01
       -2   -1    0    0    0  501  0.00000000000E+00  0.00000000000E+00  0.58963610496E+03  0.58963610497E+03  0.25500000920E-02 0. -1.
        2   -1    0    0  501    0  0.00000000000E+00  0.00000000000E+00 -0.14928512953E+04  0.14928512953E+04  0.25500000920E-02 0.  1.
    10030    2    1    2    0    0  0.00000000000E+00  0.00000000000E+00 -0.90321519038E+03  0.20824874003E+04  0.18764210861E+04 0.  0.
        3    1    3    3  502    0 -0.58711513130E+03 -0.67877663019E+03 -0.14808255798E+03  0.90959900246E+03  0.10100000352E+00 0. -1.
       -3    1    3    3    0  502  0.58711513130E+03  0.67877663019E+03 -0.75513263240E+03  0.11728883979E+04  0.10100000352E+00 0.  1.
</event>
<event>
 5   0  0.1813834E-04  0.1920827E+04  0.7818609E-02  0.8644558E-01
        1   -1    0    0  501    0  0.00000000000E+00  0.00000000000E+00  0.89815708071E+03  0.89815708072E+03  0.50400001928E-02 0. -1.
       -1   -1    0    0    0  501  0.00000000000E+00  0.00000000000E+00 -0.10269852111E+04  0.10269852111E+04  0.50400001928E-02 0.  1.
    10030    2    1    2    0    0  0.00000000000E+00  0.00000000000E+00 -0.12882813037E+03  0.19251422918E+04  0.19208269460E+04 0.  0.
        5    1    3    3  502    0  0.30188589413E+03 -0.34147403819E+03  0.78284442084E+03  0.90587366065E+03  0.46999998093E+01 0. -1.
       -5    1    3    3    0  502 -0.30188589413E+03  0.34147403819E+03 -0.91167255121E+03  0.10192686312E+04  0.46999998093E+01 0.  1.
</event>
<event>
 5   0  0.1758946E-04  0.1841567E+04  0.7818609E-02  0.8684502E-01
        1   -1    0    0  501    0  0.00000000000E+00  0.00000000000E+00  0.19520612132E+04  0.19520612133E+04  0.50400001928E-02 0.  1.
       -1   -1    0    0    0  501  0.00000000000E+00  0.00000000000E+00 -0.43433188777E+03  0.43433188780E+03  0.50400001928E-02 0. -1.
    10030    2    1    2    0    0  0.00000000000E+00  0.00000000000E+00  0.15177293255E+04  0.23863931011E+04  0.18415671933E+04 0.  0.
        2    1    3    3  502    0  0.79107304627E+02  0.68481436927E+03 -0.32148756674E+02  0.69011754692E+03  0.25500000920E-02 0. -1.
       -2    1    3    3    0  502 -0.79107304627E+02 -0.68481436927E+03  0.15498780822E+04  0.16962755541E+04  0.25500000920E-02 0.  1.
</event>
<event>
 5   0  0.3720978E-04  0.1872784E+04  0.7818609E-02  0.8668523E-01
        2   -1    0    0  501    0  0.00000000000E+00  0.00000000000E+00  0.37586004976E+04  0.37586004976E+04  0.25500000920E-02 0.  1.
       -2   -1    0    0    0  501  0.00000000000E+00  0.00000000000E+00 -0.23328635243E+03  0.23328635245E+03  0.25500000920E-02 0. -1.
    10030    2    1    2    0    0  0.00000000000E+00  0.00000000000E+00  0.35253141452E+04  0.39918868500E+04  0.18727842378E+04 0.  0.
        1    1    3    3  502    0 -0.39777047566E+03  0.80264969554E+03  0.23439123765E+04  0.25092614678E+04  0.50400001928E-02 0.  1.
       -1    1    3    3    0  502  0.39777047566E+03 -0.80264969554E+03  0.11814017687E+04  0.14826253823E+04  0.50400001928E-02 0. -1.
</event>
<event>
 5   0  0.3516539E-04  0.1827419E+04  0.7818609E-02  0.8691853E-01
        2   -1    0    0  501    0  0.00000000000E+00  0.00000000000E+00  0.13899957994E+04  0.13899957994E+04  0.25500000920E-02 0. -1.
       -2   -1    0    0    0  501  0.00000000000E+00  0.00000000000E+00 -0.60062401325E+03  0.60062401326E+03  0.25500000920E-02 0.  1.
    10030    2    1    2    0    0  0.00000000000E+00  0.00000000000E+00  0.78937178616E+03  0.19906198127E+04  0.18274187867E+04 0.  0.
        4    1    3    3  502    0 -0.55478574436E+03 -0.22453948459E+03 -0.35737619905E+03  0.69708289524E+03  0.12699999809E+01 0.  1.
       -4    1    3    3    0  502  0.55478574436E+03  0.22453948459E+03  0.11467479852E+04  0.12935369174E+04  0.12699999809E+01 0. -1.
</event>
<event>
 5   0  0.3459485E-04  0.1808961E+04  0.7818609E-02  0.8701548E-01
       -2   -1    0    0    0  501  0.00000000000E+00  0.00000000000E+00  0.68176396609E+03  0.68176396610E+03  0.25500000920E-02 0.  1.
        2   -1    0    0  501    0  0.00000000000E+00  0.00000000000E+00 -0.11999539975E+04  0.11999539975E+04  0.25500000920E-02 0. -1.
    10030    2    1    2    0    0  0.00000000000E+00  0.00000000000E+00 -0.51819003141E+03  0.18817179636E+04  0.18089614661E+04 0.  0.
        3    1    3    3  502    0 -0.89857437264E+03  0.64873062509E+01 -0.15196044179E+03  0.91135611830E+03  0.10100000352E+00 0.  1.
       -3    1    3    3    0  502  0.89857437264E+03 -0.64873062509E+01 -0.36622958962E+03  0.97036184530E+03  0.10100000352E+00 0. -1.
</event>
<event>
 5   0  0.1694830E-04  0.2018673E+04  0.7818609E-02  0.8597940E-01
        1   -1    0    0  501    0  0.00000000000E+00  0.00000000000E+00  0.10255616095E+04  0.10255616096E+04  0.50400001928E-02 0. -1.
       -1   -1    0    0    0  501  0.00000000000E+00  0.00000000000E+00 -0.99336776456E+03  0.99336776457E+03  0.50400001928E-02 0.  1.
    10030    2    1    2    0    0  0.00000000000E+00  0.00000000000E+00  0.32193844985E+02  0.20189293741E+04  0.20186726763E+04 0.  0.
        1    1    3    3  502    0  0.93353451958E+03  0.38376159452E+03  0.16524533036E+02  0.10094715057E+04  0.50400001928E-02 0.  1.
       -1    1    3    3    0  502 -0.93353451958E+03 -0.38376159452E+03  0.15669311950E+02  0.10094578684E+04  0.50400001928E-02 0. -1.
</event>
<event>
 5   0  0.3535876E-04  0.1908170E+04  0.7818609E-02  0.8650800E-01
       -2   -1    0    0    0  501  0.00000000000E+00  0.00000000000E+00  0.77266916791E+03  0.77266916791E+03  0.25500000920E-02 0.  1.
        2   -1    0    0  501    0  0.00000000000E+00  0.00000000000E+00 -0.11780959763E+04  0.11780959763E+04  0.25500000920E-02 0. -1.
    10030    2    1    2    0    0  0.00000000000E+00  0.00000000000E+00 -0.40542680839E+03  0.19507651442E+04  0.19081702626E+04 0.  0.
        2    1    3    3  502    0  0.80117657536E+03 -0.45392544762E+03 -0.45797937912E+03  0.10284344066E+04  0.25500000920E-02 0. -1.
       -2    1    3    3    0  502 -0.80117657536E+03  0.45392544762E+03  0.52552570730E+02  0.92233073764E+03  0.25500000920E-02 0.  1.
</event>
<event>
 5   0  0.1694830E-04  0.1898625E+04  0.7818609E-02  0.8655541E-01
       -1   -1    0    0    0  501  0.00000000000E+00  0.00000000000E+00  0.13468553652E+04  0.13468553653E+04  0.50400001928E-02 0.  1.
        1   -1    0    0  501    0  0.00000000000E+00  0.00000000000E+00 -0.66910962321E+03  0.66910962323E+03  0.50400001928E-02 0. -1.
    10030    2    1    2    0    0  0.00000000000E+00  0.00000000000E+00  0.67774574203E+03  0.20159649885E+04  0.18986246454E+04 0.  0.
        1    1    3    3  502    0 -0.85309428273E+03  0.37886518510E+03  0.15531543990E+03  0.94627246055E+03  0.50400001928E-02 0.  1.
       -1    1    3    3    0  502  0.85309428273E+03 -0.37886518510E+03  0.52243030213E+03  0.10696925279E+04  0.50400001928E-02 0. -1.
</event>
<event>
 5   0  0.1758946E-04  0.1301433E+04  0.7818609E-02  0.9028429E-01
        1   -1    0    0  501    0  0.00000000000E+00  0.00000000000E+00  0.76938888455E+03  0.76938888457E+03  0.50400001928E-02 0. -1.
       -1   -1    0    0    0  501  0.00000000000E+00  0.00000000000E+00 -0.55034883855E+03  0.55034883858E+03  0.50400001928E-02 0.  1.
    10030    2    1    2    0    0  0.00000000000E+00  0.00000000000E+00  0.21904004599E+03  0.13197377231E+04  0.13014334851E+04 0.  0.
        2    1    3    3  502    0 -0.65006403697E+03 -0.18564815522E+02  0.13229417471E+03  0.66364874234E+03  0.25500000920E-02 0. -1.
       -2    1    3    3    0  502  0.65006403697E+03  0.18564815522E+02  0.86745871288E+02  0.65608898080E+03  0.25500000920E-02 0.  1.
</event>
<event>
 5   0  0.3623359E-04  0.1944945E+04  0.7818609E-02  0.8632802E-01
       -2   -1    0    0    0  501  0.00000000000E+00  0.00000000000E+00  0.11375490567E+04  0.11375490567E+04  0.25500000920E-02 0. -1.
        2   -1    0    0  501    0  0.00000000000E+00  0.00000000000E+00 -0.83135095345E+03  0.83135095345E+03  0.25500000920E-02 0.  1.
    10030    2    1    2    0    0  0.00000000000E+00  0.00000000000E+00  0.30619810323E+03  0.19689000101E+04  0.19449447220E+04 0.  0.
        5    1    3    3  502    0  0.75115263779E+03  0.29221226641E+03  0.70391665702E+03  0.10701116969E+04  0.46999998093E+01 0. -1.
       -5    1    3    3    0  502 -0.75115263779E+03 -0.29221226641E+03 -0.39771855379E+03  0.89878831319E+03  0.46999998093E+01 0.  1.
</event>
<event>
 5   0  0.1694830E-04  0.1900972E+04  0.7818609E-02  0.8654373E-01
        1   -1    0    0  501    0  0.00000000000E+00  0.00000000000E+00  0.12348970721E+04  0.12348970721E+04  0.50400001928E-02 0. -1.
       -1   -1    0    0    0  501  0.00000000000E+00  0.00000000000E+00 -0.73157806183E+03  0.73157806185E+03  0.50400001928E-02 0.  1.
    10030    2    1    2    0    0  0.00000000000E+00  0.00000000000E+00  0.50331901025E+03  0.19664751339E+04  0.19009719688E+04 0.  0.
        1    1    3    3  502    0  0.43294243523E+03 -0.65271700493E+02  0.11243667268E+04  0.12066068471E+04  0.50400001928E-02 0. -1.
       -1    1    3    3    0  502 -0.43294243523E+03  0.65271700493E+02 -0.62104771654E+03  0.75986828685E+03  0.50400001928E-02 0.  1.
</event>
<event>
 5   0  0.3516539E-04  0.1916777E+04  0.7818609E-02  0.8646550E-01
       -2   -1    0    0    0  501  0.00000000000E+00  0.00000000000E+00  0.79892877907E+03  0.79892877907E+03  0.25500000920E-02 0. -1.
        2   -1    0    0  501    0  0.00000000000E+00  0.00000000000E+00 -0.11496752987E+04  0.11496752987E+04  0.25500000920E-02 0.  1.
    10030    2    1    2    0    0  0.00000000000E+00  0.00000000000E+00 -0.35074651967E+03  0.19486040778E+04  0.19167771730E+04 0.  0.
        4    1    3    3  502    0  0.36690750110E+03  0.24087147168E+03 -0.10414980550E+04  0.11302035178E+04  0.12699999809E+01 0.  1.
       -4    1    3    3    0  502 -0.36690750110E+03 -0.24087147168E+03  0.69075153530E+03  0.81840056002E+03  0.12699999809E+01 0. -1.
</event>
<event>
 5   0  0.1287000E-04  0.1915516E+04  0.7818609E-02  0.8647171E-01
       -3   -1    0    0    0  501  0.00000000000E+00  0.00000000000E+00  0.85078227447E+03  0.85078228046E+03  0.10100000352E+00 0. -1.
        3   -1    0    0  501    0  0.00000000000E+00  0.00000000000E+00 -0.10781851163E+04  0.10781851211E+04  0.10100000352E+00 0.  1.
    10030    2    1    2    0    0  0.00000000000E+00  0.00000000000E+00 -0.22740284187E+03  0.19289674015E+04  0.19155164274E+04 0.  0.
        4    1    3    3  502    0 -0.37873884774E+03 -0.25515664592E+03 -0.96148675061E+03  0.10644277398E+04  0.12699999809E+01 0.  1.
       -4    1    3    3    0  502  0.37873884774E+03  0.25515664592E+03  0.73408390874E+03  0.86453966174E+03  0.12699999809E+01 0. -1.
</event>
<event>
 5   0  0.3459485E-04  0.1908340E+04  0.7818609E-02  0.8650716E-01
        2   -1    0    0  501    0  0.00000000000E+00  0.00000000000E+00  0.10663538374E+04  0.10663538374E+04  0.25500000920E-02 0.  1.
       -2   -1    0    0    0  501  0.00000000000E+00  0.00000000000E+00 -0.85378837534E+03  0.85378837535E+03  0.25500000920E-02 0. -1.
    10030    2    1    2    0    0  0.00000000000E+00  0.00000000000E+00  0.21256546204E+03  0.19201422127E+04  0.19083401273E+04 0.  0.
        3    1    3    3  502    0  0.16985079035E+03 -0.17111774070E+03 -0.82263314733E+03  0.85723735188E+03  0.10100000352E+00 0. -1.
       -3    1    3    3    0  502 -0.16985079035E+03  0.17111774070E+03  0.10351986094E+04  0.10629048609E+04  0.10100000352E+00 0.  1.
</event>
<event>
 5   0  0.3459485E-04  0.1725470E+04  0.7818609E-02  0.8746970E-01
        2   -1    0    0  501    0  0.00000000000E+00  0.00000000000E+00  0.97565738063E+03  0.97565738063E+03  0.25500000920E-02 0. -1.
       -2   -1    0    0    0  501  0.00000000000E+00  0.00000000000E+00 -0.76288201197E+03  0.76288201197E+03  0.25500000920E-02 0.  1.
    10030    2    1    2    0    0  0.00000000000E+00  0.00000000000E+00  0.21277536866E+03  0.17385393926E+04  0.17254697511E+04 0.  0.
        3    1    3    3  502    0 -0.62430383334E+03 -0.37278120061E+03 -0.36144638956E+03  0.81201268621E+03  0.10100000352E+00 0. -1.
       -3    1    3    3    0  502  0.62430383334E+03  0.37278120061E+03  0.57422175821E+03  0.92652670639E+03  0.10100000352E+00 0.  1.
</event>
<event>
 5   0  0.1782613E-04  0.1893423E+04  0.7818609E-02  0.8658137E-01
       -1   -1    0    0    0  501  0.00000000000E+00  0.00000000000E+00  0.12425838229E+04  0.12425838229E+04  0.50400001928E-02 0. -1.
        1   -1    0    0  501    0  0.00000000000E+00  0.00000000000E+00 -0.72128957753E+03  0.72128957754E+03  0.50400001928E-02 0.  1.
    10030    2    1    2    0    0  0.00000000000E+00  0.00000000000E+00  0.52129424539E+03  0.19638734005E+04  0.18934231019E+04 0.  0.
        3    1    3    3  502    0  0.51876090314E+03  0.48795687583E+03  0.90759216513E+03  0.11536630079E+04  0.10100000352E+00 0. -1.
       -3    1    3    3    0  502 -0.51876090314E+03 -0.48795687583E+03 -0.38629791974E+03  0.81021039261E+03  0.10100000352E+00 0.  1.
</event>
<event>
 5   0  0.3535876E-04  0.1919659E+04  0.7818609E-02  0.8645132E-01
       -2   -1    0    0    0  501  0.00000000000E+00  0.00000000000E+00  0.44542148608E+03  0.44542148609E+03  0.25500000920E-02 0. -1.
        2   -1    0    0  501    0  0.00000000000E+00  0.00000000000E+00 -0.20683161632E+04  0.20683161632E+04  0.25500000920E-02 0.  1.
    10030    2    1    2    0    0  0.00000000000E+00  0.00000000000E+00 -0.16228946771E+04  0.25137376493E+04  0.19196587812E+04 0.  0.
        2    1    3    3  502    0 -0.52706909509E+03 -0.33093999205E+03 -0.17683019206E+04  0.18746239068E+04  0.25500000920E-02 0.  1.
       -2    1    3    3    0  502  0.52706909509E+03  0.33093999205E+03  0.14540724356E+03  0.63911374248E+03  0.25500000920E-02 0. -1.
</event>
<event>
 5   0  0.3516539E-04  0.1916929E+04  0.7818609E-02  0.8646475E-01
        2   -1    0    0  501    0  0.00000000000E+00  0.00000000000E+00  0.63546062113E+03  0.63546062114E+03  0.25500000920E-02 0.  1.
       -2   -1    0    0    0  501  0.00000000000E+00  0.00000000000E+00 -0.14456509090E+04  0.14456509090E+04  0.25500000920E-02 0. -1.
    10030    2    1    2    0    0  0.00000000000E+00  0.00000000000E+00 -0.81019028791E+03  0.20811115302E+04  0.19169290280E+04 0.  0.
        4    1    3    3  502    0 -0.13082545910E+03 -0.62949626215E+03  0.36661078578E+03  0.74012561499E+03  0.12699999809E+01 0.  1.
       -4    1    3    3    0  502  0.13082545910E+03  0.62949626215E+03 -0.11768010737E+04  0.13409859152E+04  0.12699999809E+01 0. -1.
</event>
<event>
 5   0  0.3516539E-04  0.1848863E+04  0.7818609E-02  0.8680738E-01
        2   -1    0    0  501    0  0.00000000000E+00  0.00000000000E+00  0.18814959904E+04  0.18814959904E+04  0.25500000920E-02 0.  1.
       -2   -1    0    0    0  501  0.00000000000E+00  0.00000000000E+00 -0.45419896254E+03  0.45419896255E+03  0.25500000920E-02 0. -1.
    10030    2    1    2    0    0  0.00000000000E+00  0.00000000000E+00  0.14272970279E+04  0.23356949530E+04  0.18488629229E+04 0.  0.
        4    1    3    3  502    0  0.32694337104E+03  0.36309291128E+03 -0.27774616685E+03  0.56202577894E+03  0.12699999809E+01 0. -1.
       -4    1    3    3    0  502 -0.32694337104E+03 -0.36309291128E+03  0.17050431947E+04  0.17736691740E+04  0.12699999809E+01 0.  1.
</event>
<event>
 5   0  0.1711979E-04  0.1888698E+04  0.7818609E-02  0.8660503E-01
        1   -1    0    0  501    0  0.00000000000E+00  0.00000000000E+00  0.78056119205E+03  0.78056119207E+03  0.50400001928E-02 0.  1.
       -1   -1    0    0    0  501  0.00000000000E+00  0.00000000000E+00 -0.11425051836E+04  0.11425051836E+04  0.50400001928E-02 0. -1.
    10030    2    1    2    0    0  0.00000000000E+00  0.00000000000E+00 -0.36194399153E+03  0.19230663757E+04  0.18886981845E+04 0.  0.
        4    1    3    3  502    0  0.35381736308E+03 -0.67470073166E+03  0.38720167871E+03  0.85459613656E+03  0.12699999809E+01 0.  1.
       -4    1    3    3    0  502 -0.35381736308E+03  0.67470073166E+03 -0.74914567024E+03  0.10684702391E+04  0.12699999809E+01 0. -1.
</event>
<event>
 5   0  0.1782613E-04  0.1882201E+04  0.7818609E-02  0.8663767E-01
       -1   -1    0    0    0  501  0.00000000000E+00  0.00000000000E+00  0.85906367445E+03  0.85906367447E+03  0.50400001928E-02 0. -1.
        1   -1    0    0  501    0  0.00000000000E+00  0.00000000000E+00 -0.10309712052E+04  0.10309712052E+04  0.50400001928E-02 0.  1.
    10030    2    1    2    0    0  0.00000000000E+00  0.00000000000E+00 -0.17190753072E+03  0.18900348796E+04  0.18822007457E+04 0.  0.
        3    1    3    3  502    0 -0.40935873982E+03  0.41836497521E+03 -0.82595119811E+03  0.10123236746E+04  0.10100000352E+00 0.  1.
       -3    1    3    3    0  502  0.40935873982E+03 -0.41836497521E+03  0.65404366739E+03  0.87771120502E+03  0.10100000352E+00 0. -1.
</event>
<event>
 5   0  0.1694830E-04  0.1902691E+04  0.7818609E-02  0.8653518E-01
       -1   -1    0    0    0  501  0.00000000000E+00  0.00000000000E+00  0.51871458371E+03  0.51871458373E+03  0.50400001928E-02 0. -1.
        1   -1    0    0  501    0  0.00000000000E+00  0.00000000000E+00 -0.17448092151E+04  0.17448092151E+04  0.50400001928E-02 0.  1.
    10030    2    1    2    0    0  0.00000000000E+00  0.00000000000E+00 -0.12260946314E+04  0.22635237988E+04  0.19026907113E+04 0.  0.
        1    1    3    3  502    0 -0.82492162214E+03  0.25099693061E+03 -0.10912231360E+04  0.13907778667E+04  0.50400001928E-02 0.  1.
       -1    1    3    3    0  502  0.82492162214E+03 -0.25099693061E+03 -0.13487149541E+03  0.87274593219E+03  0.50400001928E-02 0. -1.
</event>
<event>
 5   0  0.1711979E-04  0.1863616E+04  0.7818609E-02  0.8673182E-01
       -1   -1    0    0    0  501  0.00000000000E+00  0.00000000000E+00  0.86406051217E+03  0.86406051218E+03  0.50400001928E-02 0.  1.
        1   -1    0    0  501    0  0.00000000000E+00  0.00000000000E+00 -0.10048668041E+04  0.10048668042E+04  0.50400001928E-02 0. -1.
    10030    2    1    2    0    0  0.00000000000E+00  0.00000000000E+00 -0.14080629198E+03  0.18689273163E+04  0.18636155456E+04 0.  0.
        4    1    3    3  502    0  0.13870863629E+03  0.61923375414E+03 -0.75467748372E+03  0.98601736566E+03  0.12699999809E+01 0. -1.
       -4    1    3    3    0  502 -0.13870863629E+03 -0.61923375414E+03  0.61387119174E+03  0.88290995068E+03  0.12699999809E+01 0.  1.
</event>
<event>
 5   0  0.1694830E-04  0.1900912E+04  0.7818609E-02  0.8654403E-01
        1   -1    0    0  501    0  0.00000000000E+00  0.00000000000E+00  0.10769953557E+04  0.10769953557E+04  0.50400001928E-02 0.  1.
       -1   -1    0    0    0  501  0.00000000000E+00  0.00000000000E+00 -0.83878379581E+03  0.83878379582E+03  0.50400001928E-02 0. -1.
    10030    2    1    2    0    0  0.00000000000E+00  0.00000000000E+00  0.23821155987E+03  0.19157791515E+04  0.19009116261E+04 0.  0.
        1    1    3    3  502    0  0.86972436117E+03  0.15454118374E+03 -0.23444103632E+03  0.91392890392E+03  0.50400001928E-02 0. -1.
       -1    1    3    3    0  502 -0.86972436117E+03 -0.15454118374E+03  0.47265259619E+03  0.10018502476E+04  0.50400001928E-02 0.  1.
</event>
<event>
 5   0  0.3535876E-04  0.1911216E+04  0.7818609E-02  0.8649294E-01
       -2   -1    0    0    0  501  0.00000000000E+00  0.00000000000E+00  0.78607320281E+03  0.78607320281E+03  0.25500000920E-02 0.  1.
        2   -1    0    0  501    0  0.00000000000E+00  0.00000000000E+00 -0.11617063843E+04  0.11617063843E+04  0.25500000920E-02 0. -1.
    10030    2    1    2    0    0  0.00000000000E+00  0.00000000000E+00 -0.37563318153E+03  0.19477795872E+04  0.19112155904E+04 0.  0.
        2    1    3    3  502    0 -0.18225935188E+03 -0.83843921187E+03 -0.61656388990E+03  0.10565745661E+04  0.25500000920E-02 0. -1.
       -2    1    3    3    0  502  0.18225935188E+03  0.83843921187E+03  0.24093070838E+03  0.89120502107E+03  0.25500000920E-02 0.  1.
</event>
<event>
 5   0  0.1711979E-04  0.1865074E+04  0.7818609E-02  0.8672439E-01
        1   -1    0    0  501    0  0.00000000000E+00  0.00000000000E+00  0.10097518525E+04  0.10097518526E+04  0.50400001928E-02 0.  1.
       -1   -1    0    0    0  501  0.00000000000E+00  0.00000000000E+00 -0.86122641729E+03  0.86122641731E+03  0.50400001928E-02 0. -1.
    10030    2    1    2    0    0  0.00000000000E+00  0.00000000000E+00  0.14852543524E+03  0.18709782699E+04  0.18650736933E+04 0.  0.
        4    1    3    3  502    0 -0.39158391052E+03  0.33706120170E+03  0.85304199622E+03  0.99731162276E+03  0.12699999809E+01 0.  1.
       -4    1    3    3    0  502  0.39158391052E+03 -0.33706120170E+03 -0.70451656098E+03  0.87366664710E+03  0.12699999809E+01 0. -1.
</event>
<event>
 5   0  0.3535876E-04  0.1927559E+04  0.7818609E-02  0.8641259E-01
        2   -1    0    0  501    0  0.00000000000E+00  0.00000000000E+00  0.13164573713E+04  0.13164573713E+04  0.25500000920E-02 0.  1.
       -2   -1    0    0    0  501  0.00000000000E+00  0.00000000000E+00 -0.70558347478E+03  0.70558347478E+03  0.25500000920E-02 0. -1.
    10030    2    1    2    0    0  0.00000000000E+00  0.00000000000E+00  0.61087389650E+03  0.20220408461E+04  0.19275586284E+04 0.  0.
        2    1    3    3  502    0 -0.37682205245E+03 -0.46275790856E+03  0.10993219678E+04  0.12508591168E+04  0.25500000920E-02 0.  1.
       -2    1    3    3    0  502  0.37682205245E+03  0.46275790856E+03 -0.48844807133E+03  0.77118172926E+03  0.25500000920E-02 0. -1.
</event>
<event>
 5   0  0.1694830E-04  0.1887324E+04  0.7818609E-02  0.8661192E-01
       -1   -1    0    0    0  501  0.00000000000E+00  0.00000000000E+00  0.10755447233E+04  0.10755447234E+04  0.50400001928E-02 0. -1.
        1   -1    0    0  501    0  0.00000000000E+00  0.00000000000E+00 -0.82795055477E+03  0.82795055479E+03  0.50400001928E-02 0.  1.
    10030    2    1    2    0    0  0.00000000000E+00  0.00000000000E+00  0.24759416858E+03  0.19034952782E+04  0.18873238730E+04 0.  0.
        1    1    3    3  502    0  0.77282559055E+03 -0.54147960603E+03  0.13003825997E+03  0.95255945023E+03  0.50400001928E-02 0. -1.
       -1    1    3    3    0  502 -0.77282559055E+03  0.54147960603E+03  0.11755590860E+03  0.95093582792E+03  0.50400001928E-02 0.  1.
</event>
<event>
 5   0  0.1782613E-04  0.1903293E+04  0.7818609E-02  0.8653219E-01
       -1   -1    0    0    0  501  0.00000000000E+00  0.00000000000E+00  0.10021654284E+04  0.10021654284E+04  0.50400001928E-02 0.  1.
        1   -1    0    0  501    0  0.00000000000E+00  0.00000000000E+00 -0.90367390510E+03  0.90367390512E+03  0.50400001928E-02 0. -1.
    10030    2    1    2    0    0  0.00000000000E+00  0.00000000000E+00  0.98491523318E+02  0.19058393336E+04  0.19032926693E+04 0.  0.
        3    1    3    3  502    0 -0.19903904488E+03  0.43825005083E+03 -0.77279792870E+03  0.91043742083E+03  0.10100000352E+00 0. -1.
       -3    1    3    3    0  502  0.19903904488E+03 -0.43825005083E+03  0.87128945202E+03  0.99540191272E+03  0.10100000352E+00 0.  1.
</event>
<event>
 5   0  0.3535876E-04  0.2268005E+04  0.7818609E-02  0.8490644E-01
       -2   -1    0    0    0  501  0.00000000000E+00  0.00000000000E+00  0.14655148010E+04  0.14655148010E+04  0.25500000920E-02 0.  1.
        2   -1    0    0  501    0  0.00000000000E+00  0.00000000000E+00 -0.87748120812E+03  0.87748120812E+03  0.25500000920E-02 0. -1.
    10030    2    1    2    0    0  0.00000000000E+00  0.00000000000E+00  0.58803359291E+03  0.23429960091E+04  0.22680050248E+04 0.  0.
        2    1    3    3  502    0 -0.57347277132E+03 -0.32676050787E+03 -0.65860011336E+03  0.93241490671E+03  0.25500000920E-02 0. -1.
       -2    1    3    3    0  502  0.57347277132E+03  0.32676050787E+03  0.12466337063E+04  0.14105811024E+04  0.25500000920E-02 0.  1.
</event>
<event>
 5   0  0.3459485E-04  0.1657522E+04  0.7818609E-02  0.8785969E-01
       -2   -1    0    0    0  501  0.00000000000E+00  0.00000000000E+00  0.44156734808E+03  0.44156734808E+03  0.25500000920E-02 0. -1.
        2   -1    0    0  501    0  0.00000000000E+00  0.00000000000E+00 -0.15554693978E+04  0.15554693978E+04  0.25500000920E-02 0.  1.
    10030    2    1    2    0    0  0.00000000000E+00  0.00000000000E+00 -0.11139020498E+04  0.19970367459E+04  0.16575216403E+04 0.  0.
        3    1    3    3  502    0 -0.50311883452E+03  0.10539123318E+03  0.22629107110E+03  0.56164359940E+03  0.10100000352E+00 0. -1.
       -3    1    3    3    0  502  0.50311883452E+03 -0.10539123318E+03 -0.13401931209E+04  0.14353931465E+04  0.10100000352E+00 0.  1.
</event>
<event>
 5   0  0.3623359E-04  0.1902737E+04  0.7818609E-02  0.8653495E-01
       -2   -1    0    0    0  501  0.00000000000E+00  0.00000000000E+00  0.56484054303E+03  0.56484054304E+03  0.25500000920E-02 0.  1.
        2   -1    0    0  501    0  0.00000000000E+00  0.00000000000E+00 -0.16024018934E+04  0.16024018934E+04  0.25500000920E-02 0. -1.
    10030    2    1    2    0    0  0.00000000000E+00  0.00000000000E+00 -0.10375613504E+04  0.21672424364E+04  0.19027365090E+04 0.  0.
        5    1    3    3  502    0  0.32680357114E+03  0.29209327642E+03 -0.14805292507E+04  0.15440557012E+04  0.46999998093E+01 0. -1.
       -5    1    3    3    0  502 -0.32680357114E+03 -0.29209327642E+03  0.44296790033E+03  0.62318673523E+03  0.46999998093E+01 0.  1.
</event>
<event>
 5   0  0.1711979E-04  0.1885728E+04  0.7818609E-02  0.8661993E-01
        1   -1    0    0  501    0  0.00000000000E+00  0.00000000000E+00  0.16077759351E+04  0.16077759351E+04  0.50400001928E-02 0.  1.
       -1   -1    0    0    0  501  0.00000000000E+00  0.00000000000E+00 -0.55293332176E+03  0.55293332178E+03  0.50400001928E-02 0. -1.
    10030    2    1    2    0    0  0.00000000000E+00  0.00000000000E+00  0.10548426134E+04  0.21607092569E+04  0.18857283882E+04 0.  0.
        4    1    3    3  502    0  0.84123390241E+03  0.36809859820E+03  0.28215054836E+03  0.96061522026E+03  0.12699999809E+01 0. -1.
       -4    1    3    3    0  502 -0.84123390241E+03 -0.36809859820E+03  0.77269206499E+03  0.12000940366E+04  0.12699999809E+01 0.  1.
</event>
<event>
 5   0  0.1694830E-04  0.1804825E+04  0.7818609E-02  0.8703738E-01
       -1   -1    0    0    0  501  0.00000000000E+00  0.00000000000E+00  0.79057443474E+03  0.79057443475E+03  0.50400001928E-02 0.  1.
        1   -1    0    0  501    0  0.00000000000E+00  0.00000000000E+00 -0.10300715371E+04  0.10300715371E+04  0.50400001928E-02 0. -1.
    10030    2    1    2    0    0  0.00000000000E+00  0.00000000000E+00 -0.23949710237E+03  0.18206459719E+04  0.18048248926E+04 0.  0.
        1    1    3    3  502    0  0.45757791084E+03 -0.46263252733E+02 -0.90297618420E+03  0.10133527630E+04  0.50400001928E-02 0. -1.
       -1    1    3    3    0  502 -0.45757791084E+03  0.46263252733E+02  0.66347908182E+03  0.80729320887E+03  0.50400001928E-02 0.  1.
</event>
<event>
 5   0  0.1782613E-04  0.1658521E+04  0.7818609E-02  0.8785382E-01
        1   -1    0    0  501    0  0.00000000000E+00  0.00000000000E+00  0.12189681345E+04  0.12189681345E+04  0.50400001928E-02 0.  1.
       -1   -1    0    0    0  501  0.00000000000E+00  0.00000000000E+00 -0.56414319233E+03  0.56414319235E+03  0.50400001928E-02 0. -1.
    10030    2    1    2    0    0  0.00000000000E+00  0.00000000000E+00  0.65482494213E+03  0.17831113268E+04  0.16585205151E+04 0.  0.
        3    1    3    3  502    0  0.47554993198E+03  0.66228513687E+03  0.16470558882E+03  0.83180363158E+03  0.10100000352E+00 0.  1.
       -3    1    3    3    0  502 -0.47554993198E+03 -0.66228513687E+03  0.49011935331E+03  0.95130769523E+03  0.10100000352E+00 0. -1.
</event>
<event>
 5   0  0.3459485E-04  0.1890597E+04  0.7818609E-02  0.8659551E-01
       -2   -1    0    0    0  501  0.00000000000E+00  0.00000000000E+00  0.85096508433E+03  0.85096508433E+03  0.25500000920E-02 0. -1.
        2   -1    0    0  501    0  0.00000000000E+00  0.00000000000E+00 -0.10500896958E+04  0.10500896958E+04  0.25500000920E-02 0.  1.
    10030    2    1    2    0    0  0.00000000000E+00  0.00000000000E+00 -0.19912461146E+03  0.19010547801E+04  0.18905974363E+04 0.  0.
        3    1    3    3  502    0 -0.77749055077E+03 -0.41278015603E+03  0.24688755796E+03  0.91423874903E+03  0.10100000352E+00 0. -1.
       -3    1    3    3    0  502  0.77749055077E+03  0.41278015603E+03 -0.44601216942E+03  0.98681603109E+03  0.10100000352E+00 0.  1.
</event>
<event>
 5   0  0.3535876E-04  0.1870863E+04  0.7818609E-02  0.8669497E-01
       -2   -1    0    0    0  501  0.00000000000E+00  0.00000000000E+00  0.82940633419E+03  0.82940633419E+03  0.25500000920E-02 0.  1.
        2   -1    0    0  501    0  0.00000000000E+00  0.00000000000E+00 -0.10550101715E+04  0.10550101715E+04  0.25500000920E-02 0. -1.
    10030    2    1    2    0    0  0.00000000000E+00  0.00000000000E+00 -0.22560383734E+03  0.18844165057E+04  0.18708630296E+04 0.  0.
        2    1    3    3  502    0 -0.18821000575E+03  0.18889750486E+03 -0.10159171612E+04  0.10503299254E+04  0.25500000920E-02 0. -1.
       -2    1    3    3    0  502  0.18821000575E+03 -0.18889750486E+03  0.79031332390E+03  0.83408658036E+03  0.25500000920E-02 0.  1.
</event>
<event>
 5   0  0.1758946E-04  0.1907229E+04  0.7818609E-02  0.8651266E-01
        1   -1    0    0  501    0  0.00000000000E+00  0.00000000000E+00  0.59202334364E+03  0.59202334366E+03  0.50400001928E-02 0. -1.
       -1   -1    0    0    0  501  0.00000000000E+00  0.00000000000E+00 -0.15360558917E+04  0.15360558917E+04  0.50400001928E-02 0.  1.
    10030    2    1    2    0    0  0.00000000000E+00  0.00000000000E+00 -0.94403254803E+03  0.21280792353E+04  0.19072293465E+04 0.  0.
        2    1    3    3  502    0 -0.29784058313E+03 -0.89213925978E+03 -0.29644414568E+03  0.98615445206E+03  0.25500000920E-02 0.  1.
       -2    1    3    3    0  502  0.29784058313E+03  0.89213925978E+03 -0.64758840235E+03  0.11419247833E+04  0.25500000920E-02 0. -1.
</event>
<event>
 5   0  0.1758946E-04  0.1893493E+04  0.7818609E-02  0.8658102E-01
       -1   -1    0    0    0  501  0.00000000000E+00  0.00000000000E+00  0.11144970330E+04  0.11144970331E+04  0.50400001928E-02 0. -1.
        1   -1    0    0  501    0  0.00000000000E+00  0.00000000000E+00 -0.80424489070E+03  0.80424489072E+03  0.50400001928E-02 0.  1.
    10030    2    1    2    0    0  0.00000000000E+00  0.00000000000E+00  0.31025214234E+03  0.19187419238E+04  0.18934925873E+04 0.  0.
        2    1    3    3  502    0  0.83031569424E+03  0.42670067131E+03 -0.45535319485E+01  0.93355147134E+03  0.25500000920E-02 0. -1.
       -2    1    3    3    0  502 -0.83031569424E+03 -0.42670067131E+03  0.31480567429E+03  0.98519045243E+03  0.25500000920E-02 0.  1.
</event>
<event>
 5   0  0.3516539E-04  0.1942068E+04  0.7818609E-02  0.8634195E-01
       -2   -1    0    0    0  501  0.00000000000E+00  0.00000000000E+00  0.67963820585E+03  0.67963820585E+03  0.25500000920E-02 0.  1.
        2   -1    0    0  501    0  0.00000000000E+00  0.00000000000E+00 -0.13873661451E+04  0.13873661451E+04  0.25500000920E-02 0. -1.
    10030    2    1    2    0    0  0.00000000000E+00  0.00000000000E+00 -0.70772793923E+03  0.20670043509E+04  0.19420680088E+04 0.  0.
        4    1    3    3  502    0  0.60016554278E+03  0.37674064446E+03 -0.10604817528E+04  0.12754431986E+04  0.12699999809E+01 0. -1.
       -4    1    3    3    0  502 -0.60016554278E+03 -0.37674064446E+03  0.35275381361E+03  0.79156115231E+03  0.12699999809E+01 0.  1.
</event>
<event>
 5   0  0.1782613E-04  0.1937135E+04  0.7818609E-02  0.8636589E-01
       -1   -1    0    0    0  501  0.00000000000E+00  0.00000000000E+00  0.92091359179E+03  0.92091359181E+03  0.50400001928E-02 0. -1.
        1   -1    0    0  501    0  0.00000000000E+00  0.00000000000E+00 -0.10186878481E+04  0.10186878481E+04  0.50400001928E-02 0.  1.
    10030    2    1    2    0    0  0.00000000000E+00  0.00000000000E+00 -0.97774256282E+02  0.19396014399E+04  0.19371354987E+04 0.  0.
        3    1    3    3  502    0 -0.37678208506E+03  0.85516624646E+03 -0.30386680530E+03  0.98265410714E+03  0.10100000352E+00 0.  1.
       -3    1    3    3    0  502  0.37678208506E+03 -0.85516624646E+03  0.20609254902E+03  0.95694733276E+03  0.10100000352E+00 0. -1.
</event>
<event>
 5   0  0.3720978E-04  0.1886182E+04  0.7818609E-02  0.8661765E-01
       -2   -1    0    0    0  501  0.00000000000E+00  0.00000000000E+00  0.71247331846E+03  0.71247331847E+03  0.25500000920E-02 0.  1.
        2   -1    0    0  501    0  0.00000000000E+00  0.00000000000E+00 -0.12483560466E+04  0.12483560466E+04  0.25500000920E-02 0. -1.
    10030    2    1    2    0    0  0.00000000000E+00  0.00000000000E+00 -0.53588272812E+03  0.19608293650E+04  0.18861817252E+04 0.  0.
        1    1    3    3  502    0  0.51685978297E+03  0.24049020165E+03  0.51308459691E+03  0.76696504221E+03  0.50400001928E-02 0.  1.
       -1    1    3    3    0  502 -0.51685978297E+03 -0.24049020165E+03 -0.10489673250E+04  0.11938643228E+04  0.50400001928E-02 0. -1.
</event>
<event>
 5   0  0.1758946E-04  0.1657684E+04  0.7818609E-02  0.8785874E-01
       -1   -1    0    0    0  501  0.00000000000E+00  0.00000000000E+00  0.96110096564E+03  0.96110096565E+03  0.50400001928E-02 0.  1.
        1   -1    0    0  501    0  0.00000000000E+00  0.00000000000E+00 -0.71478301749E+03  0.71478301750E+03  0.50400001928E-02 0. -1.
    10030    2    1    2    0    0  0.00000000000E+00  0.00000000000E+00  0.24631794815E+03  0.16758839832E+04  0.16576835022E+04 0.  0.
        2    1    3    3  502    0  0.63169659376E+03 -0.47541119301E+03  0.37473296074E+03  0.87491781379E+03  0.25500000920E-02 0. -1.
       -2    1    3    3    0  502 -0.63169659376E+03  0.47541119301E+03 -0.12841501259E+03  0.80096616937E+03  0.25500000920E-02 0.  1.
</event>
<event>
 5   0  0.1711979E-04  0.1892877E+04  0.7818609E-02  0.8658410E-01
       -1   -1    0    0    0  501  0.00000000000E+00  0.00000000000E+00  0.76975236039E+03  0.76975236040E+03  0.50400001928E-02 0.  1.
        1   -1    0    0  501    0  0.00000000000E+00  0.00000000000E+00 -0.11636806814E+04  0.11636806814E+04  0.50400001928E-02 0. -1.
    10030    2    1    2    0    0  0.00000000000E+00  0.00000000000E+00 -0.39392832097E+03  0.19334330418E+04  0.18928771236E+04 0.  0.
        4    1    3    3  502    0  0.22622040231E+03  0.38392644511E+03  0.65589200833E+03  0.79295089707E+03  0.12699999809E+01 0.  1.
       -4    1    3    3    0  502 -0.22622040231E+03 -0.38392644511E+03 -0.10498203293E+04  0.11404821447E+04  0.12699999809E+01 0. -1.
</event>
<event>
 5   0  0.3516539E-04  0.1842456E+04  0.7818609E-02  0.8684042E-01
        2   -1    0    0  501    0  0.00000000000E+00  0.00000000000E+00  0.67534815055E+03  0.67534815055E+03  0.25500000920E-02 0. -1.
       -2   -1    0    0    0  501  0.00000000000E+00  0.00000000000E+00 -0.12566279627E+04  0.12566279627E+04  0.25500000920E-02 0.  1.
    10030    2    1    2    0    0  0.00000000000E+00  0.00000000000E+00 -0.58127981219E+03  0.19319761133E+04  0.18424563719E+04 0.  0.
        4    1    3    3  502    0  0.77086526133E+03 -0.12239817873E+03  0.22246669340E+03  0.81160803832E+03  0.12699999809E+01 0. -1.
       -4    1    3    3    0  502 -0.77086526133E+03  0.12239817873E+03 -0.80374650560E+03  0.11203680750E+04  0.12699999809E+01 0.  1.
</event>
<event>
 5   0  0.3535876E-04  0.1908913E+04  0.7818609E-02  0.8650432E-01
        2   -1    0    0  501    0  0.00000000000E+00  0.00000000000E+00  0.12590631238E+04  0.12590631238E+04  0.25500000920E-02 0.  1.
       -2   -1    0    0    0  501  0.00000000000E+00  0.00000000000E+00 -0.72354404535E+03  0.72354404535E+03  0.25500000920E-02 0. -1.
    10030    2    1    2    0    0  0.00000000000E+00  0.00000000000E+00  0.53551907841E+03  0.19826071691E+04  0.19089134354E+04 0.  0.
        2    1    3    3  502    0  0.54822805552E+03  0.74379868864E+03  0.19367553962E+02  0.92421079427E+03  0.25500000920E-02 0. -1.
       -2    1    3    3    0  502 -0.54822805552E+03 -0.74379868864E+03  0.51615152445E+03  0.10583963748E+04  0.25500000920E-02 0.  1.
</event>
<event>
 5   0  0.1813834E-04  0.1905695E+04  0.7818609E-02  0.8652027E-01
       -1   -1    0    0    0  501  0.00000000000E+00  0.00000000000E+00  0.72508255962E+03  0.72508255964E+03  0.50400001928E-02 0.  1.
        1   -1    0    0  501    0  0.00000000000E+00  0.00000000000E+00 -0.12521590690E+04  0.12521590690E+04  0.50400001928E-02 0. -1.
    10030    2    1    2    0    0  0.00000000000E+00  0.00000000000E+00 -0.52707650941E+03  0.19772416287E+04  0.19056953616E+04 0.  0.
        5    1    3    3  502    0 -0.74533305670E+03  0.24453122025E+03  0.29767560239E+03  0.83901712578E+03  0.46999998093E+01 0.  1.
       -5    1    3    3    0  502  0.74533305670E+03 -0.24453122025E+03 -0.82475211180E+03  0.11382245029E+04  0.46999998093E+01 0. -1.
</event>
<event>
 5   0  0.3623359E-04  0.1778644E+04  0.7818609E-02  0.8717740E-01
       -2   -1    0    0    0  501  0.00000000000E+00  0.00000000000E+00  0.11613061783E+04  0.11613061783E+04  0.25500000920E-02 0.  1.
        2   -1    0    0  501    0  0.00000000000E+00  0.00000000000E+00 -0.68103781527E+03  0.68103781527E+03  0.25500000920E-02 0. -1.
    10030    2    1    2    0    0  0.00000000000E+00  0.00000000000E+00  0.48026836302E+03  0.18423439936E+04  0.17786437783E+04 0.  0.
        5    1    3    3  502    0 -0.49467219631E+03 -0.11560252123E+02  0.10055418790E+04  0.11207010224E+04  0.46999998093E+01 0.  1.
       -5    1    3    3    0  502  0.49467219631E+03  0.11560252123E+02 -0.52527351597E+03  0.72164297115E+03  0.46999998093E+01 0. -1.
</event>
<event>
 5   0  0.3535876E-04  0.1915670E+04  0.7818609E-02  0.8647096E-01
       -2   -1    0    0    0  501  0.00000000000E+00  0.00000000000E+00  0.45673757549E+03  0.45673757549E+03  0.25500000920E-02 0.  1.
        2   -1    0    0  501    0  0.00000000000E+00  0.00000000000E+00 -0.20086974478E+04  0.20086974478E+04  0.25500000920E-02 0. -1.
    10030    2    1    2    0    0  0.00000000000E+00  0.00000000000E+00 -0.15519598723E+04  0.24654350233E+04  0.19156697024E+04 0.  0.
        2    1    3    3  502    0  0.35868721347E+03 -0.70267255319E+03 -0.14750410153E+04  0.16727675364E+04  0.25500000920E-02 0.  1.
       -2    1    3    3    0  502 -0.35868721347E+03  0.70267255319E+03 -0.76918856983E+02  0.79266748683E+03  0.25500000920E-02 0. -1.
</event>
<event>
 5   0  0.1287000E-04  0.1824164E+04  0.7818609E-02  0.8693554E-01
       -4   -1    0    0    0  501  0.00000000000E+00  0.00000000000E+00  0.11417726872E+04  0.11417733935E+04  0.12699999809E+01 0. -1.
        4   -1    0    0  501    0  0.00000000000E+00  0.00000000000E+00 -0.72859691214E+03  0.72859801899E+03  0.12699999809E+01 0.  1.
    10030    2    1    2    0    0  0.00000000000E+00  0.00000000000E+00  0.41317577501E+03  0.18703714125E+04  0.18241641920E+04 0.  0.
        4    1    3    3  502    0 -0.14045281652E+03 -0.84083130257E+03  0.53909845800E+03  0.10086391988E+04  0.12699999809E+01 0. -1.
       -4    1    3    3    0  502  0.14045281652E+03  0.84083130257E+03 -0.12592268299E+03  0.86173221365E+03  0.12699999809E+01 0.  1.
</event>
<event>
 5   0  0.1782613E-04  0.1894213E+04  0.7818609E-02  0.8657742E-01
       -1   -1    0    0    0  501  0.00000000000E+00  0.00000000000E+00  0.53220260119E+03  0.53220260121E+03  0.50400001928E-02 0.  1.
        1   -1    0    0  501    0  0.00000000000E+00  0.00000000000E+00 -0.16854688803E+04  0.16854688803E+04  0.50400001928E-02 0. -1.
    10030    2    1    2    0    0  0.00000000000E+00  0.00000000000E+00 -0.11532662791E+04  0.22176714815E+04  0.18942132112E+04 0.  0.
        3    1    3    3  502    0 -0.31660945084E+03  0.68281904086E+03  0.96455353952E+02  0.75880632076E+03  0.10100000352E+00 0.  1.
       -3    1    3    3    0  502  0.31660945084E+03 -0.68281904086E+03 -0.12497216331E+04  0.14588651608E+04  0.10100000352E+00 0. -1.
</event>
<event>
 5   0  0.3720978E-04  0.1906660E+04  0.7818609E-02  0.8651548E-01
       -2   -1    0    0    0  501  0.00000000000E+00  0.00000000000E+00  0.61270510449E+03  0.61270510450E+03  0.25500000920E-02 0.  1.
        2   -1    0    0  501    0  0.00000000000E+00  0.00000000000E+00 -0.14833208913E+04  0.14833208913E+04  0.25500000920E-02 0. -1.
    10030    2    1    2    0    0  0.00000000000E+00  0.00000000000E+00 -0.87061578676E+03  0.20960259958E+04  0.19066602022E+04 0.  0.
        1    1    3    3  502    0 -0.54119573726E+03  0.77967337460E+03 -0.53397059962E+03  0.10889940305E+04  0.50400001928E-02 0.  1.
       -1    1    3    3    0  502  0.54119573726E+03 -0.77967337460E+03 -0.33664518714E+03  0.10070319653E+04  0.50400001928E-02 0. -1.
</event>
<event>
 5   0  0.1782613E-04  0.1867704E+04  0.7818609E-02  0.8671101E-01
        1   -1    0    0  501    0  0.00000000000E+00  0.00000000000E+00  0.14941010663E+04  0.14941010663E+04  0.50400001928E-02 0. -1.
       -1   -1    0    0    0  501  0.00000000000E+00  0.00000000000E+00 -0.58368186450E+03  0.58368186452E+03  0.50400001928E-02 0.  1.
    10030    2    1    2    0    0  0.00000000000E+00  0.00000000000E+00  0.91041920184E+03  0.20777829309E+04  0.18677041481E+04 0.  0.
        3    1    3    3  502    0 -0.37609148607E+02  0.85166137133E+03  0.87932290830E+03  0.12247245922E+04  0.10100000352E+00 0. -1.
       -3    1    3    3    0  502  0.37609148607E+02 -0.85166137133E+03  0.31096293536E+02  0.85305833866E+03  0.10100000352E+00 0.  1.
</event>
<event>
 5   0  0.3535876E-04  0.1917887E+04  0.7818609E-02  0.8646004E-01
        2   -1    0    0  501    0  0.00000000000E+00  0.00000000000E+00  0.14929339310E+04  0.14929339310E+04  0.25500000920E-02 0.  1.
       -2   -1    0    0    0  501  0.00000000000E+00  0.00000000000E+00 -0.61595026982E+03  0.61595026982E+03  0.25500000920E-02 0. -1.
    10030    2    1    2    0    0  0.00000000000E+00  0.00000000000E+00  0.87698366120E+03  0.21088842008E+04  0.19178874395E+04 0.  0.
        2    1    3    3  502    0  0.12412450455E+03 -0.88851992110E+03  0.81089083867E+03  0.12093049636E+04  0.25500000920E-02 0.  1.
       -2    1    3    3    0  502 -0.12412450455E+03  0.88851992110E+03  0.66092822530E+02  0.89957923721E+03  0.25500000920E-02 0. -1.
</event>
<event>
 5   0  0.3459485E-04  0.1871780E+04  0.7818609E-02  0.8669032E-01
       -2   -1    0    0    0  501  0.00000000000E+00  0.00000000000E+00  0.11219577799E+04  0.11219577799E+04  0.25500000920E-02 0. -1.
        2   -1    0    0  501    0  0.00000000000E+00  0.00000000000E+00 -0.78067973192E+03  0.78067973192E+03  0.25500000920E-02 0.  1.
    10030    2    1    2    0    0  0.00000000000E+00  0.00000000000E+00  0.34127804800E+03  0.19026375118E+04  0.18717795798E+04 0.  0.
        3    1    3    3  502    0 -0.19262347710E+03 -0.47814722897E+03 -0.62336666180E+03  0.80889713916E+03  0.10100000352E+00 0.  1.
       -3    1    3    3    0  502  0.19262347710E+03  0.47814722897E+03  0.96464470979E+03  0.10937403727E+04  0.10100000352E+00 0. -1.
</event>
<event>
 5   0  0.3720978E-04  0.1497795E+04  0.7818609E-02  0.8885921E-01
       -2   -1    0    0    0  501  0.00000000000E+00  0.00000000000E+00  0.70409084162E+03  0.70409084162E+03  0.25500000920E-02 0. -1.
        2   -1    0    0  501    0  0.00000000000E+00  0.00000000000E+00 -0.79655551233E+03  0.79655551234E+03  0.25500000920E-02 0.  1.
    10030    2    1    2    0    0  0.00000000000E+00  0.00000000000E+00 -0.92464670714E+02  0.15006463540E+04  0.14977949674E+04 0.  0.
        1    1    3    3  502    0 -0.33354138169E+03 -0.66731540232E+03 -0.11183784174E+03  0.75436556280E+03  0.50400001928E-02 0.  1.
       -1    1    3    3    0  502  0.33354138169E+03  0.66731540232E+03  0.19373171025E+02  0.74628079116E+03  0.50400001928E-02 0. -1.
</event>
<event>
 5   0  0.3623359E-04  0.1879262E+04  0.7818609E-02  0.8665248E-01
        2   -1    0    0  501    0  0.00000000000E+00  0.00000000000E+00  0.19111692180E+04  0.19111692180E+04  0.25500000920E-02 0. -1.
       -2   -1    0    0    0  501  0.00000000000E+00  0.00000000000E+00 -0.46197208325E+03  0.46197208325E+03  0.25500000920E-02 0.  1.
    10030    2    1    2    0    0  0.00000000000E+00  0.00000000000E+00  0.14491971348E+04  0.23731413013E+04  0.18792624352E+04 0.  0.
        5    1    3    3  502    0  0.51582720116E+03  0.78663858257E+02  0.17113808264E+04  0.17891652040E+04  0.46999998093E+01 0. -1.
       -5    1    3    3    0  502 -0.51582720116E+03 -0.78663858257E+02 -0.26218369165E+03  0.58397609730E+03  0.46999998093E+01 0.  1.
</event>
<event>
 5   0  0.1711979E-04  0.1891751E+04  0.7818609E-02  0.8658973E-01
        1   -1    0    0  501    0  0.00000000000E+00  0.00000000000E+00  0.82157947343E+03  0.82157947345E+03  0.50400001928E-02 0.  1.
       -1   -1    0    0    0  501  0.00000000000E+00  0.00000000000E+00 -0.10889764047E+04  0.10889764047E+04  0.50400001928E-02 0. -1.
    10030    2    1    2    0    0  0.00000000000E+00  0.00000000000E+00 -0.26739693125E+03  0.19105558781E+04  0.18917512111E+04 0.  0.
        4    1    3    3  502    0 -0.26358940919E+03 -0.90205252755E+03 -0.24200678327E+03  0.97043651784E+03  0.12699999809E+01 0. -1.
       -4    1    3    3    0  502  0.26358940919E+03  0.90205252755E+03 -0.25390147980E+02  0.94011936030E+03  0.12699999809E+01 0.  1.
</event>
<event>
 5   0  0.1813834E-04  0.1906126E+04  0.7818609E-02  0.8651813E-01
        1   -1    0    0  501    0  0.00000000000E+00  0.00000000000E+00  0.10415326942E+04  0.10415326942E+04  0.50400001928E-02 0. -1.
       -1   -1    0    0    0  501  0.00000000000E+00  0.00000000000E+00 -0.87210806476E+03  0.87210806477E+03  0.50400001928E-02 0.  1.
    10030    2    1    2    0    0  0.00000000000E+00  0.00000000000E+00  0.16942462947E+03  0.19136407590E+04  0.19061259794E+04 0.  0.
        5    1    3    3  502    0  0.37657159080E+03 -0.75278513957E+03 -0.36405707715E+03  0.91708847707E+03  0.46999998093E+01 0.  1.
       -5    1    3    3    0  502 -0.37657159080E+03  0.75278513957E+03  0.53348170662E+03  0.99655228195E+03  0.46999998093E+01 0. -1.
</event>
<event>
 5   0  0.3516539E-04  0.1900302E+04  0.7818609E-02  0.8654706E-01
       -2   -1    0    0    0  501  0.00000000000E+00  0.00000000000E+00  0.10895173667E+04  0.10895173667E+04  0.25500000920E-02 0. -1.
        2   -1    0    0  501    0  0.00000000000E+00  0.00000000000E+00 -0.82861190762E+03  0.82861190763E+03  0.25500000920E-02 0.  1.
    10030    2    1    2    0    0  0.00000000000E+00  0.00000000000E+00  0.26090545910E+03  0.19181292744E+04  0.19003021482E+04 0.  0.
        4    1    3    3  502    0 -0.49532486130E+03  0.62591850993E+03  0.65071482060E+03  0.10298310978E+04  0.12699999809E+01 0. -1.
       -4    1    3    3    0  502  0.49532486130E+03 -0.62591850993E+03 -0.38980936151E+03  0.88829817658E+03  0.12699999809E+01 0.  1.
</event>
<event>
 5   0  0.1711979E-04  0.1903477E+04  0.7818609E-02  0.8653127E-01
        1   -1    0    0  501    0  0.00000000000E+00  0.00000000000E+00  0.19465141053E+04  0.19465141053E+04  0.50400001928E-02 0. -1.
       -1   -1    0    0    0  501  0.00000000000E+00  0.00000000000E+00 -0.46534797082E+03  0.46534797084E+03  0.50400001928E-02 0.  1.
    10030    2    1    2    0    0  0.00000000000E+00  0.00000000000E+00  0.14811661345E+04  0.24118620762E+04  0.19034772277E+04 0.  0.
        4    1    3    3  502    0 -0.79811094205E+03 -0.43900404817E+03  0.10901212911E+04  0.14205884951E+04  0.12699999809E+01 0. -1.
       -4    1    3    3    0  502  0.79811094205E+03  0.43900404817E+03  0.39104484342E+03  0.99127358111E+03  0.12699999809E+01 0.  1.
</event>
<event>
 5   0  0.1694830E-04  0.1857390E+04  0.7818609E-02  0.8676361E-01
       -1   -1    0    0    0  501  0.00000000000E+00  0.00000000000E+00  0.58387154354E+03  0.58387154356E+03  0.50400001928E-02 0.  1.
        1   -1    0    0  501    0  0.00000000000E+00  0.00000000000E+00 -0.14771652507E+04  0.14771652507E+04  0.50400001928E-02 0. -1.
    10030    2    1    2    0    0  0.00000000000E+00  0.00000000000E+00 -0.89329370719E+03  0.20610367943E+04  0.18573903790E+04 0.  0.
        1    1    3    3  502    0  0.70136571283E+02  0.38720316728E+03 -0.13800848260E+04  0.14350886936E+04  0.50400001928E-02 0. -1.
       -1    1    3    3    0  502 -0.70136571283E+02 -0.38720316728E+03  0.48679111884E+03  0.62594810071E+03  0.50400001928E-02 0.  1.
</event>
<event>
 5   0  0.3720978E-04  0.1852524E+04  0.7818609E-02  0.8678856E-01
       -2   -1    0    0    0  501  0.00000000000E+00  0.00000000000E+00  0.54215711953E+03  0.54215711953E+03  0.25500000920E-02 0.  1.
        2   -1    0    0  501    0  0.00000000000E+00  0.00000000000E+00 -0.15824958001E+04  0.15824958001E+04  0.25500000920E-02 0. -1.
    10030    2    1    2    0    0  0.00000000000E+00  0.00000000000E+00 -0.10403386805E+04  0.21246529196E+04  0.18525240777E+04 0.  0.
        1    1    3    3  502    0  0.48424506948E+03 -0.25221695752E+03  0.33797786211E+03  0.64213372150E+03  0.50400001928E-02 0.  1.
       -1    1    3    3    0  502 -0.48424506948E+03  0.25221695752E+03 -0.13783165426E+04  0.14825191981E+04  0.50400001928E-02 0. -1.
</event>
<event>
 5   0  0.1813834E-04  0.1847234E+04  0.7818609E-02  0.8681577E-01
       -1   -1    0    0    0  501  0.00000000000E+00  0.00000000000E+00  0.10855335250E+04  0.10855335251E+04  0.50400001928E-02 0.  1.
        1   -1    0    0  501    0  0.00000000000E+00  0.00000000000E+00 -0.78585130830E+03  0.78585130832E+03  0.50400001928E-02 0. -1.
    10030    2    1    2    0    0  0.00000000000E+00  0.00000000000E+00  0.29968221674E+03  0.18713848334E+04  0.18472335433E+04 0.  0.
        5    1    3    3  502    0  0.33992608034E+03  0.76125812903E+03  0.55250745938E+03  0.10001751156E+04  0.46999998093E+01 0.  1.
       -5    1    3    3    0  502 -0.33992608034E+03 -0.76125812903E+03 -0.25282524264E+03  0.87120971782E+03  0.46999998093E+01 0. -1.
</event>
<event>
 5   0  0.3516539E-04  0.1917532E+04  0.7818609E-02  0.8646178E-01
        2   -1    0    0  501    0  0.00000000000E+00  0.00000000000E+00  0.20786249912E+04  0.20786249912E+04  0.25500000920E-02 0.  1.
       -2   -1    0    0    0  501  0.00000000000E+00  0.00000000000E+00 -0.44223094117E+03  0.44223094118E+03  0.25500000920E-02 0. -1.
    10030    2    1    2    0    0  0.00000000000E+00  0.00000000000E+00  0.16363940500E+04  0.25208559324E+04  0.19175320453E+04 0.  0.
        4    1    3    3  502    0 -0.41821455814E+03 -0.86127930228E+03  0.75213452299E+03  0.12175440061E+04  0.12699999809E+01 0.  1.
       -4    1    3    3    0  502  0.41821455814E+03  0.86127930228E+03  0.88425952705E+03  0.13033119263E+04  0.12699999809E+01 0. -1.
</event>
<event>
 5   0  0.3720978E-04  0.1884035E+04  0.7818609E-02  0.8662844E-01
        2   -1    0    0  501    0  0.00000000000E+00  0.00000000000E+00  0.12968356125E+04  0.12968356125E+04  0.25500000920E-02 0. -1.
       -2   -1    0    0    0  501  0.00000000000E+00  0.00000000000E+00 -0.68427844581E+03  0.68427844582E+03  0.25500000920E-02 0.  1.
    10030    2    1    2    0    0  0.00000000000E+00  0.00000000000E+00  0.61255716668E+03  0.19811140583E+04  0.18840346678E+04 0.  0.
        1    1    3    3  502    0  0.56406453276E+02 -0.47238319039E+03  0.11612350779E+04  0.12549081531E+04  0.50400001928E-02 0. -1.
       -1    1    3    3    0  502 -0.56406453276E+02  0.47238319039E+03 -0.54867791120E+03  0.72620590524E+03  0.50400001928E-02 0.  1.
</event>
<event>
 5   0  0.3459485E-04  0.1878368E+04  0.7818609E-02  0.8665700E-01
        2   -1    0    0  501    0  0.00000000000E+00  0.00000000000E+00  0.17707607730E+04  0.17707607730E+04  0.25500000920E-02 0. -1.
       -2   -1    0    0    0  501  0.00000000000E+00  0.00000000000E+00 -0.49812837972E+03  0.49812837972E+03  0.25500000920E-02 0.  1.
    10030    2    1    2    0    0  0.00000000000E+00  0.00000000000E+00  0.12726323932E+04  0.22688891527E+04  0.18783675835E+04 0.  0.
        3    1    3    3  502    0  0.26457790990E+03 -0.28713513282E+03 -0.39544811703E+03  0.55572230329E+03  0.10100000352E+00 0.  1.
       -3    1    3    3    0  502 -0.26457790990E+03  0.28713513282E+03  0.16680805103E+04  0.17131668494E+04  0.10100000352E+00 0. -1.
</event>
<event>
 5   0  0.3535876E-04  0.1926561E+04  0.7818609E-02  0.8641747E-01
        2   -1    0    0  501    0  0.00000000000E+00  0.00000000000E+00  0.16388487198E+04  0.16388487198E+04  0.25500000920E-02 0. -1.
       -2   -1    0    0    0  501  0.00000000000E+00  0.00000000000E+00 -0.56619592572E+03  0.56619592573E+03  0.25500000920E-02 0.  1.
    10030    2    1    2    0    0  0.00000000000E+00  0.00000000000E+00  0.10726527941E+04  0.22050446455E+04  0.19265611519E+04 0.  0.
        2    1    3    3  502    0 -0.27223925205E+02 -0.22292023737E+03  0.16084674802E+04  0.16240696442E+04  0.25500000920E-02 0. -1.
       -2    1    3    3    0  502  0.27223925205E+02  0.22292023737E+03 -0.53581468611E+03  0.58097500135E+03  0.25500000920E-02 0.  1.
</event>
<event>
 5   0  0.3720978E-04  0.1883265E+04  0.7818609E-02  0.8663231E-01
        2   -1    0    0  501    0  0.00000000000E+00  0.00000000000E+00  0.12628413304E+04  0.12628413304E+04  0.25500000920E-02 0.  1.
       -2   -1    0    0    0  501  0.00000000000E+00  0.00000000000E+00 -0.70212472612E+03  0.70212472613E+03  0.25500000920E-02 0. -1.
    10030    2    1    2    0    0  0.00000000000E+00  0.00000000000E+00  0.56071660425E+03  0.19649660565E+04  0.18832653804E+04 0.  0.
        1    1    3    3  502    0  0.63346244838E+03 -0.42421338647E+03 -0.29628440903E+03  0.81793405714E+03  0.50400001928E-02 0. -1.
       -1    1    3    3    0  502 -0.63346244838E+03  0.42421338647E+03  0.85700101328E+03  0.11470319994E+04  0.50400001928E-02 0.  1.
</event>
<event>
 5   0  0.3623359E-04  0.1872039E+04  0.7818609E-02  0.8668901E-01
        2   -1    0    0  501    0  0.00000000000E+00  0.00000000000E+00  0.17792318733E+04  0.17792318733E+04  0.25500000920E-02 0. -1.
       -2   -1    0    0    0  501  0.00000000000E+00  0.00000000000E+00 -0.49242176271E+03  0.49242176272E+03  0.25500000920E-02 0.  1.
    10030    2    1    2    0    0  0.00000000000E+00  0.00000000000E+00  0.12868101106E+04  0.22716536360E+04  0.18720389903E+04 0.  0.
        5    1    3    3  502    0  0.29939488361E+03 -0.63569370578E+03 -0.10695068836E+03  0.71077726725E+03  0.46999998093E+01 0.  1.
       -5    1    3    3    0  502 -0.29939488361E+03  0.63569370578E+03  0.13937607990E+04  0.15608763688E+04  0.46999998093E+01 0. -1.
</event>
<event>
 5   0  0.3535876E-04  0.1904640E+04  0.7818609E-02  0.8652550E-01
       -2   -1    0    0    0  501  0.00000000000E+00  0.00000000000E+00  0.48055198809E+03  0.48055198810E+03  0.25500000920E-02 0. -1.
        2   -1    0    0  501    0  0.00000000000E+00  0.00000000000E+00 -0.18872318150E+04  0.18872318150E+04  0.25500000920E-02 0.  1.
    10030    2    1    2    0    0  0.00000000000E+00  0.00000000000E+00 -0.14066798269E+04  0.23677838031E+04  0.19046395992E+04 0.  0.
        2    1    3    3  502    0 -0.41413700395E+03 -0.38143681040E+03  0.25148102003E+03  0.61664106400E+03  0.25500000920E-02 0. -1.
       -2    1    3    3    0  502  0.41413700395E+03  0.38143681040E+03 -0.16581608470E+04  0.17511427391E+04  0.25500000920E-02 0.  1.
</event>
<event>
 5   0  0.1782613E-04  0.1915961E+04  0.7818609E-02  0.8646952E-01
        1   -1    0    0  501    0  0.00000000000E+00  0.00000000000E+00  0.12152735858E+04  0.12152735858E+04  0.50400001928E-02 0. -1.
       -1   -1    0    0    0  501  0.00000000000E+00  0.00000000000E+00 -0.75516048560E+03  0.75516048562E+03  0.50400001928E-02 0.  1.
    10030    2    1    2    0    0  0.00000000000E+00  0.00000000000E+00  0.46011310022E+03  0.19704340715E+04  0.19159609508E+04 0.  0.
        3    1    3    3  502    0  0.52328858231E+03 -0.57758943367E+03 -0.34281388034E+03  0.85144692202E+03  0.10100000352E+00 0.  1.
       -3    1    3    3    0  502 -0.52328858231E+03  0.57758943367E+03  0.80292698057E+03  0.11189871494E+04  0.10100000352E+00 0. -1.
</event>
<event>
 5   0  0.1694830E-04  0.1939675E+04  0.7818609E-02  0.8635356E-01
       -1   -1    0    0    0  501  0.00000000000E+00  0.00000000000E+00  0.72781649793E+03  0.72781649795E+03  0.50400001928E-02 0.  1.
        1   -1    0    0  501    0  0.00000000000E+00  0.00000000000E+00 -0.12923383173E+04  0.12923383173E+04  0.50400001928E-02 0. -1.
    10030    2    1    2    0    0  0.00000000000E+00  0.00000000000E+00 -0.56452181932E+03  0.20201548152E+04  0.19396753834E+04 0.  0.
        1    1    3    3  502    0  0.96043587458E+03  0.67649418061E+02 -0.40359188495E+03  0.10439827214E+04  0.50400001928E-02 0.  1.
       -1    1    3    3    0  502 -0.96043587458E+03 -0.67649418061E+02 -0.16092993437E+03  0.97617209382E+03  0.50400001928E-02 0. -1.
</event>
<event>
 5   0  0.3535876E-04  0.2086136E+04  0.7818609E-02  0.8567375E-01
       -2   -1    0    0    0  501  0.00000000000E+00  0.00000000000E+00  0.79616792201E+03  0.79616792202E+03  0.25500000920E-02 0.  1.
        2   -1    0    0  501    0  0.00000000000E+00  0.00000000000E+00 -0.13665348150E+04  0.13665348150E+04  0.25500000920E-02 0. -1.
    10030    2    1    2    0    0  0.00000000000E+00  0.00000000000E+00 -0.57036689299E+03  0.21627027370E+04  0.20861363177E+04 0.  0.
        2    1    3    3  502    0  0.32332906529E+03  0.73866194914E+03 -0.97115471236E+03  0.12622617141E+04  0.25500000920E-02 0. -1.
       -2    1    3    3    0  502 -0.32332906529E+03 -0.73866194914E+03  0.40078781937E+03  0.90044102291E+03  0.25500000920E-02 0.  1.
</event>
<event>
 5   0  0.3623359E-04  0.1919453E+04  0.7818609E-02  0.8645233E-01
       -2   -1    0    0    0  501  0.00000000000E+00  0.00000000000E+00  0.51591873314E+03  0.51591873315E+03  0.25500000920E-02 0.  1.
        2   -1    0    0  501    0  0.00000000000E+00  0.00000000000E+00 -0.17853108372E+04  0.17853108372E+04  0.25500000920E-02 0. -1.
    10030    2    1    2    0    0  0.00000000000E+00  0.00000000000E+00 -0.12693921041E+04  0.23012295704E+04  0.19194533653E+04 0.  0.
        5    1    3    3  502    0 -0.70169953835E+03 -0.18134207311E+02 -0.14193492946E+04  0.15834410635E+04  0.46999998093E+01 0. -1.
       -5    1    3    3    0  502  0.70169953835E+03  0.18134207311E+02  0.14995719051E+03  0.71778850686E+03  0.46999998093E+01 0.  1.
</event>
<event>
 5   0  0.3623359E-04  0.1921448E+04  0.7818609E-02  0.8644253E-01
       -2   -1    0    0    0  501  0.00000000000E+00  0.00000000000E+00  0.41871640626E+03  0.41871640627E+03  0.25500000920E-02 0.  1.
        2   -1    0    0  501    0  0.00000000000E+00  0.00000000000E+00 -0.22043332592E+04  0.22043332592E+04  0.25500000920E-02 0. -1.
    10030    2    1    2    0    0  0.00000000000E+00  0.00000000000E+00 -0.17856168530E+04  0.26230496655E+04  0.19214478921E+04 0.  0.
        5    1    3    3  502    0 -0.12142494745E+03  0.12909620281E+03  0.39619134456E+03  0.43405013414E+03  0.46999998093E+01 0.  1.
       -5    1    3    3    0  502  0.12142494745E+03 -0.12909620281E+03 -0.21818081975E+04  0.21889995313E+04  0.46999998093E+01 0. -1.
</event>
<event>
 5   0  0.1711979E-04  0.1912749E+04  0.7818609E-02  0.8648536E-01
        1   -1    0    0  501    0  0.00000000000E+00  0.00000000000E+00  0.10311574944E+04  0.10311574944E+04  0.50400001928E-02 0. -1.
       -1   -1    0    0    0  501  0.00000000000E+00  0.00000000000E+00 -0.88701492638E+03  0.88701492640E+03  0.50400001928E-02 0.  1.
    10030    2    1    2    0    0  0.00000000000E+00  0.00000000000E+00  0.14414256804E+03  0.19181724208E+04  0.19127489004E+04 0.  0.
        4    1    3    3  502    0  0.10294057053E+03 -0.53284896485E+03  0.86178475291E+03  0.10184298472E+04  0.12699999809E+01 0. -1.
       -4    1    3    3    0  502 -0.10294057053E+03  0.53284896485E+03 -0.71764218487E+03  0.89974257364E+03  0.12699999809E+01 0.  1.
</event>
<event>
 5   0  0.1813834E-04  0.1887019E+04  0.7818609E-02  0.8661345E-01
       -1   -1    0    0    0  501  0.00000000000E+00  0.00000000000E+00  0.10276267264E+04  0.10276267264E+04  0.50400001928E-02 0. -1.
        1   -1    0    0  501    0  0.00000000000E+00  0.00000000000E+00 -0.86627742078E+03  0.86627742079E+03  0.50400001928E-02 0.  1.
    10030    2    1    2    0    0  0.00000000000E+00  0.00000000000E+00  0.16134930559E+03  0.18939041472E+04  0.18870186327E+04 0.  0.
        5    1    3    3  502    0 -0.61034117941E+03  0.17281590143E+03 -0.62030497631E+03  0.88723280186E+03  0.46999998093E+01 0.  1.
       -5    1    3    3    0  502  0.61034117941E+03 -0.17281590143E+03  0.78165428190E+03  0.10066713453E+04  0.46999998093E+01 0. -1.
</event>
<event>
 5   0  0.3720978E-04  0.1817272E+04  0.7818609E-02  0.8697168E-01
        2   -1    0    0  501    0  0.00000000000E+00  0.00000000000E+00  0.20877625453E+04  0.20877625453E+04  0.25500000920E-02 0.  1.
       -2   -1    0    0    0  501  0.00000000000E+00  0.00000000000E+00 -0.39545640895E+03  0.39545640896E+03  0.25500000920E-02 0. -1.
    10030    2    1    2    0    0  0.00000000000E+00  0.00000000000E+00  0.16923061364E+04  0.24832189543E+04  0.18172716681E+04 0.  0.
        1    1    3    3  502    0  0.56771201901E+03 -0.24695885555E+03  0.17549567084E+04  0.18609563835E+04  0.50400001928E-02 0.  1.
       -1    1    3    3    0  502 -0.56771201901E+03  0.24695885555E+03 -0.62650571992E+02  0.62226257083E+03  0.50400001928E-02 0. -1.
</event>
<event>
 5   0  0.3516539E-04  0.1956640E+04  0.7818609E-02  0.8627166E-01
       -2   -1    0    0    0  501  0.00000000000E+00  0.00000000000E+00  0.73687892798E+03  0.73687892799E+03  0.25500000920E-02 0.  1.
        2   -1    0    0  501    0  0.00000000000E+00  0.00000000000E+00 -0.12988697798E+04  0.12988697798E+04  0.25500000920E-02 0. -1.
    10030    2    1    2    0    0  0.00000000000E+00  0.00000000000E+00 -0.56199085182E+03  0.20357487078E+04  0.19566397430E+04 0.  0.
        4    1    3    3  502    0 -0.82831553538E+03  0.36023489480E+03  0.11000784793E+03  0.90993359378E+03  0.12699999809E+01 0.  1.
       -4    1    3    3    0  502  0.82831553538E+03 -0.36023489480E+03 -0.67199869975E+03  0.11258151140E+04  0.12699999809E+01 0. -1.
</event>
<event>
 5   0  0.3535876E-04  0.1930059E+04  0.7818609E-02  0.8640037E-01
        2   -1    0    0  501    0  0.00000000000E+00  0.00000000000E+00  0.50482442996E+03  0.50482442997E+03  0.25500000920E-02 0.  1.
       -2   -1    0    0    0  501  0.00000000000E+00  0.00000000000E+00 -0.18447640550E+04  0.18447640550E+04  0.25500000920E-02 0. -1.
    10030    2    1    2    0    0  0.00000000000E+00  0.00000000000E+00 -0.13399396250E+04  0.23495884849E+04  0.19300590276E+04 0.  0.
        2    1    3    3  502    0  0.58288916014E+03 -0.48891511706E+03 -0.13927247041E+04  0.15869719173E+04  0.25500000920E-02 0. -1.
       -2    1    3    3    0  502 -0.58288916014E+03  0.48891511706E+03  0.52785079120E+02  0.76261656767E+03  0.25500000920E-02 0.  1.
</event>
<event>
 5   0  0.3535876E-04  0.1873684E+04  0.7818609E-02  0.8668068E-01
        2   -1    0    0  501    0  0.00000000000E+00  0.00000000000E+00  0.66164400036E+03  0.66164400036E+03  0.25500000920E-02 0.  1.
       -2   -1    0    0    0  501  0.00000000000E+00  0.00000000000E+00 -0.13265031168E+04  0.13265031168E+04  0.25500000920E-02 0. -1.
    10030    2    1    2    0    0  0.00000000000E+00  0.00000000000E+00 -0.66485911647E+03  0.19881471172E+04  0.18736838887E+04 0.  0.
        2    1    3    3  502    0 -0.36644613935E+03  0.80287172545E+03  0.10753267277E+01  0.88254571378E+03  0.25500000920E-02 0.  1.
       -2    1    3    3    0  502  0.36644613935E+03 -0.80287172545E+03 -0.66593444320E+03  0.11056014034E+04  0.25500000920E-02 0. -1.
</event>
<event>
 5   0  0.1758946E-04  0.1899973E+04  0.7818609E-02  0.8654870E-01
        1   -1    0    0  501    0  0.00000000000E+00  0.00000000000E+00  0.10806055422E+04  0.10806055422E+04  0.50400001928E-02 0.  1.
       -1   -1    0    0    0  501  0.00000000000E+00  0.00000000000E+00 -0.83515618488E+03  0.83515618490E+03  0.50400001928E-02 0. -1.
    10030    2    1    2    0    0  0.00000000000E+00  0.00000000000E+00  0.24544935731E+03  0.19157617271E+04  0.18999730546E+04 0.  0.
        2    1    3    3  502    0  0.50734794916E+02  0.26036074960E+03 -0.79705776634E+03  0.84003739336E+03  0.25500000920E-02 0. -1.
       -2    1    3    3    0  502 -0.50734794916E+02 -0.26036074960E+03  0.10425071237E+04  0.10757243338E+04  0.25500000920E-02 0.  1.
</event>
<event>
 5   0  0.1782613E-04  0.1907704E+04  0.7818609E-02  0.8651031E-01
       -1   -1    0    0    0  501  0.00000000000E+00  0.00000000000E+00  0.47681458410E+03  0.47681458413E+03  0.50400001928E-02 0. -1.
        1   -1    0    0  501    0  0.00000000000E+00  0.00000000000E+00 -0.19081499934E+04  0.19081499934E+04  0.50400001928E-02 0.  1.
    10030    2    1    2    0    0  0.00000000000E+00  0.00000000000E+00 -0.14313354093E+04  0.23849645776E+04  0.19077041129E+04 0.  0.
        3    1    3    3  502    0 -0.94305407885E+03 -0.41110360066E+02 -0.88704972308E+03  0.12953371294E+04  0.10100000352E+00 0.  1.
       -3    1    3    3    0  502  0.94305407885E+03  0.41110360066E+02 -0.54428568624E+03  0.10896274482E+04  0.10100000352E+00 0. -1.
</event>
<event>
 5   0  0.3623359E-04  0.1638380E+04  0.7818609E-02  0.8797311E-01
        2   -1    0    0  501    0  0.00000000000E+00  0.00000000000E+00  0.98955747511E+03  0.98955747511E+03  0.25500000920E-02 0.  1.
       -2   -1    0    0    0  501  0.00000000000E+00  0.00000000000E+00 -0.67815359911E+03  0.67815359911E+03  0.25500000920E-02 0. -1.
    10030    2    1    2    0    0  0.00000000000E+00  0.00000000000E+00  0.31140387600E+03  0.16677110742E+04  0.16383796425E+04 0.  0.
        5    1    3    3  502    0  0.36844278941E+03  0.29626177982E+03 -0.52525043223E+03  0.70670449114E+03  0.46999998093E+01 0. -1.
       -5    1    3    3    0  502 -0.36844278941E+03 -0.29626177982E+03  0.83665430822E+03  0.96100658308E+03  0.46999998093E+01 0.  1.
</event>
<event>
 5   0  0.3720978E-04  0.1810908E+04  0.7818609E-02  0.8700520E-01
       -2   -1    0    0    0  501  0.00000000000E+00  0.00000000000E+00  0.95549828616E+03  0.95549828617E+03  0.25500000920E-02 0.  1.
        2   -1    0    0  501    0  0.00000000000E+00  0.00000000000E+00 -0.85803086295E+03  0.85803086296E+03  0.25500000920E-02 0. -1.
    10030    2    1    2    0    0  0.00000000000E+00  0.00000000000E+00  0.97467423213E+02  0.18135291491E+04  0.18109080805E+04 0.  0.
        1    1    3    3  502    0  0.14922240316E+03 -0.44855207299E+03  0.82210836682E+03  0.94832929651E+03  0.50400001928E-02 0.  1.
       -1    1    3    3    0  502 -0.14922240316E+03  0.44855207299E+03 -0.72464094361E+03  0.86519985262E+03  0.50400001928E-02 0. -1.
</event>
<event>
 5   0  0.1711979E-04  0.1400245E+04  0.7818609E-02  0.8953641E-01
       -1   -1    0    0    0  501  0.00000000000E+00  0.00000000000E+00  0.11991098711E+04  0.11991098712E+04  0.50400001928E-02 0. -1.
        1   -1    0    0  501    0  0.00000000000E+00  0.00000000000E+00 -0.40877956975E+03  0.40877956978E+03  0.50400001928E-02 0.  1.
    10030    2    1    2    0    0  0.00000000000E+00  0.00000000000E+00  0.79033030139E+03  0.16078894409E+04  0.14002451460E+04 0.  0.
        4    1    3    3  502    0  0.52562634772E+02  0.67172073228E+03  0.61363775426E+03  0.91133115776E+03  0.12699999809E+01 0.  1.
       -4    1    3    3    0  502 -0.52562634772E+02 -0.67172073228E+03  0.17669254713E+03  0.69655828318E+03  0.12699999809E+01 0. -1.
</event>
<event>
 5   0  0.1782613E-04  0.2170753E+04  0.7818609E-02  0.8530701E-01
        1   -1    0    0  501    0  0.00000000000E+00  0.00000000000E+00  0.15615665565E+04  0.15615665565E+04  0.50400001928E-02 0. -1.
       -1   -1    0    0    0  501  0.00000000000E+00  0.00000000000E+00 -0.75439735003E+03  0.75439735005E+03  0.50400001928E-02 0.  1.
    10030    2    1    2    0    0  0.00000000000E+00  0.00000000000E+00  0.80716920643E+03  0.23159639065E+04  0.21707525627E+04 0.  0.
        3    1    3    3  502    0 -0.17313456346E+02 -0.89529823257E+02  0.15574724384E+04  0.15601396577E+04  0.10100000352E+00 0. -1.
       -3    1    3    3    0  502  0.17313456346E+02  0.89529823257E+02 -0.75030323195E+03  0.75582424882E+03  0.10100000352E+00 0.  1.
</event>
<event>
 5   0  0.3623359E-04  0.1976063E+04  0.7818609E-02  0.8617894E-01
       -2   -1    0    0    0  501  0.00000000000E+00  0.00000000000E+00  0.19405360135E+04  0.19405360135E+04  0.25500000920E-02 0.  1.
        2   -1    0    0  501    0  0.00000000000E+00  0.00000000000E+00 -0.50306024303E+03  0.50306024304E+03  0.25500000920E-02 0. -1.
    10030    2    1    2    0    0  0.00000000000E+00  0.00000000000E+00  0.14374757704E+04  0.24435962565E+04  0.19760632769E+04 0.  0.
        5    1    3    3  502    0 -0.20865827462E+03 -0.50757367936E+03 -0.29724256692E+03  0.62413504079E+03  0.46999998093E+01 0. -1.
       -5    1    3    3    0  502  0.20865827462E+03  0.50757367936E+03  0.17347183374E+04  0.18194612157E+04  0.46999998093E+01 0.  1.
</event>
<event>
 5   0  0.3623359E-04  0.1848152E+04  0.7818609E-02  0.8681104E-01
        2   -1    0    0  501    0  0.00000000000E+00  0.00000000000E+00  0.10773137264E+04  0.10773137265E+04  0.25500000920E-02 0. -1.
       -2   -1    0    0    0  501  0.00000000000E+00  0.00000000000E+00 -0.79263461719E+03  0.79263461720E+03  0.25500000920E-02 0.  1.
    10030    2    1    2    0    0  0.00000000000E+00  0.00000000000E+00  0.28467910925E+03  0.18699483436E+04  0.18481516747E+04 0.  0.
        5    1    3    3  502    0 -0.20392166362E+03 -0.73989825779E+03 -0.37837613974E+03  0.85570092316E+03  0.46999998093E+01 0.  1.
       -5    1    3    3    0  502  0.20392166362E+03  0.73989825779E+03  0.66305524899E+03  0.10142474205E+04  0.46999998093E+01 0. -1.
</event>
<event>
 5   0  0.3535876E-04  0.1911167E+04  0.7818609E-02  0.8649318E-01
       -2   -1    0    0    0  501  0.00000000000E+00  0.00000000000E+00  0.38763810575E+03  0.38763810575E+03  0.25500000920E-02 0. -1.
        2   -1    0    0  501    0  0.00000000000E+00  0.00000000000E+00 -0.23556494119E+04  0.23556494119E+04  0.25500000920E-02 0.  1.
    10030    2    1    2    0    0  0.00000000000E+00  0.00000000000E+00 -0.19680113062E+04  0.27432875177E+04  0.19111666341E+04 0.  0.
        2    1    3    3  502    0  0.77529251209E+03  0.99059402892E+02 -0.19486456432E+03  0.80552060373E+03  0.25500000920E-02 0. -1.
       -2    1    3    3    0  502 -0.77529251209E+03 -0.99059402892E+02 -0.17731467419E+04  0.19377669139E+04  0.25500000920E-02 0.  1.
</event>
<event>
 5   0  0.3516539E-04  0.1506878E+04  0.7818609E-02  0.8879892E-01
        2   -1    0    0  501    0  0.00000000000E+00  0.00000000000E+00  0.19747728884E+04  0.19747728884E+04  0.25500000920E-02 0. -1.
       -2   -1    0    0    0  501  0.00000000000E+00  0.00000000000E+00 -0.28746091680E+03  0.28746091681E+03  0.25500000920E-02 0.  1.
    10030    2    1    2    0    0  0.00000000000E+00  0.00000000000E+00  0.16873119716E+04  0.22622338052E+04  0.15068775995E+04 0.  0.
        4    1    3    3  502    0 -0.42633853428E+03 -0.45703788178E+03  0.21201402264E+03  0.65999979537E+03  0.12699999809E+01 0.  1.
       -4    1    3    3    0  502  0.42633853428E+03  0.45703788178E+03  0.14752979489E+04  0.16022340098E+04  0.12699999809E+01 0. -1.
</event>
<event>
 5   0  0.1694830E-04  0.1966742E+04  0.7818609E-02  0.8622330E-01
        1   -1    0    0  501    0  0.00000000000E+00  0.00000000000E+00  0.49172309987E+03  0.49172309989E+03  0.50400001928E-02 0. -1.
       -1   -1    0    0    0  501  0.00000000000E+00  0.00000000000E+00 -0.19665916097E+04  0.19665916097E+04  0.50400001928E-02 0.  1.
    10030    2    1    2    0    0  0.00000000000E+00  0.00000000000E+00 -0.14748685098E+04  0.24583147096E+04  0.19667419989E+04 0.  0.
        1    1    3    3  502    0  0.52032378002E+03  0.72992070388E+03 -0.12428462941E+04  0.15323798422E+04  0.50400001928E-02 0.  1.
       -1    1    3    3    0  502 -0.52032378002E+03 -0.72992070388E+03 -0.23202221570E+03  0.92593486737E+03  0.50400001928E-02 0. -1.
</event>
<event>
 5   0  0.1694830E-04  0.1895322E+04  0.7818609E-02  0.8657189E-01
        1   -1    0    0  501    0  0.00000000000E+00  0.00000000000E+00  0.18316751783E+04  0.18316751783E+04  0.50400001928E-02 0.  1.
       -1   -1    0    0    0  501  0.00000000000E+00  0.00000000000E+00 -0.49029489934E+03  0.49029489937E+03  0.50400001928E-02 0. -1.
    10030    2    1    2    0    0  0.00000000000E+00  0.00000000000E+00  0.13413802789E+04  0.23219700777E+04  0.18953216056E+04 0.  0.
        1    1    3    3  502    0 -0.81903141684E+03  0.42973503793E+03  0.92347894064E+03  0.13070187521E+04  0.50400001928E-02 0.  1.
       -1    1    3    3    0  502  0.81903141684E+03 -0.42973503793E+03  0.41790133829E+03  0.10149513255E+04  0.50400001928E-02 0. -1.
</event>
<event>
 5   0  0.1782613E-04  0.1857928E+04  0.7818609E-02  0.8676086E-01
       -1   -1    0    0    0  501  0.00000000000E+00  0.00000000000E+00  0.51912478297E+03  0.51912478299E+03  0.50400001928E-02 0. -1.
        1   -1    0    0  501    0  0.00000000000E+00  0.00000000000E+00 -0.16623634554E+04  0.16623634554E+04  0.50400001928E-02 0.  1.
    10030    2    1    2    0    0  0.00000000000E+00  0.00000000000E+00 -0.11432386725E+04  0.21814882384E+04  0.18579279513E+04 0.  0.
        3    1    3    3  502    0  0.81354794825E+03 -0.43279412201E+03 -0.70956606540E+03  0.11630369846E+04  0.10100000352E+00 0. -1.
       -3    1    3    3    0  502 -0.81354794825E+03  0.43279412201E+03 -0.43367260706E+03  0.10184512538E+04  0.10100000352E+00 0.  1.
</event>
<event>
 5   0  0.3720978E-04  0.1921072E+04  0.7818609E-02  0.8644438E-01
        2   -1    0    0  501    0  0.00000000000E+00  0.00000000000E+00  0.13800461729E+04  0.13800461729E+04  0.25500000920E-02 0.  1.
       -2   -1    0    0    0  501  0.00000000000E+00  0.00000000000E+00 -0.66854947732E+03  0.66854947733E+03  0.25500000920E-02 0. -1.
    10030    2    1    2    0    0  0.00000000000E+00  0.00000000000E+00  0.71149669562E+03  0.20485956503E+04  0.19210717296E+04 0.  0.
        1    1    3    3  502    0  0.81351260178E+03 -0.49041679826E+03  0.20374590754E+03  0.97150593623E+03  0.50400001928E-02 0. -1.
       -1    1    3    3    0  502 -0.81351260178E+03  0.49041679826E+03  0.50775078808E+03  0.10770897140E+04  0.50400001928E-02 0.  1.
</event>
<event>
 5   0  0.1287000E-04  0.1971953E+04  0.7818609E-02  0.8619847E-01
       -3   -1    0    0    0  501  0.00000000000E+00  0.00000000000E+00  0.91044056276E+03  0.91044056836E+03  0.10100000352E+00 0. -1.
        3   -1    0    0  501    0  0.00000000000E+00  0.00000000000E+00 -0.10677791770E+04  0.10677791818E+04  0.10100000352E+00 0.  1.
    10030    2    1    2    0    0  0.00000000000E+00  0.00000000000E+00 -0.15733861423E+03  0.19782197501E+04  0.19719528240E+04 0.  0.
        5    1    3    3  502    0  0.89253330193E+03  0.16670964553E+03  0.30689521509E+03  0.95844382413E+03  0.46999998093E+01 0.  1.
       -5    1    3    3    0  502 -0.89253330193E+03 -0.16670964553E+03 -0.46423382933E+03  0.10197759260E+04  0.46999998093E+01 0. -1.
</event>
<event>
 5   0  0.3516539E-04  0.1856234E+04  0.7818609E-02  0.8676953E-01
       -2   -1    0    0    0  501  0.00000000000E+00  0.00000000000E+00  0.12097257096E+04  0.12097257096E+04  0.25500000920E-02 0. -1.
        2   -1    0    0  501    0  0.00000000000E+00  0.00000000000E+00 -0.71206341284E+03  0.71206341284E+03  0.25500000920E-02 0.  1.
    10030    2    1    2    0    0  0.00000000000E+00  0.00000000000E+00  0.49766229676E+03  0.19217891224E+04  0.18562342712E+04 0.  0.
        4    1    3    3  502    0  0.53536400167E+03 -0.23261347982E+03 -0.49823109990E+03  0.76743695968E+03  0.12699999809E+01 0.  1.
       -4    1    3    3    0  502 -0.53536400167E+03  0.23261347982E+03  0.99589339666E+03  0.11543521628E+04  0.12699999809E+01 0. -1.
</event>
<event>
 5   0  0.1711979E-04  0.1936266E+04  0.7818609E-02  0.8637012E-01
       -1   -1    0    0    0  501  0.00000000000E+00  0.00000000000E+00  0.74915314587E+03  0.74915314589E+03  0.50400001928E-02 0. -1.
        1   -1    0    0  501    0  0.00000000000E+00  0.00000000000E+00 -0.12511218430E+04  0.12511218430E+04  0.50400001928E-02 0.  1.
    10030    2    1    2    0    0  0.00000000000E+00  0.00000000000E+00 -0.50196869711E+03  0.20002749889E+04  0.19362663707E+04 0.  0.
        4    1    3    3  502    0 -0.15888777374E+03 -0.48004465959E+02  0.73434400298E+03  0.75286949799E+03  0.12699999809E+01 0. -1.
       -4    1    3    3    0  502  0.15888777374E+03  0.48004465959E+02 -0.12363127001E+04  0.12474054909E+04  0.12699999809E+01 0.  1.
</event>
<event>
 5   0  0.1813834E-04  0.1904592E+04  0.7818609E-02  0.8652574E-01
       -1   -1    0    0    0  501  0.00000000000E+00  0.00000000000E+00  0.11602136243E+04  0.11602136243E+04  0.50400001928E-02 0.  1.
        1   -1    0    0  501    0  0.00000000000E+00  0.00000000000E+00 -0.78163824863E+03  0.78163824865E+03  0.50400001928E-02 0. -1.
    10030    2    1    2    0    0  0.00000000000E+00  0.00000000000E+00  0.37857537568E+03  0.19418518730E+04  0.19045916574E+04 0.  0.
        5    1    3    3  502    0 -0.15906932904E+03 -0.34994456181E+03 -0.69900949196E+03  0.79774720785E+03  0.46999998093E+01 0. -1.
       -5    1    3    3    0  502  0.15906932904E+03  0.34994456181E+03  0.10775848676E+04  0.11441046651E+04  0.46999998093E+01 0.  1.
</event>
<event>
 5   0  0.3720978E-04  0.1871697E+04  0.7818609E-02  0.8669074E-01
       -2   -1    0    0    0  501  0.00000000000E+00  0.00000000000E+00  0.74693331467E+03  0.74693331467E+03  0.25500000920E-02 0.  1.
        2   -1    0    0  501    0  0.00000000000E+00  0.00000000000E+00 -0.11725437567E+04  0.11725437567E+04  0.25500000920E-02 0. -1.
    10030    2    1    2    0    0  0.00000000000E+00  0.00000000000E+00 -0.42561044201E+03  0.19194770714E+04  0.18716965510E+04 0.  0.
        1    1    3    3  502    0  0.58765915823E+03  0.69334342197E+03 -0.44153153360E+03  0.10104545919E+04  0.50400001928E-02 0. -1.
       -1    1    3    3    0  502 -0.58765915823E+03 -0.69334342197E+03  0.15921091589E+02  0.90902247949E+03  0.50400001928E-02 0.  1.
</event>
<event>
 5   0  0.1782613E-04  0.1767655E+04  0.7818609E-02  0.8723692E-01
       -1   -1    0    0    0  501  0.00000000000E+00  0.00000000000E+00  0.34639636710E+03  0.34639636713E+03  0.50400001928E-02 0.  1.
        1   -1    0    0  501    0  0.00000000000E+00  0.00000000000E+00 -0.22550787532E+04  0.22550787532E+04  0.50400001928E-02 0. -1.
    10030    2    1    2    0    0  0.00000000000E+00  0.00000000000E+00 -0.19086823861E+04  0.26014751204E+04  0.17676550429E+04 0.  0.
        3    1    3    3  502    0  0.69943067968E+03 -0.52249744891E+03 -0.75177801692E+03  0.11521185081E+04  0.10100000352E+00 0.  1.
       -3    1    3    3    0  502 -0.69943067968E+03  0.52249744891E+03 -0.11569043692E+04  0.14493566122E+04  0.10100000352E+00 0. -1.
</event>
<event>
 5   0  0.3535876E-04  0.1916522E+04  0.7818609E-02  0.8646676E-01
       -2   -1    0    0    0  501  0.00000000000E+00  0.00000000000E+00  0.94271857464E+03  0.94271857465E+03  0.25500000920E-02 0.  1.
        2   -1    0    0  501    0  0.00000000000E+00  0.00000000000E+00 -0.97405975120E+03  0.97405975120E+03  0.25500000920E-02 0. -1.
    10030    2    1    2    0    0  0.00000000000E+00  0.00000000000E+00 -0.31341176556E+02  0.19167783259E+04  0.19165220795E+04 0.  0.
        2    1    3    3  502    0 -0.46197494832E+03 -0.20452255746E+02  0.82374197650E+03  0.94466395692E+03  0.25500000920E-02 0.  1.
       -2    1    3    3    0  502  0.46197494832E+03  0.20452255746E+02 -0.85508315306E+03  0.97211436893E+03  0.25500000920E-02 0. -1.
</event>
<event>
 5   0  0.3535876E-04  0.1928827E+04  0.7818609E-02  0.8640639E-01
       -2   -1    0    0    0  501  0.00000000000E+00  0.00000000000E+00  0.73063362520E+03  0.73063362521E+03  0.25500000920E-02 0.  1.
        2   -1    0    0  501    0  0.00000000000E+00  0.00000000000E+00 -0.12729956058E+04  0.12729956058E+04  0.25500000920E-02 0. -1.
    10030    2    1    2    0    0  0.00000000000E+00  0.00000000000E+00 -0.54236198055E+03  0.20036292310E+04  0.19288269952E+04 0.  0.
        2    1    3    3  502    0 -0.56371272307E+03 -0.24187732744E+03  0.50186817294E+03  0.79255809799E+03  0.25500000920E-02 0.  1.
       -2    1    3    3    0  502  0.56371272307E+03  0.24187732744E+03 -0.10442301535E+04  0.12110711330E+04  0.25500000920E-02 0. -1.
</event>
<event>
 5   0  0.3516539E-04  0.1332854E+04  0.7818609E-02  0.9003910E-01
       -2   -1    0    0    0  501  0.00000000000E+00  0.00000000000E+00  0.20283708685E+03  0.20283708686E+03  0.25500000920E-02 0. -1.
        2   -1    0    0  501    0  0.00000000000E+00  0.00000000000E+00 -0.21895638245E+04  0.21895638245E+04  0.25500000920E-02 0.  1.
    10030    2    1    2    0    0  0.00000000000E+00  0.00000000000E+00 -0.19867267377E+04  0.23924009114E+04  0.13328537019E+04 0.  0.
        4    1    3    3  502    0 -0.45946597981E+03  0.48115731248E+03 -0.10629227815E+04  0.12539648313E+04  0.12699999809E+01 0.  1.
       -4    1    3    3    0  502  0.45946597981E+03 -0.48115731248E+03 -0.92380395619E+03  0.11384360800E+04  0.12699999809E+01 0. -1.
</event>
<event>
 5   0  0.3459485E-04  0.1803791E+04  0.7818609E-02  0.8704286E-01
       -2   -1    0    0    0  501  0.00000000000E+00  0.00000000000E+00  0.89809403979E+03  0.89809403979E+03  0.25500000920E-02 0.  1.
        2   -1    0    0  501    0  0.00000000000E+00  0.00000000000E+00 -0.90571320165E+03  0.90571320165E+03  0.25500000920E-02 0. -1.
    10030    2    1    2    0    0  0.00000000000E+00  0.00000000000E+00 -0.76191618585E+01  0.18038072414E+04  0.18037911500E+04 0.  0.
        3    1    3    3  502    0  0.81928468009E+03 -0.27031669751E+03 -0.26671326512E+03  0.90301410840E+03  0.10100000352E+00 0. -1.
       -3    1    3    3    0  502 -0.81928468009E+03  0.27031669751E+03  0.25909410326E+03  0.90079313304E+03  0.10100000352E+00 0.  1.
</event>
<event>
 5   0  0.3720978E-04  0.1866105E+04  0.7818609E-02  0.8671914E-01
        2   -1    0    0  501    0  0.00000000000E+00  0.00000000000E+00  0.91612083798E+03  0.91612083798E+03  0.25500000920E-02 0.  1.
       -2   -1    0    0    0  501  0.00000000000E+00  0.00000000000E+00 -0.95029723940E+03  0.95029723941E+03  0.25500000920E-02 0. -1.
    10030    2    1    2    0    0  0.00000000000E+00  0.00000000000E+00 -0.34176401423E+02  0.18664180774E+04  0.18661051453E+04 0.  0.
        1    1    3    3  502    0 -0.53440440444E+03 -0.75351328315E+03 -0.14832288606E+03  0.93561210655E+03  0.50400001928E-02 0. -1.
       -1    1    3    3    0  502  0.53440440444E+03  0.75351328315E+03  0.11414648463E+03  0.93080597084E+03  0.50400001928E-02 0.  1.
</event>
<event>
 5   0  0.3623359E-04  0.1837266E+04  0.7818609E-02  0.8686729E-01
       -2   -1    0    0    0  501  0.00000000000E+00  0.00000000000E+00  0.59424263195E+03  0.59424263195E+03  0.25500000920E-02 0.  1.
        2   -1    0    0  501    0  0.00000000000E+00  0.00000000000E+00 -0.14201051749E+04  0.14201051749E+04  0.25500000920E-02 0. -1.
    10030    2    1    2    0    0  0.00000000000E+00  0.00000000000E+00 -0.82586254295E+03  0.20143478069E+04  0.18372664878E+04 0.  0.
        5    1    3    3  502    0  0.60165599489E+03 -0.68227342045E+03 -0.27261998325E+03  0.94964767241E+03  0.46999998093E+01 0. -1.
       -5    1    3    3    0  502 -0.60165599489E+03  0.68227342045E+03 -0.55324255971E+03  0.10647001345E+04  0.46999998093E+01 0.  1.
</event>
<event>
 5   0  0.1711979E-04  0.1909731E+04  0.7818609E-02  0.8650028E-01
        1   -1    0    0  501    0  0.00000000000E+00  0.00000000000E+00  0.89188504088E+03  0.89188504089E+03  0.50400001928E-02 0. -1.
       -1   -1    0    0    0  501  0.00000000000E+00  0.00000000000E+00 -0.10222930451E+04  0.10222930451E+04  0.50400001928E-02 0.  1.
    10030    2    1    2    0    0  0.00000000000E+00  0.00000000000E+00 -0.13040800423E+03  0.19141780860E+04  0.19097307395E+04 0.  0.
        4    1    3    3  502    0 -0.87450471884E+03  0.19853740070E+03 -0.39397801653E+03  0.97948756662E+03  0.12699999809E+01 0.  1.
       -4    1    3    3    0  502  0.87450471884E+03 -0.19853740070E+03  0.26357001230E+03  0.93469051939E+03  0.12699999809E+01 0. -1.
</event>
<event>
 5   0  0.1813834E-04  0.1864725E+04  0.7818609E-02  0.8672617E-01
       -1   -1    0    0    0  501  0.00000000000E+00  0.00000000000E+00  0.88809429378E+03  0.88809429380E+03  0.50400001928E-02 0. -1.
        1   -1    0    0  501    0  0.00000000000E+00  0.00000000000E+00 -0.97883776415E+03  0.97883776417E+03  0.50400001928E-02 0.  1.
    10030    2    1    2    0    0  0.00000000000E+00  0.00000000000E+00 -0.90743470370E+02  0.18669320580E+04  0.18647254306E+04 0.  0.
        5    1    3    3  502    0  0.63365011558E+03 -0.42414040786E+03 -0.58254237491E+03  0.95957556405E+03  0.46999998093E+01 0.  1.
       -5    1    3    3    0  502 -0.63365011558E+03  0.42414040786E+03  0.49179890454E+03  0.90735649392E+03  0.46999998093E+01 0. -1.
</event>
<event>
 5   0  0.3516539E-04  0.1905653E+04  0.7818609E-02  0.8652048E-01
       -2   -1    0    0    0  501  0.00000000000E+00  0.00000000000E+00  0.85573548355E+03  0.85573548355E+03  0.25500000920E-02 0. -1.
        2   -1    0    0  501    0  0.00000000000E+00  0.00000000000E+00 -0.10609329510E+04  0.10609329510E+04  0.25500000920E-02 0.  1.
    10030    2    1    2    0    0  0.00000000000E+00  0.00000000000E+00 -0.20519746743E+03  0.19166684345E+04  0.19056526145E+04 0.  0.
        4    1    3    3  502    0  0.76117679140E+02 -0.38024762979E+03  0.77277379002E+03  0.86461731679E+03  0.12699999809E+01 0. -1.
       -4    1    3    3    0  502 -0.76117679140E+02  0.38024762979E+03 -0.97797125745E+03  0.10520511177E+04  0.12699999809E+01 0.  1.
</event>
<event>
 5   0  0.3535876E-04  0.1896246E+04  0.7818609E-02  0.8656727E-01
       -2   -1    0    0    0  501  0.00000000000E+00  0.00000000000E+00  0.38479345965E+03  0.38479345966E+03  0.25500000920E-02 0.  1.
        2   -1    0    0  501    0  0.00000000000E+00  0.00000000000E+00 -0.23361540687E+04  0.23361540687E+04  0.25500000920E-02 0. -1.
    10030    2    1    2    0    0  0.00000000000E+00  0.00000000000E+00 -0.19513606090E+04  0.27209475283E+04  0.18962455604E+04 0.  0.
        2    1    3    3  502    0  0.89120668044E+03  0.25282570431E+03 -0.12653999564E+04  0.15682497358E+04  0.25500000920E-02 0. -1.
       -2    1    3    3    0  502 -0.89120668044E+03 -0.25282570431E+03 -0.68596065257E+03  0.11526977925E+04  0.25500000920E-02 0.  1.
</event>
<event>
 5   0  0.1813834E-04  0.1872464E+04  0.7818609E-02  0.8668685E-01
       -1   -1    0    0    0  501  0.00000000000E+00  0.00000000000E+00  0.16133822275E+04  0.16133822275E+04  0.50400001928E-02 0. -1.
        1   -1    0    0  501    0  0.00000000000E+00  0.00000000000E+00 -0.54328758863E+03  0.54328758865E+03  0.50400001928E-02 0.  1.
    10030    2    1    2    0    0  0.00000000000E+00  0.00000000000E+00  0.10700946389E+04  0.21566698162E+04  0.18724641945E+04 0.  0.
        5    1    3    3  502    0 -0.83939704797E+03  0.24198851790E+03  0.92284485348E+03  0.12707519666E+04  0.46999998093E+01 0. -1.
       -5    1    3    3    0  502  0.83939704797E+03 -0.24198851790E+03  0.14724978541E+03  0.88591784960E+03  0.46999998093E+01 0.  1.
</event>
<event>
 5   0  0.1758946E-04  0.1825185E+04  0.7818609E-02  0.8693020E-01
        1   -1    0    0  501    0  0.00000000000E+00  0.00000000000E+00  0.18413725165E+04  0.18413725165E+04  0.50400001928E-02 0.  1.
       -1   -1    0    0    0  501  0.00000000000E+00  0.00000000000E+00 -0.45228481281E+03  0.45228481284E+03  0.50400001928E-02 0. -1.
    10030    2    1    2    0    0  0.00000000000E+00  0.00000000000E+00  0.13890877037E+04  0.22936573293E+04  0.18251847293E+04 0.  0.
        2    1    3    3  502    0 -0.69187912719E+03  0.22073473021E+02 -0.52769819169E+02  0.69423959746E+03  0.25500000920E-02 0. -1.
       -2    1    3    3    0  502  0.69187912719E+03 -0.22073473021E+02  0.14418575228E+04  0.15994177319E+04  0.25500000920E-02 0.  1.
</event>
<event>
 5   0  0.3623359E-04  0.1891083E+04  0.7818609E-02  0.8659308E-01
       -2   -1    0    0    0  501  0.00000000000E+00  0.00000000000E+00  0.58308021513E+03  0.58308021514E+03  0.25500000920E-02 0.  1.
        2   -1    0    0  501    0  0.00000000000E+00  0.00000000000E+00 -0.15333199287E+04  0.15333199287E+04  0.25500000920E-02 0. -1.
    10030    2    1    2    0    0  0.00000000000E+00  0.00000000000E+00 -0.95023971362E+03  0.21164001439E+04  0.18910827734E+04 0.  0.
        5    1    3    3  502    0 -0.31313869409E+03 -0.64195318875E+03 -0.11685096674E+04  0.13695242499E+04  0.46999998093E+01 0. -1.
       -5    1    3    3    0  502  0.31313869409E+03  0.64195318875E+03  0.21826995378E+03  0.74687589398E+03  0.46999998093E+01 0.  1.
</event>
<event>
 5   0  0.1758946E-04  0.1906138E+04  0.7818609E-02  0.8651807E-01
        1   -1    0    0  501    0  0.00000000000E+00  0.00000000000E+00  0.90116308374E+03  0.90116308375E+03  0.50400001928E-02 0.  1.
       -1   -1    0    0    0  501  0.00000000000E+00  0.00000000000E+00 -0.10079645712E+04  0.10079645713E+04  0.50400001928E-02 0. -1.
    10030    2    1    2    0    0  0.00000000000E+00  0.00000000000E+00 -0.10680148751E+03  0.19091276550E+04  0.19061379398E+04 0.  0.
        2    1    3    3  502    0 -0.41218862074E+03  0.65430331802E+02  0.80477446664E+03  0.90655530970E+03  0.25500000920E-02 0.  1.
       -2    1    3    3    0  502  0.41218862074E+03 -0.65430331802E+02 -0.91157595415E+03  0.10025723453E+04  0.25500000920E-02 0. -1.
</event>
<event>
 5   0  0.1782613E-04  0.1870758E+04  0.7818609E-02  0.8669551E-01
        1   -1    0    0  501    0  0.00000000000E+00  0.00000000000E+00  0.92316287014E+03  0.92316287016E+03  0.50400001928E-02 0.  1.
       -1   -1    0    0    0  501  0.00000000000E+00  0.00000000000E+00 -0.94775657701E+03  0.94775657703E+03  0.50400001928E-02 0. -1.
    10030    2    1    2    0    0  0.00000000000E+00  0.00000000000E+00 -0.24593706868E+02  0.18709194472E+04  0.18707577950E+04 0.  0.
        3    1    3    3  502    0 -0.91819579678E+03  0.15233974630E+03 -0.10527128991E+03  0.93668189595E+03  0.10100000352E+00 0.  1.
       -3    1    3    3    0  502  0.91819579678E+03 -0.15233974630E+03  0.80677583043E+02  0.93423755123E+03  0.10100000352E+00 0. -1.
</event>
<event>
 5   0  0.1694830E-04  0.1880224E+04  0.7818609E-02  0.8664763E-01
       -1   -1    0    0    0  501  0.00000000000E+00  0.00000000000E+00  0.57695630113E+03  0.57695630116E+03  0.50400001928E-02 0.  1.
        1   -1    0    0  501    0  0.00000000000E+00  0.00000000000E+00 -0.15318504447E+04  0.15318504447E+04  0.50400001928E-02 0. -1.
    10030    2    1    2    0    0  0.00000000000E+00  0.00000000000E+00 -0.95489414353E+03  0.21088067458E+04  0.18802242063E+04 0.  0.
        1    1    3    3  502    0 -0.68205186099E+03  0.20078408811E+03  0.21238968664E+03  0.74203663665E+03  0.50400001928E-02 0.  1.
       -1    1    3    3    0  502  0.68205186099E+03 -0.20078408811E+03 -0.11672838302E+04  0.13667701092E+04  0.50400001928E-02 0. -1.
</event>
<event>
 5   0  0.3720978E-04  0.1880275E+04  0.7818609E-02  0.8664738E-01
        2   -1    0    0  501    0  0.00000000000E+00  0.00000000000E+00  0.13110699032E+04  0.13110699032E+04  0.25500000920E-02 0. -1.
       -2   -1    0    0    0  501  0.00000000000E+00  0.00000000000E+00 -0.67415040909E+03  0.67415040909E+03  0.25500000920E-02 0.  1.
    10030    2    1    2    0    0  0.00000000000E+00  0.00000000000E+00  0.63691949408E+03  0.19852203123E+04  0.18802747795E+04 0.  0.
        1    1    3    3  502    0  0.14531811058E+03 -0.89375594490E+03  0.51480185342E+02  0.90695493373E+03  0.50400001928E-02 0. -1.
       -1    1    3    3    0  502 -0.14531811058E+03  0.89375594490E+03  0.58543930874E+03  0.10782653785E+04  0.50400001928E-02 0.  1.
</event>
<event>
 5   0  0.3459485E-04  0.1701921E+04  0.7818609E-02  0.8760270E-01
       -2   -1    0    0    0  501  0.00000000000E+00  0.00000000000E+00  0.40948135821E+03  0.40948135821E+03  0.25500000920E-02 0. -1.
        2   -1    0    0  501    0  0.00000000000E+00  0.00000000000E+00 -0.17684159658E+04  0.17684159658E+04  0.25500000920E-02 0.  1.
    10030    2    1    2    0    0  0.00000000000E+00  0.00000000000E+00 -0.13589346076E+04  0.21778973240E+04  0.17019205288E+04 0.  0.
        3    1    3    3  502    0  0.65852591461E+03 -0.32164325508E+03 -0.12328749647E+04  0.14342564110E+04  0.10100000352E+00 0.  1.
       -3    1    3    3    0  502 -0.65852591461E+03  0.32164325508E+03 -0.12605964292E+03  0.74364091303E+03  0.10100000352E+00 0. -1.
</event>
<event>
 5   0  0.3623359E-04  0.1864559E+04  0.7818609E-02  0.8672702E-01
       -2   -1    0    0    0  501  0.00000000000E+00  0.00000000000E+00  0.83488069910E+03  0.83488069910E+03  0.25500000920E-02 0.  1.
        2   -1    0    0  501    0  0.00000000000E+00  0.00000000000E+00 -0.10410410071E+04  0.10410410071E+04  0.25500000920E-02 0. -1.
    10030    2    1    2    0    0  0.00000000000E+00  0.00000000000E+00 -0.20616030796E+03  0.18759217062E+04  0.18645589760E+04 0.  0.
        5    1    3    3  502    0 -0.89508478769E+01  0.97863366921E+01 -0.10409341733E+04  0.10410292662E+04  0.46999998093E+01 0. -1.
       -5    1    3    3    0  502  0.89508478769E+01 -0.97863366921E+01  0.83477386531E+03  0.83489243994E+03  0.46999998093E+01 0.  1.
</event>
<event>
 5   0  0.3516539E-04  0.1904794E+04  0.7818609E-02  0.8652474E-01
        2   -1    0    0  501    0  0.00000000000E+00  0.00000000000E+00  0.17956999129E+04  0.17956999129E+04  0.25500000920E-02 0. -1.
       -2   -1    0    0    0  501  0.00000000000E+00  0.00000000000E+00 -0.50512899713E+03  0.50512899713E+03  0.25500000920E-02 0.  1.
    10030    2    1    2    0    0  0.00000000000E+00  0.00000000000E+00  0.12905709158E+04  0.23008289100E+04  0.19047940531E+04 0.  0.
        4    1    3    3  502    0  0.83083483706E+02  0.52886526644E+03  0.15967490953E+04  0.16841052881E+04  0.12699999809E+01 0. -1.
       -4    1    3    3    0  502 -0.83083483706E+02 -0.52886526644E+03 -0.30617817951E+03  0.61672362191E+03  0.12699999809E+01 0.  1.
</event>
<event>
 5   0  0.3720978E-04  0.1866881E+04  0.7818609E-02  0.8671520E-01
       -2   -1    0    0    0  501  0.00000000000E+00  0.00000000000E+00  0.50235010237E+03  0.50235010237E+03  0.25500000920E-02 0. -1.
        2   -1    0    0  501    0  0.00000000000E+00  0.00000000000E+00 -0.17344691521E+04  0.17344691521E+04  0.25500000920E-02 0.  1.
    10030    2    1    2    0    0  0.00000000000E+00  0.00000000000E+00 -0.12321190497E+04  0.22368192545E+04  0.18668805598E+04 0.  0.
        1    1    3    3  502    0 -0.55100662620E+03 -0.75072160940E+03 -0.69296152265E+03  0.11607699638E+04  0.50400001928E-02 0. -1.
       -1    1    3    3    0  502  0.55100662620E+03  0.75072160940E+03 -0.53915752706E+03  0.10760492907E+04  0.50400001928E-02 0.  1.
</event>
<event>
 5   0  0.1758946E-04  0.1925640E+04  0.7818609E-02  0.8642198E-01
       -1   -1    0    0    0  501  0.00000000000E+00  0.00000000000E+00  0.48150656942E+03  0.48150656944E+03  0.50400001928E-02 0. -1.
        1   -1    0    0  501    0  0.00000000000E+00  0.00000000000E+00 -0.19252530028E+04  0.19252530028E+04  0.50400001928E-02 0.  1.
    10030    2    1    2    0    0  0.00000000000E+00  0.00000000000E+00 -0.14437464333E+04  0.24067595722E+04  0.19256396014E+04 0.  0.
        2    1    3    3  502    0 -0.13398326247E+03 -0.72737629882E+03  0.48579814336E+02  0.74120698396E+03  0.25500000920E-02 0. -1.
       -2    1    3    3    0  502  0.13398326247E+03  0.72737629882E+03 -0.14923262477E+04  0.16655525883E+04  0.25500000920E-02 0.  1.
</event>
<event>
 5   0  0.1782613E-04  0.1845563E+04  0.7818609E-02  0.8682438E-01
        1   -1    0    0  501    0  0.00000000000E+00  0.00000000000E+00  0.47184415028E+03  0.47184415030E+03  0.50400001928E-02 0. -1.
       -1   -1    0    0    0  501  0.00000000000E+00  0.00000000000E+00 -0.18046766208E+04  0.18046766208E+04  0.50400001928E-02 0.  1.
    10030    2    1    2    0    0  0.00000000000E+00  0.00000000000E+00 -0.13328324705E+04  0.22765207711E+04  0.18455634442E+04 0.  0.
        3    1    3    3  502    0 -0.69083839815E+01  0.15281141916E+03 -0.17889285669E+04  0.17954566225E+04  0.10100000352E+00 0.  1.
       -3    1    3    3    0  502  0.69083839815E+01 -0.15281141916E+03  0.45609609646E+03  0.48106414853E+03  0.10100000352E+00 0. -1.
</event>
<event>
 5   0  0.3459485E-04  0.1758678E+04  0.7818609E-02  0.8728588E-01
        2   -1    0    0  501    0  0.00000000000E+00  0.00000000000E+00  0.97210776888E+03  0.97210776889E+03  0.25500000920E-02 0.  1.
       -2   -1    0    0    0  501  0.00000000000E+00  0.00000000000E+00 -0.79542341983E+03  0.79542341983E+03  0.25500000920E-02 0. -1.
    10030    2    1    2    0    0  0.00000000000E+00  0.00000000000E+00  0.17668434906E+03  0.17675311887E+04  0.17586782377E+04 0.  0.
        3    1    3    3  502    0 -0.60287000410E+03 -0.12173763139E+03 -0.54328381697E+03  0.82062757005E+03  0.10100000352E+00 0. -1.
       -3    1    3    3    0  502  0.60287000410E+03  0.12173763139E+03  0.71996816603E+03  0.94690361867E+03  0.10100000352E+00 0.  1.
</event>
<event>
 5   0  0.3459485E-04  0.1883764E+04  0.7818609E-02  0.8662981E-01
        2   -1    0    0  501    0  0.00000000000E+00  0.00000000000E+00  0.17772859818E+04  0.17772859818E+04  0.25500000920E-02 0.  1.
       -2   -1    0    0    0  501  0.00000000000E+00  0.00000000000E+00 -0.49915512758E+03  0.49915512759E+03  0.25500000920E-02 0. -1.
    10030    2    1    2    0    0  0.00000000000E+00  0.00000000000E+00  0.12781308542E+04  0.22764411094E+04  0.18837636911E+04 0.  0.
        3    1    3    3  502    0 -0.22823927018E+03 -0.70514062051E+02  0.17400695050E+04  0.17563904150E+04  0.10100000352E+00 0.  1.
       -3    1    3    3    0  502  0.22823927018E+03  0.70514062051E+02 -0.46193865082E+03  0.52005069437E+03  0.10100000352E+00 0. -1.
</event>
<event>
 5   0  0.1758946E-04  0.1178651E+04  0.7818609E-02  0.9131751E-01
        1   -1    0    0  501    0  0.00000000000E+00  0.00000000000E+00  0.12647046332E+04  0.12647046332E+04  0.50400001928E-02 0.  1.
       -1   -1    0    0    0  501  0.00000000000E+00  0.00000000000E+00 -0.27461339862E+03  0.27461339867E+03  0.50400001928E-02 0. -1.
    10030    2    1    2    0    0  0.00000000000E+00  0.00000000000E+00  0.99009123461E+03  0.15393180319E+04  0.11786514966E+04 0.  0.
        2    1    3    3  502    0  0.32096485523E+03 -0.29408608755E+03 -0.23749799954E+02  0.43596917114E+03  0.25500000920E-02 0. -1.
       -2    1    3    3    0  502 -0.32096485523E+03  0.29408608755E+03  0.10138410346E+04  0.11033488608E+04  0.25500000920E-02 0.  1.
</event>
<event>
 5   0  0.1694830E-04  0.1911119E+04  0.7818609E-02  0.8649341E-01
       -1   -1    0    0    0  501  0.00000000000E+00  0.00000000000E+00  0.44186151922E+03  0.44186151925E+03  0.50400001928E-02 0. -1.
        1   -1    0    0  501    0  0.00000000000E+00  0.00000000000E+00 -0.20664715330E+04  0.20664715330E+04  0.50400001928E-02 0.  1.
    10030    2    1    2    0    0  0.00000000000E+00  0.00000000000E+00 -0.16246100138E+04  0.25083330523E+04  0.19111193066E+04 0.  0.
        1    1    3    3  502    0  0.90093117930E+02 -0.51888567039E+03  0.23418602405E+03  0.57636984890E+03  0.50400001928E-02 0. -1.
       -1    1    3    3    0  502 -0.90093117930E+02  0.51888567039E+03 -0.18587960379E+04  0.19319632034E+04  0.50400001928E-02 0.  1.
</event>
<event>
 5   0  0.3623359E-04  0.1903771E+04  0.7818609E-02  0.8652981E-01
        2   -1    0    0  501    0  0.00000000000E+00  0.00000000000E+00  0.18830467856E+04  0.18830467856E+04  0.25500000920E-02 0. -1.
       -2   -1    0    0    0  501  0.00000000000E+00  0.00000000000E+00 -0.48118094217E+03  0.48118094218E+03  0.25500000920E-02 0.  1.
    10030    2    1    2    0    0  0.00000000000E+00  0.00000000000E+00  0.14018658434E+04  0.23642277278E+04  0.19037712325E+04 0.  0.
        5    1    3    3  502    0  0.76242356556E+03 -0.48731911389E+03  0.10678501025E+04  0.13996769425E+04  0.46999998093E+01 0. -1.
       -5    1    3    3    0  502 -0.76242356556E+03  0.48731911389E+03  0.33401574090E+03  0.96455078521E+03  0.46999998093E+01 0.  1.
</event>
<event>
 5   0  0.1711979E-04  0.1801158E+04  0.7818609E-02  0.8705684E-01
       -1   -1    0    0    0  501  0.00000000000E+00  0.00000000000E+00  0.43554652030E+03  0.43554652033E+03  0.50400001928E-02 0.  1.
        1   -1    0    0  501    0  0.00000000000E+00  0.00000000000E+00 -0.18621266340E+04  0.18621266340E+04  0.50400001928E-02 0. -1.
    10030    2    1    2    0    0  0.00000000000E+00  0.00000000000E+00 -0.14265801137E+04  0.22976731543E+04  0.18011582672E+04 0.  0.
        4    1    3    3  502    0 -0.13298303966E+03 -0.66067667146E+03 -0.14753465034E+04  0.16219824509E+04  0.12699999809E+01 0. -1.
       -4    1    3    3    0  502  0.13298303966E+03  0.66067667146E+03  0.48766389692E+02  0.67569070343E+03  0.12699999809E+01 0.  1.
</event>
<event>
 5   0  0.1694830E-04  0.1884998E+04  0.7818609E-02  0.8662360E-01
        1   -1    0    0  501    0  0.00000000000E+00  0.00000000000E+00  0.14652767553E+04  0.14652767554E+04  0.50400001928E-02 0.  1.
       -1   -1    0    0    0  501  0.00000000000E+00  0.00000000000E+00 -0.60623651874E+03  0.60623651876E+03  0.50400001928E-02 0. -1.
    10030    2    1    2    0    0  0.00000000000E+00  0.00000000000E+00  0.85904023661E+03  0.20715132741E+04  0.18849979089E+04 0.  0.
        1    1    3    3  502    0 -0.18682922486E+03  0.52281724412E+03 -0.40745736492E+03  0.68866866798E+03  0.50400001928E-02 0. -1.
       -1    1    3    3    0  502  0.18682922486E+03 -0.52281724412E+03  0.12664976015E+04  0.13828446061E+04  0.50400001928E-02 0.  1.
</event>
<event>
 5   0  0.3516539E-04  0.1894191E+04  0.7818609E-02  0.8657753E-01
        2   -1    0    0  501    0  0.00000000000E+00  0.00000000000E+00  0.89484745769E+03  0.89484745770E+03  0.25500000920E-02 0.  1.
       -2   -1    0    0    0  501  0.00000000000E+00  0.00000000000E+00 -0.10023937619E+04  0.10023937619E+04  0.25500000920E-02 0. -1.
    10030    2    1    2    0    0  0.00000000000E+00  0.00000000000E+00 -0.10754630423E+03  0.18972412196E+04  0.18941906023E+04 0.  0.
        4    1    3    3  502    0 -0.10161021940E+03 -0.19473011400E+03  0.86898329872E+03  0.89631358371E+03  0.12699999809E+01 0.  1.
       -4    1    3    3    0  502  0.10161021940E+03  0.19473011400E+03 -0.97652960295E+03  0.10009276359E+04  0.12699999809E+01 0. -1.
</event>
<event>
 5   0  0.1694830E-04  0.1912543E+04  0.7818609E-02  0.8648638E-01
        1   -1    0    0  501    0  0.00000000000E+00  0.00000000000E+00  0.55391570875E+03  0.55391570877E+03  0.50400001928E-02 0. -1.
       -1   -1    0    0    0  501  0.00000000000E+00  0.00000000000E+00 -0.16508931451E+04  0.16508931451E+04  0.50400001928E-02 0.  1.
    10030    2    1    2    0    0  0.00000000000E+00  0.00000000000E+00 -0.10969774364E+04  0.22048088539E+04  0.19125434861E+04 0.  0.
        1    1    3    3  502    0  0.30249735067E+03 -0.15773587346E+03 -0.15783535443E+04  0.16148018961E+04  0.50400001928E-02 0.  1.
       -1    1    3    3    0  502 -0.30249735067E+03  0.15773587346E+03  0.48137610791E+03  0.59000695778E+03  0.50400001928E-02 0. -1.
</event>
<event>
 5   0  0.1694830E-04  0.2095977E+04  0.7818609E-02  0.8563018E-01
       -1   -1    0    0    0  501  0.00000000000E+00  0.00000000000E+00  0.54749239729E+03  0.54749239732E+03  0.50400001928E-02 0. -1.
        1   -1    0    0  501    0  0.00000000000E+00  0.00000000000E+00 -0.20060182574E+04  0.20060182574E+04  0.50400001928E-02 0.  1.
    10030    2    1    2    0    0  0.00000000000E+00  0.00000000000E+00 -0.14585258601E+04  0.25535106547E+04  0.20959768556E+04 0.  0.
        1    1    3    3  502    0 -0.50446389142E+03 -0.63010165824E+03  0.85051511950E+02  0.81163149100E+03  0.50400001928E-02 0. -1.
       -1    1    3    3    0  502  0.50446389142E+03  0.63010165824E+03 -0.15435773720E+04  0.17418791637E+04  0.50400001928E-02 0.  1.
</event>
<event>
 5   0  0.1694830E-04  0.1715426E+04  0.7818609E-02  0.8752615E-01
       -1   -1    0    0    0  501  0.00000000000E+00  0.00000000000E+00  0.46484276968E+03  0.46484276971E+03  0.50400001928E-02 0.  1.
        1   -1    0    0  501    0  0.00000000000E+00  0.00000000000E+00 -0.15826238667E+04  0.15826238667E+04  0.50400001928E-02 0. -1.
    10030    2    1    2    0    0  0.00000000000E+00  0.00000000000E+00 -0.11177810971E+04  0.20474666365E+04  0.17154256167E+04 0.  0.
        1    1    3    3  502    0 -0.19829549361E+03  0.50313544926E+03  0.23570697752E+03  0.58993572731E+03  0.50400001928E-02 0.  1.
       -1    1    3    3    0  502  0.19829549361E+03 -0.50313544926E+03 -0.13534880746E+04  0.14575309091E+04  0.50400001928E-02 0. -1.
</event>
<event>
 5   0  0.1813834E-04  0.1947406E+04  0.7818609E-02  0.8631613E-01
       -1   -1    0    0    0  501  0.00000000000E+00  0.00000000000E+00  0.52340366076E+03  0.52340366078E+03  0.50400001928E-02 0.  1.
        1   -1    0    0  501    0  0.00000000000E+00  0.00000000000E+00 -0.18114070766E+04  0.18114070766E+04  0.50400001928E-02 0. -1.
    10030    2    1    2    0    0  0.00000000000E+00  0.00000000000E+00 -0.12880034158E+04  0.23348107374E+04  0.19474055510E+04 0.  0.
        5    1    3    3  502    0 -0.86814668804E+03  0.44087415305E+03 -0.63785148420E+03  0.11640125844E+04  0.46999998093E+01 0.  1.
       -5    1    3    3    0  502  0.86814668804E+03 -0.44087415305E+03 -0.65015193164E+03  0.11707981530E+04  0.46999998093E+01 0. -1.
</event>
<event>
 5   0  0.1813834E-04  0.1871990E+04  0.7818609E-02  0.8668926E-01
        1   -1    0    0  501    0  0.00000000000E+00  0.00000000000E+00  0.94757948466E+03  0.94757948467E+03  0.50400001928E-02 0.  1.
       -1   -1    0    0    0  501  0.00000000000E+00  0.00000000000E+00 -0.92455183489E+03  0.92455183490E+03  0.50400001928E-02 0. -1.
    10030    2    1    2    0    0  0.00000000000E+00  0.00000000000E+00  0.23027649771E+02  0.18721313196E+04  0.18719896915E+04 0.  0.
        5    1    3    3  502    0 -0.13586575416E+03 -0.77107408722E+03 -0.50140850298E+03  0.92975659610E+03  0.46999998093E+01 0. -1.
       -5    1    3    3    0  502  0.13586575416E+03  0.77107408722E+03  0.52443615275E+03  0.94237472347E+03  0.46999998093E+01 0.  1.
</event>
<event>
 5   0  0.1758946E-04  0.1633047E+04  0.7818609E-02  0.8800499E-01
        1   -1    0    0  501    0  0.00000000000E+00  0.00000000000E+00  0.92243944260E+03  0.92243944262E+03  0.50400001928E-02 0. -1.
       -1   -1    0    0    0  501  0.00000000000E+00  0.00000000000E+00 -0.72276909876E+03  0.72276909878E+03  0.50400001928E-02 0.  1.
    10030    2    1    2    0    0  0.00000000000E+00  0.00000000000E+00  0.19967034384E+03  0.16452085414E+04  0.16330471207E+04 0.  0.
        2    1    3    3  502    0  0.64093775193E+03 -0.41213099519E+03  0.39537551117E+03  0.85847245377E+03  0.25500000920E-02 0. -1.
       -2    1    3    3    0  502 -0.64093775193E+03  0.41213099519E+03 -0.19570516732E+03  0.78673608762E+03  0.25500000920E-02 0.  1.
</event>
<event>
 5   0  0.1758946E-04  0.1879896E+04  0.7818609E-02  0.8664929E-01
        1   -1    0    0  501    0  0.00000000000E+00  0.00000000000E+00  0.15415179980E+04  0.15415179980E+04  0.50400001928E-02 0.  1.
       -1   -1    0    0    0  501  0.00000000000E+00  0.00000000000E+00 -0.57313788648E+03  0.57313788650E+03  0.50400001928E-02 0. -1.
    10030    2    1    2    0    0  0.00000000000E+00  0.00000000000E+00  0.96838011154E+03  0.21146558845E+04  0.18798961326E+04 0.  0.
        2    1    3    3  502    0  0.72680138307E+03  0.38306973149E+03 -0.29474257394E+02  0.82210181941E+03  0.25500000920E-02 0.  1.
       -2    1    3    3    0  502 -0.72680138307E+03 -0.38306973149E+03  0.99785436893E+03  0.12925540651E+04  0.25500000920E-02 0. -1.
</event>
<event>
 5   0  0.1758946E-04  0.1833358E+04  0.7818609E-02  0.8688758E-01
        1   -1    0    0  501    0  0.00000000000E+00  0.00000000000E+00  0.63995452322E+03  0.63995452324E+03  0.50400001928E-02 0.  1.
       -1   -1    0    0    0  501  0.00000000000E+00  0.00000000000E+00 -0.13130626747E+04  0.13130626747E+04  0.50400001928E-02 0. -1.
    10030    2    1    2    0    0  0.00000000000E+00  0.00000000000E+00 -0.67310815151E+03  0.19530171980E+04  0.18333580098E+04 0.  0.
        2    1    3    3  502    0  0.75097482495E+03  0.20576278671E+03 -0.85186064879E+03  0.11541092137E+04  0.25500000920E-02 0. -1.
       -2    1    3    3    0  502 -0.75097482495E+03 -0.20576278671E+03  0.17875249727E+03  0.79890798431E+03  0.25500000920E-02 0.  1.
</event>
<event>
 5   0  0.3623359E-04  0.1874785E+04  0.7818609E-02  0.8667510E-01
       -2   -1    0    0    0  501  0.00000000000E+00  0.00000000000E+00  0.36652545985E+03  0.36652545986E+03  0.25500000920E-02 0.  1.
        2   -1    0    0  501    0  0.00000000000E+00  0.00000000000E+00 -0.23973899227E+04  0.23973899227E+04  0.25500000920E-02 0. -1.
    10030    2    1    2    0    0  0.00000000000E+00  0.00000000000E+00 -0.20308644628E+04  0.27639153825E+04  0.18747847278E+04 0.  0.
        5    1    3    3  502    0 -0.89658627351E+03 -0.17957548422E+03 -0.71126303411E+03  0.11584608298E+04  0.46999998093E+01 0.  1.
       -5    1    3    3    0  502  0.89658627351E+03  0.17957548422E+03 -0.13196014287E+04  0.16054545528E+04  0.46999998093E+01 0. -1.
</event>
<event>
 5   0  0.1694830E-04  0.1908552E+04  0.7818609E-02  0.8650611E-01
        1   -1    0    0  501    0  0.00000000000E+00  0.00000000000E+00  0.16999324087E+04  0.16999324088E+04  0.50400001928E-02 0. -1.
       -1   -1    0    0    0  501  0.00000000000E+00  0.00000000000E+00 -0.53569373584E+03  0.53569373586E+03  0.50400001928E-02 0.  1.
    10030    2    1    2    0    0  0.00000000000E+00  0.00000000000E+00  0.11642386729E+04  0.22356261446E+04  0.19085524806E+04 0.  0.
        1    1    3    3  502    0 -0.92463237173E+03 -0.22927420348E+03  0.51656997380E+03  0.10836771757E+04  0.50400001928E-02 0. -1.
       -1    1    3    3    0  502  0.92463237173E+03  0.22927420348E+03  0.64766869911E+03  0.11519489689E+04  0.50400001928E-02 0.  1.
</event>
<event>
 5   0  0.1287000E-04  0.1959326E+04  0.7818609E-02  0.8625877E-01
        3   -1    0    0  501    0  0.00000000000E+00  0.00000000000E+00  0.13898820737E+04  0.13898820774E+04  0.10100000352E+00 0. -1.
       -3   -1    0    0    0  501  0.00000000000E+00  0.00000000000E+00 -0.69051869205E+03  0.69051869943E+03  0.10100000352E+00 0.  1.
    10030    2    1    2    0    0  0.00000000000E+00  0.00000000000E+00  0.69936338165E+03  0.20804007768E+04  0.19593259689E+04 0.  0.
        1    1    3    3  502    0 -0.87853004805E+03 -0.37422313531E+03  0.58202195075E+03  0.11183056610E+04  0.50400001928E-02 0. -1.
       -1    1    3    3    0  502  0.87853004805E+03  0.37422313531E+03  0.11734143089E+03  0.96209511575E+03  0.50400001928E-02 0.  1.
</event>
<event>
 5   0  0.3459485E-04  0.1890111E+04  0.7818609E-02  0.8659794E-01
       -2   -1    0    0    0  501  0.00000000000E+00  0.00000000000E+00  0.11853665478E+04  0.11853665478E+04  0.25500000920E-02 0. -1.
        2   -1    0    0  501    0  0.00000000000E+00  0.00000000000E+00 -0.75346327790E+03  0.75346327790E+03  0.25500000920E-02 0.  1.
    10030    2    1    2    0    0  0.00000000000E+00  0.00000000000E+00  0.43190326989E+03  0.19388298257E+04  0.18901112820E+04 0.  0.
        3    1    3    3  502    0  0.23929914547E+03 -0.15925834848E+03  0.11394360939E+04  0.11751348539E+04  0.10100000352E+00 0. -1.
       -3    1    3    3    0  502 -0.23929914547E+03  0.15925834848E+03 -0.70753282404E+03  0.76369497175E+03  0.10100000352E+00 0.  1.
</event>
<event>
 5   0  0.1711979E-04  0.1903471E+04  0.7818609E-02  0.8653130E-01
       -1   -1    0    0    0  501  0.00000000000E+00  0.00000000000E+00  0.52611176111E+03  0.52611176114E+03  0.50400001928E-02 0.  1.
        1   -1    0    0  501    0  0.00000000000E+00  0.00000000000E+00 -0.17216887949E+04  0.17216887949E+04  0.50400001928E-02 0. -1.
    10030    2    1    2    0    0  0.00000000000E+00  0.00000000000E+00 -0.11955770338E+04  0.22478005560E+04  0.19034712753E+04 0.  0.
        4    1    3    3  502    0 -0.63480046594E+02  0.32292399544E+03  0.45677788435E+03  0.56298958399E+03  0.12699999809E+01 0.  1.
       -4    1    3    3    0  502  0.63480046594E+02 -0.32292399544E+03 -0.16523549181E+04  0.16848109720E+04  0.12699999809E+01 0. -1.
</event>
<event>
 5   0  0.3516539E-04  0.1925214E+04  0.7818609E-02  0.8642407E-01
        2   -1    0    0  501    0  0.00000000000E+00  0.00000000000E+00  0.10699399998E+04  0.10699399998E+04  0.25500000920E-02 0. -1.
       -2   -1    0    0    0  501  0.00000000000E+00  0.00000000000E+00 -0.86604103257E+03  0.86604103258E+03  0.25500000920E-02 0.  1.
    10030    2    1    2    0    0  0.00000000000E+00  0.00000000000E+00  0.20389896725E+03  0.19359810324E+04  0.19252136944E+04 0.  0.
        4    1    3    3  502    0  0.84716485930E+03 -0.40479489062E+03  0.31541750193E+03  0.99047312721E+03  0.12699999809E+01 0. -1.
       -4    1    3    3    0  502 -0.84716485930E+03  0.40479489062E+03 -0.11151853468E+03  0.94550790519E+03  0.12699999809E+01 0.  1.
</event>
<event>
 5   0  0.3720978E-04  0.1887048E+04  0.7818609E-02  0.8661331E-01
       -2   -1    0    0    0  501  0.00000000000E+00  0.00000000000E+00  0.50162370490E+03  0.50162370491E+03  0.25500000920E-02 0. -1.
        2   -1    0    0  501    0  0.00000000000E+00  0.00000000000E+00 -0.17747110524E+04  0.17747110524E+04  0.25500000920E-02 0.  1.
    10030    2    1    2    0    0  0.00000000000E+00  0.00000000000E+00 -0.12730873475E+04  0.22763347573E+04  0.18870475704E+04 0.  0.
        1    1    3    3  502    0 -0.32514145175E+03  0.47459336801E+03 -0.15386722343E+04  0.16427014559E+04  0.50400001928E-02 0.  1.
       -1    1    3    3    0  502  0.32514145175E+03 -0.47459336801E+03  0.26558488675E+03  0.63363330145E+03  0.50400001928E-02 0. -1.
</event>
<event>
 5   0  0.1782613E-04  0.1867825E+04  0.7818609E-02  0.8671040E-01
       -1   -1    0    0    0  501  0.00000000000E+00  0.00000000000E+00  0.41556934518E+03  0.41556934521E+03  0.50400001928E-02 0. -1.
        1   -1    0    0  501    0  0.00000000000E+00  0.00000000000E+00 -0.20987891155E+04  0.20987891155E+04  0.50400001928E-02 0.  1.
    10030    2    1    2    0    0  0.00000000000E+00  0.00000000000E+00 -0.16832197704E+04  0.25143584608E+04  0.18678248510E+04 0.  0.
        3    1    3    3  502    0 -0.78462904324E+03 -0.50300854658E+03 -0.92161283358E+03  0.13107366473E+04  0.10100000352E+00 0. -1.
       -3    1    3    3    0  502  0.78462904324E+03  0.50300854658E+03 -0.76160693677E+03  0.12036218134E+04  0.10100000352E+00 0.  1.
</event>
<event>
 5   0  0.3459485E-04  0.1795720E+04  0.7818609E-02  0.8708579E-01
        2   -1    0    0  501    0  0.00000000000E+00  0.00000000000E+00  0.15149383785E+04  0.15149383785E+04  0.25500000920E-02 0. -1.
       -2   -1    0    0    0  501  0.00000000000E+00  0.00000000000E+00 -0.53213549344E+03  0.53213549345E+03  0.25500000920E-02 0.  1.
    10030    2    1    2    0    0  0.00000000000E+00  0.00000000000E+00  0.98280288506E+03  0.20470738720E+04  0.17957198908E+04 0.  0.
        3    1    3    3  502    0  0.25559397232E+03 -0.22891523184E+03  0.14372515013E+04  0.14776408056E+04  0.10100000352E+00 0. -1.
       -3    1    3    3    0  502 -0.25559397232E+03  0.22891523184E+03 -0.45444861627E+03  0.56943306637E+03  0.10100000352E+00 0.  1.
</event>
<event>
 5   0  0.1711979E-04  0.1896747E+04  0.7818609E-02  0.8656477E-01
       -1   -1    0    0    0  501  0.00000000000E+00  0.00000000000E+00  0.93853429412E+03  0.93853429413E+03  0.50400001928E-02 0.  1.
        1   -1    0    0  501    0  0.00000000000E+00  0.00000000000E+00 -0.95831631693E+03  0.95831631695E+03  0.50400001928E-02 0. -1.
    10030    2    1    2    0    0  0.00000000000E+00  0.00000000000E+00 -0.19782022815E+02  0.18968506111E+04  0.18967474561E+04 0.  0.
        4    1    3    3  502    0  0.84020366356E+03  0.38723545130E+03  0.19872911643E+03  0.94624963177E+03  0.12699999809E+01 0.  1.
       -4    1    3    3    0  502 -0.84020366356E+03 -0.38723545130E+03 -0.21851113924E+03  0.95060097931E+03  0.12699999809E+01 0. -1.
</event>
<event>
 5   0  0.3535876E-04  0.1912641E+04  0.7818609E-02  0.8648590E-01
        2   -1    0    0  501    0  0.00000000000E+00  0.00000000000E+00  0.17312273146E+04  0.17312273146E+04  0.25500000920E-02 0. -1.
       -2   -1    0    0    0  501  0.00000000000E+00  0.00000000000E+00 -0.52826629340E+03  0.52826629341E+03  0.25500000920E-02 0.  1.
    10030    2    1    2    0    0  0.00000000000E+00  0.00000000000E+00  0.12029610212E+04  0.22594936080E+04  0.19126411441E+04 0.  0.
        2    1    3    3  502    0  0.56870502040E+03  0.48628212666E+03  0.13050056872E+04  0.15043056706E+04  0.25500000920E-02 0. -1.
       -2    1    3    3    0  502 -0.56870502040E+03 -0.48628212666E+03 -0.10204466601E+03  0.75518793741E+03  0.25500000920E-02 0.  1.
</event>
<event>
 5   0  0.1711979E-04  0.1888532E+04  0.7818609E-02  0.8660586E-01
        1   -1    0    0  501    0  0.00000000000E+00  0.00000000000E+00  0.92303043582E+03  0.92303043584E+03  0.50400001928E-02 0.  1.
       -1   -1    0    0    0  501  0.00000000000E+00  0.00000000000E+00 -0.96599051855E+03  0.96599051856E+03  0.50400001928E-02 0. -1.
    10030    2    1    2    0    0  0.00000000000E+00  0.00000000000E+00 -0.42960082729E+02  0.18890209544E+04  0.18885323925E+04 0.  0.
        4    1    3    3  502    0 -0.57002014305E+01 -0.23908174520E+03 -0.93519567516E+03  0.96529018275E+03  0.12699999809E+01 0. -1.
       -4    1    3    3    0  502  0.57002014305E+01  0.23908174520E+03  0.89223559243E+03  0.92373077165E+03  0.12699999809E+01 0.  1.
</event>
<event>
 5   0  0.1711979E-04  0.1895166E+04  0.7818609E-02  0.8657266E-01
       -1   -1    0    0    0  501  0.00000000000E+00  0.00000000000E+00  0.46621273049E+03  0.46621273052E+03  0.50400001928E-02 0. -1.
        1   -1    0    0  501    0  0.00000000000E+00  0.00000000000E+00 -0.19259735131E+04  0.19259735131E+04  0.50400001928E-02 0.  1.
    10030    2    1    2    0    0  0.00000000000E+00  0.00000000000E+00 -0.14597607826E+04  0.23921862436E+04  0.18951658190E+04 0.  0.
        4    1    3    3  502    0 -0.64662226359E+03 -0.19451221574E+03 -0.15690263149E+04  0.17081570605E+04  0.12699999809E+01 0.  1.
       -4    1    3    3    0  502  0.64662226359E+03  0.19451221574E+03  0.10926553227E+03  0.68402918306E+03  0.12699999809E+01 0. -1.
</event>
<event>
 5   0  0.1758946E-04  0.1901087E+04  0.7818609E-02  0.8654315E-01
       -1   -1    0    0    0  501  0.00000000000E+00  0.00000000000E+00  0.43885481113E+03  0.43885481116E+03  0.50400001928E-02 0. -1.
        1   -1    0    0  501    0  0.00000000000E+00  0.00000000000E+00 -0.20588425286E+04  0.20588425286E+04  0.50400001928E-02 0.  1.
    10030    2    1    2    0    0  0.00000000000E+00  0.00000000000E+00 -0.16199877174E+04  0.24976973397E+04  0.19010870039E+04 0.  0.
        2    1    3    3  502    0  0.82679206237E+02  0.91368937016E+03 -0.11367876371E+04  0.14608046577E+04  0.25500000920E-02 0.  1.
       -2    1    3    3    0  502 -0.82679206237E+02 -0.91368937016E+03 -0.48320008036E+03  0.10368926820E+04  0.25500000920E-02 0. -1.
</event>
<event>
 5   0  0.3535876E-04  0.1906566E+04  0.7818609E-02  0.8651595E-01
        2   -1    0    0  501    0  0.00000000000E+00  0.00000000000E+00  0.99532498480E+03  0.99532498480E+03  0.25500000920E-02 0. -1.
       -2   -1    0    0    0  501  0.00000000000E+00  0.00000000000E+00 -0.91301694300E+03  0.91301694301E+03  0.25500000920E-02 0.  1.
    10030    2    1    2    0    0  0.00000000000E+00  0.00000000000E+00  0.82308041793E+02  0.19083419278E+04  0.19065661016E+04 0.  0.
        2    1    3    3  502    0 -0.69150413547E+03 -0.47083181593E+03 -0.41631435563E+03  0.93444005211E+03  0.25500000920E-02 0.  1.
       -2    1    3    3    0  502  0.69150413547E+03  0.47083181593E+03  0.49862239742E+03  0.97390187570E+03  0.25500000920E-02 0. -1.
</event>
<event>
 5   0  0.3720978E-04  0.1863344E+04  0.7818609E-02  0.8673321E-01
       -2   -1    0    0    0  501  0.00000000000E+00  0.00000000000E+00  0.84830014504E+03  0.84830014505E+03  0.25500000920E-02 0. -1.
        2   -1    0    0  501    0  0.00000000000E+00  0.00000000000E+00 -0.10232376875E+04  0.10232376875E+04  0.25500000920E-02 0.  1.
    10030    2    1    2    0    0  0.00000000000E+00  0.00000000000E+00 -0.17493754248E+03  0.18715378326E+04  0.18633439605E+04 0.  0.
        1    1    3    3  502    0  0.42453390993E+03  0.81148780195E+03 -0.25930935340E+03  0.95183130553E+03  0.50400001928E-02 0.  1.
       -1    1    3    3    0  502 -0.42453390993E+03 -0.81148780195E+03  0.84371810928E+02  0.91970652705E+03  0.50400001928E-02 0. -1.
</event>
<event>
 5   0  0.1287000E-04  0.1881839E+04  0.7818609E-02  0.8663949E-01
        4   -1    0    0  501    0  0.00000000000E+00  0.00000000000E+00  0.19294472243E+04  0.19294476423E+04  0.12699999809E+01 0.  1.
       -4   -1    0    0    0  501  0.00000000000E+00  0.00000000000E+00 -0.45885003811E+03  0.45885179566E+03  0.12699999809E+01 0. -1.
    10030    2    1    2    0    0  0.00000000000E+00  0.00000000000E+00  0.14705971862E+04  0.23882994380E+04  0.18818390264E+04 0.  0.
        2    1    3    3  502    0 -0.55594300117E+03  0.64258048300E+03  0.12482334302E+04  0.15099897331E+04  0.25500000920E-02 0.  1.
       -2    1    3    3    0  502  0.55594300117E+03 -0.64258048300E+03  0.22236375598E+03  0.87830970486E+03  0.25500000920E-02 0. -1.
</event>
<event>
 5   0  0.3720978E-04  0.1906697E+04  0.7818609E-02  0.8651530E-01
        2   -1    0    0  501    0  0.00000000000E+00  0.00000000000E+00  0.10922603174E+04  0.10922603174E+04  0.25500000920E-02 0.  1.
       -2   -1    0    0    0  501  0.00000000000E+00  0.00000000000E+00 -0.83210290112E+03  0.83210290112E+03  0.25500000920E-02 0. -1.
    10030    2    1    2    0    0  0.00000000000E+00  0.00000000000E+00  0.26015741629E+03  0.19243632185E+04  0.19066965977E+04 0.  0.
        1    1    3    3  502    0  0.22428625682E+03  0.63760540627E+03  0.80863850368E+03  0.10539170787E+04  0.50400001928E-02 0.  1.
       -1    1    3    3    0  502 -0.22428625682E+03 -0.63760540627E+03 -0.54848108740E+03  0.87044613984E+03  0.50400001928E-02 0. -1.
</event>
<event>
 5   0  0.1694830E-04  0.1877489E+04  0.7818609E-02  0.8666143E-01
       -1   -1    0    0    0  501  0.00000000000E+00  0.00000000000E+00  0.93272362736E+03  0.93272362737E+03  0.50400001928E-02 0.  1.
        1   -1    0    0  501    0  0.00000000000E+00  0.00000000000E+00 -0.94480412234E+03  0.94480412235E+03  0.50400001928E-02 0. -1.
    10030    2    1    2    0    0  0.00000000000E+00  0.00000000000E+00 -0.12080494985E+02  0.18775277497E+04  0.18774888848E+04 0.  0.
        1    1    3    3  502    0 -0.90011833766E+03 -0.47908483623E+01 -0.27251368674E+03  0.94047843330E+03  0.50400001928E-02 0. -1.
       -1    1    3    3    0  502  0.90011833766E+03  0.47908483623E+01  0.26043319175E+03  0.93704931642E+03  0.50400001928E-02 0.  1.
</event>
<event>
 5   0  0.3623359E-04  0.1918736E+04  0.7818609E-02  0.8645586E-01
        2   -1    0    0  501    0  0.00000000000E+00  0.00000000000E+00  0.11696159112E+04  0.11696159112E+04  0.25500000920E-02 0. -1.
       -2   -1    0    0    0  501  0.00000000000E+00  0.00000000000E+00 -0.78691354845E+03  0.78691354845E+03  0.25500000920E-02 0.  1.
    10030    2    1    2    0    0  0.00000000000E+00  0.00000000000E+00  0.38270236278E+03  0.19565294597E+04  0.19187356327E+04 0.  0.
        5    1    3    3  502    0 -0.91067206424E+03 -0.23282298307E+03 -0.43519866682E+01  0.93998466999E+03  0.46999998093E+01 0.  1.
       -5    1    3    3    0  502  0.91067206424E+03  0.23282298307E+03  0.38705434945E+03  0.10165447897E+04  0.46999998093E+01 0. -1.
</event>
<event>
 5   0  0.1287000E-04  0.1506109E+04  0.7818609E-02  0.8880401E-01
        3   -1    0    0  501    0  0.00000000000E+00  0.00000000000E+00  0.10269100072E+04  0.10269100121E+04  0.10100000352E+00 0. -1.
       -3   -1    0    0    0  501  0.00000000000E+00  0.00000000000E+00 -0.55223063966E+03  0.55223064889E+03  0.10100000352E+00 0.  1.
    10030    2    1    2    0    0  0.00000000000E+00  0.00000000000E+00  0.47467936752E+03  0.15791406610E+04  0.15061091346E+04 0.  0.
        5    1    3    3  502    0 -0.28251318826E+03 -0.69746648245E+03  0.20776007373E+03  0.78067889296E+03  0.46999998093E+01 0.  1.
       -5    1    3    3    0  502  0.28251318826E+03  0.69746648245E+03  0.26691929379E+03  0.79846176808E+03  0.46999998093E+01 0. -1.
</event>
<event>
 5   0  0.3516539E-04  0.1894689E+04  0.7818609E-02  0.8657505E-01
       -2   -1    0    0    0  501  0.00000000000E+00  0.00000000000E+00  0.11454787274E+04  0.11454787274E+04  0.25500000920E-02 0. -1.
        2   -1    0    0  501    0  0.00000000000E+00  0.00000000000E+00 -0.78348164441E+03  0.78348164442E+03  0.25500000920E-02 0.  1.
    10030    2    1    2    0    0  0.00000000000E+00  0.00000000000E+00  0.36199708300E+03  0.19289603718E+04  0.18946889528E+04 0.  0.
        4    1    3    3  502    0  0.78631505768E+03 -0.29737019561E+03  0.62563569512E+03  0.10479227257E+04  0.12699999809E+01 0. -1.
       -4    1    3    3    0  502 -0.78631505768E+03  0.29737019561E+03 -0.26363861212E+03  0.88103764611E+03  0.12699999809E+01 0.  1.
</event>
<event>
 5   0  0.3516539E-04  0.1935085E+04  0.7818609E-02  0.8637587E-01
        2   -1    0    0  501    0  0.00000000000E+00  0.00000000000E+00  0.56702599752E+03  0.56702599752E+03  0.25500000920E-02 0. -1.
       -2   -1    0    0    0  501  0.00000000000E+00  0.00000000000E+00 -0.16509622666E+04  0.16509622666E+04  0.25500000920E-02 0.  1.
    10030    2    1    2    0    0  0.00000000000E+00  0.00000000000E+00 -0.10839362690E+04  0.22179882641E+04  0.19350850380E+04 0.  0.
        4    1    3    3  502    0  0.58607970696E+03  0.76653613202E+03 -0.46035563430E+03  0.10691099043E+04  0.12699999809E+01 0.  1.
       -4    1    3    3    0  502 -0.58607970696E+03 -0.76653613202E+03 -0.62358063474E+03  0.11488783598E+04  0.12699999809E+01 0. -1.
</event>
<event>
 5   0  0.1758946E-04  0.1936562E+04  0.7818609E-02  0.8636868E-01
        1   -1    0    0  501    0  0.00000000000E+00  0.00000000000E+00  0.98935683478E+03  0.98935683479E+03  0.50400001928E-02 0. -1.
       -1   -1    0    0    0  501  0.00000000000E+00  0.00000000000E+00 -0.94765396545E+03  0.94765396546E+03  0.50400001928E-02 0.  1.
    10030    2    1    2    0    0  0.00000000000E+00  0.00000000000E+00  0.41702869330E+02  0.19370108003E+04  0.19365618273E+04 0.  0.
        2    1    3    3  502    0  0.93397294700E+02 -0.74185313457E+02 -0.94027789969E+03  0.94781276845E+03  0.25500000920E-02 0.  1.
       -2    1    3    3    0  502 -0.93397294700E+02  0.74185313457E+02  0.98198076902E+03  0.98919803180E+03  0.25500000920E-02 0. -1.
</event>
<event>
 5   0  0.1782613E-04  0.1967690E+04  0.7818609E-02  0.8621877E-01
       -1   -1    0    0    0  501  0.00000000000E+00  0.00000000000E+00  0.72807718640E+03  0.72807718641E+03  0.50400001928E-02 0.  1.
        1   -1    0    0  501    0  0.00000000000E+00  0.00000000000E+00 -0.13294617866E+04  0.13294617866E+04  0.50400001928E-02 0. -1.
    10030    2    1    2    0    0  0.00000000000E+00  0.00000000000E+00 -0.60138460021E+03  0.20575389730E+04  0.19676898100E+04 0.  0.
        3    1    3    3  502    0  0.90049316021E+03 -0.35769989198E+03 -0.12227387307E+03  0.97662073220E+03  0.10100000352E+00 0.  1.
       -3    1    3    3    0  502 -0.90049316021E+03  0.35769989198E+03 -0.47911072714E+03  0.10809182408E+04  0.10100000352E+00 0. -1.
</event>
<event>
 5   0  0.1813834E-04  0.1903853E+04  0.7818609E-02  0.8652941E-01
        1   -1    0    0  501    0  0.00000000000E+00  0.00000000000E+00  0.15838024668E+04  0.15838024668E+04  0.50400001928E-02 0. -1.
       -1   -1    0    0    0  501  0.00000000000E+00  0.00000000000E+00 -0.57214459578E+03  0.57214459580E+03  0.50400001928E-02 0.  1.
    10030    2    1    2    0    0  0.00000000000E+00  0.00000000000E+00  0.10116578710E+04  0.21559470626E+04  0.19038529588E+04 0.  0.
        5    1    3    3  502    0  0.58596520561E+03 -0.25635729983E+03  0.13042140610E+04  0.14526082384E+04  0.46999998093E+01 0. -1.
       -5    1    3    3    0  502 -0.58596520561E+03  0.25635729983E+03 -0.29255618996E+03  0.70333882422E+03  0.46999998093E+01 0.  1.
</event>
<event>
 5   0  0.3516539E-04  0.1900751E+04  0.7818609E-02  0.8654483E-01
       -2   -1    0    0    0  501  0.00000000000E+00  0.00000000000E+00  0.76084239811E+03  0.76084239811E+03  0.25500000920E-02 0.  1.
        2   -1    0    0  501    0  0.00000000000E+00  0.00000000000E+00 -0.11871226687E+04  0.11871226687E+04  0.25500000920E-02 0. -1.
    10030    2    1    2    0    0  0.00000000000E+00  0.00000000000E+00 -0.42628027059E+03  0.19479650668E+04  0.19007506497E+04 0.  0.
        4    1    3    3  502    0 -0.63873826872E+03 -0.42288679147E+03 -0.78959943200E+03  0.11001312150E+04  0.12699999809E+01 0. -1.
       -4    1    3    3    0  502  0.63873826872E+03  0.42288679147E+03  0.36331916140E+03  0.84783385181E+03  0.12699999809E+01 0.  1.
</event>
<event>
 5   0  0.3623359E-04  0.1901518E+04  0.7818609E-02  0.8654101E-01
       -2   -1    0    0    0  501  0.00000000000E+00  0.00000000000E+00  0.86711618107E+03  0.86711618107E+03  0.25500000920E-02 0. -1.
        2   -1    0    0  501    0  0.00000000000E+00  0.00000000000E+00 -0.10424698369E+04  0.10424698369E+04  0.25500000920E-02 0.  1.
    10030    2    1    2    0    0  0.00000000000E+00  0.00000000000E+00 -0.17535365587E+03  0.19095860180E+04  0.19015177768E+04 0.  0.
        5    1    3    3  502    0  0.29357676142E+03 -0.24916630953E+03  0.78529243455E+03  0.87462990025E+03  0.46999998093E+01 0. -1.
       -5    1    3    3    0  502 -0.29357676142E+03  0.24916630953E+03 -0.96064609042E+03  0.10349561178E+04  0.46999998093E+01 0.  1.
</event>
<event>
 5   0  0.3720978E-04  0.1925116E+04  0.7818609E-02  0.8642454E-01
       -2   -1    0    0    0  501  0.00000000000E+00  0.00000000000E+00  0.86509476727E+03  0.86509476727E+03  0.25500000920E-02 0.  1.
        2   -1    0    0  501    0  0.00000000000E+00  0.00000000000E+00 -0.10710020191E+04  0.10710020191E+04  0.25500000920E-02 0. -1.
    10030    2    1    2    0    0  0.00000000000E+00  0.00000000000E+00 -0.20590725179E+03  0.19360967863E+04  0.19251163523E+04 0.  0.
        1    1    3    3  502    0  0.37330712651E+03  0.77403783645E+03  0.33313866597E+03  0.92166922144E+03  0.50400001928E-02 0. -1.
       -1    1    3    3    0  502 -0.37330712651E+03 -0.77403783645E+03 -0.53904591776E+03  0.10144275649E+04  0.50400001928E-02 0.  1.
</event>
<event>
 5   0  0.3720978E-04  0.1900299E+04  0.7818609E-02  0.8654708E-01
        2   -1    0    0  501    0  0.00000000000E+00  0.00000000000E+00  0.32068131390E+04  0.32068131390E+04  0.25500000920E-02 0. -1.
       -2   -1    0    0    0  501  0.00000000000E+00  0.00000000000E+00 -0.28152057405E+03  0.28152057406E+03  0.25500000920E-02 0.  1.
    10030    2    1    2    0    0  0.00000000000E+00  0.00000000000E+00  0.29252925649E+04  0.34883337130E+04  0.19002987931E+04 0.  0.
        1    1    3    3  502    0 -0.73737524086E+02 -0.86296127886E+03  0.74545221093E+03  0.11427328603E+04  0.50400001928E-02 0. -1.
       -1    1    3    3    0  502  0.73737524086E+02  0.86296127886E+03  0.21798403540E+04  0.23456008527E+04  0.50400001928E-02 0.  1.
</event>
<event>
 5   0  0.1813834E-04  0.1895533E+04  0.7818609E-02  0.8657083E-01
       -1   -1    0    0    0  501  0.00000000000E+00  0.00000000000E+00  0.74373999713E+03  0.74373999715E+03  0.50400001928E-02 0.  1.
        1   -1    0    0  501    0  0.00000000000E+00  0.00000000000E+00 -0.12077631642E+04  0.12077631642E+04  0.50400001928E-02 0. -1.
    10030    2    1    2    0    0  0.00000000000E+00  0.00000000000E+00 -0.46402316709E+03  0.19515031614E+04  0.18955334577E+04 0.  0.
        5    1    3    3  502    0 -0.54944825712E+03  0.64400940044E+03  0.20671460495E+03  0.87143244890E+03  0.46999998093E+01 0.  1.
       -5    1    3    3    0  502  0.54944825712E+03 -0.64400940044E+03 -0.67073777204E+03  0.10800707125E+04  0.46999998093E+01 0. -1.
</event>
<event>
 5   0  0.1287000E-04  0.1909851E+04  0.7818609E-02  0.8649969E-01
        3   -1    0    0  501    0  0.00000000000E+00  0.00000000000E+00  0.87600178937E+03  0.87600179519E+03  0.10100000352E+00 0. -1.
       -3   -1    0    0    0  501  0.00000000000E+00  0.00000000000E+00 -0.10409595490E+04  0.10409595539E+04  0.10100000352E+00 0.  1.
    10030    2    1    2    0    0  0.00000000000E+00  0.00000000000E+00 -0.16495775961E+03  0.19169613491E+04  0.19098507144E+04 0.  0.
        2    1    3    3  502    0 -0.54517469524E+03  0.65338014314E+03 -0.51740657861E+03  0.99590693711E+03  0.25500000920E-02 0.  1.
       -2    1    3    3    0  502  0.54517469524E+03 -0.65338014314E+03  0.35244881900E+03  0.92105441197E+03  0.25500000920E-02 0. -1.
</event>
<event>
 5   0  0.3516539E-04  0.1919998E+04  0.7818609E-02  0.8644966E-01
       -2   -1    0    0    0  501  0.00000000000E+00  0.00000000000E+00  0.70495257270E+03  0.70495257271E+03  0.25500000920E-02 0.  1.
        2   -1    0    0  501    0  0.00000000000E+00  0.00000000000E+00 -0.13073187604E+04  0.13073187604E+04  0.25500000920E-02 0. -1.
    10030    2    1    2    0    0  0.00000000000E+00  0.00000000000E+00 -0.60236618773E+03  0.20122713331E+04  0.19199976287E+04 0.  0.
        4    1    3    3  502    0  0.30175817813E+03  0.40888320517E+03 -0.11547903102E+04  0.12616599173E+04  0.12699999809E+01 0. -1.
       -4    1    3    3    0  502 -0.30175817813E+03 -0.40888320517E+03  0.55242412249E+03  0.75061141581E+03  0.12699999809E+01 0.  1.
</event>
<event>
 5   0  0.1711979E-04  0.1926779E+04  0.7818609E-02  0.8641640E-01
        1   -1    0    0  501    0  0.00000000000E+00  0.00000000000E+00  0.20248791075E+04  0.20248791075E+04  0.50400001928E-02 0. -1.
       -1   -1    0    0    0  501  0.00000000000E+00  0.00000000000E+00 -0.45835785467E+03  0.45835785470E+03  0.50400001928E-02 0.  1.
    10030    2    1    2    0    0  0.00000000000E+00  0.00000000000E+00  0.15665212529E+04  0.24832369622E+04  0.19267789118E+04 0.  0.
        4    1    3    3  502    0  0.26818126583E+03 -0.57855694842E+03  0.17139403126E+04  0.18287269730E+04  0.12699999809E+01 0. -1.
       -4    1    3    3    0  502 -0.26818126583E+03  0.57855694842E+03 -0.14741905971E+03  0.65450998921E+03  0.12699999809E+01 0.  1.
</event>
<event>
 5   0  0.3516539E-04  0.1874182E+04  0.7818609E-02  0.8667815E-01
        2   -1    0    0  501    0  0.00000000000E+00  0.00000000000E+00  0.63640135287E+03  0.63640135287E+03  0.25500000920E-02 0. -1.
       -2   -1    0    0    0  501  0.00000000000E+00  0.00000000000E+00 -0.13798516976E+04  0.13798516976E+04  0.25500000920E-02 0.  1.
    10030    2    1    2    0    0  0.00000000000E+00  0.00000000000E+00 -0.74345034468E+03  0.20162530504E+04  0.18741819411E+04 0.  0.
        4    1    3    3  502    0 -0.50789412069E+03 -0.83513572108E+01  0.47544030233E+03  0.69575231008E+03  0.12699999809E+01 0. -1.
       -4    1    3    3    0  502  0.50789412069E+03  0.83513572108E+01 -0.12188906470E+04  0.13205007404E+04  0.12699999809E+01 0.  1.
</event>
<event>
 5   0  0.1782613E-04  0.1901056E+04  0.7818609E-02  0.8654331E-01
        1   -1    0    0  501    0  0.00000000000E+00  0.00000000000E+00  0.12763838262E+04  0.12763838262E+04  0.50400001928E-02 0. -1.
       -1   -1    0    0    0  501  0.00000000000E+00  0.00000000000E+00 -0.70786217192E+03  0.70786217194E+03  0.50400001928E-02 0.  1.
    10030    2    1    2    0    0  0.00000000000E+00  0.00000000000E+00  0.56852165427E+03  0.19842459981E+04  0.19010563668E+04 0.  0.
        3    1    3    3  502    0 -0.72275389696E+03 -0.68605921708E+02 -0.35612112653E+03  0.80864221695E+03  0.10100000352E+00 0. -1.
       -3    1    3    3    0  502  0.72275389696E+03  0.68605921708E+02  0.92464278080E+03  0.11756037812E+04  0.10100000352E+00 0.  1.
</event>
<event>
 5   0  0.1711979E-04  0.1950906E+04  0.7818609E-02  0.8629924E-01
        1   -1    0    0  501    0  0.00000000000E+00  0.00000000000E+00  0.88244554206E+03  0.88244554207E+03  0.50400001928E-02 0. -1.
       -1   -1    0    0    0  501  0.00000000000E+00  0.00000000000E+00 -0.10782635848E+04  0.10782635848E+04  0.50400001928E-02 0.  1.
    10030    2    1    2    0    0  0.00000000000E+00  0.00000000000E+00 -0.19581804271E+03  0.19607091268E+04  0.19509063469E+04 0.  0.
        4    1    3    3  502    0 -0.49820239934E+03  0.83392876164E+03 -0.87815692309E+01  0.97145331286E+03  0.12699999809E+01 0. -1.
       -4    1    3    3    0  502  0.49820239934E+03 -0.83392876164E+03 -0.18703647347E+03  0.98925581399E+03  0.12699999809E+01 0.  1.
</event>
<event>
 5   0  0.1758946E-04  0.1884039E+04  0.7818609E-02  0.8662842E-01
        1   -1    0    0  501    0  0.00000000000E+00  0.00000000000E+00  0.63949849004E+03  0.63949849006E+03  0.50400001928E-02 0. -1.
       -1   -1    0    0    0  501  0.00000000000E+00  0.00000000000E+00 -0.13876514666E+04  0.13876514666E+04  0.50400001928E-02 0.  1.
    10030    2    1    2    0    0  0.00000000000E+00  0.00000000000E+00 -0.74815297658E+03  0.20271499567E+04  0.18840392964E+04 0.  0.
        2    1    3    3  502    0 -0.47652296948E+03 -0.23934636234E+03 -0.12096199598E+04  0.13219460158E+04  0.25500000920E-02 0.  1.
       -2    1    3    3    0  502  0.47652296948E+03  0.23934636234E+03  0.46146698322E+03  0.70520394087E+03  0.25500000920E-02 0. -1.
</event>
<event>
 5   0  0.3720978E-04  0.1934074E+04  0.7818609E-02  0.8638079E-01
       -2   -1    0    0    0  501  0.00000000000E+00  0.00000000000E+00  0.43240743110E+03  0.43240743111E+03  0.25500000920E-02 0.  1.
        2   -1    0    0  501    0  0.00000000000E+00  0.00000000000E+00 -0.21626836939E+04  0.21626836939E+04  0.25500000920E-02 0. -1.
    10030    2    1    2    0    0  0.00000000000E+00  0.00000000000E+00 -0.17302762628E+04  0.25950911250E+04  0.19340739390E+04 0.  0.
        1    1    3    3  502    0 -0.12663404468E+03 -0.27588255228E+03  0.36682216188E+03  0.47613639054E+03  0.50400001928E-02 0.  1.
       -1    1    3    3    0  502  0.12663404468E+03  0.27588255228E+03 -0.20970984247E+04  0.21189547344E+04  0.50400001928E-02 0. -1.
</event>
<event>
 5   0  0.1694830E-04  0.1744736E+04  0.7818609E-02  0.8736253E-01
       -1   -1    0    0    0  501  0.00000000000E+00  0.00000000000E+00  0.50092647345E+03  0.50092647348E+03  0.50400001928E-02 0. -1.
        1   -1    0    0  501    0  0.00000000000E+00  0.00000000000E+00 -0.15192369603E+04  0.15192369603E+04  0.50400001928E-02 0.  1.
    10030    2    1    2    0    0  0.00000000000E+00  0.00000000000E+00 -0.10183104868E+04  0.20201634338E+04  0.17447360980E+04 0.  0.
        1    1    3    3  502    0 -0.30004717389E+03  0.76402274375E+03 -0.85119899905E+03  0.11824968480E+04  0.50400001928E-02 0. -1.
       -1    1    3    3    0  502  0.30004717389E+03 -0.76402274375E+03 -0.16711148776E+03  0.83766658575E+03  0.50400001928E-02 0.  1.
</event>
<event>
 5   0  0.3720978E-04  0.1842536E+04  0.7818609E-02  0.8684001E-01
        2   -1    0    0  501    0  0.00000000000E+00  0.00000000000E+00  0.24902927628E+04  0.24902927628E+04  0.25500000920E-02 0.  1.
       -2   -1    0    0    0  501  0.00000000000E+00  0.00000000000E+00 -0.34081707174E+03  0.34081707175E+03  0.25500000920E-02 0. -1.
    10030    2    1    2    0    0  0.00000000000E+00  0.00000000000E+00  0.21494756911E+04  0.28311098346E+04  0.18425355217E+04 0.  0.
        1    1    3    3  502    0  0.90571696291E+02  0.88308467968E+02 -0.32740948888E+03  0.35099656853E+03  0.50400001928E-02 0. -1.
       -1    1    3    3    0  502 -0.90571696291E+02 -0.88308467968E+02  0.24768851800E+04  0.24801132661E+04  0.50400001928E-02 0.  1.
</event>
<event>
 5   0  0.3535876E-04  0.1779878E+04  0.7818609E-02  0.8717074E-01
       -2   -1    0    0    0  501  0.00000000000E+00  0.00000000000E+00  0.76168807697E+03  0.76168807697E+03  0.25500000920E-02 0.  1.
        2   -1    0    0  501    0  0.00000000000E+00  0.00000000000E+00 -0.10397842281E+04  0.10397842281E+04  0.25500000920E-02 0. -1.
    10030    2    1    2    0    0  0.00000000000E+00  0.00000000000E+00 -0.27809615113E+03  0.18014723051E+04  0.17798778039E+04 0.  0.
        2    1    3    3  502    0  0.56502441571E+03 -0.60245287850E+03 -0.47441265339E+03  0.95250691696E+03  0.25500000920E-02 0.  1.
       -2    1    3    3    0  502 -0.56502441571E+03  0.60245287850E+03  0.19631650226E+03  0.84896538812E+03  0.25500000920E-02 0. -1.
</event>
<event>
 5   0  0.3516539E-04  0.1898672E+04  0.7818609E-02  0.8655518E-01
       -2   -1    0    0    0  501  0.00000000000E+00  0.00000000000E+00  0.13185950445E+04  0.13185950445E+04  0.25500000920E-02 0.  1.
        2   -1    0    0  501    0  0.00000000000E+00  0.00000000000E+00 -0.68348384054E+03  0.68348384055E+03  0.25500000920E-02 0. -1.
    10030    2    1    2    0    0  0.00000000000E+00  0.00000000000E+00  0.63511120397E+03  0.20020788851E+04  0.18986715410E+04 0.  0.
        4    1    3    3  502    0 -0.10860186382E+03 -0.81692597619E+03  0.81446884442E+03  0.11586731752E+04  0.12699999809E+01 0. -1.
       -4    1    3    3    0  502  0.10860186382E+03  0.81692597619E+03 -0.17935764046E+03  0.84340570990E+03  0.12699999809E+01 0.  1.
</event>
<event>
 5   0  0.1711979E-04  0.1887472E+04  0.7818609E-02  0.8661118E-01
       -1   -1    0    0    0  501  0.00000000000E+00  0.00000000000E+00  0.78898258717E+03  0.78898258719E+03  0.50400001928E-02 0.  1.
        1   -1    0    0  501    0  0.00000000000E+00  0.00000000000E+00 -0.11288432445E+04  0.11288432445E+04  0.50400001928E-02 0. -1.
    10030    2    1    2    0    0  0.00000000000E+00  0.00000000000E+00 -0.33986065733E+03  0.19178258317E+04  0.18874720274E+04 0.  0.
        4    1    3    3  502    0 -0.38225526042E+03  0.57291292424E+03 -0.82550996401E+03  0.10750891202E+04  0.12699999809E+01 0. -1.
       -4    1    3    3    0  502  0.38225526042E+03 -0.57291292424E+03  0.48564930668E+03  0.84273671147E+03  0.12699999809E+01 0.  1.
</event>
<event>
 5   0  0.1694830E-04  0.1978483E+04  0.7818609E-02  0.8616747E-01
        1   -1    0    0  501    0  0.00000000000E+00  0.00000000000E+00  0.12282643902E+04  0.12282643902E+04  0.50400001928E-02 0. -1.
       -1   -1    0    0    0  501  0.00000000000E+00  0.00000000000E+00 -0.79673287745E+03  0.79673287747E+03  0.50400001928E-02 0.  1.
    10030    2    1    2    0    0  0.00000000000E+00  0.00000000000E+00  0.43153151270E+03  0.20249972676E+04  0.19784828752E+04 0.  0.
        1    1    3    3  502    0  0.72717416748E+03  0.62399236169E+03  0.46741167079E+03  0.10661249492E+04  0.50400001928E-02 0. -1.
       -1    1    3    3    0  502 -0.72717416748E+03 -0.62399236169E+03 -0.35880158090E+02  0.95887231843E+03  0.50400001928E-02 0.  1.
</event>
<event>
 5   0  0.3516539E-04  0.1942547E+04  0.7818609E-02  0.8633963E-01
        2   -1    0    0  501    0  0.00000000000E+00  0.00000000000E+00  0.13266829391E+04  0.13266829391E+04  0.25500000920E-02 0.  1.
       -2   -1    0    0    0  501  0.00000000000E+00  0.00000000000E+00 -0.71107615264E+03  0.71107615265E+03  0.25500000920E-02 0. -1.
    10030    2    1    2    0    0  0.00000000000E+00  0.00000000000E+00  0.61560678645E+03  0.20377590917E+04  0.19425473998E+04 0.  0.
        4    1    3    3  502    0  0.38975777533E+03 -0.88614892904E+03  0.39040242093E+03  0.10438327026E+04  0.12699999809E+01 0.  1.
       -4    1    3    3    0  502 -0.38975777533E+03  0.88614892904E+03  0.22520436552E+03  0.99392638914E+03  0.12699999809E+01 0. -1.
</event>
<event>
 5   0  0.3623359E-04  0.1890921E+04  0.7818609E-02  0.8659389E-01
       -2   -1    0    0    0  501  0.00000000000E+00  0.00000000000E+00  0.45960023391E+03  0.45960023391E+03  0.25500000920E-02 0.  1.
        2   -1    0    0  501    0  0.00000000000E+00  0.00000000000E+00 -0.19449405511E+04  0.19449405511E+04  0.25500000920E-02 0. -1.
    10030    2    1    2    0    0  0.00000000000E+00  0.00000000000E+00 -0.14853403172E+04  0.24045407850E+04  0.18909205507E+04 0.  0.
        5    1    3    3  502    0  0.41356024121E+03 -0.73994501736E+03 -0.12751185211E+04  0.15311760299E+04  0.46999998093E+01 0. -1.
       -5    1    3    3    0  502 -0.41356024121E+03  0.73994501736E+03 -0.21022179607E+03  0.87336475505E+03  0.46999998093E+01 0.  1.
</event>
<event>
 5   0  0.1758946E-04  0.2303704E+04  0.7818609E-02  0.8476462E-01
       -1   -1    0    0    0  501  0.00000000000E+00  0.00000000000E+00  0.75465750338E+03  0.75465750340E+03  0.50400001928E-02 0. -1.
        1   -1    0    0  501    0  0.00000000000E+00  0.00000000000E+00 -0.17580996373E+04  0.17580996373E+04  0.50400001928E-02 0.  1.
    10030    2    1    2    0    0  0.00000000000E+00  0.00000000000E+00 -0.10034421339E+04  0.25127571407E+04  0.23037040461E+04 0.  0.
        2    1    3    3  502    0 -0.88649433775E+02  0.43120817031E+03  0.65927797648E+03  0.79274627627E+03  0.25500000920E-02 0. -1.
       -2    1    3    3    0  502  0.88649433775E+02 -0.43120817031E+03 -0.16627201104E+04  0.17200108644E+04  0.25500000920E-02 0.  1.
</event>
<event>
 5   0  0.1782613E-04  0.1172526E+04  0.7818609E-02  0.9137250E-01
        1   -1    0    0  501    0  0.00000000000E+00  0.00000000000E+00  0.12822660140E+04  0.12822660140E+04  0.50400001928E-02 0.  1.
       -1   -1    0    0    0  501  0.00000000000E+00  0.00000000000E+00 -0.26804461312E+03  0.26804461317E+03  0.50400001928E-02 0. -1.
    10030    2    1    2    0    0  0.00000000000E+00  0.00000000000E+00  0.10142214008E+04  0.15503106271E+04  0.11725263284E+04 0.  0.
        3    1    3    3  502    0  0.57774970469E+03 -0.20504643998E+02  0.37831131257E+03  0.69089407373E+03  0.10100000352E+00 0.  1.
       -3    1    3    3    0  502 -0.57774970469E+03  0.20504643998E+02  0.63591008827E+03  0.85941655340E+03  0.10100000352E+00 0. -1.
</event>
<event>
 5   0  0.3535876E-04  0.1922515E+04  0.7818609E-02  0.8643729E-01
       -2   -1    0    0    0  501  0.00000000000E+00  0.00000000000E+00  0.83681369058E+03  0.83681369059E+03  0.25500000920E-02 0.  1.
        2   -1    0    0  501    0  0.00000000000E+00  0.00000000000E+00 -0.11042080743E+04  0.11042080743E+04  0.25500000920E-02 0. -1.
    10030    2    1    2    0    0  0.00000000000E+00  0.00000000000E+00 -0.26739438369E+03  0.19410217649E+04  0.19225154707E+04 0.  0.
        2    1    3    3  502    0 -0.62396242262E+03 -0.47606549832E+02  0.60299849638E+03  0.86902397843E+03  0.25500000920E-02 0.  1.
       -2    1    3    3    0  502  0.62396242262E+03  0.47606549832E+02 -0.87039288007E+03  0.10719977864E+04  0.25500000920E-02 0. -1.
</event>
<event>
 5   0  0.3516539E-04  0.1972424E+04  0.7818609E-02  0.8619623E-01
       -2   -1    0    0    0  501  0.00000000000E+00  0.00000000000E+00  0.48945263200E+03  0.48945263200E+03  0.25500000920E-02 0.  1.
        2   -1    0    0  501    0  0.00000000000E+00  0.00000000000E+00 -0.19871467230E+04  0.19871467230E+04  0.25500000920E-02 0. -1.
    10030    2    1    2    0    0  0.00000000000E+00  0.00000000000E+00 -0.14976940910E+04  0.24765993550E+04  0.19724240860E+04 0.  0.
        4    1    3    3  502    0 -0.67879756276E+03  0.67144520643E+03 -0.10589801202E+04  0.14258489767E+04  0.12699999809E+01 0. -1.
       -4    1    3    3    0  502  0.67879756276E+03 -0.67144520643E+03 -0.43871397078E+03  0.10507503783E+04  0.12699999809E+01 0.  1.
</event>
<event>
 5   0  0.1694830E-04  0.1990358E+04  0.7818609E-02  0.8611142E-01
        1   -1    0    0  501    0  0.00000000000E+00  0.00000000000E+00  0.10460903601E+04  0.10460903601E+04  0.50400001928E-02 0. -1.
       -1   -1    0    0    0  501  0.00000000000E+00  0.00000000000E+00 -0.94674512211E+03  0.94674512212E+03  0.50400001928E-02 0.  1.
    10030    2    1    2    0    0  0.00000000000E+00  0.00000000000E+00  0.99345237974E+02  0.19928354822E+04  0.19903577022E+04 0.  0.
        1    1    3    3  502    0 -0.69890053954E+03 -0.26771041811E+03 -0.60707848305E+03  0.96367791130E+03  0.50400001928E-02 0.  1.
       -1    1    3    3    0  502  0.69890053954E+03  0.26771041811E+03  0.70642372102E+03  0.10291575709E+04  0.50400001928E-02 0. -1.
</event>
<event>
 5   0  0.1694830E-04  0.1908676E+04  0.7818609E-02  0.8650550E-01
        1   -1    0    0  501    0  0.00000000000E+00  0.00000000000E+00  0.17770974706E+04  0.17770974706E+04  0.50400001928E-02 0. -1.
       -1   -1    0    0    0  501  0.00000000000E+00  0.00000000000E+00 -0.51249937325E+03  0.51249937328E+03  0.50400001928E-02 0.  1.
    10030    2    1    2    0    0  0.00000000000E+00  0.00000000000E+00  0.12645980974E+04  0.22895968439E+04  0.19086763371E+04 0.  0.
        1    1    3    3  502    0  0.23340549689E+03 -0.88241824493E+02  0.17372723387E+04  0.17551011152E+04  0.50400001928E-02 0. -1.
       -1    1    3    3    0  502 -0.23340549689E+03  0.88241824493E+02 -0.47267424136E+03  0.53449572873E+03  0.50400001928E-02 0.  1.
</event>
<event>
 5   0  0.3459485E-04  0.1862856E+04  0.7818609E-02  0.8673569E-01
        2   -1    0    0  501    0  0.00000000000E+00  0.00000000000E+00  0.25945653269E+04  0.25945653269E+04  0.25500000920E-02 0. -1.
       -2   -1    0    0    0  501  0.00000000000E+00  0.00000000000E+00 -0.33437512212E+03  0.33437512213E+03  0.25500000920E-02 0.  1.
    10030    2    1    2    0    0  0.00000000000E+00  0.00000000000E+00  0.22601902048E+04  0.29289404490E+04  0.18628559773E+04 0.  0.
        3    1    3    3  502    0  0.75765916923E+03 -0.29539029352E+03  0.41603665151E+03  0.91344914900E+03  0.10100000352E+00 0.  1.
       -3    1    3    3    0  502 -0.75765916923E+03  0.29539029352E+03  0.18441535533E+04  0.20154913000E+04  0.10100000352E+00 0. -1.
</event>
<event>
 5   0  0.1711979E-04  0.1893471E+04  0.7818609E-02  0.8658113E-01
        1   -1    0    0  501    0  0.00000000000E+00  0.00000000000E+00  0.60157764075E+03  0.60157764077E+03  0.50400001928E-02 0.  1.
       -1   -1    0    0    0  501  0.00000000000E+00  0.00000000000E+00 -0.14899290788E+04  0.14899290788E+04  0.50400001928E-02 0. -1.
    10030    2    1    2    0    0  0.00000000000E+00  0.00000000000E+00 -0.88835143805E+03  0.20915067196E+04  0.18934709083E+04 0.  0.
        4    1    3    3  502    0 -0.61409239223E+03  0.66758736654E+03 -0.14466295466E+03  0.91853761028E+03  0.12699999809E+01 0.  1.
       -4    1    3    3    0  502  0.61409239223E+03 -0.66758736654E+03 -0.74368848339E+03  0.11729691093E+04  0.12699999809E+01 0. -1.
</event>
<event>
 5   0  0.1694830E-04  0.1929827E+04  0.7818609E-02  0.8640151E-01
       -1   -1    0    0    0  501  0.00000000000E+00  0.00000000000E+00  0.60426854393E+03  0.60426854395E+03  0.50400001928E-02 0.  1.
        1   -1    0    0  501    0  0.00000000000E+00  0.00000000000E+00 -0.15408011386E+04  0.15408011386E+04  0.50400001928E-02 0. -1.
    10030    2    1    2    0    0  0.00000000000E+00  0.00000000000E+00 -0.93653259467E+03  0.21450696826E+04  0.19298265834E+04 0.  0.
        1    1    3    3  502    0 -0.58135033562E+03  0.75602270634E+03 -0.63132174997E+03  0.11437244848E+04  0.50400001928E-02 0. -1.
       -1    1    3    3    0  502  0.58135033562E+03 -0.75602270634E+03 -0.30521084469E+03  0.10013451977E+04  0.50400001928E-02 0.  1.
</event>
<event>
 5   0  0.1694830E-04  0.1938305E+04  0.7818609E-02  0.8636021E-01
       -1   -1    0    0    0  501  0.00000000000E+00  0.00000000000E+00  0.96752134674E+03  0.96752134676E+03  0.50400001928E-02 0. -1.
        1   -1    0    0  501    0  0.00000000000E+00  0.00000000000E+00 -0.97078640804E+03  0.97078640806E+03  0.50400001928E-02 0.  1.
    10030    2    1    2    0    0  0.00000000000E+00  0.00000000000E+00 -0.32650612992E+01  0.19383077548E+04  0.19383050048E+04 0.  0.
        1    1    3    3  502    0 -0.33851775880E+03  0.25191467460E+03  0.87083721469E+03  0.96768421027E+03  0.50400001928E-02 0. -1.
       -1    1    3    3    0  502  0.33851775880E+03 -0.25191467460E+03 -0.87410227599E+03  0.97062354454E+03  0.50400001928E-02 0.  1.
</event>
<event>
 5   0  0.1782613E-04  0.1888459E+04  0.7818609E-02  0.8660623E-01
       -1   -1    0    0    0  501  0.00000000000E+00  0.00000000000E+00  0.91844045788E+03  0.91844045789E+03  0.50400001928E-02 0. -1.
        1   -1    0    0  501    0  0.00000000000E+00  0.00000000000E+00 -0.97074248474E+03  0.97074248475E+03  0.50400001928E-02 0.  1.
    10030    2    1    2    0    0  0.00000000000E+00  0.00000000000E+00 -0.52302026859E+02  0.18891829426E+04  0.18884588131E+04 0.  0.
        3    1    3    3  502    0  0.58286266186E+02 -0.85303398422E+03 -0.42693525681E+03  0.95568718248E+03  0.10100000352E+00 0.  1.
       -3    1    3    3    0  502 -0.58286266186E+02  0.85303398422E+03  0.37463322995E+03  0.93349576016E+03  0.10100000352E+00 0. -1.
</event>
<event>
 5   0  0.3623359E-04  0.1890490E+04  0.7818609E-02  0.8659605E-01
        2   -1    0    0  501    0  0.00000000000E+00  0.00000000000E+00  0.11949938337E+04  0.11949938337E+04  0.25500000920E-02 0.  1.
       -2   -1    0    0    0  501  0.00000000000E+00  0.00000000000E+00 -0.74769249393E+03  0.74769249393E+03  0.25500000920E-02 0. -1.
    10030    2    1    2    0    0  0.00000000000E+00  0.00000000000E+00  0.44730133979E+03  0.19426863277E+04  0.18904897987E+04 0.  0.
        5    1    3    3  502    0  0.38803139708E+02  0.81588445836E+03  0.71248715695E+03  0.10838972146E+04  0.46999998093E+01 0.  1.
       -5    1    3    3    0  502 -0.38803139708E+02 -0.81588445836E+03 -0.26518581716E+03  0.85878911304E+03  0.46999998093E+01 0. -1.
</event>
<event>
 5   0  0.1711979E-04  0.1895021E+04  0.7818609E-02  0.8657339E-01
        1   -1    0    0  501    0  0.00000000000E+00  0.00000000000E+00  0.21541524048E+04  0.21541524048E+04  0.50400001928E-02 0.  1.
       -1   -1    0    0    0  501  0.00000000000E+00  0.00000000000E+00 -0.41676556638E+03  0.41676556641E+03  0.50400001928E-02 0. -1.
    10030    2    1    2    0    0  0.00000000000E+00  0.00000000000E+00  0.17373868384E+04  0.25709179712E+04  0.18950214216E+04 0.  0.
        4    1    3    3  502    0  0.47592350954E+03  0.67067158039E+03  0.23023458461E+03  0.85399832115E+03  0.12699999809E+01 0. -1.
       -4    1    3    3    0  502 -0.47592350954E+03 -0.67067158039E+03  0.15071522538E+04  0.17169196500E+04  0.12699999809E+01 0.  1.
</event>
<event>
 5   0  0.1694830E-04  0.1892491E+04  0.7818609E-02  0.8658603E-01
        1   -1    0    0  501    0  0.00000000000E+00  0.00000000000E+00  0.36436182699E+03  0.36436182703E+03  0.50400001928E-02 0.  1.
       -1   -1    0    0    0  501  0.00000000000E+00  0.00000000000E+00 -0.24573949425E+04  0.24573949425E+04  0.50400001928E-02 0. -1.
    10030    2    1    2    0    0  0.00000000000E+00  0.00000000000E+00 -0.20930331155E+04  0.28217567695E+04  0.18924913854E+04 0.  0.
        1    1    3    3  502    0  0.22474045478E+03  0.48157334196E+03 -0.22138680557E+04  0.22767593030E+04  0.50400001928E-02 0. -1.
       -1    1    3    3    0  502 -0.22474045478E+03 -0.48157334196E+03  0.12083494022E+03  0.54499746651E+03  0.50400001928E-02 0.  1.
</event>
<event>
 5   0  0.1694830E-04  0.1566145E+04  0.7818609E-02  0.8841621E-01
       -1   -1    0    0    0  501  0.00000000000E+00  0.00000000000E+00  0.68186283390E+03  0.68186283392E+03  0.50400001928E-02 0.  1.
        1   -1    0    0  501    0  0.00000000000E+00  0.00000000000E+00 -0.89930430904E+03  0.89930430905E+03  0.50400001928E-02 0. -1.
    10030    2    1    2    0    0  0.00000000000E+00  0.00000000000E+00 -0.21744147514E+03  0.15811671430E+04  0.15661445460E+04 0.  0.
        1    1    3    3  502    0  0.62108236330E+03  0.47663266738E+03 -0.12561996665E+03  0.79290754673E+03  0.50400001928E-02 0.  1.
       -1    1    3    3    0  502 -0.62108236330E+03 -0.47663266738E+03 -0.91821508486E+02  0.78825959624E+03  0.50400001928E-02 0. -1.
</event>
<event>
 5   0  0.3623359E-04  0.1908312E+04  0.7818609E-02  0.8650730E-01
        2   -1    0    0  501    0  0.00000000000E+00  0.00000000000E+00  0.97688924598E+03  0.97688924598E+03  0.25500000920E-02 0.  1.
       -2   -1    0    0    0  501  0.00000000000E+00  0.00000000000E+00 -0.93195174536E+03  0.93195174536E+03  0.25500000920E-02 0. -1.
    10030    2    1    2    0    0  0.00000000000E+00  0.00000000000E+00  0.44937500615E+02  0.19088409913E+04  0.19083119638E+04 0.  0.
        5    1    3    3  502    0 -0.22072881313E+02 -0.78205271970E+03  0.56878669089E+03  0.96728178841E+03  0.46999998093E+01 0.  1.
       -5    1    3    3    0  502  0.22072881313E+02  0.78205271970E+03 -0.52384919027E+03  0.94155920293E+03  0.46999998093E+01 0. -1.
</event>
<event>
 5   0  0.3516539E-04  0.1995486E+04  0.7818609E-02  0.8608734E-01
        2   -1    0    0  501    0  0.00000000000E+00  0.00000000000E+00  0.16773030554E+04  0.16773030554E+04  0.25500000920E-02 0. -1.
       -2   -1    0    0    0  501  0.00000000000E+00  0.00000000000E+00 -0.59350711693E+03  0.59350711693E+03  0.25500000920E-02 0.  1.
    10030    2    1    2    0    0  0.00000000000E+00  0.00000000000E+00  0.10837959384E+04  0.22708101723E+04  0.19954862070E+04 0.  0.
        4    1    3    3  502    0 -0.18801219739E+03  0.25370608993E+02 -0.57279178550E+03  0.60339398125E+03  0.12699999809E+01 0.  1.
       -4    1    3    3    0  502  0.18801219739E+03 -0.25370608993E+02  0.16565877239E+04  0.16674161910E+04  0.12699999809E+01 0. -1.
</event>
<event>
 5   0  0.1813834E-04  0.1874334E+04  0.7818609E-02  0.8667739E-01
        1   -1    0    0  501    0  0.00000000000E+00  0.00000000000E+00  0.72260862823E+03  0.72260862825E+03  0.50400001928E-02 0. -1.
       -1   -1    0    0    0  501  0.00000000000E+00  0.00000000000E+00 -0.12154323492E+04  0.12154323492E+04  0.50400001928E-02 0.  1.
    10030    2    1    2    0    0  0.00000000000E+00  0.00000000000E+00 -0.49282372097E+03  0.19380409775E+04  0.18743339111E+04 0.  0.
        5    1    3    3  502    0 -0.12993466479E+03 -0.30109877845E+03  0.66133189649E+03  0.73819066563E+03  0.46999998093E+01 0. -1.
       -5    1    3    3    0  502  0.12993466479E+03  0.30109877845E+03 -0.11541556175E+04  0.11998503118E+04  0.46999998093E+01 0.  1.
</event>
<event>
 5   0  0.3516539E-04  0.1895576E+04  0.7818609E-02  0.8657062E-01
       -2   -1    0    0    0  501  0.00000000000E+00  0.00000000000E+00  0.11004030743E+04  0.11004030743E+04  0.25500000920E-02 0.  1.
        2   -1    0    0  501    0  0.00000000000E+00  0.00000000000E+00 -0.81633894575E+03  0.81633894576E+03  0.25500000920E-02 0. -1.
    10030    2    1    2    0    0  0.00000000000E+00  0.00000000000E+00  0.28406412858E+03  0.19167420201E+04  0.18955757813E+04 0.  0.
        4    1    3    3  502    0 -0.20710101241E+03 -0.17073160811E+03 -0.77710635418E+03  0.82215327644E+03  0.12699999809E+01 0. -1.
       -4    1    3    3    0  502  0.20710101241E+03  0.17073160811E+03  0.10611704828E+04  0.10945887437E+04  0.12699999809E+01 0.  1.
</event>
<event>
 5   0  0.1782613E-04  0.1993392E+04  0.7818609E-02  0.8609716E-01
        1   -1    0    0  501    0  0.00000000000E+00  0.00000000000E+00  0.10808006699E+04  0.10808006700E+04  0.50400001928E-02 0. -1.
       -1   -1    0    0    0  501  0.00000000000E+00  0.00000000000E+00 -0.91913605112E+03  0.91913605113E+03  0.50400001928E-02 0.  1.
    10030    2    1    2    0    0  0.00000000000E+00  0.00000000000E+00  0.16166461883E+03  0.19999367211E+04  0.19933919432E+04 0.  0.
        3    1    3    3  502    0 -0.97963827264E+03  0.70641352385E+02 -0.89198312445E+02  0.98622395785E+03  0.10100000352E+00 0. -1.
       -3    1    3    3    0  502  0.97963827264E+03 -0.70641352385E+02  0.25086293127E+03  0.10137127632E+04  0.10100000352E+00 0.  1.
</event>
<event>
 5   0  0.3535876E-04  0.1931640E+04  0.7818609E-02  0.8639266E-01
        2   -1    0    0  501    0  0.00000000000E+00  0.00000000000E+00  0.96125054799E+03  0.96125054799E+03  0.25500000920E-02 0. -1.
       -2   -1    0    0    0  501  0.00000000000E+00  0.00000000000E+00 -0.97041083394E+03  0.97041083394E+03  0.25500000920E-02 0.  1.
    10030    2    1    2    0    0  0.00000000000E+00  0.00000000000E+00 -0.91602859488E+01  0.19316613819E+04  0.19316396619E+04 0.  0.
        2    1    3    3  502    0  0.76082615028E+03 -0.44003671437E+03  0.39582316662E+03  0.96393190640E+03  0.25500000920E-02 0. -1.
       -2    1    3    3    0  502 -0.76082615028E+03  0.44003671437E+03 -0.40498345257E+03  0.96772947553E+03  0.25500000920E-02 0.  1.
</event>
<event>
 5   0  0.3720978E-04  0.1908833E+04  0.7818609E-02  0.8650472E-01
        2   -1    0    0  501    0  0.00000000000E+00  0.00000000000E+00  0.85547209305E+03  0.85547209305E+03  0.25500000920E-02 0. -1.
       -2   -1    0    0    0  501  0.00000000000E+00  0.00000000000E+00 -0.10648052975E+04  0.10648052975E+04  0.25500000920E-02 0.  1.
    10030    2    1    2    0    0  0.00000000000E+00  0.00000000000E+00 -0.20933320447E+03  0.19202773906E+04  0.19088333783E+04 0.  0.
        1    1    3    3  502    0 -0.85728719427E+03 -0.24719879164E+03  0.23627919850E+03  0.92297152487E+03  0.50400001928E-02 0. -1.
       -1    1    3    3    0  502  0.85728719427E+03  0.24719879164E+03 -0.44561240296E+03  0.99730586570E+03  0.50400001928E-02 0.  1.
</event>
<event>
 5   0  0.1711979E-04  0.1886276E+04  0.7818609E-02  0.8661718E-01
        1   -1    0    0  501    0  0.00000000000E+00  0.00000000000E+00  0.94388672026E+03  0.94388672027E+03  0.50400001928E-02 0.  1.
       -1   -1    0    0    0  501  0.00000000000E+00  0.00000000000E+00 -0.94238942292E+03  0.94238942293E+03  0.50400001928E-02 0. -1.
    10030    2    1    2    0    0  0.00000000000E+00  0.00000000000E+00  0.14972973407E+01  0.18862761432E+04  0.18862755489E+04 0.  0.
        4    1    3    3  502    0  0.54671619948E+02 -0.87010522152E+03 -0.35902245597E+03  0.94285249077E+03  0.12699999809E+01 0. -1.
       -4    1    3    3    0  502 -0.54671619948E+02  0.87010522152E+03  0.36051975331E+03  0.94342365244E+03  0.12699999809E+01 0.  1.
</event>
<event>
 5   0  0.3720978E-04  0.1910621E+04  0.7818609E-02  0.8649588E-01
        2   -1    0    0  501    0  0.00000000000E+00  0.00000000000E+00  0.18311195706E+04  0.18311195706E+04  0.25500000920E-02 0.  1.
       -2   -1    0    0    0  501  0.00000000000E+00  0.00000000000E+00 -0.49839363885E+03  0.49839363886E+03  0.25500000920E-02 0. -1.
    10030    2    1    2    0    0  0.00000000000E+00  0.00000000000E+00  0.13327259317E+04  0.23295132094E+04  0.19106212036E+04 0.  0.
        1    1    3    3  502    0  0.56511241169E+03 -0.33813880933E+02  0.16045653320E+04  0.17015067796E+04  0.50400001928E-02 0.  1.
       -1    1    3    3    0  502 -0.56511241169E+03  0.33813880933E+02 -0.27183940024E+03  0.62800642985E+03  0.50400001928E-02 0. -1.
</event>
<event>
 5   0  0.1758946E-04  0.1918237E+04  0.7818609E-02  0.8645832E-01
        1   -1    0    0  501    0  0.00000000000E+00  0.00000000000E+00  0.24962289141E+04  0.24962289141E+04  0.50400001928E-02 0. -1.
       -1   -1    0    0    0  501  0.00000000000E+00  0.00000000000E+00 -0.36851916959E+03  0.36851916962E+03  0.50400001928E-02 0.  1.
    10030    2    1    2    0    0  0.00000000000E+00  0.00000000000E+00  0.21277097445E+04  0.28647480837E+04  0.19182369057E+04 0.  0.
        2    1    3    3  502    0  0.22926385149E+02 -0.70655658863E+03  0.20318913907E+04  0.21513554927E+04  0.25500000920E-02 0. -1.
       -2    1    3    3    0  502 -0.22926385149E+02  0.70655658863E+03  0.95818353782E+02  0.71339259107E+03  0.25500000920E-02 0.  1.
</event>
<event>
 5   0  0.3516539E-04  0.1924094E+04  0.7818609E-02  0.8642955E-01
        2   -1    0    0  501    0  0.00000000000E+00  0.00000000000E+00  0.15119170929E+04  0.15119170929E+04  0.25500000920E-02 0. -1.
       -2   -1    0    0    0  501  0.00000000000E+00  0.00000000000E+00 -0.61215953702E+03  0.61215953702E+03  0.25500000920E-02 0.  1.
    10030    2    1    2    0    0  0.00000000000E+00  0.00000000000E+00  0.89975755588E+03  0.21240766299E+04  0.19240940389E+04 0.  0.
        4    1    3    3  502    0 -0.32420642792E+03  0.75883544785E+03 -0.96086271692E+02  0.83076785526E+03  0.12699999809E+01 0.  1.
       -4    1    3    3    0  502  0.32420642792E+03 -0.75883544785E+03  0.99584382757E+03  0.12933087747E+04  0.12699999809E+01 0. -1.
</event>
<event>
 5   0  0.3459485E-04  0.1896549E+04  0.7818609E-02  0.8656576E-01
       -2   -1    0    0    0  501  0.00000000000E+00  0.00000000000E+00  0.37790518066E+03  0.37790518067E+03  0.25500000920E-02 0. -1.
        2   -1    0    0  501    0  0.00000000000E+00  0.00000000000E+00 -0.23794979898E+04  0.23794979898E+04  0.25500000920E-02 0.  1.
    10030    2    1    2    0    0  0.00000000000E+00  0.00000000000E+00 -0.20015928091E+04  0.27574031705E+04  0.18965490953E+04 0.  0.
        3    1    3    3  502    0 -0.24112427977E+03 -0.62415774550E+02 -0.23310905140E+04  0.23443591112E+04  0.10100000352E+00 0.  1.
       -3    1    3    3    0  502  0.24112427977E+03  0.62415774550E+02  0.32949770489E+03  0.41304405932E+03  0.10100000352E+00 0. -1.
</event>
<event>
 5   0  0.1758946E-04  0.1855698E+04  0.7818609E-02  0.8677228E-01
       -1   -1    0    0    0  501  0.00000000000E+00  0.00000000000E+00  0.55819726786E+03  0.55819726788E+03  0.50400001928E-02 0. -1.
        1   -1    0    0  501    0  0.00000000000E+00  0.00000000000E+00 -0.15422936617E+04  0.15422936617E+04  0.50400001928E-02 0.  1.
    10030    2    1    2    0    0  0.00000000000E+00  0.00000000000E+00 -0.98409639386E+03  0.21004909296E+04  0.18556983680E+04 0.  0.
        2    1    3    3  502    0  0.90400933810E+03 -0.14736108215E+03 -0.32432643887E+03  0.97166651217E+03  0.25500000920E-02 0.  1.
       -2    1    3    3    0  502 -0.90400933810E+03  0.14736108215E+03 -0.65976995500E+03  0.11288244175E+04  0.25500000920E-02 0. -1.
</event>
<event>
 5   0  0.1711979E-04  0.1885802E+04  0.7818609E-02  0.8661956E-01
        1   -1    0    0  501    0  0.00000000000E+00  0.00000000000E+00  0.19783412507E+04  0.19783412507E+04  0.50400001928E-02 0. -1.
       -1   -1    0    0    0  501  0.00000000000E+00  0.00000000000E+00 -0.44939790011E+03  0.44939790014E+03  0.50400001928E-02 0.  1.
    10030    2    1    2    0    0  0.00000000000E+00  0.00000000000E+00  0.15289433506E+04  0.24277391509E+04  0.18858021146E+04 0.  0.
        4    1    3    3  502    0 -0.65070233916E+03  0.34461754827E+03  0.15226987554E+04  0.16913863844E+04  0.12699999809E+01 0.  1.
       -4    1    3    3    0  502  0.65070233916E+03 -0.34461754827E+03  0.62445951776E+01  0.73635276643E+03  0.12699999809E+01 0. -1.
</event>
<event>
 5   0  0.1782613E-04  0.1878279E+04  0.7818609E-02  0.8665744E-01
       -1   -1    0    0    0  501  0.00000000000E+00  0.00000000000E+00  0.55645402585E+03  0.55645402587E+03  0.50400001928E-02 0.  1.
        1   -1    0    0  501    0  0.00000000000E+00  0.00000000000E+00 -0.15850067894E+04  0.15850067894E+04  0.50400001928E-02 0. -1.
    10030    2    1    2    0    0  0.00000000000E+00  0.00000000000E+00 -0.10285527636E+04  0.21414608153E+04  0.18782794350E+04 0.  0.
        3    1    3    3  502    0 -0.50021660297E+03 -0.15077771917E+03 -0.14040310595E+04  0.14980833744E+04  0.10100000352E+00 0. -1.
       -3    1    3    3    0  502  0.50021660297E+03  0.15077771917E+03  0.37547829594E+03  0.64337744087E+03  0.10100000352E+00 0.  1.
</event>
<event>
 5   0  0.1782613E-04  0.1897969E+04  0.7818609E-02  0.8655868E-01
       -1   -1    0    0    0  501  0.00000000000E+00  0.00000000000E+00  0.76366913078E+03  0.76366913079E+03  0.50400001928E-02 0. -1.
        1   -1    0    0  501    0  0.00000000000E+00  0.00000000000E+00 -0.11792691269E+04  0.11792691270E+04  0.50400001928E-02 0.  1.
    10030    2    1    2    0    0  0.00000000000E+00  0.00000000000E+00 -0.41559999617E+03  0.19429382578E+04  0.18979688397E+04 0.  0.
        3    1    3    3  502    0  0.72558316477E+03  0.15383804811E+03 -0.81380087630E+03  0.11010944331E+04  0.10100000352E+00 0.  1.
       -3    1    3    3    0  502 -0.72558316477E+03 -0.15383804811E+03  0.39820088013E+03  0.84184382470E+03  0.10100000352E+00 0. -1.
</event>
<event>
 5   0  0.3459485E-04  0.1942960E+04  0.7818609E-02  0.8633763E-01
        2   -1    0    0  501    0  0.00000000000E+00  0.00000000000E+00  0.18770984271E+04  0.18770984271E+04  0.25500000920E-02 0. -1.
       -2   -1    0    0    0  501  0.00000000000E+00  0.00000000000E+00 -0.50278335251E+03  0.50278335252E+03  0.25500000920E-02 0.  1.
    10030    2    1    2    0    0  0.00000000000E+00  0.00000000000E+00  0.13743150746E+04  0.23798817796E+04  0.19429604630E+04 0.  0.
        3    1    3    3  502    0  0.48246609500E+03  0.63844066055E+03  0.13618327986E+04  0.15795469577E+04  0.10100000352E+00 0.  1.
       -3    1    3    3    0  502 -0.48246609500E+03 -0.63844066055E+03  0.12482275994E+02  0.80033482198E+03  0.10100000352E+00 0. -1.
</event>
<event>
 5   0  0.3623359E-04  0.1950680E+04  0.7818609E-02  0.8630033E-01
        2   -1    0    0  501    0  0.00000000000E+00  0.00000000000E+00  0.15168835695E+04  0.15168835695E+04  0.25500000920E-02 0. -1.
       -2   -1    0    0    0  501  0.00000000000E+00  0.00000000000E+00 -0.62713328075E+03  0.62713328075E+03  0.25500000920E-02 0.  1.
    10030    2    1    2    0    0  0.00000000000E+00  0.00000000000E+00  0.88975028880E+03  0.21440168503E+04  0.19506800552E+04 0.  0.
        5    1    3    3  502    0  0.42870666762E+03  0.39183512840E+03  0.13060786507E+04  0.14294011706E+04  0.46999998093E+01 0. -1.
       -5    1    3    3    0  502 -0.42870666762E+03 -0.39183512840E+03 -0.41632836192E+03  0.71461567968E+03  0.46999998093E+01 0.  1.
</event>
<event>
 5   0  0.3535876E-04  0.1907054E+04  0.7818609E-02  0.8651353E-01
        2   -1    0    0  501    0  0.00000000000E+00  0.00000000000E+00  0.23867282927E+04  0.23867282927E+04  0.25500000920E-02 0. -1.
       -2   -1    0    0    0  501  0.00000000000E+00  0.00000000000E+00 -0.38094583088E+03  0.38094583089E+03  0.25500000920E-02 0.  1.
    10030    2    1    2    0    0  0.00000000000E+00  0.00000000000E+00  0.20057824618E+04  0.27676741236E+04  0.19070544749E+04 0.  0.
        2    1    3    3  502    0 -0.67567942194E+03 -0.55033695154E+03  0.15645969555E+04  0.17909151500E+04  0.25500000920E-02 0. -1.
       -2    1    3    3    0  502  0.67567942194E+03  0.55033695154E+03  0.44118550637E+03  0.97675897360E+03  0.25500000920E-02 0.  1.
</event>
<event>
 5   0  0.1694830E-04  0.2024033E+04  0.7818609E-02  0.8595466E-01
        1   -1    0    0  501    0  0.00000000000E+00  0.00000000000E+00  0.28456251319E+04  0.28456251319E+04  0.50400001928E-02 0. -1.
       -1   -1    0    0    0  501  0.00000000000E+00  0.00000000000E+00 -0.35991307792E+03  0.35991307796E+03  0.50400001928E-02 0.  1.
    10030    2    1    2    0    0  0.00000000000E+00  0.00000000000E+00  0.24857120540E+04  0.32055382099E+04  0.20240333000E+04 0.  0.
        1    1    3    3  502    0 -0.59669184298E+03 -0.75731739674E+03  0.75572620011E+03  0.12250277076E+04  0.50400001928E-02 0.  1.
       -1    1    3    3    0  502  0.59669184298E+03  0.75731739674E+03  0.17299858539E+04  0.19805105023E+04  0.50400001928E-02 0. -1.
</event>
<event>
 5   0  0.3535876E-04  0.1895271E+04  0.7818609E-02  0.8657214E-01
       -2   -1    0    0    0  501  0.00000000000E+00  0.00000000000E+00  0.72307874501E+03  0.72307874501E+03  0.25500000920E-02 0.  1.
        2   -1    0    0  501    0  0.00000000000E+00  0.00000000000E+00 -0.12419296537E+04  0.12419296537E+04  0.25500000920E-02 0. -1.
    10030    2    1    2    0    0  0.00000000000E+00  0.00000000000E+00 -0.51885090872E+03  0.19650083987E+04  0.18952708887E+04 0.  0.
        2    1    3    3  502    0 -0.98085159160E+02  0.17436421823E+03  0.70093455948E+03  0.72892580948E+03  0.25500000920E-02 0.  1.
       -2    1    3    3    0  502  0.98085159160E+02 -0.17436421823E+03 -0.12197854682E+04  0.12360825893E+04  0.25500000920E-02 0. -1.
</event>
<event>
 5   0  0.1694830E-04  0.1900986E+04  0.7818609E-02  0.8654366E-01
       -1   -1    0    0    0  501  0.00000000000E+00  0.00000000000E+00  0.43449874784E+03  0.43449874787E+03  0.50400001928E-02 0.  1.
        1   -1    0    0  501    0  0.00000000000E+00  0.00000000000E+00 -0.20792626518E+04  0.20792626518E+04  0.50400001928E-02 0. -1.
    10030    2    1    2    0    0  0.00000000000E+00  0.00000000000E+00 -0.16447639040E+04  0.25137613997E+04  0.19009860796E+04 0.  0.
        1    1    3    3  502    0 -0.43979989224E+03  0.55704427625E+03  0.13644853672E+02  0.70986509492E+03  0.50400001928E-02 0.  1.
       -1    1    3    3    0  502  0.43979989224E+03 -0.55704427625E+03 -0.16584087577E+04  0.18038963048E+04  0.50400001928E-02 0. -1.
</event>
<event>
 5   0  0.1813834E-04  0.1847282E+04  0.7818609E-02  0.8681552E-01
       -1   -1    0    0    0  501  0.00000000000E+00  0.00000000000E+00  0.61301081902E+03  0.61301081904E+03  0.50400001928E-02 0. -1.
        1   -1    0    0  501    0  0.00000000000E+00  0.00000000000E+00 -0.13916767788E+04  0.13916767788E+04  0.50400001928E-02 0.  1.
    10030    2    1    2    0    0  0.00000000000E+00  0.00000000000E+00 -0.77866595982E+03  0.20046875979E+04  0.18472822438E+04 0.  0.
        5    1    3    3  502    0  0.63594661616E+02  0.88130156390E+03 -0.97425627284E+02  0.88896038741E+03  0.46999998093E+01 0.  1.
       -5    1    3    3    0  502 -0.63594661616E+02 -0.88130156390E+03 -0.68124033253E+03  0.11157272105E+04  0.46999998093E+01 0. -1.
</event>
<event>
 5   0  0.3516539E-04  0.1875189E+04  0.7818609E-02  0.8667306E-01
        2   -1    0    0  501    0  0.00000000000E+00  0.00000000000E+00  0.13785750250E+04  0.13785750250E+04  0.25500000920E-02 0.  1.
       -2   -1    0    0    0  501  0.00000000000E+00  0.00000000000E+00 -0.63767563345E+03  0.63767563345E+03  0.25500000920E-02 0. -1.
    10030    2    1    2    0    0  0.00000000000E+00  0.00000000000E+00  0.74089939156E+03  0.20162506585E+04  0.18751892729E+04 0.  0.
        4    1    3    3  502    0 -0.10693878781E+03 -0.65219768448E+03 -0.34462301764E+03  0.74536189946E+03  0.12699999809E+01 0. -1.
       -4    1    3    3    0  502  0.10693878781E+03  0.65219768448E+03  0.10855224092E+04  0.12708887590E+04  0.12699999809E+01 0.  1.
</event>
<event>
 5   0  0.1782613E-04  0.1839972E+04  0.7818609E-02  0.8685327E-01
       -1   -1    0    0    0  501  0.00000000000E+00  0.00000000000E+00  0.82435673594E+03  0.82435673596E+03  0.50400001928E-02 0. -1.
        1   -1    0    0  501    0  0.00000000000E+00  0.00000000000E+00 -0.10267083529E+04  0.10267083529E+04  0.50400001928E-02 0.  1.
    10030    2    1    2    0    0  0.00000000000E+00  0.00000000000E+00 -0.20235161696E+03  0.18510650889E+04  0.18399716809E+04 0.  0.
        3    1    3    3  502    0  0.10422684167E+03  0.35469290476E+03 -0.94869407874E+03  0.10181801198E+04  0.10100000352E+00 0.  1.
       -3    1    3    3    0  502 -0.10422684167E+03 -0.35469290476E+03  0.74634246177E+03  0.83288496904E+03  0.10100000352E+00 0. -1.
</event>
<event>
 5   0  0.1287000E-04  0.1895925E+04  0.7818609E-02  0.8656887E-01
        3   -1    0    0  501    0  0.00000000000E+00  0.00000000000E+00  0.57283351531E+03  0.57283352421E+03  0.10100000352E+00 0. -1.
       -3   -1    0    0    0  501  0.00000000000E+00  0.00000000000E+00 -0.15687512641E+04  0.15687512673E+04  0.10100000352E+00 0.  1.
    10030    2    1    2    0    0  0.00000000000E+00  0.00000000000E+00 -0.99591774878E+03  0.21415847916E+04  0.18959254355E+04 0.  0.
        1    1    3    3  502    0  0.78388498175E+02 -0.25498787434E+03 -0.15254783964E+04  0.15486277508E+04  0.50400001928E-02 0.  1.
       -1    1    3    3    0  502 -0.78388498175E+02  0.25498787434E+03  0.52956064758E+03  0.59295704077E+03  0.50400001928E-02 0. -1.
</event>
<event>
 5   0  0.1694830E-04  0.1676650E+04  0.7818609E-02  0.8774795E-01
       -1   -1    0    0    0  501  0.00000000000E+00  0.00000000000E+00  0.40430700010E+03  0.40430700013E+03  0.50400001928E-02 0. -1.
        1   -1    0    0  501    0  0.00000000000E+00  0.00000000000E+00 -0.17382554796E+04  0.17382554796E+04  0.50400001928E-02 0.  1.
    10030    2    1    2    0    0  0.00000000000E+00  0.00000000000E+00 -0.13339484795E+04  0.21425624797E+04  0.16766500629E+04 0.  0.
        1    1    3    3  502    0 -0.37315638080E+03  0.64435406023E+03 -0.11591682593E+04  0.13777187278E+04  0.50400001928E-02 0.  1.
       -1    1    3    3    0  502  0.37315638080E+03 -0.64435406023E+03 -0.17478022016E+03  0.76484375192E+03  0.50400001928E-02 0. -1.
</event>
<event>
 5   0  0.1758946E-04  0.1883338E+04  0.7818609E-02  0.8663195E-01
       -1   -1    0    0    0  501  0.00000000000E+00  0.00000000000E+00  0.58469386622E+03  0.58469386624E+03  0.50400001928E-02 0.  1.
        1   -1    0    0  501    0  0.00000000000E+00  0.00000000000E+00 -0.15165886013E+04  0.15165886013E+04  0.50400001928E-02 0. -1.
    10030    2    1    2    0    0  0.00000000000E+00  0.00000000000E+00 -0.93189473508E+03  0.21012824676E+04  0.18833375192E+04 0.  0.
        2    1    3    3  502    0 -0.46195378963E+02  0.57047988446E+03  0.36835569505E+03  0.68063737019E+03  0.25500000920E-02 0.  1.
       -2    1    3    3    0  502  0.46195378963E+02 -0.57047988446E+03 -0.13002504301E+04  0.14206450974E+04  0.25500000920E-02 0. -1.
</event>
<event>
 5   0  0.1711979E-04  0.1891082E+04  0.7818609E-02  0.8659308E-01
       -1   -1    0    0    0  501  0.00000000000E+00  0.00000000000E+00  0.83443972429E+03  0.83443972430E+03  0.50400001928E-02 0.  1.
        1   -1    0    0  501    0  0.00000000000E+00  0.00000000000E+00 -0.10714347082E+04  0.10714347082E+04  0.50400001928E-02 0. -1.
    10030    2    1    2    0    0  0.00000000000E+00  0.00000000000E+00 -0.23699498390E+03  0.19058744325E+04  0.18910818941E+04 0.  0.
        4    1    3    3  502    0  0.28092522304E+03  0.81127857369E+03  0.28077589996E+03  0.90328767509E+03  0.12699999809E+01 0.  1.
       -4    1    3    3    0  502 -0.28092522304E+03 -0.81127857369E+03 -0.51777088386E+03  0.10025867574E+04  0.12699999809E+01 0. -1.
</event>
<event>
 5   0  0.1813834E-04  0.2026266E+04  0.7818609E-02  0.8594438E-01
        1   -1    0    0  501    0  0.00000000000E+00  0.00000000000E+00  0.16855470027E+04  0.16855470027E+04  0.50400001928E-02 0.  1.
       -1   -1    0    0    0  501  0.00000000000E+00  0.00000000000E+00 -0.60896465300E+03  0.60896465303E+03  0.50400001928E-02 0. -1.
    10030    2    1    2    0    0  0.00000000000E+00  0.00000000000E+00  0.10765823497E+04  0.22945116557E+04  0.20262660690E+04 0.  0.
        5    1    3    3  502    0 -0.21943756383E+03  0.31610148918E+03  0.15995614054E+04  0.16452026548E+04  0.46999998093E+01 0.  1.
       -5    1    3    3    0  502  0.21943756383E+03 -0.31610148918E+03 -0.52297905572E+03  0.64930900087E+03  0.46999998093E+01 0. -1.
</event>
<event>
 5   0  0.3720978E-04  0.2017913E+04  0.7818609E-02  0.8598291E-01
       -2   -1    0    0    0  501  0.00000000000E+00  0.00000000000E+00  0.61032462477E+03  0.61032462478E+03  0.25500000920E-02 0. -1.
        2   -1    0    0  501    0  0.00000000000E+00  0.00000000000E+00 -0.16679542586E+04  0.16679542586E+04  0.25500000920E-02 0.  1.
    10030    2    1    2    0    0  0.00000000000E+00  0.00000000000E+00 -0.10576296338E+04  0.22782788834E+04  0.20179133351E+04 0.  0.
        1    1    3    3  502    0 -0.68611061790E+03 -0.15656463576E+03  0.28747514267E+03  0.76019880482E+03  0.50400001928E-02 0. -1.
       -1    1    3    3    0  502  0.68611061790E+03  0.15656463576E+03 -0.13451047765E+04  0.15180800786E+04  0.50400001928E-02 0.  1.
</event>
<event>
 5   0  0.1758946E-04  0.1901458E+04  0.7818609E-02  0.8654131E-01
       -1   -1    0    0    0  501  0.00000000000E+00  0.00000000000E+00  0.40429648542E+03  0.40429648545E+03  0.50400001928E-02 0.  1.
        1   -1    0    0  501    0  0.00000000000E+00  0.00000000000E+00 -0.22357001822E+04  0.22357001822E+04  0.50400001928E-02 0. -1.
    10030    2    1    2    0    0  0.00000000000E+00  0.00000000000E+00 -0.18314036968E+04  0.26399966677E+04  0.19014580996E+04 0.  0.
        2    1    3    3  502    0 -0.60825094420E+03 -0.46895462982E+03 -0.13770093227E+03  0.78028789732E+03  0.25500000920E-02 0.  1.
       -2    1    3    3    0  502  0.60825094420E+03  0.46895462982E+03 -0.16937027645E+04  0.18597087704E+04  0.25500000920E-02 0. -1.
</event>
<event>
 5   0  0.3459485E-04  0.1903185E+04  0.7818609E-02  0.8653272E-01
        2   -1    0    0  501    0  0.00000000000E+00  0.00000000000E+00  0.17989194314E+04  0.17989194314E+04  0.25500000920E-02 0.  1.
       -2   -1    0    0    0  501  0.00000000000E+00  0.00000000000E+00 -0.50337362679E+03  0.50337362680E+03  0.25500000920E-02 0. -1.
    10030    2    1    2    0    0  0.00000000000E+00  0.00000000000E+00  0.12955458046E+04  0.23022930582E+04  0.19031853284E+04 0.  0.
        3    1    3    3  502    0 -0.72105581517E+02  0.21894665228E+03 -0.46908812988E+03  0.52266675351E+03  0.10100000352E+00 0. -1.
       -3    1    3    3    0  502  0.72105581517E+02 -0.21894665228E+03  0.17646339345E+04  0.17796263047E+04  0.10100000352E+00 0.  1.
</event>
<event>
 5   0  0.1711979E-04  0.1910651E+04  0.7818609E-02  0.8649573E-01
       -1   -1    0    0    0  501  0.00000000000E+00  0.00000000000E+00  0.22729705957E+04  0.22729705957E+04  0.50400001928E-02 0. -1.
        1   -1    0    0  501    0  0.00000000000E+00  0.00000000000E+00 -0.40152166919E+03  0.40152166922E+03  0.50400001928E-02 0.  1.
    10030    2    1    2    0    0  0.00000000000E+00  0.00000000000E+00  0.18714489265E+04  0.26744922649E+04  0.19106511431E+04 0.  0.
        4    1    3    3  502    0  0.10516169074E+03  0.18446860806E+03 -0.36806998854E+03  0.42492914459E+03  0.12699999809E+01 0.  1.
       -4    1    3    3    0  502 -0.10516169074E+03 -0.18446860806E+03  0.22395189150E+04  0.22495631203E+04  0.12699999809E+01 0. -1.
</event>
<event>
 5   0  0.3720978E-04  0.1927923E+04  0.7818609E-02  0.8641081E-01
        2   -1    0    0  501    0  0.00000000000E+00  0.00000000000E+00  0.93487384938E+03  0.93487384938E+03  0.25500000920E-02 0.  1.
       -2   -1    0    0    0  501  0.00000000000E+00  0.00000000000E+00 -0.99395373290E+03  0.99395373290E+03  0.25500000920E-02 0. -1.
    10030    2    1    2    0    0  0.00000000000E+00  0.00000000000E+00 -0.59079883524E+02  0.19288275823E+04  0.19279225632E+04 0.  0.
        1    1    3    3  502    0 -0.25045120838E+03 -0.36184682260E+03 -0.88759190379E+03  0.99069587589E+03  0.50400001928E-02 0. -1.
       -1    1    3    3    0  502  0.25045120838E+03  0.36184682260E+03  0.82851202026E+03  0.93813170640E+03  0.50400001928E-02 0.  1.
</event>
<event>
 5   0  0.1782613E-04  0.1901215E+04  0.7818609E-02  0.8654252E-01
       -1   -1    0    0    0  501  0.00000000000E+00  0.00000000000E+00  0.95782720855E+03  0.95782720856E+03  0.50400001928E-02 0. -1.
        1   -1    0    0  501    0  0.00000000000E+00  0.00000000000E+00 -0.94344185625E+03  0.94344185627E+03  0.50400001928E-02 0.  1.
    10030    2    1    2    0    0  0.00000000000E+00  0.00000000000E+00  0.14385352294E+02  0.19012690648E+04  0.19012146429E+04 0.  0.
        3    1    3    3  502    0 -0.31171308968E+03  0.47356436172E+03  0.77025187906E+03  0.95640797903E+03  0.10100000352E+00 0. -1.
       -3    1    3    3    0  502  0.31171308968E+03 -0.47356436172E+03 -0.75586652676E+03  0.94486108579E+03  0.10100000352E+00 0.  1.
</event>
<event>
 5   0  0.3516539E-04  0.1920182E+04  0.7818609E-02  0.8644875E-01
        2   -1    0    0  501    0  0.00000000000E+00  0.00000000000E+00  0.94834666234E+03  0.94834666234E+03  0.25500000920E-02 0. -1.
       -2   -1    0    0    0  501  0.00000000000E+00  0.00000000000E+00 -0.97198109050E+03  0.97198109050E+03  0.25500000920E-02 0.  1.
    10030    2    1    2    0    0  0.00000000000E+00  0.00000000000E+00 -0.23634428165E+02  0.19203277528E+04  0.19201823070E+04 0.  0.
        4    1    3    3  502    0  0.20199001429E+03  0.59344473285E+03  0.71542202074E+03  0.95121338168E+03  0.12699999809E+01 0. -1.
       -4    1    3    3    0  502 -0.20199001429E+03 -0.59344473285E+03 -0.73905644891E+03  0.96911437116E+03  0.12699999809E+01 0.  1.
</event>
<event>
 5   0  0.3516539E-04  0.1463859E+04  0.7818609E-02  0.8908849E-01
       -2   -1    0    0    0  501  0.00000000000E+00  0.00000000000E+00  0.10078535589E+04  0.10078535589E+04  0.25500000920E-02 0.  1.
        2   -1    0    0  501    0  0.00000000000E+00  0.00000000000E+00 -0.53154605674E+03  0.53154605674E+03  0.25500000920E-02 0. -1.
    10030    2    1    2    0    0  0.00000000000E+00  0.00000000000E+00  0.47630750212E+03  0.15393996156E+04  0.14638587158E+04 0.  0.
        4    1    3    3  502    0 -0.71093225424E+03 -0.13386582210E+03  0.35513373090E+03  0.80589472524E+03  0.12699999809E+01 0.  1.
       -4    1    3    3    0  502  0.71093225424E+03  0.13386582210E+03  0.12117377122E+03  0.73350489036E+03  0.12699999809E+01 0. -1.
</event>
<event>
 5   0  0.3623359E-04  0.1985184E+04  0.7818609E-02  0.8613579E-01
       -2   -1    0    0    0  501  0.00000000000E+00  0.00000000000E+00  0.90772385990E+03  0.90772385991E+03  0.25500000920E-02 0.  1.
        2   -1    0    0  501    0  0.00000000000E+00  0.00000000000E+00 -0.10853946952E+04  0.10853946952E+04  0.25500000920E-02 0. -1.
    10030    2    1    2    0    0  0.00000000000E+00  0.00000000000E+00 -0.17767083532E+03  0.19931185551E+04  0.19851837822E+04 0.  0.
        5    1    3    3  502    0 -0.93205071871E+03 -0.12530202367E+03 -0.40759052307E+03  0.10249737869E+04  0.46999998093E+01 0. -1.
       -5    1    3    3    0  502  0.93205071871E+03  0.12530202367E+03  0.22991968775E+03  0.96814476821E+03  0.46999998093E+01 0.  1.
</event>
<event>
 5   0  0.3535876E-04  0.1900875E+04  0.7818609E-02  0.8654421E-01
       -2   -1    0    0    0  501  0.00000000000E+00  0.00000000000E+00  0.35166641933E+03  0.35166641934E+03  0.25500000920E-02 0.  1.
        2   -1    0    0  501    0  0.00000000000E+00  0.00000000000E+00 -0.25687165975E+04  0.25687165975E+04  0.25500000920E-02 0. -1.
    10030    2    1    2    0    0  0.00000000000E+00  0.00000000000E+00 -0.22170501782E+04  0.29203830168E+04  0.19008749229E+04 0.  0.
        2    1    3    3  502    0 -0.21855047847E+03 -0.25915458420E+03 -0.24726722442E+04  0.24958031648E+04  0.25500000920E-02 0. -1.
       -2    1    3    3    0  502  0.21855047847E+03  0.25915458420E+03  0.25562206600E+03  0.42457985207E+03  0.25500000920E-02 0.  1.
</event>
<event>
 5   0  0.3459485E-04  0.1939367E+04  0.7818609E-02  0.8635505E-01
        2   -1    0    0  501    0  0.00000000000E+00  0.00000000000E+00  0.11219800096E+04  0.11219800096E+04  0.25500000920E-02 0.  1.
       -2   -1    0    0    0  501  0.00000000000E+00  0.00000000000E+00 -0.83805974399E+03  0.83805974400E+03  0.25500000920E-02 0. -1.
    10030    2    1    2    0    0  0.00000000000E+00  0.00000000000E+00  0.28392026562E+03  0.19600397536E+04  0.19393671954E+04 0.  0.
        3    1    3    3  502    0 -0.24796868012E+03  0.70092916366E+03 -0.48716713444E+03  0.88888806150E+03  0.10100000352E+00 0. -1.
       -3    1    3    3    0  502  0.24796868012E+03 -0.70092916366E+03  0.77108740005E+03  0.10711516921E+04  0.10100000352E+00 0.  1.
</event>
<event>
 5   0  0.3459485E-04  0.1888238E+04  0.7818609E-02  0.8660733E-01
        2   -1    0    0  501    0  0.00000000000E+00  0.00000000000E+00  0.14308513618E+04  0.14308513618E+04  0.25500000920E-02 0.  1.
       -2   -1    0    0    0  501  0.00000000000E+00  0.00000000000E+00 -0.62295808245E+03  0.62295808245E+03  0.25500000920E-02 0. -1.
    10030    2    1    2    0    0  0.00000000000E+00  0.00000000000E+00  0.80789327936E+03  0.20538094443E+04  0.18882377188E+04 0.  0.
        3    1    3    3  502    0  0.24599916680E+03 -0.51861873208E+03  0.12192609121E+04  0.13476194423E+04  0.10100000352E+00 0.  1.
       -3    1    3    3    0  502 -0.24599916680E+03  0.51861873208E+03 -0.41136763277E+03  0.70619000192E+03  0.10100000352E+00 0. -1.
</event>
<event>
 5   0  0.3535876E-04  0.1882920E+04  0.7818609E-02  0.8663405E-01
       -2   -1    0    0    0  501  0.00000000000E+00  0.00000000000E+00  0.74485819528E+03  0.74485819529E+03  0.25500000920E-02 0. -1.
        2   -1    0    0  501    0  0.00000000000E+00  0.00000000000E+00 -0.11899536911E+04  0.11899536911E+04  0.25500000920E-02 0.  1.
    10030    2    1    2    0    0  0.00000000000E+00  0.00000000000E+00 -0.44509549581E+03  0.19348118864E+04  0.18829198165E+04 0.  0.
        2    1    3    3  502    0  0.70319847700E+03  0.39433922978E+03 -0.72210990408E+03  0.10823281572E+04  0.25500000920E-02 0.  1.
       -2    1    3    3    0  502 -0.70319847700E+03 -0.39433922978E+03  0.27701440827E+03  0.85248372923E+03  0.25500000920E-02 0. -1.
</event>
<event>
 5   0  0.1287000E-04  0.1935633E+04  0.7818609E-02  0.8637320E-01
        3   -1    0    0  501    0  0.00000000000E+00  0.00000000000E+00  0.65232373523E+03  0.65232374305E+03  0.10100000352E+00 0. -1.
       -3   -1    0    0    0  501  0.00000000000E+00  0.00000000000E+00 -0.14358949927E+04  0.14358949962E+04  0.10100000352E+00 0.  1.
    10030    2    1    2    0    0  0.00000000000E+00  0.00000000000E+00 -0.78357125746E+03  0.20882187393E+04  0.19356326066E+04 0.  0.
        3    1    3    3  502    0 -0.22334359553E+03  0.12333264369E+02  0.62405418321E+03  0.66293144808E+03  0.10100000352E+00 0. -1.
       -3    1    3    3    0  502  0.22334359553E+03 -0.12333264369E+02 -0.14076254407E+04  0.14252872912E+04  0.10100000352E+00 0.  1.
</event>
<event>
 5   0  0.1287000E-04  0.1793439E+04  0.7818609E-02  0.8709796E-01
       -4   -1    0    0    0  501  0.00000000000E+00  0.00000000000E+00  0.63083567628E+03  0.63083695466E+03  0.12699999809E+01 0.  1.
        4   -1    0    0  501    0  0.00000000000E+00  0.00000000000E+00 -0.12746650194E+04  0.12746656521E+04  0.12699999809E+01 0. -1.
    10030    2    1    2    0    0  0.00000000000E+00  0.00000000000E+00 -0.64382934316E+03  0.19055026068E+04  0.17934391435E+04 0.  0.
        2    1    3    3  502    0  0.36645769148E+03  0.57166284439E+03  0.30035739913E+03  0.74249862930E+03  0.25500000920E-02 0.  1.
       -2    1    3    3    0  502 -0.36645769148E+03 -0.57166284439E+03 -0.94418674230E+03  0.11630039775E+04  0.25500000920E-02 0. -1.
</event>
<event>
 5   0  0.3459485E-04  0.1352728E+04  0.7818609E-02  0.8988766E-01
       -2   -1    0    0    0  501  0.00000000000E+00  0.00000000000E+00  0.43921737452E+03  0.43921737453E+03  0.25500000920E-02 0.  1.
        2   -1    0    0  501    0  0.00000000000E+00  0.00000000000E+00 -0.10415528940E+04  0.10415528940E+04  0.25500000920E-02 0. -1.
    10030    2    1    2    0    0  0.00000000000E+00  0.00000000000E+00 -0.60233551951E+03  0.14807702686E+04  0.13527278034E+04 0.  0.
        3    1    3    3  502    0 -0.11682386368E+02  0.13351097656E+03 -0.10268724001E+04  0.10355812838E+04  0.10100000352E+00 0. -1.
       -3    1    3    3    0  502  0.11682386368E+02 -0.13351097656E+03  0.42453688058E+03  0.44518898480E+03  0.10100000352E+00 0.  1.
</event>
<event>
 5   0  0.1711979E-04  0.1908786E+04  0.7818609E-02  0.8650496E-01
        1   -1    0    0  501    0  0.00000000000E+00  0.00000000000E+00  0.10717808600E+04  0.10717808600E+04  0.50400001928E-02 0. -1.
       -1   -1    0    0    0  501  0.00000000000E+00  0.00000000000E+00 -0.84986173811E+03  0.84986173812E+03  0.50400001928E-02 0.  1.
    10030    2    1    2    0    0  0.00000000000E+00  0.00000000000E+00  0.22191912185E+03  0.19216425981E+04  0.19087855244E+04 0.  0.
        4    1    3    3  502    0 -0.43294909018E+03 -0.33268355863E+03  0.89900967643E+03  0.10518285393E+04  0.12699999809E+01 0. -1.
       -4    1    3    3    0  502  0.43294909018E+03  0.33268355863E+03 -0.67709055458E+03  0.86981405879E+03  0.12699999809E+01 0.  1.
</event>
<event>
 5   0  0.3720978E-04  0.1853255E+04  0.7818609E-02  0.8678481E-01
        2   -1    0    0  501    0  0.00000000000E+00  0.00000000000E+00  0.69441092508E+03  0.69441092508E+03  0.25500000920E-02 0.  1.
       -2   -1    0    0    0  501  0.00000000000E+00  0.00000000000E+00 -0.12364989191E+04  0.12364989191E+04  0.25500000920E-02 0. -1.
    10030    2    1    2    0    0  0.00000000000E+00  0.00000000000E+00 -0.54208799403E+03  0.19309098442E+04  0.18532548214E+04 0.  0.
        1    1    3    3  502    0 -0.20805542146E+03  0.61967330105E+03  0.41325346712E+03  0.77334370532E+03  0.50400001928E-02 0.  1.
       -1    1    3    3    0  502  0.20805542146E+03 -0.61967330105E+03 -0.95534146116E+03  0.11575661389E+04  0.50400001928E-02 0. -1.
</event>
<event>
 5   0  0.3535876E-04  0.1875523E+04  0.7818609E-02  0.8667137E-01
        2   -1    0    0  501    0  0.00000000000E+00  0.00000000000E+00  0.15683514772E+04  0.15683514772E+04  0.25500000920E-02 0. -1.
       -2   -1    0    0    0  501  0.00000000000E+00  0.00000000000E+00 -0.56071400384E+03  0.56071400385E+03  0.25500000920E-02 0.  1.
    10030    2    1    2    0    0  0.00000000000E+00  0.00000000000E+00  0.10076374733E+04  0.21290654810E+04  0.18755230057E+04 0.  0.
        2    1    3    3  502    0  0.54747851964E+03  0.12149377155E+03 -0.34938672920E+03  0.66073031756E+03  0.25500000920E-02 0.  1.
       -2    1    3    3    0  502 -0.54747851964E+03 -0.12149377155E+03  0.13570242025E+04  0.14683351635E+04  0.25500000920E-02 0. -1.
</event>
<event>
 5   0  0.1758946E-04  0.1878220E+04  0.7818609E-02  0.8665774E-01
       -1   -1    0    0    0  501  0.00000000000E+00  0.00000000000E+00  0.82021021525E+03  0.82021021526E+03  0.50400001928E-02 0. -1.
        1   -1    0    0  501    0  0.00000000000E+00  0.00000000000E+00 -0.10752462088E+04  0.10752462088E+04  0.50400001928E-02 0.  1.
    10030    2    1    2    0    0  0.00000000000E+00  0.00000000000E+00 -0.25503599356E+03  0.18954564241E+04  0.18782203538E+04 0.  0.
        2    1    3    3  502    0  0.53206438580E+03  0.76884032611E+03 -0.21618764298E+03  0.95965882202E+03  0.25500000920E-02 0.  1.
       -2    1    3    3    0  502 -0.53206438580E+03 -0.76884032611E+03 -0.38848350578E+02  0.93579760207E+03  0.25500000920E-02 0. -1.
</event>
<event>
 5   0  0.3623359E-04  0.1952368E+04  0.7818609E-02  0.8629220E-01
       -2   -1    0    0    0  501  0.00000000000E+00  0.00000000000E+00  0.43073133445E+03  0.43073133445E+03  0.25500000920E-02 0. -1.
        2   -1    0    0  501    0  0.00000000000E+00  0.00000000000E+00 -0.22123660824E+04  0.22123660824E+04  0.25500000920E-02 0.  1.
    10030    2    1    2    0    0  0.00000000000E+00  0.00000000000E+00 -0.17816347479E+04  0.26430974169E+04  0.19523681978E+04 0.  0.
        5    1    3    3  502    0  0.18295485348E+03  0.75821552795E+03 -0.16854705026E+04  0.18572011659E+04  0.46999998093E+01 0.  1.
       -5    1    3    3    0  502 -0.18295485348E+03 -0.75821552795E+03 -0.96164245309E+02  0.78589625098E+03  0.46999998093E+01 0. -1.
</event>
<event>
 5   0  0.1782613E-04  0.1896608E+04  0.7818609E-02  0.8656547E-01
       -1   -1    0    0    0  501  0.00000000000E+00  0.00000000000E+00  0.16189101533E+04  0.16189101533E+04  0.50400001928E-02 0. -1.
        1   -1    0    0  501    0  0.00000000000E+00  0.00000000000E+00 -0.55548520181E+03  0.55548520184E+03  0.50400001928E-02 0.  1.
    10030    2    1    2    0    0  0.00000000000E+00  0.00000000000E+00  0.10634249515E+04  0.21743953552E+04  0.18966081654E+04 0.  0.
        3    1    3    3  502    0  0.70927692345E+03 -0.42391032909E+02 -0.18829131430E+03  0.73506760441E+03  0.10100000352E+00 0.  1.
       -3    1    3    3    0  502 -0.70927692345E+03  0.42391032909E+02  0.12517162658E+04  0.14393277508E+04  0.10100000352E+00 0. -1.
</event>
<event>
 5   0  0.1782613E-04  0.1902385E+04  0.7818609E-02  0.8653670E-01
       -1   -1    0    0    0  501  0.00000000000E+00  0.00000000000E+00  0.66417322159E+03  0.66417322160E+03  0.50400001928E-02 0.  1.
        1   -1    0    0  501    0  0.00000000000E+00  0.00000000000E+00 -0.13622464492E+04  0.13622464492E+04  0.50400001928E-02 0. -1.
    10030    2    1    2    0    0  0.00000000000E+00  0.00000000000E+00 -0.69807322761E+03  0.20264196708E+04  0.19023854633E+04 0.  0.
        3    1    3    3  502    0  0.27658806914E+03 -0.31228670988E+03  0.56153351653E+03  0.69953116410E+03  0.10100000352E+00 0.  1.
       -3    1    3    3    0  502 -0.27658806914E+03  0.31228670988E+03 -0.12596067441E+04  0.13268885067E+04  0.10100000352E+00 0. -1.
</event>
<event>
 5   0  0.1711979E-04  0.1721116E+04  0.7818609E-02  0.8749412E-01
       -1   -1    0    0    0  501  0.00000000000E+00  0.00000000000E+00  0.63273266659E+03  0.63273266661E+03  0.50400001928E-02 0. -1.
        1   -1    0    0  501    0  0.00000000000E+00  0.00000000000E+00 -0.11704155380E+04  0.11704155380E+04  0.50400001928E-02 0.  1.
    10030    2    1    2    0    0  0.00000000000E+00  0.00000000000E+00 -0.53768287142E+03  0.18031482046E+04  0.17211160849E+04 0.  0.
        4    1    3    3  502    0 -0.27219054758E+03  0.10014083619E+02  0.58638114637E+03  0.64655428062E+03  0.12699999809E+01 0. -1.
       -4    1    3    3    0  502  0.27219054758E+03 -0.10014083619E+02 -0.11240640178E+04  0.11565939240E+04  0.12699999809E+01 0.  1.
</event>
<event>
 5   0  0.3516539E-04  0.1924692E+04  0.7818609E-02  0.8642662E-01
        2   -1    0    0  501    0  0.00000000000E+00  0.00000000000E+00  0.26374007885E+04  0.26374007885E+04  0.25500000920E-02 0.  1.
       -2   -1    0    0    0  501  0.00000000000E+00  0.00000000000E+00 -0.35114481936E+03  0.35114481937E+03  0.25500000920E-02 0. -1.
    10030    2    1    2    0    0  0.00000000000E+00  0.00000000000E+00  0.22862559692E+04  0.29885456079E+04  0.19246917919E+04 0.  0.
        4    1    3    3  502    0 -0.29342200598E+03  0.91836285266E+02  0.25590850787E+04  0.25774887836E+04  0.12699999809E+01 0.  1.
       -4    1    3    3    0  502  0.29342200598E+03 -0.91836285266E+02 -0.27282910952E+03  0.41105682428E+03  0.12699999809E+01 0. -1.
</event>
<event>
 5   0  0.3535876E-04  0.1905511E+04  0.7818609E-02  0.8652118E-01
        2   -1    0    0  501    0  0.00000000000E+00  0.00000000000E+00  0.15061550182E+04  0.15061550182E+04  0.25500000920E-02 0. -1.
       -2   -1    0    0    0  501  0.00000000000E+00  0.00000000000E+00 -0.60268923341E+03  0.60268923342E+03  0.25500000920E-02 0.  1.
    10030    2    1    2    0    0  0.00000000000E+00  0.00000000000E+00  0.90346578474E+03  0.21088442516E+04  0.19055113889E+04 0.  0.
        2    1    3    3  502    0  0.40588777549E+03 -0.86053687639E+03  0.50678881039E+03  0.10780090446E+04  0.25500000920E-02 0.  1.
       -2    1    3    3    0  502 -0.40588777549E+03  0.86053687639E+03  0.39667697435E+03  0.10308352070E+04  0.25500000920E-02 0. -1.
</event>
<event>
 5   0  0.3516539E-04  0.1911783E+04  0.7818609E-02  0.8649013E-01
       -2   -1    0    0    0  501  0.00000000000E+00  0.00000000000E+00  0.86388891277E+03  0.86388891277E+03  0.25500000920E-02 0. -1.
        2   -1    0    0  501    0  0.00000000000E+00  0.00000000000E+00 -0.10576920837E+04  0.10576920837E+04  0.25500000920E-02 0.  1.
    10030    2    1    2    0    0  0.00000000000E+00  0.00000000000E+00 -0.19380317097E+03  0.19215809965E+04  0.19117829001E+04 0.  0.
        4    1    3    3  502    0 -0.50448229463E+03 -0.79285350470E+03  0.78945866380E+02  0.94305520954E+03  0.12699999809E+01 0.  1.
       -4    1    3    3    0  502  0.50448229463E+03  0.79285350470E+03 -0.27274903735E+03  0.97852578698E+03  0.12699999809E+01 0. -1.
</event>
<event>
 5   0  0.3720978E-04  0.1882286E+04  0.7818609E-02  0.8663725E-01
        2   -1    0    0  501    0  0.00000000000E+00  0.00000000000E+00  0.40566646215E+03  0.40566646216E+03  0.25500000920E-02 0.  1.
       -2   -1    0    0    0  501  0.00000000000E+00  0.00000000000E+00 -0.21834435930E+04  0.21834435930E+04  0.25500000920E-02 0. -1.
    10030    2    1    2    0    0  0.00000000000E+00  0.00000000000E+00 -0.17777771308E+04  0.25891100551E+04  0.18822856719E+04 0.  0.
        1    1    3    3  502    0 -0.21388416854E+03  0.17324621892E+03  0.34906562745E+03  0.44453065386E+03  0.50400001928E-02 0.  1.
       -1    1    3    3    0  502  0.21388416854E+03 -0.17324621892E+03 -0.21268427583E+04  0.21445794013E+04  0.50400001928E-02 0. -1.
</event>
<event>
 5   0  0.3459485E-04  0.1923354E+04  0.7818609E-02  0.8643318E-01
       -2   -1    0    0    0  501  0.00000000000E+00  0.00000000000E+00  0.68572962636E+03  0.68572962636E+03  0.25500000920E-02 0. -1.
        2   -1    0    0  501    0  0.00000000000E+00  0.00000000000E+00 -0.13486700303E+04  0.13486700303E+04  0.25500000920E-02 0.  1.
    10030    2    1    2    0    0  0.00000000000E+00  0.00000000000E+00 -0.66294040397E+03  0.20343996567E+04  0.19233543573E+04 0.  0.
        3    1    3    3  502    0 -0.73157786985E+03 -0.12279794921E+03 -0.97879851739E+03  0.12281417116E+04  0.10100000352E+00 0.  1.
       -3    1    3    3    0  502  0.73157786985E+03  0.12279794921E+03  0.31585811342E+03  0.80625794507E+03  0.10100000352E+00 0. -1.
</event>
<event>
 5   0  0.1694830E-04  0.1887829E+04  0.7818609E-02  0.8660938E-01
       -1   -1    0    0    0  501  0.00000000000E+00  0.00000000000E+00  0.64140752429E+03  0.64140752431E+03  0.50400001928E-02 0. -1.
        1   -1    0    0  501    0  0.00000000000E+00  0.00000000000E+00 -0.13890932480E+04  0.13890932480E+04  0.50400001928E-02 0.  1.
    10030    2    1    2    0    0  0.00000000000E+00  0.00000000000E+00 -0.74768572372E+03  0.20305007723E+04  0.18878292945E+04 0.  0.
        1    1    3    3  502    0  0.50546147744E+01 -0.40294870877E+03 -0.12919208028E+04  0.13533117054E+04  0.50400001928E-02 0.  1.
       -1    1    3    3    0  502 -0.50546147744E+01  0.40294870877E+03  0.54423507913E+03  0.67718906696E+03  0.50400001928E-02 0. -1.
</event>
<event>
 5   0  0.3535876E-04  0.1879881E+04  0.7818609E-02  0.8664936E-01
       -2   -1    0    0    0  501  0.00000000000E+00  0.00000000000E+00  0.52509459448E+03  0.52509459449E+03  0.25500000920E-02 0.  1.
        2   -1    0    0  501    0  0.00000000000E+00  0.00000000000E+00 -0.16825319305E+04  0.16825319305E+04  0.25500000920E-02 0. -1.
    10030    2    1    2    0    0  0.00000000000E+00  0.00000000000E+00 -0.11574373360E+04  0.22076265250E+04  0.18798812960E+04 0.  0.
        2    1    3    3  502    0 -0.52234568142E+03  0.43734388754E+03  0.18177532916E+03  0.70509358043E+03  0.25500000920E-02 0.  1.
       -2    1    3    3    0  502  0.52234568142E+03 -0.43734388754E+03 -0.13392126652E+04  0.15025329446E+04  0.25500000920E-02 0. -1.
</event>
<event>
 5   0  0.1758946E-04  0.1905970E+04  0.7818609E-02  0.8651891E-01
       -1   -1    0    0    0  501  0.00000000000E+00  0.00000000000E+00  0.13932844561E+04  0.13932844561E+04  0.50400001928E-02 0.  1.
        1   -1    0    0  501    0  0.00000000000E+00  0.00000000000E+00 -0.65182674434E+03  0.65182674436E+03  0.50400001928E-02 0. -1.
    10030    2    1    2    0    0  0.00000000000E+00  0.00000000000E+00  0.74145771177E+03  0.20451112005E+04  0.19059696440E+04 0.  0.
        2    1    3    3  502    0 -0.56283926871E+03 -0.73459889989E+03  0.12662011303E+03  0.93405365968E+03  0.25500000920E-02 0. -1.
       -2    1    3    3    0  502  0.56283926871E+03  0.73459889989E+03  0.61483759875E+03  0.11110575408E+04  0.25500000920E-02 0.  1.
</event>
<event>
 5   0  0.3535876E-04  0.1918379E+04  0.7818609E-02  0.8645762E-01
       -2   -1    0    0    0  501  0.00000000000E+00  0.00000000000E+00  0.13141480015E+04  0.13141480015E+04  0.25500000920E-02 0. -1.
        2   -1    0    0  501    0  0.00000000000E+00  0.00000000000E+00 -0.70010726310E+03  0.70010726311E+03  0.25500000920E-02 0.  1.
    10030    2    1    2    0    0  0.00000000000E+00  0.00000000000E+00  0.61404073841E+03  0.20142552646E+04  0.19183790665E+04 0.  0.
        2    1    3    3  502    0  0.48050224555E+03 -0.70150491358E+02  0.11755500151E+04  0.12718967480E+04  0.25500000920E-02 0. -1.
       -2    1    3    3    0  502 -0.48050224555E+03  0.70150491358E+02 -0.56150927671E+03  0.74235851666E+03  0.25500000920E-02 0.  1.
</event>
<event>
 5   0  0.3516539E-04  0.1849975E+04  0.7818609E-02  0.8680166E-01
        2   -1    0    0  501    0  0.00000000000E+00  0.00000000000E+00  0.21529641459E+04  0.21529641459E+04  0.25500000920E-02 0.  1.
       -2   -1    0    0    0  501  0.00000000000E+00  0.00000000000E+00 -0.39740638492E+03  0.39740638493E+03  0.25500000920E-02 0. -1.
    10030    2    1    2    0    0  0.00000000000E+00  0.00000000000E+00  0.17555577610E+04  0.25503705308E+04  0.18499748086E+04 0.  0.
        4    1    3    3  502    0  0.39035606223E+03  0.61913789602E+03  0.16574979132E+04  0.18119079819E+04  0.12699999809E+01 0.  1.
       -4    1    3    3    0  502 -0.39035606223E+03 -0.61913789602E+03  0.98059847812E+02  0.73846254899E+03  0.12699999809E+01 0. -1.
</event>
<event>
 5   0  0.1694830E-04  0.1858266E+04  0.7818609E-02  0.8675914E-01
        1   -1    0    0  501    0  0.00000000000E+00  0.00000000000E+00  0.11933203077E+04  0.11933203077E+04  0.50400001928E-02 0. -1.
       -1   -1    0    0    0  501  0.00000000000E+00  0.00000000000E+00 -0.72343366968E+03  0.72343366970E+03  0.50400001928E-02 0.  1.
    10030    2    1    2    0    0  0.00000000000E+00  0.00000000000E+00  0.46988663799E+03  0.19167539774E+04  0.18582659544E+04 0.  0.
        1    1    3    3  502    0 -0.69838822479E+03 -0.59797121044E+03  0.96662596311E+02  0.92447787350E+03  0.50400001928E-02 0.  1.
       -1    1    3    3    0  502  0.69838822479E+03  0.59797121044E+03  0.37322404168E+03  0.99227610389E+03  0.50400001928E-02 0. -1.
</event>
<event>
 5   0  0.1782613E-04  0.1944991E+04  0.7818609E-02  0.8632780E-01
        1   -1    0    0  501    0  0.00000000000E+00  0.00000000000E+00  0.60875906304E+03  0.60875906306E+03  0.50400001928E-02 0.  1.
       -1   -1    0    0    0  501  0.00000000000E+00  0.00000000000E+00 -0.15535666472E+04  0.15535666472E+04  0.50400001928E-02 0. -1.
    10030    2    1    2    0    0  0.00000000000E+00  0.00000000000E+00 -0.94480758416E+03  0.21623257103E+04  0.19449912869E+04 0.  0.
        3    1    3    3  502    0  0.24174985848E+03  0.88021836727E+03 -0.84532671731E+03  0.12441079685E+04  0.10100000352E+00 0. -1.
       -3    1    3    3    0  502 -0.24174985848E+03 -0.88021836727E+03 -0.99480866850E+02  0.91821774173E+03  0.10100000352E+00 0.  1.
</event>
<event>
 5   0  0.3459485E-04  0.1879801E+04  0.7818609E-02  0.8664977E-01
       -2   -1    0    0    0  501  0.00000000000E+00  0.00000000000E+00  0.13736865327E+04  0.13736865327E+04  0.25500000920E-02 0.  1.
        2   -1    0    0  501    0  0.00000000000E+00  0.00000000000E+00 -0.64309650024E+03  0.64309650025E+03  0.25500000920E-02 0. -1.
    10030    2    1    2    0    0  0.00000000000E+00  0.00000000000E+00  0.73059003248E+03  0.20167830330E+04  0.18798010550E+04 0.  0.
        3    1    3    3  502    0  0.36690214330E+03  0.55234450010E+03  0.10799518728E+04  0.12672796406E+04  0.10100000352E+00 0.  1.
       -3    1    3    3    0  502 -0.36690214330E+03 -0.55234450010E+03 -0.34936184035E+03  0.74950339241E+03  0.10100000352E+00 0. -1.
</event>
<event>
 5   0  0.1813834E-04  0.1974725E+04  0.7818609E-02  0.8618530E-01
       -1   -1    0    0    0  501  0.00000000000E+00  0.00000000000E+00  0.12029895776E+04  0.12029895776E+04  0.50400001928E-02 0. -1.
        1   -1    0    0  501    0  0.00000000000E+00  0.00000000000E+00 -0.81038475111E+03  0.81038475113E+03  0.50400001928E-02 0.  1.
    10030    2    1    2    0    0  0.00000000000E+00  0.00000000000E+00  0.39260482651E+03  0.20133743288E+04  0.19747246993E+04 0.  0.
        5    1    3    3  502    0 -0.11562789420E+03  0.92622220422E+02 -0.79897635365E+03  0.81260937068E+03  0.46999998093E+01 0.  1.
       -5    1    3    3    0  502  0.11562789420E+03 -0.92622220422E+02  0.11915811802E+04  0.12007649581E+04  0.46999998093E+01 0. -1.
</event>
<event>
 5   0  0.1711979E-04  0.1923831E+04  0.7818609E-02  0.8643084E-01
       -1   -1    0    0    0  501  0.00000000000E+00  0.00000000000E+00  0.88121964250E+03  0.88121964251E+03  0.50400001928E-02 0.  1.
        1   -1    0    0  501    0  0.00000000000E+00  0.00000000000E+00 -0.10500013741E+04  0.10500013741E+04  0.50400001928E-02 0. -1.
    10030    2    1    2    0    0  0.00000000000E+00  0.00000000000E+00 -0.16878173162E+03  0.19312210166E+04  0.19238314225E+04 0.  0.
        4    1    3    3  502    0 -0.26024241896E+03  0.91268385502E+03 -0.24171645404E+03  0.97936019568E+03  0.12699999809E+01 0. -1.
       -4    1    3    3    0  502  0.26024241896E+03 -0.91268385502E+03  0.72934722419E+02  0.95186082096E+03  0.12699999809E+01 0.  1.
</event>
<event>
 5   0  0.3516539E-04  0.1907311E+04  0.7818609E-02  0.8651226E-01
        2   -1    0    0  501    0  0.00000000000E+00  0.00000000000E+00  0.16222174913E+04  0.16222174913E+04  0.25500000920E-02 0. -1.
       -2   -1    0    0    0  501  0.00000000000E+00  0.00000000000E+00 -0.56062694782E+03  0.56062694783E+03  0.25500000920E-02 0.  1.
    10030    2    1    2    0    0  0.00000000000E+00  0.00000000000E+00  0.10615905434E+04  0.21828444391E+04  0.19073110295E+04 0.  0.
        4    1    3    3  502    0  0.79661546085E+03 -0.48941195705E+03  0.74593267941E+03  0.11960507645E+04  0.12699999809E+01 0.  1.
       -4    1    3    3    0  502 -0.79661546085E+03  0.48941195705E+03  0.31565786401E+03  0.98679367457E+03  0.12699999809E+01 0. -1.
</event>
<event>
 5   0  0.3720978E-04  0.1892346E+04  0.7818609E-02  0.8658675E-01
       -2   -1    0    0    0  501  0.00000000000E+00  0.00000000000E+00  0.61996072567E+03  0.61996072567E+03  0.25500000920E-02 0. -1.
        2   -1    0    0  501    0  0.00000000000E+00  0.00000000000E+00 -0.14440330444E+04  0.14440330444E+04  0.25500000920E-02 0.  1.
    10030    2    1    2    0    0  0.00000000000E+00  0.00000000000E+00 -0.82407231871E+03  0.20639937701E+04  0.18923464525E+04 0.  0.
        1    1    3    3  502    0 -0.26490840962E+03  0.90712755977E+03 -0.36103006338E+03  0.10116321376E+04  0.50400001928E-02 0. -1.
       -1    1    3    3    0  502  0.26490840962E+03 -0.90712755977E+03 -0.46304225533E+03  0.10523616324E+04  0.50400001928E-02 0.  1.
</event>
<event>
 5   0  0.1758946E-04  0.1717359E+04  0.7818609E-02  0.8751526E-01
        1   -1    0    0  501    0  0.00000000000E+00  0.00000000000E+00  0.51120314338E+03  0.51120314340E+03  0.50400001928E-02 0.  1.
       -1   -1    0    0    0  501  0.00000000000E+00  0.00000000000E+00 -0.14423426110E+04  0.14423426110E+04  0.50400001928E-02 0. -1.
    10030    2    1    2    0    0  0.00000000000E+00  0.00000000000E+00 -0.93113946766E+03  0.19535457544E+04  0.17173585259E+04 0.  0.
        2    1    3    3  502    0  0.39570017052E+02 -0.30848505593E+03  0.44488112805E+03  0.54281491697E+03  0.25500000920E-02 0.  1.
       -2    1    3    3    0  502 -0.39570017052E+02  0.30848505593E+03 -0.13760205957E+04  0.14107308375E+04  0.25500000920E-02 0. -1.
</event>
<event>
 5   0  0.3535876E-04  0.1733987E+04  0.7818609E-02  0.8742214E-01
        2   -1    0    0  501    0  0.00000000000E+00  0.00000000000E+00  0.76279343864E+03  0.76279343864E+03  0.25500000920E-02 0. -1.
       -2   -1    0    0    0  501  0.00000000000E+00  0.00000000000E+00 -0.98542754015E+03  0.98542754015E+03  0.25500000920E-02 0.  1.
    10030    2    1    2    0    0  0.00000000000E+00  0.00000000000E+00 -0.22263410152E+03  0.17482209788E+04  0.17339869225E+04 0.  0.
        2    1    3    3  502    0  0.53758424136E+03  0.67524259015E+03 -0.28617556589E+02  0.86357879586E+03  0.25500000920E-02 0. -1.
       -2    1    3    3    0  502 -0.53758424136E+03 -0.67524259015E+03 -0.19401654493E+03  0.88464218293E+03  0.25500000920E-02 0.  1.
</event>
<event>
 5   0  0.3720978E-04  0.1884336E+04  0.7818609E-02  0.8662693E-01
       -2   -1    0    0    0  501  0.00000000000E+00  0.00000000000E+00  0.73535593458E+03  0.73535593458E+03  0.25500000920E-02 0. -1.
        2   -1    0    0  501    0  0.00000000000E+00  0.00000000000E+00 -0.12071443739E+04  0.12071443739E+04  0.25500000920E-02 0.  1.
    10030    2    1    2    0    0  0.00000000000E+00  0.00000000000E+00 -0.47178843930E+03  0.19425003085E+04  0.18843362537E+04 0.  0.
        1    1    3    3  502    0 -0.21928546115E+03 -0.13629772587E+03  0.69817470751E+03  0.74438639548E+03  0.50400001928E-02 0. -1.
       -1    1    3    3    0  502  0.21928546115E+03  0.13629772587E+03 -0.11699631468E+04  0.11981139130E+04  0.50400001928E-02 0.  1.
</event>
<event>
 5   0  0.3459485E-04  0.1901914E+04  0.7818609E-02  0.8653904E-01
       -2   -1    0    0    0  501  0.00000000000E+00  0.00000000000E+00  0.41942373966E+03  0.41942373967E+03  0.25500000920E-02 0.  1.
        2   -1    0    0  501    0  0.00000000000E+00  0.00000000000E+00 -0.21560992793E+04  0.21560992793E+04  0.25500000920E-02 0. -1.
    10030    2    1    2    0    0  0.00000000000E+00  0.00000000000E+00 -0.17366755396E+04  0.25755230190E+04  0.19019140073E+04 0.  0.
        3    1    3    3  502    0  0.55313377881E+03  0.33726482350E+03  0.74360780146E+02  0.65209974256E+03  0.10100000352E+00 0.  1.
       -3    1    3    3    0  502 -0.55313377881E+03 -0.33726482350E+03 -0.18110363198E+04  0.19234232764E+04  0.10100000352E+00 0. -1.
</event>
<event>
 5   0  0.3535876E-04  0.1912774E+04  0.7818609E-02  0.8648524E-01
        2   -1    0    0  501    0  0.00000000000E+00  0.00000000000E+00  0.95297450708E+03  0.95297450708E+03  0.25500000920E-02 0.  1.
       -2   -1    0    0    0  501  0.00000000000E+00  0.00000000000E+00 -0.95981193866E+03  0.95981193867E+03  0.25500000920E-02 0. -1.
    10030    2    1    2    0    0  0.00000000000E+00  0.00000000000E+00 -0.68374315837E+01  0.19127864457E+04  0.19127742252E+04 0.  0.
        2    1    3    3  502    0  0.46991941164E+03 -0.60756838040E+03 -0.57325805103E+03  0.95843016614E+03  0.25500000920E-02 0. -1.
       -2    1    3    3    0  502 -0.46991941164E+03  0.60756838040E+03  0.56642061944E+03  0.95435627961E+03  0.25500000920E-02 0.  1.
</event>
<event>
 5   0  0.1813834E-04  0.1869005E+04  0.7818609E-02  0.8670440E-01
       -1   -1    0    0    0  501  0.00000000000E+00  0.00000000000E+00  0.98890298244E+03  0.98890298245E+03  0.50400001928E-02 0. -1.
        1   -1    0    0  501    0  0.00000000000E+00  0.00000000000E+00 -0.88309488124E+03  0.88309488126E+03  0.50400001928E-02 0.  1.
    10030    2    1    2    0    0  0.00000000000E+00  0.00000000000E+00  0.10580810119E+03  0.18719978637E+04  0.18690052561E+04 0.  0.
        5    1    3    3  502    0 -0.90767868955E+03 -0.22185145960E+02  0.27439221973E+03  0.94851777232E+03  0.46999998093E+01 0. -1.
       -5    1    3    3    0  502  0.90767868955E+03  0.22185145960E+02 -0.16858411854E+03  0.92348009139E+03  0.46999998093E+01 0.  1.
</event>
<event>
 5   0  0.3516539E-04  0.1965169E+04  0.7818609E-02  0.8623081E-01
        2   -1    0    0  501    0  0.00000000000E+00  0.00000000000E+00  0.50075279070E+03  0.50075279071E+03  0.25500000920E-02 0.  1.
       -2   -1    0    0    0  501  0.00000000000E+00  0.00000000000E+00 -0.19280411601E+04  0.19280411601E+04  0.25500000920E-02 0. -1.
    10030    2    1    2    0    0  0.00000000000E+00  0.00000000000E+00 -0.14272883694E+04  0.24287939508E+04  0.19651686864E+04 0.  0.
        4    1    3    3  502    0 -0.51282016281E+03 -0.63150355107E+03 -0.32552690266E+02  0.81415142630E+03  0.12699999809E+01 0.  1.
       -4    1    3    3    0  502  0.51282016281E+03  0.63150355107E+03 -0.13947356792E+04  0.16146425245E+04  0.12699999809E+01 0. -1.
</event>
<event>
 5   0  0.1782613E-04  0.1890409E+04  0.7818609E-02  0.8659645E-01
        1   -1    0    0  501    0  0.00000000000E+00  0.00000000000E+00  0.16455823566E+04  0.16455823566E+04  0.50400001928E-02 0. -1.
       -1   -1    0    0    0  501  0.00000000000E+00  0.00000000000E+00 -0.54291538272E+03  0.54291538274E+03  0.50400001928E-02 0.  1.
    10030    2    1    2    0    0  0.00000000000E+00  0.00000000000E+00  0.11026669739E+04  0.21884977394E+04  0.18904094530E+04 0.  0.
        3    1    3    3  502    0  0.93641349285E+03  0.11962029601E+03  0.49663096467E+03  0.10666871941E+04  0.10100000352E+00 0. -1.
       -3    1    3    3    0  502 -0.93641349285E+03 -0.11962029601E+03  0.60603600925E+03  0.11218105453E+04  0.10100000352E+00 0.  1.
</event>
<event>
 5   0  0.1694830E-04  0.1882125E+04  0.7818609E-02  0.8663806E-01
        1   -1    0    0  501    0  0.00000000000E+00  0.00000000000E+00  0.19995219365E+04  0.19995219365E+04  0.50400001928E-02 0. -1.
       -1   -1    0    0    0  501  0.00000000000E+00  0.00000000000E+00 -0.44290497891E+03  0.44290497894E+03  0.50400001928E-02 0.  1.
    10030    2    1    2    0    0  0.00000000000E+00  0.00000000000E+00  0.15566169576E+04  0.24424269154E+04  0.18821245667E+04 0.  0.
        1    1    3    3  502    0  0.77189828652E+03 -0.42140592382E+03  0.12129658055E+04  0.14982309444E+04  0.50400001928E-02 0. -1.
       -1    1    3    3    0  502 -0.77189828652E+03  0.42140592382E+03  0.34365115206E+03  0.94419597103E+03  0.50400001928E-02 0.  1.
</event>
<event>
 5   0  0.3459485E-04  0.1926982E+04  0.7818609E-02  0.8641541E-01
        2   -1    0    0  501    0  0.00000000000E+00  0.00000000000E+00  0.94376457274E+03  0.94376457274E+03  0.25500000920E-02 0.  1.
       -2   -1    0    0    0  501  0.00000000000E+00  0.00000000000E+00 -0.98362956696E+03  0.98362956696E+03  0.25500000920E-02 0. -1.
    10030    2    1    2    0    0  0.00000000000E+00  0.00000000000E+00 -0.39864994221E+02  0.19273941397E+04  0.19269818245E+04 0.  0.
        3    1    3    3  502    0  0.52619637031E+03  0.78623548080E+03 -0.20236087674E+03  0.96747030240E+03  0.10100000352E+00 0. -1.
       -3    1    3    3    0  502 -0.52619637031E+03 -0.78623548080E+03  0.16249588252E+03  0.95992383731E+03  0.10100000352E+00 0.  1.
</event>
<event>
 5   0  0.1287000E-04  0.1889981E+04  0.7818609E-02  0.8659860E-01
       -3   -1    0    0    0  501  0.00000000000E+00  0.00000000000E+00  0.13277393749E+04  0.13277393788E+04  0.10100000352E+00 0.  1.
        3   -1    0    0  501    0  0.00000000000E+00  0.00000000000E+00 -0.67257680929E+03  0.67257681687E+03  0.10100000352E+00 0. -1.
    10030    2    1    2    0    0  0.00000000000E+00  0.00000000000E+00  0.65516256564E+03  0.20003161956E+04  0.18899806600E+04 0.  0.
        1    1    3    3  502    0  0.68738176540E+03 -0.19922719338E+03  0.98071492409E+03  0.12140786335E+04  0.50400001928E-02 0.  1.
       -1    1    3    3    0  502 -0.68738176540E+03  0.19922719338E+03 -0.32555235845E+03  0.78623756213E+03  0.50400001928E-02 0. -1.
</event>
<event>
 5   0  0.1782613E-04  0.1873202E+04  0.7818609E-02  0.8668312E-01
        1   -1    0    0  501    0  0.00000000000E+00  0.00000000000E+00  0.14430143714E+04  0.14430143714E+04  0.50400001928E-02 0.  1.
       -1   -1    0    0    0  501  0.00000000000E+00  0.00000000000E+00 -0.60790914291E+03  0.60790914293E+03  0.50400001928E-02 0. -1.
    10030    2    1    2    0    0  0.00000000000E+00  0.00000000000E+00  0.83510522847E+03  0.20509235143E+04  0.18732022098E+04 0.  0.
        3    1    3    3  502    0 -0.84922124284E+02  0.66363523928E+03  0.11351750198E+04  0.13176668144E+04  0.10100000352E+00 0.  1.
       -3    1    3    3    0  502  0.84922124284E+02 -0.66363523928E+03 -0.30006979138E+03  0.73325669987E+03  0.10100000352E+00 0. -1.
</event>
<event>
 5   0  0.1711979E-04  0.1902471E+04  0.7818609E-02  0.8653627E-01
       -1   -1    0    0    0  501  0.00000000000E+00  0.00000000000E+00  0.32056596920E+03  0.32056596924E+03  0.50400001928E-02 0. -1.
        1   -1    0    0  501    0  0.00000000000E+00  0.00000000000E+00 -0.28226611423E+04  0.28226611423E+04  0.50400001928E-02 0.  1.
    10030    2    1    2    0    0  0.00000000000E+00  0.00000000000E+00 -0.25020951731E+04  0.31432271115E+04  0.19024711350E+04 0.  0.
        4    1    3    3  502    0 -0.89288575479E+03 -0.32697529154E+03 -0.12944367594E+04  0.16061525299E+04  0.12699999809E+01 0.  1.
       -4    1    3    3    0  502  0.89288575479E+03  0.32697529154E+03 -0.12076584137E+04  0.15370745816E+04  0.12699999809E+01 0. -1.
</event>
<event>
 5   0  0.1813834E-04  0.1919109E+04  0.7818609E-02  0.8645403E-01
       -1   -1    0    0    0  501  0.00000000000E+00  0.00000000000E+00  0.45517058459E+03  0.45517058462E+03  0.50400001928E-02 0. -1.
        1   -1    0    0  501    0  0.00000000000E+00  0.00000000000E+00 -0.20228560536E+04  0.20228560537E+04  0.50400001928E-02 0.  1.
    10030    2    1    2    0    0  0.00000000000E+00  0.00000000000E+00 -0.15676854691E+04  0.24780266383E+04  0.19191087228E+04 0.  0.
        5    1    3    3  502    0 -0.59096220112E+03 -0.28581534978E+03  0.11983565200E+03  0.66731507612E+03  0.46999998093E+01 0. -1.
       -5    1    3    3    0  502  0.59096220112E+03  0.28581534978E+03 -0.16875211211E+04  0.18107115622E+04  0.46999998093E+01 0.  1.
</event>
<event>
 5   0  0.1711979E-04  0.1804776E+04  0.7818609E-02  0.8703764E-01
       -1   -1    0    0    0  501  0.00000000000E+00  0.00000000000E+00  0.99637972393E+03  0.99637972394E+03  0.50400001928E-02 0. -1.
        1   -1    0    0  501    0  0.00000000000E+00  0.00000000000E+00 -0.81726260907E+03  0.81726260909E+03  0.50400001928E-02 0.  1.
    10030    2    1    2    0    0  0.00000000000E+00  0.00000000000E+00  0.17911711486E+03  0.18136423330E+04  0.18047757676E+04 0.  0.
        4    1    3    3  502    0 -0.85347086767E+02 -0.45783235761E+03  0.86627732039E+03  0.98353068159E+03  0.12699999809E+01 0. -1.
       -4    1    3    3    0  502  0.85347086767E+02  0.45783235761E+03 -0.68716020554E+03  0.83011165144E+03  0.12699999809E+01 0.  1.
</event>
<event>
 5   0  0.3459485E-04  0.1678917E+04  0.7818609E-02  0.8773481E-01
        2   -1    0    0  501    0  0.00000000000E+00  0.00000000000E+00  0.51586021609E+03  0.51586021610E+03  0.25500000920E-02 0.  1.
       -2   -1    0    0    0  501  0.00000000000E+00  0.00000000000E+00 -0.13660491058E+04  0.13660491058E+04  0.25500000920E-02 0. -1.
    10030    2    1    2    0    0  0.00000000000E+00  0.00000000000E+00 -0.85018888971E+03  0.18819093219E+04  0.16789167781E+04 0.  0.
        3    1    3    3  502    0  0.13510673200E+03  0.28443009760E+03 -0.12973415410E+04  0.13350091361E+04  0.10100000352E+00 0. -1.
       -3    1    3    3    0  502 -0.13510673200E+03 -0.28443009760E+03  0.44715265127E+03  0.54690018576E+03  0.10100000352E+00 0.  1.
</event>
<event>
 5   0  0.1694830E-04  0.1925548E+04  0.7818609E-02  0.8642243E-01
        1   -1    0    0  501    0  0.00000000000E+00  0.00000000000E+00  0.10889462255E+04  0.10889462255E+04  0.50400001928E-02 0. -1.
       -1   -1    0    0    0  501  0.00000000000E+00  0.00000000000E+00 -0.85122095425E+03  0.85122095426E+03  0.50400001928E-02 0.  1.
    10030    2    1    2    0    0  0.00000000000E+00  0.00000000000E+00  0.23772527128E+03  0.19401671798E+04  0.19255480729E+04 0.  0.
        1    1    3    3  502    0  0.14252947531E+03  0.93128218073E+03 -0.80967799187E+02  0.94559871827E+03  0.50400001928E-02 0.  1.
       -1    1    3    3    0  502 -0.14252947531E+03 -0.93128218073E+03  0.31869307047E+03  0.99456846153E+03  0.50400001928E-02 0. -1.
</event>
<event>
 5   0  0.3459485E-04  0.1906466E+04  0.7818609E-02  0.8651645E-01
        2   -1    0    0  501    0  0.00000000000E+00  0.00000000000E+00  0.92334483929E+03  0.92334483930E+03  0.25500000920E-02 0.  1.
       -2   -1    0    0    0  501  0.00000000000E+00  0.00000000000E+00 -0.98408820105E+03  0.98408820105E+03  0.25500000920E-02 0. -1.
    10030    2    1    2    0    0  0.00000000000E+00  0.00000000000E+00 -0.60743361757E+02  0.19074330404E+04  0.19064655904E+04 0.  0.
        3    1    3    3  502    0  0.89292198695E+03 -0.33365959586E+03 -0.26581491616E+02  0.95359581930E+03  0.10100000352E+00 0.  1.
       -3    1    3    3    0  502 -0.89292198695E+03  0.33365959586E+03 -0.34161870142E+02  0.95383722105E+03  0.10100000352E+00 0. -1.
</event>
<event>
 5   0  0.3516539E-04  0.1776375E+04  0.7818609E-02  0.8718965E-01
       -2   -1    0    0    0  501  0.00000000000E+00  0.00000000000E+00  0.61201920582E+03  0.61201920582E+03  0.25500000920E-02 0. -1.
        2   -1    0    0  501    0  0.00000000000E+00  0.00000000000E+00 -0.12889744709E+04  0.12889744709E+04  0.25500000920E-02 0.  1.
    10030    2    1    2    0    0  0.00000000000E+00  0.00000000000E+00 -0.67695526510E+03  0.19009936767E+04  0.17763751091E+04 0.  0.
        4    1    3    3  502    0 -0.77320465576E+03 -0.43559294645E+03 -0.30005831802E+03  0.93681548973E+03  0.12699999809E+01 0. -1.
       -4    1    3    3    0  502  0.77320465576E+03  0.43559294645E+03 -0.37689694708E+03  0.96417818701E+03  0.12699999809E+01 0.  1.
</event>
<event>
 5   0  0.1711979E-04  0.1924948E+04  0.7818609E-02  0.8642537E-01
        1   -1    0    0  501    0  0.00000000000E+00  0.00000000000E+00  0.11248296443E+04  0.11248296443E+04  0.50400001928E-02 0. -1.
       -1   -1    0    0    0  501  0.00000000000E+00  0.00000000000E+00 -0.82355237716E+03  0.82355237717E+03  0.50400001928E-02 0.  1.
    10030    2    1    2    0    0  0.00000000000E+00  0.00000000000E+00  0.30127726715E+03  0.19483820215E+04  0.19249479240E+04 0.  0.
        4    1    3    3  502    0  0.83086443484E+03 -0.37301749660E+03 -0.16440079792E+03  0.92547663240E+03  0.12699999809E+01 0. -1.
       -4    1    3    3    0  502 -0.83086443484E+03  0.37301749660E+03  0.46567806507E+03  0.10229053891E+04  0.12699999809E+01 0.  1.
</event>
<event>
 5   0  0.1694830E-04  0.1936892E+04  0.7818609E-02  0.8636707E-01
       -1   -1    0    0    0  501  0.00000000000E+00  0.00000000000E+00  0.12322425762E+04  0.12322425762E+04  0.50400001928E-02 0.  1.
        1   -1    0    0  501    0  0.00000000000E+00  0.00000000000E+00 -0.76112295948E+03  0.76112295950E+03  0.50400001928E-02 0. -1.
    10030    2    1    2    0    0  0.00000000000E+00  0.00000000000E+00  0.47111961668E+03  0.19933655357E+04  0.19368924765E+04 0.  0.
        1    1    3    3  502    0  0.89869290505E+03 -0.35628157210E+03  0.17641580099E+03  0.98270444746E+03  0.50400001928E-02 0. -1.
       -1    1    3    3    0  502 -0.89869290505E+03  0.35628157210E+03  0.29470381569E+03  0.10106610882E+04  0.50400001928E-02 0.  1.
</event>
<event>
 5   0  0.3535876E-04  0.1879445E+04  0.7818609E-02  0.8665156E-01
       -2   -1    0    0    0  501  0.00000000000E+00  0.00000000000E+00  0.73501603715E+03  0.73501603715E+03  0.25500000920E-02 0. -1.
        2   -1    0    0  501    0  0.00000000000E+00  0.00000000000E+00 -0.12014412153E+04  0.12014412153E+04  0.25500000920E-02 0.  1.
    10030    2    1    2    0    0  0.00000000000E+00  0.00000000000E+00 -0.46642517820E+03  0.19364572525E+04  0.18794451958E+04 0.  0.
        2    1    3    3  502    0  0.69724573740E+03  0.36333720404E+03  0.29709751130E+03  0.84049537381E+03  0.25500000920E-02 0. -1.
       -2    1    3    3    0  502 -0.69724573740E+03 -0.36333720404E+03 -0.76352268950E+03  0.10959618787E+04  0.25500000920E-02 0.  1.
</event>
<event>
 5   0  0.3459485E-04  0.1227549E+04  0.7818609E-02  0.9089079E-01
        2   -1    0    0  501    0  0.00000000000E+00  0.00000000000E+00  0.19102234019E+04  0.19102234019E+04  0.25500000920E-02 0.  1.
       -2   -1    0    0    0  501  0.00000000000E+00  0.00000000000E+00 -0.19721224364E+03  0.19721224365E+03  0.25500000920E-02 0. -1.
    10030    2    1    2    0    0  0.00000000000E+00  0.00000000000E+00  0.17130111583E+04  0.21074356456E+04  0.12275494987E+04 0.  0.
        3    1    3    3  502    0  0.50371919180E+03 -0.44119048445E+02  0.14537878433E+04  0.15392136363E+04  0.10100000352E+00 0.  1.
       -3    1    3    3    0  502 -0.50371919180E+03  0.44119048445E+02  0.25922331501E+03  0.56822200931E+03  0.10100000352E+00 0. -1.
</event>
<event>
 5   0  0.1711979E-04  0.1993167E+04  0.7818609E-02  0.8609822E-01
        1   -1    0    0  501    0  0.00000000000E+00  0.00000000000E+00  0.96793146233E+03  0.96793146234E+03  0.50400001928E-02 0.  1.
       -1   -1    0    0    0  501  0.00000000000E+00  0.00000000000E+00 -0.10260834869E+04  0.10260834869E+04  0.50400001928E-02 0. -1.
    10030    2    1    2    0    0  0.00000000000E+00  0.00000000000E+00 -0.58152024607E+02  0.19940149493E+04  0.19931668169E+04 0.  0.
        4    1    3    3  502    0  0.73657299561E+03 -0.67123709959E+03 -0.37903335855E+02  0.99726490839E+03  0.12699999809E+01 0.  1.
       -4    1    3    3    0  502 -0.73657299561E+03  0.67123709959E+03 -0.20248688752E+02  0.99675004090E+03  0.12699999809E+01 0. -1.
</event>
<event>
 5   0  0.1758946E-04  0.1909254E+04  0.7818609E-02  0.8650264E-01
       -1   -1    0    0    0  501  0.00000000000E+00  0.00000000000E+00  0.52281233810E+03  0.52281233812E+03  0.50400001928E-02 0.  1.
        1   -1    0    0  501    0  0.00000000000E+00  0.00000000000E+00 -0.17430977190E+04  0.17430977190E+04  0.50400001928E-02 0. -1.
    10030    2    1    2    0    0  0.00000000000E+00  0.00000000000E+00 -0.12202853809E+04  0.22659100571E+04  0.19092542984E+04 0.  0.
        2    1    3    3  502    0 -0.59077976706E+03 -0.36535875443E+03 -0.13872999937E+04  0.15514860699E+04  0.25500000920E-02 0. -1.
       -2    1    3    3    0  502  0.59077976706E+03  0.36535875443E+03  0.16701461280E+03  0.71442398721E+03  0.25500000920E-02 0.  1.
</event>
<event>
 5   0  0.1694830E-04  0.1868421E+04  0.7818609E-02  0.8670737E-01
       -1   -1    0    0    0  501  0.00000000000E+00  0.00000000000E+00  0.10911086869E+04  0.10911086869E+04  0.50400001928E-02 0.  1.
        1   -1    0    0  501    0  0.00000000000E+00  0.00000000000E+00 -0.79987358496E+03  0.79987358497E+03  0.50400001928E-02 0. -1.
    10030    2    1    2    0    0  0.00000000000E+00  0.00000000000E+00  0.29123510194E+03  0.18909822719E+04  0.18684207417E+04 0.  0.
        1    1    3    3  502    0  0.23621780480E+03  0.57160412322E+03 -0.56299330178E+03  0.83635613399E+03  0.50400001928E-02 0. -1.
       -1    1    3    3    0  502 -0.23621780480E+03 -0.57160412322E+03  0.85422840372E+03  0.10546261379E+04  0.50400001928E-02 0.  1.
</event>
<event>
 5   0  0.3535876E-04  0.1904463E+04  0.7818609E-02  0.8652638E-01
        2   -1    0    0  501    0  0.00000000000E+00  0.00000000000E+00  0.15210390838E+04  0.15210390838E+04  0.25500000920E-02 0.  1.
       -2   -1    0    0    0  501  0.00000000000E+00  0.00000000000E+00 -0.59613542981E+03  0.59613542981E+03  0.25500000920E-02 0. -1.
    10030    2    1    2    0    0  0.00000000000E+00  0.00000000000E+00  0.92490365398E+03  0.21171745136E+04  0.19044634814E+04 0.  0.
        2    1    3    3  502    0  0.84936277944E+03  0.32678195531E+03  0.77400643984E+03  0.11946922392E+04  0.25500000920E-02 0.  1.
       -2    1    3    3    0  502 -0.84936277944E+03 -0.32678195531E+03  0.15089721414E+03  0.92248227444E+03  0.25500000920E-02 0. -1.
</event>
<event>
 5   0  0.1813834E-04  0.1939847E+04  0.7818609E-02  0.8635272E-01
        1   -1    0    0  501    0  0.00000000000E+00  0.00000000000E+00  0.10047014149E+04  0.10047014149E+04  0.50400001928E-02 0.  1.
       -1   -1    0    0    0  501  0.00000000000E+00  0.00000000000E+00 -0.93634960902E+03  0.93634960903E+03  0.50400001928E-02 0. -1.
    10030    2    1    2    0    0  0.00000000000E+00  0.00000000000E+00  0.68351805898E+02  0.19410510240E+04  0.19398471868E+04 0.  0.
        5    1    3    3  502    0  0.67938794180E+03 -0.54305797294E+03  0.46368551318E+03  0.98565018266E+03  0.46999998093E+01 0.  1.
       -5    1    3    3    0  502 -0.67938794180E+03  0.54305797294E+03 -0.39533370728E+03  0.95540084130E+03  0.46999998093E+01 0. -1.
</event>
<event>
 5   0  0.1782613E-04  0.1805892E+04  0.7818609E-02  0.8703172E-01
        1   -1    0    0  501    0  0.00000000000E+00  0.00000000000E+00  0.71266064623E+03  0.71266064625E+03  0.50400001928E-02 0.  1.
       -1   -1    0    0    0  501  0.00000000000E+00  0.00000000000E+00 -0.11440388142E+04  0.11440388142E+04  0.50400001928E-02 0. -1.
    10030    2    1    2    0    0  0.00000000000E+00  0.00000000000E+00 -0.43137816796E+03  0.18566994604E+04  0.18058919576E+04 0.  0.
        3    1    3    3  502    0  0.66596745966E+03  0.60972914775E+03 -0.22123905835E+03  0.92963918919E+03  0.10100000352E+00 0. -1.
       -3    1    3    3    0  502 -0.66596745966E+03 -0.60972914775E+03 -0.21013910961E+03  0.92706027125E+03  0.10100000352E+00 0.  1.
</event>
<event>
 5   0  0.3459485E-04  0.1877997E+04  0.7818609E-02  0.8665887E-01
       -2   -1    0    0    0  501  0.00000000000E+00  0.00000000000E+00  0.64968813457E+03  0.64968813457E+03  0.25500000920E-02 0.  1.
        2   -1    0    0  501    0  0.00000000000E+00  0.00000000000E+00 -0.13571405939E+04  0.13571405939E+04  0.25500000920E-02 0. -1.
    10030    2    1    2    0    0  0.00000000000E+00  0.00000000000E+00 -0.70745245936E+03  0.20068287285E+04  0.18779969551E+04 0.  0.
        3    1    3    3  502    0 -0.16620510983E+03  0.62075277648E+03  0.37790239785E+03  0.74549874617E+03  0.10100000352E+00 0.  1.
       -3    1    3    3    0  502  0.16620510983E+03 -0.62075277648E+03 -0.10853548572E+04  0.12613299823E+04  0.10100000352E+00 0. -1.
</event>
<event>
 5   0  0.3459485E-04  0.1895786E+04  0.7818609E-02  0.8656957E-01
       -2   -1    0    0    0  501  0.00000000000E+00  0.00000000000E+00  0.83326630975E+03  0.83326630976E+03  0.25500000920E-02 0.  1.
        2   -1    0    0  501    0  0.00000000000E+00  0.00000000000E+00 -0.10782881327E+04  0.10782881327E+04  0.25500000920E-02 0. -1.
    10030    2    1    2    0    0  0.00000000000E+00  0.00000000000E+00 -0.24502182294E+03  0.19115544425E+04  0.18957860356E+04 0.  0.
        3    1    3    3  502    0  0.66028676657E+03  0.64002394532E+03  0.10938437903E+03  0.92605303156E+03  0.10100000352E+00 0.  1.
       -3    1    3    3    0  502 -0.66028676657E+03 -0.64002394532E+03 -0.35440620197E+03  0.98550141090E+03  0.10100000352E+00 0. -1.
</event>
<event>
 5   0  0.1694830E-04  0.1891749E+04  0.7818609E-02  0.8658974E-01
       -1   -1    0    0    0  501  0.00000000000E+00  0.00000000000E+00  0.10070290879E+04  0.10070290879E+04  0.50400001928E-02 0. -1.
        1   -1    0    0  501    0  0.00000000000E+00  0.00000000000E+00 -0.88843389496E+03  0.88843389497E+03  0.50400001928E-02 0.  1.
    10030    2    1    2    0    0  0.00000000000E+00  0.00000000000E+00  0.11859519290E+03  0.18954629828E+04  0.18917492169E+04 0.  0.
        1    1    3    3  502    0 -0.16222373002E+03  0.91405448322E+03  0.24094507973E+03  0.95909679821E+03  0.50400001928E-02 0. -1.
       -1    1    3    3    0  502  0.16222373002E+03 -0.91405448322E+03 -0.12234988684E+03  0.93636618462E+03  0.50400001928E-02 0.  1.
</event>
<event>
 5   0  0.3720978E-04  0.1768536E+04  0.7818609E-02  0.8723213E-01
       -2   -1    0    0    0  501  0.00000000000E+00  0.00000000000E+00  0.11806163993E+04  0.11806163993E+04  0.25500000920E-02 0.  1.
        2   -1    0    0  501    0  0.00000000000E+00  0.00000000000E+00 -0.66230615537E+03  0.66230615538E+03  0.25500000920E-02 0. -1.
    10030    2    1    2    0    0  0.00000000000E+00  0.00000000000E+00  0.51831024388E+03  0.18429225546E+04  0.17685355618E+04 0.  0.
        1    1    3    3  502    0 -0.80579153208E+03  0.12718964903E+02  0.63842500408E+03  0.10281285188E+04  0.50400001928E-02 0.  1.
       -1    1    3    3    0  502  0.80579153208E+03 -0.12718964903E+02 -0.12011476020E+03  0.81479403587E+03  0.50400001928E-02 0. -1.
</event>
<event>
 5   0  0.1758946E-04  0.1984353E+04  0.7818609E-02  0.8613971E-01
       -1   -1    0    0    0  501  0.00000000000E+00  0.00000000000E+00  0.70374309922E+03  0.70374309923E+03  0.50400001928E-02 0.  1.
        1   -1    0    0  501    0  0.00000000000E+00  0.00000000000E+00 -0.13988256791E+04  0.13988256791E+04  0.50400001928E-02 0. -1.
    10030    2    1    2    0    0  0.00000000000E+00  0.00000000000E+00 -0.69508257991E+03  0.21025687784E+04  0.19843527093E+04 0.  0.
        2    1    3    3  502    0 -0.18920614274E+03 -0.16450719885E+03  0.66962356214E+03  0.71502258559E+03  0.25500000920E-02 0.  1.
       -2    1    3    3    0  502  0.18920614274E+03  0.16450719885E+03 -0.13647061421E+04  0.13875461928E+04  0.25500000920E-02 0. -1.
</event>
<event>
 5   0  0.1694830E-04  0.1921602E+04  0.7818609E-02  0.8644178E-01
       -1   -1    0    0    0  501  0.00000000000E+00  0.00000000000E+00  0.62322088129E+03  0.62322088131E+03  0.50400001928E-02 0.  1.
        1   -1    0    0  501    0  0.00000000000E+00  0.00000000000E+00 -0.14812384341E+04  0.14812384341E+04  0.50400001928E-02 0. -1.
    10030    2    1    2    0    0  0.00000000000E+00  0.00000000000E+00 -0.85801755284E+03  0.21044593155E+04  0.19216021673E+04 0.  0.
        1    1    3    3  502    0  0.66200415380E+03 -0.15293601244E+03 -0.11729914342E+04  0.13555618128E+04  0.50400001928E-02 0. -1.
       -1    1    3    3    0  502 -0.66200415380E+03  0.15293601244E+03  0.31497388136E+03  0.74889750268E+03  0.50400001928E-02 0.  1.
</event>
<event>
 5   0  0.1287000E-04  0.1872827E+04  0.7818609E-02  0.8668502E-01
       -4   -1    0    0    0  501  0.00000000000E+00  0.00000000000E+00  0.79939067863E+03  0.79939168746E+03  0.12699999809E+01 0. -1.
        4   -1    0    0  501    0  0.00000000000E+00  0.00000000000E+00 -0.10969208310E+04  0.10969215662E+04  0.12699999809E+01 0.  1.
    10030    2    1    2    0    0  0.00000000000E+00  0.00000000000E+00 -0.29753015239E+03  0.18963132537E+04  0.18728266776E+04 0.  0.
        1    1    3    3  502    0 -0.37376528099E+03 -0.40577699605E+03 -0.91490083469E+03  0.10683627629E+04  0.50400001928E-02 0.  1.
       -1    1    3    3    0  502  0.37376528099E+03  0.40577699605E+03  0.61737068230E+03  0.82795049078E+03  0.50400001928E-02 0. -1.
</event>
<event>
 5   0  0.3720978E-04  0.1922740E+04  0.7818609E-02  0.8643619E-01
        2   -1    0    0  501    0  0.00000000000E+00  0.00000000000E+00  0.12996627672E+04  0.12996627672E+04  0.25500000920E-02 0.  1.
       -2   -1    0    0    0  501  0.00000000000E+00  0.00000000000E+00 -0.71113254408E+03  0.71113254409E+03  0.25500000920E-02 0. -1.
    10030    2    1    2    0    0  0.00000000000E+00  0.00000000000E+00  0.58853022315E+03  0.20107953113E+04  0.19227402218E+04 0.  0.
        1    1    3    3  502    0  0.22287402534E+03 -0.26245885353E+03  0.12329659350E+04  0.12801415851E+04  0.50400001928E-02 0.  1.
       -1    1    3    3    0  502 -0.22287402534E+03  0.26245885353E+03 -0.64443571183E+03  0.73065372625E+03  0.50400001928E-02 0. -1.
</event>
<event>
 5   0  0.1758946E-04  0.1422934E+04  0.7818609E-02  0.8937383E-01
        1   -1    0    0  501    0  0.00000000000E+00  0.00000000000E+00  0.10672037949E+04  0.10672037949E+04  0.50400001928E-02 0.  1.
       -1   -1    0    0    0  501  0.00000000000E+00  0.00000000000E+00 -0.47430979499E+03  0.47430979502E+03  0.50400001928E-02 0. -1.
    10030    2    1    2    0    0  0.00000000000E+00  0.00000000000E+00  0.59289399986E+03  0.15415135899E+04  0.14229338891E+04 0.  0.
        2    1    3    3  502    0 -0.31573440776E+03 -0.61144988203E+03  0.10076773493E+03  0.69549501141E+03  0.25500000920E-02 0.  1.
       -2    1    3    3    0  502  0.31573440776E+03  0.61144988203E+03  0.49212626494E+03  0.84601857848E+03  0.25500000920E-02 0. -1.
</event>
<event>
 5   0  0.1758946E-04  0.1241432E+04  0.7818609E-02  0.9077345E-01
       -1   -1    0    0    0  501  0.00000000000E+00  0.00000000000E+00  0.44895165484E+03  0.44895165486E+03  0.50400001928E-02 0. -1.
        1   -1    0    0  501    0  0.00000000000E+00  0.00000000000E+00 -0.85819505551E+03  0.85819505553E+03  0.50400001928E-02 0.  1.
    10030    2    1    2    0    0  0.00000000000E+00  0.00000000000E+00 -0.40924340068E+03  0.13071467104E+04  0.12414315775E+04 0.  0.
        2    1    3    3  502    0  0.55700223095E+02  0.11762884985E+03 -0.84366650880E+03  0.85364643691E+03  0.25500000920E-02 0.  1.
       -2    1    3    3    0  502 -0.55700223095E+02 -0.11762884985E+03  0.43442310812E+03  0.45350027348E+03  0.25500000920E-02 0. -1.
</event>
<event>
 5   0  0.3535876E-04  0.1895531E+04  0.7818609E-02  0.8657084E-01
        2   -1    0    0  501    0  0.00000000000E+00  0.00000000000E+00  0.91781462547E+03  0.91781462548E+03  0.25500000920E-02 0.  1.
       -2   -1    0    0    0  501  0.00000000000E+00  0.00000000000E+00 -0.97869332789E+03  0.97869332789E+03  0.25500000920E-02 0. -1.
    10030    2    1    2    0    0  0.00000000000E+00  0.00000000000E+00 -0.60878702416E+02  0.18965079534E+04  0.18955305856E+04 0.  0.
        2    1    3    3  502    0 -0.94541863240E+03  0.41559524826E+02  0.21697647174E+02  0.94658035712E+03  0.25500000920E-02 0. -1.
       -2    1    3    3    0  502  0.94541863240E+03 -0.41559524826E+02 -0.82576349590E+02  0.94992759625E+03  0.25500000920E-02 0.  1.
</event>
<event>
 5   0  0.1782613E-04  0.1860722E+04  0.7818609E-02  0.8674658E-01
        1   -1    0    0  501    0  0.00000000000E+00  0.00000000000E+00  0.64424078230E+03  0.64424078232E+03  0.50400001928E-02 0. -1.
       -1   -1    0    0    0  501  0.00000000000E+00  0.00000000000E+00 -0.13435526163E+04  0.13435526163E+04  0.50400001928E-02 0.  1.
    10030    2    1    2    0    0  0.00000000000E+00  0.00000000000E+00 -0.69931183404E+03  0.19877933987E+04  0.18607217832E+04 0.  0.
        3    1    3    3  502    0  0.13808561483E+03  0.81966888674E+03  0.96791116164E+02  0.83683525935E+03  0.10100000352E+00 0. -1.
       -3    1    3    3    0  502 -0.13808561483E+03 -0.81966888674E+03 -0.79610295020E+03  0.11509581393E+04  0.10100000352E+00 0.  1.
</event>
<event>
 5   0  0.3623359E-04  0.1768254E+04  0.7818609E-02  0.8723366E-01
        2   -1    0    0  501    0  0.00000000000E+00  0.00000000000E+00  0.13310553540E+04  0.13310553540E+04  0.25500000920E-02 0.  1.
       -2   -1    0    0    0  501  0.00000000000E+00  0.00000000000E+00 -0.58726398456E+03  0.58726398457E+03  0.25500000920E-02 0. -1.
    10030    2    1    2    0    0  0.00000000000E+00  0.00000000000E+00  0.74379136942E+03  0.19183193386E+04  0.17682543605E+04 0.  0.
        5    1    3    3  502    0  0.71694737026E+03  0.47463839948E+03  0.59518749563E+03  0.10457367675E+04  0.46999998093E+01 0.  1.
       -5    1    3    3    0  502 -0.71694737026E+03 -0.47463839948E+03  0.14860387379E+03  0.87258257104E+03  0.46999998093E+01 0. -1.
</event>
<event>
 5   0  0.1782613E-04  0.1933064E+04  0.7818609E-02  0.8638571E-01
       -1   -1    0    0    0  501  0.00000000000E+00  0.00000000000E+00  0.10666202080E+04  0.10666202080E+04  0.50400001928E-02 0.  1.
        1   -1    0    0  501    0  0.00000000000E+00  0.00000000000E+00 -0.87583575607E+03  0.87583575608E+03  0.50400001928E-02 0. -1.
    10030    2    1    2    0    0  0.00000000000E+00  0.00000000000E+00  0.19078445193E+03  0.19424559641E+04  0.19330640096E+04 0.  0.
        3    1    3    3  502    0  0.22097415506E+03 -0.69382220511E+03 -0.54327843351E+03  0.90849892462E+03  0.10100000352E+00 0. -1.
       -3    1    3    3    0  502 -0.22097415506E+03  0.69382220511E+03  0.73406288543E+03  0.10339570395E+04  0.10100000352E+00 0.  1.
</event>
<event>
 5   0  0.3535876E-04  0.1871356E+04  0.7818609E-02  0.8669247E-01
        2   -1    0    0  501    0  0.00000000000E+00  0.00000000000E+00  0.10034845256E+04  0.10034845256E+04  0.25500000920E-02 0. -1.
       -2   -1    0    0    0  501  0.00000000000E+00  0.00000000000E+00 -0.87245306149E+03  0.87245306150E+03  0.25500000920E-02 0.  1.
    10030    2    1    2    0    0  0.00000000000E+00  0.00000000000E+00  0.13103146411E+03  0.18759375871E+04  0.18713558149E+04 0.  0.
        2    1    3    3  502    0  0.91202329066E+03  0.20025811353E+03  0.12569062759E+03  0.94217192095E+03  0.25500000920E-02 0.  1.
       -2    1    3    3    0  502 -0.91202329066E+03 -0.20025811353E+03  0.53408365136E+01  0.93376566616E+03  0.25500000920E-02 0. -1.
</event>
<event>
 5   0  0.3535876E-04  0.1896211E+04  0.7818609E-02  0.8656745E-01
       -2   -1    0    0    0  501  0.00000000000E+00  0.00000000000E+00  0.48949895023E+03  0.48949895023E+03  0.25500000920E-02 0.  1.
        2   -1    0    0  501    0  0.00000000000E+00  0.00000000000E+00 -0.18363748666E+04  0.18363748666E+04  0.25500000920E-02 0. -1.
    10030    2    1    2    0    0  0.00000000000E+00  0.00000000000E+00 -0.13468759164E+04  0.23258738169E+04  0.18962105046E+04 0.  0.
        2    1    3    3  502    0  0.36322902225E+02 -0.91579120738E+03 -0.97115015135E+03  0.13353372253E+04  0.25500000920E-02 0.  1.
       -2    1    3    3    0  502 -0.36322902225E+02  0.91579120738E+03 -0.37572576505E+03  0.99053659158E+03  0.25500000920E-02 0. -1.
</event>
<event>
 5   0  0.1694830E-04  0.1894246E+04  0.7818609E-02  0.8657726E-01
        1   -1    0    0  501    0  0.00000000000E+00  0.00000000000E+00  0.83039698352E+03  0.83039698353E+03  0.50400001928E-02 0.  1.
       -1   -1    0    0    0  501  0.00000000000E+00  0.00000000000E+00 -0.10802567114E+04  0.10802567114E+04  0.50400001928E-02 0. -1.
    10030    2    1    2    0    0  0.00000000000E+00  0.00000000000E+00 -0.24985972790E+03  0.19106536950E+04  0.18942459340E+04 0.  0.
        1    1    3    3  502    0  0.27150815397E+03  0.90654582033E+03 -0.16399403235E+03  0.96043534124E+03  0.50400001928E-02 0. -1.
       -1    1    3    3    0  502 -0.27150815397E+03 -0.90654582033E+03 -0.85865695551E+02  0.95021835371E+03  0.50400001928E-02 0.  1.
</event>
<event>
 5   0  0.3459485E-04  0.1859518E+04  0.7818609E-02  0.8675274E-01
       -2   -1    0    0    0  501  0.00000000000E+00  0.00000000000E+00  0.68072616908E+03  0.68072616909E+03  0.25500000920E-02 0. -1.
        2   -1    0    0  501    0  0.00000000000E+00  0.00000000000E+00 -0.12698960776E+04  0.12698960776E+04  0.25500000920E-02 0.  1.
    10030    2    1    2    0    0  0.00000000000E+00  0.00000000000E+00 -0.58916990854E+03  0.19506222467E+04  0.18595176709E+04 0.  0.
        3    1    3    3  502    0 -0.49876043822E+03 -0.50996855684E+03 -0.92014199383E+03  0.11642556432E+04  0.10100000352E+00 0.  1.
       -3    1    3    3    0  502  0.49876043822E+03  0.50996855684E+03  0.33097208528E+03  0.78636660353E+03  0.10100000352E+00 0. -1.
</event>
<event>
 5   0  0.3535876E-04  0.1906720E+04  0.7818609E-02  0.8651519E-01
        2   -1    0    0  501    0  0.00000000000E+00  0.00000000000E+00  0.15540207875E+04  0.15540207875E+04  0.25500000920E-02 0. -1.
       -2   -1    0    0    0  501  0.00000000000E+00  0.00000000000E+00 -0.58486684968E+03  0.58486684968E+03  0.25500000920E-02 0.  1.
    10030    2    1    2    0    0  0.00000000000E+00  0.00000000000E+00  0.96915393778E+03  0.21388876371E+04  0.19067199504E+04 0.  0.
        2    1    3    3  502    0 -0.65276716889E+03  0.69150510357E+03  0.56074918783E+03  0.11039583039E+04  0.25500000920E-02 0. -1.
       -2    1    3    3    0  502  0.65276716889E+03 -0.69150510357E+03  0.40840474995E+03  0.10349293333E+04  0.25500000920E-02 0.  1.
</event>
<event>
 5   0  0.1782613E-04  0.1915751E+04  0.7818609E-02  0.8647056E-01
       -1   -1    0    0    0  501  0.00000000000E+00  0.00000000000E+00  0.60783604686E+03  0.60783604688E+03  0.50400001928E-02 0. -1.
        1   -1    0    0  501    0  0.00000000000E+00  0.00000000000E+00 -0.15094950718E+04  0.15094950718E+04  0.50400001928E-02 0.  1.
    10030    2    1    2    0    0  0.00000000000E+00  0.00000000000E+00 -0.90165902493E+03  0.21173311187E+04  0.19157510456E+04 0.  0.
        3    1    3    3  502    0  0.27602574571E+03  0.91157472320E+03 -0.56336058595E+03  0.11065865751E+04  0.10100000352E+00 0. -1.
       -3    1    3    3    0  502 -0.27602574571E+03 -0.91157472320E+03 -0.33829843898E+03  0.10107445435E+04  0.10100000352E+00 0.  1.
</event>
<event>
 5   0  0.1782613E-04  0.2019837E+04  0.7818609E-02  0.8597402E-01
        1   -1    0    0  501    0  0.00000000000E+00  0.00000000000E+00  0.13304951301E+04  0.13304951302E+04  0.50400001928E-02 0. -1.
       -1   -1    0    0    0  501  0.00000000000E+00  0.00000000000E+00 -0.76658295809E+03  0.76658295810E+03  0.50400001928E-02 0.  1.
    10030    2    1    2    0    0  0.00000000000E+00  0.00000000000E+00  0.56391217205E+03  0.20970780883E+04  0.20198365207E+04 0.  0.
        3    1    3    3  502    0 -0.64271627480E+03  0.47381168214E+03  0.92394972544E+03  0.12211735443E+04  0.10100000352E+00 0. -1.
       -3    1    3    3    0  502  0.64271627480E+03 -0.47381168214E+03 -0.36003755339E+03  0.87590454393E+03  0.10100000352E+00 0.  1.
</event>
<event>
 5   0  0.1711979E-04  0.1984384E+04  0.7818609E-02  0.8613957E-01
       -1   -1    0    0    0  501  0.00000000000E+00  0.00000000000E+00  0.66854143933E+03  0.66854143935E+03  0.50400001928E-02 0. -1.
        1   -1    0    0  501    0  0.00000000000E+00  0.00000000000E+00 -0.14725257514E+04  0.14725257514E+04  0.50400001928E-02 0.  1.
    10030    2    1    2    0    0  0.00000000000E+00  0.00000000000E+00 -0.80398431209E+03  0.21410671908E+04  0.19843835167E+04 0.  0.
        4    1    3    3  502    0 -0.52919738529E+03  0.46902946329E+03  0.34895384411E+03  0.78854860868E+03  0.12699999809E+01 0. -1.
       -4    1    3    3    0  502  0.52919738529E+03 -0.46902946329E+03 -0.11529381562E+04  0.13525185821E+04  0.12699999809E+01 0.  1.
</event>
<event>
 5   0  0.3459485E-04  0.1946635E+04  0.7818609E-02  0.8631985E-01
       -2   -1    0    0    0  501  0.00000000000E+00  0.00000000000E+00  0.67787389199E+03  0.67787389200E+03  0.25500000920E-02 0. -1.
        2   -1    0    0  501    0  0.00000000000E+00  0.00000000000E+00 -0.13975274506E+04  0.13975274506E+04  0.25500000920E-02 0.  1.
    10030    2    1    2    0    0  0.00000000000E+00  0.00000000000E+00 -0.71965355864E+03  0.20754013426E+04  0.19466354277E+04 0.  0.
        3    1    3    3  502    0 -0.29759422926E+03  0.11570720473E+03 -0.13401014714E+04  0.13776147670E+04  0.10100000352E+00 0.  1.
       -3    1    3    3    0  502  0.29759422926E+03 -0.11570720473E+03  0.62044791272E+03  0.69778657562E+03  0.10100000352E+00 0. -1.
</event>
<event>
 5   0  0.3535876E-04  0.1842813E+04  0.7818609E-02  0.8683858E-01
       -2   -1    0    0    0  501  0.00000000000E+00  0.00000000000E+00  0.98582283802E+03  0.98582283802E+03  0.25500000920E-02 0. -1.
        2   -1    0    0  501    0  0.00000000000E+00  0.00000000000E+00 -0.86119918360E+03  0.86119918360E+03  0.25500000920E-02 0.  1.
    10030    2    1    2    0    0  0.00000000000E+00  0.00000000000E+00  0.12462365442E+03  0.18470220216E+04  0.18428128752E+04 0.  0.
        2    1    3    3  502    0  0.53681022179E+03 -0.34824454456E+03  0.72681207744E+03  0.96834666982E+03  0.25500000920E-02 0. -1.
       -2    1    3    3    0  502 -0.53681022179E+03  0.34824454456E+03 -0.60218842302E+03  0.87867535180E+03  0.25500000920E-02 0.  1.
</event>
<event>
 5   0  0.3516539E-04  0.1988508E+04  0.7818609E-02  0.8612012E-01
       -2   -1    0    0    0  501  0.00000000000E+00  0.00000000000E+00  0.59160590047E+03  0.59160590047E+03  0.25500000920E-02 0.  1.
        2   -1    0    0  501    0  0.00000000000E+00  0.00000000000E+00 -0.16709459585E+04  0.16709459585E+04  0.25500000920E-02 0. -1.
    10030    2    1    2    0    0  0.00000000000E+00  0.00000000000E+00 -0.10793400581E+04  0.22625518590E+04  0.19885084746E+04 0.  0.
        4    1    3    3  502    0  0.92179817500E+02 -0.40893017545E+03  0.48614246508E+03  0.64191675192E+03  0.12699999809E+01 0.  1.
       -4    1    3    3    0  502 -0.92179817500E+02  0.40893017545E+03 -0.15654825231E+04  0.16206351071E+04  0.12699999809E+01 0. -1.
</event>
<event>
 5   0  0.1758946E-04  0.1898981E+04  0.7818609E-02  0.8655364E-01
        1   -1    0    0  501    0  0.00000000000E+00  0.00000000000E+00  0.15720131891E+04  0.15720131891E+04  0.50400001928E-02 0.  1.
       -1   -1    0    0    0  501  0.00000000000E+00  0.00000000000E+00 -0.57348898374E+03  0.57348898376E+03  0.50400001928E-02 0. -1.
    10030    2    1    2    0    0  0.00000000000E+00  0.00000000000E+00  0.99852420539E+03  0.21455021729E+04  0.18989810386E+04 0.  0.
        2    1    3    3  502    0 -0.27962374852E+03  0.62609563424E+03  0.12412925960E+04  0.14180946699E+04  0.25500000920E-02 0.  1.
       -2    1    3    3    0  502  0.27962374852E+03 -0.62609563424E+03 -0.24276839058E+03  0.72740750300E+03  0.25500000920E-02 0. -1.
</event>
<event>
 5   0  0.1287000E-04  0.2053678E+04  0.7818609E-02  0.8581928E-01
        3   -1    0    0  501    0  0.00000000000E+00  0.00000000000E+00  0.77947947072E+03  0.77947947727E+03  0.10100000352E+00 0. -1.
       -3   -1    0    0    0  501  0.00000000000E+00  0.00000000000E+00 -0.13526956230E+04  0.13526956268E+04  0.10100000352E+00 0.  1.
    10030    2    1    2    0    0  0.00000000000E+00  0.00000000000E+00 -0.57321615227E+03  0.21321751040E+04  0.20536781435E+04 0.  0.
        3    1    3    3  502    0  0.10216884134E+04 -0.28492230204E+02 -0.18414729699E+03  0.10385418906E+04  0.10100000352E+00 0. -1.
       -3    1    3    3    0  502 -0.10216884134E+04  0.28492230204E+02 -0.38906885529E+03  0.10936332135E+04  0.10100000352E+00 0.  1.
</event>
<event>
 5   0  0.3459485E-04  0.1915710E+04  0.7818609E-02  0.8647076E-01
        2   -1    0    0  501    0  0.00000000000E+00  0.00000000000E+00  0.10798823048E+04  0.10798823048E+04  0.25500000920E-02 0. -1.
       -2   -1    0    0    0  501  0.00000000000E+00  0.00000000000E+00 -0.84961706281E+03  0.84961706282E+03  0.25500000920E-02 0.  1.
    10030    2    1    2    0    0  0.00000000000E+00  0.00000000000E+00  0.23026524198E+03  0.19294993676E+04  0.19157102411E+04 0.  0.
        3    1    3    3  502    0 -0.19989162137E+03  0.66319215001E+03  0.78148819772E+03  0.10442721396E+04  0.10100000352E+00 0. -1.
       -3    1    3    3    0  502  0.19989162137E+03 -0.66319215001E+03 -0.55122295574E+03  0.88522722804E+03  0.10100000352E+00 0.  1.
</event>
<event>
 5   0  0.3535876E-04  0.1934856E+04  0.7818609E-02  0.8637698E-01
        2   -1    0    0  501    0  0.00000000000E+00  0.00000000000E+00  0.13293083347E+04  0.13293083347E+04  0.25500000920E-02 0. -1.
       -2   -1    0    0    0  501  0.00000000000E+00  0.00000000000E+00 -0.70406325874E+03  0.70406325875E+03  0.25500000920E-02 0.  1.
    10030    2    1    2    0    0  0.00000000000E+00  0.00000000000E+00  0.62524507597E+03  0.20333715935E+04  0.19348562303E+04 0.  0.
        2    1    3    3  502    0  0.69927911008E+03  0.61257230809E+03  0.31257432518E+02  0.93016833612E+03  0.25500000920E-02 0.  1.
       -2    1    3    3    0  502 -0.69927911008E+03 -0.61257230809E+03  0.59398764345E+03  0.11032032573E+04  0.25500000920E-02 0. -1.
</event>
<event>
 5   0  0.1694830E-04  0.1881383E+04  0.7818609E-02  0.8664179E-01
        1   -1    0    0  501    0  0.00000000000E+00  0.00000000000E+00  0.61664162311E+03  0.61664162313E+03  0.50400001928E-02 0. -1.
       -1   -1    0    0    0  501  0.00000000000E+00  0.00000000000E+00 -0.14350321098E+04  0.14350321098E+04  0.50400001928E-02 0.  1.
    10030    2    1    2    0    0  0.00000000000E+00  0.00000000000E+00 -0.81839048671E+03  0.20516737330E+04  0.18813830333E+04 0.  0.
        1    1    3    3  502    0  0.61669344970E+01 -0.21086895842E+03  0.59051298166E+03  0.62706405593E+03  0.50400001928E-02 0. -1.
       -1    1    3    3    0  502 -0.61669344970E+01  0.21086895842E+03 -0.14089034684E+04  0.14246096770E+04  0.50400001928E-02 0.  1.
</event>
<event>
 5   0  0.1782613E-04  0.1917009E+04  0.7818609E-02  0.8646436E-01
        1   -1    0    0  501    0  0.00000000000E+00  0.00000000000E+00  0.15781512232E+04  0.15781512232E+04  0.50400001928E-02 0. -1.
       -1   -1    0    0    0  501  0.00000000000E+00  0.00000000000E+00 -0.58215643117E+03  0.58215643119E+03  0.50400001928E-02 0.  1.
    10030    2    1    2    0    0  0.00000000000E+00  0.00000000000E+00  0.99599479199E+03  0.21603076544E+04  0.19170090078E+04 0.  0.
        3    1    3    3  502    0  0.43260978657E+03  0.33513411010E+03 -0.38881067959E+03  0.67129714281E+03  0.10100000352E+00 0. -1.
       -3    1    3    3    0  502 -0.43260978657E+03 -0.33513411010E+03  0.13848054716E+04  0.14890105116E+04  0.10100000352E+00 0.  1.
</event>
<event>
 5   0  0.1711979E-04  0.2044246E+04  0.7818609E-02  0.8586209E-01
        1   -1    0    0  501    0  0.00000000000E+00  0.00000000000E+00  0.10157744726E+04  0.10157744726E+04  0.50400001928E-02 0.  1.
       -1   -1    0    0    0  501  0.00000000000E+00  0.00000000000E+00 -0.10285109467E+04  0.10285109467E+04  0.50400001928E-02 0. -1.
    10030    2    1    2    0    0  0.00000000000E+00  0.00000000000E+00 -0.12736474104E+02  0.20442854194E+04  0.20442457431E+04 0.  0.
        4    1    3    3  502    0  0.33385367577E+03 -0.42644375678E+03 -0.87323049008E+03  0.10275435058E+04  0.12699999809E+01 0. -1.
       -4    1    3    3    0  502 -0.33385367577E+03  0.42644375678E+03  0.86049401597E+03  0.10167419136E+04  0.12699999809E+01 0.  1.
</event>
<event>
 5   0  0.1694830E-04  0.1542530E+04  0.7818609E-02  0.8856653E-01
       -1   -1    0    0    0  501  0.00000000000E+00  0.00000000000E+00  0.10038146386E+04  0.10038146386E+04  0.50400001928E-02 0.  1.
        1   -1    0    0  501    0  0.00000000000E+00  0.00000000000E+00 -0.59258939429E+03  0.59258939431E+03  0.50400001928E-02 0. -1.
    10030    2    1    2    0    0  0.00000000000E+00  0.00000000000E+00  0.41122524428E+03  0.15964040329E+04  0.15425302703E+04 0.  0.
        1    1    3    3  502    0  0.45933083220E+03 -0.34218549652E+03 -0.32892837416E+03  0.66050708005E+03  0.50400001928E-02 0. -1.
       -1    1    3    3    0  502 -0.45933083220E+03  0.34218549652E+03  0.74015361844E+03  0.93589695285E+03  0.50400001928E-02 0.  1.
</event>
<event>
 5   0  0.3459485E-04  0.1909313E+04  0.7818609E-02  0.8650234E-01
        2   -1    0    0  501    0  0.00000000000E+00  0.00000000000E+00  0.93491104935E+03  0.93491104935E+03  0.25500000920E-02 0.  1.
       -2   -1    0    0    0  501  0.00000000000E+00  0.00000000000E+00 -0.97481924772E+03  0.97481924773E+03  0.25500000920E-02 0. -1.
    10030    2    1    2    0    0  0.00000000000E+00  0.00000000000E+00 -0.39908198376E+02  0.19097302971E+04  0.19093132648E+04 0.  0.
        3    1    3    3  502    0 -0.56152171937E+03  0.32622400352E+03  0.67994193008E+03  0.94023921438E+03  0.10100000352E+00 0.  1.
       -3    1    3    3    0  502  0.56152171937E+03 -0.32622400352E+03 -0.71985012845E+03  0.96949108269E+03  0.10100000352E+00 0. -1.
</event>
<event>
 5   0  0.1758946E-04  0.1940477E+04  0.7818609E-02  0.8634966E-01
        1   -1    0    0  501    0  0.00000000000E+00  0.00000000000E+00  0.14819502228E+04  0.14819502228E+04  0.50400001928E-02 0. -1.
       -1   -1    0    0    0  501  0.00000000000E+00  0.00000000000E+00 -0.63521911423E+03  0.63521911425E+03  0.50400001928E-02 0.  1.
    10030    2    1    2    0    0  0.00000000000E+00  0.00000000000E+00  0.84673110853E+03  0.21171693370E+04  0.19404773721E+04 0.  0.
        2    1    3    3  502    0  0.72970997803E+03 -0.63834191604E+03  0.38245380774E+03  0.10422226100E+04  0.25500000920E-02 0. -1.
       -2    1    3    3    0  502 -0.72970997803E+03  0.63834191604E+03  0.46427730079E+03  0.10749467270E+04  0.25500000920E-02 0.  1.
</event>
<event>
 5   0  0.3720978E-04  0.1924779E+04  0.7818609E-02  0.8642620E-01
        2   -1    0    0  501    0  0.00000000000E+00  0.00000000000E+00  0.26420989039E+04  0.26420989039E+04  0.25500000920E-02 0. -1.
       -2   -1    0    0    0  501  0.00000000000E+00  0.00000000000E+00 -0.35055217907E+03  0.35055217908E+03  0.25500000920E-02 0.  1.
    10030    2    1    2    0    0  0.00000000000E+00  0.00000000000E+00  0.22915467248E+04  0.29926510830E+04  0.19247789775E+04 0.  0.
        1    1    3    3  502    0  0.65986127377E+03 -0.53054817976E+03  0.18570768054E+04  0.20409881266E+04  0.50400001928E-02 0. -1.
       -1    1    3    3    0  502 -0.65986127377E+03  0.53054817976E+03  0.43446991941E+03  0.95166295639E+03  0.50400001928E-02 0.  1.
</event>
<event>
 5   0  0.1758946E-04  0.1818208E+04  0.7818609E-02  0.8696676E-01
       -1   -1    0    0    0  501  0.00000000000E+00  0.00000000000E+00  0.80366930464E+03  0.80366930465E+03  0.50400001928E-02 0.  1.
        1   -1    0    0  501    0  0.00000000000E+00  0.00000000000E+00 -0.10283705293E+04  0.10283705293E+04  0.50400001928E-02 0. -1.
    10030    2    1    2    0    0  0.00000000000E+00  0.00000000000E+00 -0.22470122468E+03  0.18320398340E+04  0.18182077200E+04 0.  0.
        2    1    3    3  502    0  0.78274399206E+03  0.44883447865E+03 -0.22423263418E+03  0.92974234096E+03  0.25500000920E-02 0.  1.
       -2    1    3    3    0  502 -0.78274399206E+03 -0.44883447865E+03 -0.46859049749E+00  0.90229749303E+03  0.25500000920E-02 0. -1.
</event>
<event>
 5   0  0.1782613E-04  0.1908648E+04  0.7818609E-02  0.8650564E-01
       -1   -1    0    0    0  501  0.00000000000E+00  0.00000000000E+00  0.86496547784E+03  0.86496547785E+03  0.50400001928E-02 0. -1.
        1   -1    0    0  501    0  0.00000000000E+00  0.00000000000E+00 -0.10529140214E+04  0.10529140214E+04  0.50400001928E-02 0.  1.
    10030    2    1    2    0    0  0.00000000000E+00  0.00000000000E+00 -0.18794854359E+03  0.19178794993E+04  0.19086479819E+04 0.  0.
        3    1    3    3  502    0 -0.63395192030E+03  0.55423741816E+03 -0.54521208551E+03  0.10031601972E+04  0.10100000352E+00 0.  1.
       -3    1    3    3    0  502  0.63395192030E+03 -0.55423741816E+03  0.35726354192E+03  0.91471930205E+03  0.10100000352E+00 0. -1.
</event>
<event>
 5   0  0.3516539E-04  0.1911458E+04  0.7818609E-02  0.8649174E-01
        2   -1    0    0  501    0  0.00000000000E+00  0.00000000000E+00  0.14512827381E+04  0.14512827381E+04  0.25500000920E-02 0. -1.
       -2   -1    0    0    0  501  0.00000000000E+00  0.00000000000E+00 -0.62938684030E+03  0.62938684031E+03  0.25500000920E-02 0.  1.
    10030    2    1    2    0    0  0.00000000000E+00  0.00000000000E+00  0.82189589783E+03  0.20806695784E+04  0.19114583510E+04 0.  0.
        4    1    3    3  502    0 -0.23274380701E+03 -0.43873228906E+02  0.14188313397E+04  0.14384639458E+04  0.12699999809E+01 0. -1.
       -4    1    3    3    0  502  0.23274380701E+03  0.43873228906E+02 -0.59693544189E+03  0.64220563264E+03  0.12699999809E+01 0.  1.
</event>
<event>
 5   0  0.1711979E-04  0.1898353E+04  0.7818609E-02  0.8655677E-01
       -1   -1    0    0    0  501  0.00000000000E+00  0.00000000000E+00  0.68091457104E+03  0.68091457106E+03  0.50400001928E-02 0. -1.
        1   -1    0    0  501    0  0.00000000000E+00  0.00000000000E+00 -0.13231261291E+04  0.13231261291E+04  0.50400001928E-02 0.  1.
    10030    2    1    2    0    0  0.00000000000E+00  0.00000000000E+00 -0.64221155809E+03  0.20040407002E+04  0.18983528236E+04 0.  0.
        4    1    3    3  502    0  0.65358948945E+03  0.18730884566E+03  0.37808997405E+03  0.77795723903E+03  0.12699999809E+01 0. -1.
       -4    1    3    3    0  502 -0.65358948945E+03 -0.18730884566E+03 -0.10203015321E+04  0.12260834612E+04  0.12699999809E+01 0.  1.
</event>
<event>
 5   0  0.3535876E-04  0.1864119E+04  0.7818609E-02  0.8672926E-01
        2   -1    0    0  501    0  0.00000000000E+00  0.00000000000E+00  0.84657188223E+03  0.84657188223E+03  0.25500000920E-02 0.  1.
       -2   -1    0    0    0  501  0.00000000000E+00  0.00000000000E+00 -0.10261791884E+04  0.10261791884E+04  0.25500000920E-02 0. -1.
    10030    2    1    2    0    0  0.00000000000E+00  0.00000000000E+00 -0.17960730618E+03  0.18727510707E+04  0.18641185017E+04 0.  0.
        2    1    3    3  502    0 -0.20642673805E+02 -0.43576760657E+02 -0.10249253056E+04  0.10260589340E+04  0.25500000920E-02 0. -1.
       -2    1    3    3    0  502  0.20642673805E+02  0.43576760657E+02  0.84531799942E+03  0.84669213661E+03  0.25500000920E-02 0.  1.
</event>
<event>
 5   0  0.1813834E-04  0.1932108E+04  0.7818609E-02  0.8639037E-01
        1   -1    0    0  501    0  0.00000000000E+00  0.00000000000E+00  0.67314998932E+03  0.67314998933E+03  0.50400001928E-02 0.  1.
       -1   -1    0    0    0  501  0.00000000000E+00  0.00000000000E+00 -0.13864080770E+04  0.13864080770E+04  0.50400001928E-02 0. -1.
    10030    2    1    2    0    0  0.00000000000E+00  0.00000000000E+00 -0.71325808768E+03  0.20595580663E+04  0.19321082602E+04 0.  0.
        5    1    3    3  502    0 -0.60909234215E+03  0.60234184483E+03 -0.83266206553E+03  0.11946369259E+04  0.46999998093E+01 0. -1.
       -5    1    3    3    0  502  0.60909234215E+03 -0.60234184483E+03  0.11940397785E+03  0.86492114046E+03  0.46999998093E+01 0.  1.
</event>
<event>
 5   0  0.3459485E-04  0.1926056E+04  0.7818609E-02  0.8641994E-01
       -2   -1    0    0    0  501  0.00000000000E+00  0.00000000000E+00  0.60209816881E+03  0.60209816882E+03  0.25500000920E-02 0. -1.
        2   -1    0    0  501    0  0.00000000000E+00  0.00000000000E+00 -0.15403190812E+04  0.15403190812E+04  0.25500000920E-02 0.  1.
    10030    2    1    2    0    0  0.00000000000E+00  0.00000000000E+00 -0.93822091237E+03  0.21424172500E+04  0.19260563836E+04 0.  0.
        3    1    3    3  502    0 -0.90278315023E+03 -0.29282979107E+03 -0.28750147748E+03  0.99167727242E+03  0.10100000352E+00 0. -1.
       -3    1    3    3    0  502  0.90278315023E+03  0.29282979107E+03 -0.65071943489E+03  0.11507399776E+04  0.10100000352E+00 0.  1.
</event>
<event>
 5   0  0.1758946E-04  0.1877965E+04  0.7818609E-02  0.8665903E-01
        1   -1    0    0  501    0  0.00000000000E+00  0.00000000000E+00  0.82862129942E+03  0.82862129944E+03  0.50400001928E-02 0.  1.
       -1   -1    0    0    0  501  0.00000000000E+00  0.00000000000E+00 -0.10640419011E+04  0.10640419011E+04  0.50400001928E-02 0. -1.
    10030    2    1    2    0    0  0.00000000000E+00  0.00000000000E+00 -0.23542060171E+03  0.18926632006E+04  0.18779646246E+04 0.  0.
        2    1    3    3  502    0 -0.29696034126E+03  0.29548041229E+03 -0.96464093025E+03  0.10516778227E+04  0.25500000920E-02 0. -1.
       -2    1    3    3    0  502  0.29696034126E+03 -0.29548041229E+03  0.72922032854E+03  0.84098537793E+03  0.25500000920E-02 0.  1.
</event>
<event>
 5   0  0.3535876E-04  0.1831192E+04  0.7818609E-02  0.8689885E-01
        2   -1    0    0  501    0  0.00000000000E+00  0.00000000000E+00  0.16092264527E+04  0.16092264527E+04  0.25500000920E-02 0. -1.
       -2   -1    0    0    0  501  0.00000000000E+00  0.00000000000E+00 -0.52094366175E+03  0.52094366176E+03  0.25500000920E-02 0.  1.
    10030    2    1    2    0    0  0.00000000000E+00  0.00000000000E+00  0.10882827909E+04  0.21301701144E+04  0.18311923120E+04 0.  0.
        2    1    3    3  502    0  0.63055285789E+03 -0.63664047960E+03  0.76303494052E+03  0.11769155991E+04  0.25500000920E-02 0. -1.
       -2    1    3    3    0  502 -0.63055285789E+03  0.63664047960E+03  0.32524785039E+03  0.95325451536E+03  0.25500000920E-02 0.  1.
</event>
<event>
 5   0  0.3720978E-04  0.1899540E+04  0.7818609E-02  0.8655085E-01
        2   -1    0    0  501    0  0.00000000000E+00  0.00000000000E+00  0.15530765721E+04  0.15530765721E+04  0.25500000920E-02 0.  1.
       -2   -1    0    0    0  501  0.00000000000E+00  0.00000000000E+00 -0.58082351291E+03  0.58082351291E+03  0.25500000920E-02 0. -1.
    10030    2    1    2    0    0  0.00000000000E+00  0.00000000000E+00  0.97225305915E+03  0.21339000850E+04  0.18995403554E+04 0.  0.
        1    1    3    3  502    0 -0.23662556716E+03  0.30791574453E+03  0.14598162409E+04  0.15105850595E+04  0.50400001928E-02 0.  1.
       -1    1    3    3    0  502  0.23662556716E+03 -0.30791574453E+03 -0.48756318175E+03  0.62331502548E+03  0.50400001928E-02 0. -1.
</event>
<event>
 5   0  0.1782613E-04  0.2170788E+04  0.7818609E-02  0.8530686E-01
       -1   -1    0    0    0  501  0.00000000000E+00  0.00000000000E+00  0.85240254973E+03  0.85240254974E+03  0.50400001928E-02 0. -1.
        1   -1    0    0  501    0  0.00000000000E+00  0.00000000000E+00 -0.13820707253E+04  0.13820707253E+04  0.50400001928E-02 0.  1.
    10030    2    1    2    0    0  0.00000000000E+00  0.00000000000E+00 -0.52966817552E+03  0.22344732750E+04  0.21707884375E+04 0.  0.
        3    1    3    3  502    0  0.62944338318E+03 -0.22480683668E+03  0.61544092033E+03  0.90857284962E+03  0.10100000352E+00 0. -1.
       -3    1    3    3    0  502 -0.62944338318E+03  0.22480683668E+03 -0.11451090959E+04  0.13259004254E+04  0.10100000352E+00 0.  1.
</event>
<event>
 5   0  0.1711979E-04  0.1305948E+04  0.7818609E-02  0.9024861E-01
       -1   -1    0    0    0  501  0.00000000000E+00  0.00000000000E+00  0.46225691819E+03  0.46225691822E+03  0.50400001928E-02 0.  1.
        1   -1    0    0  501    0  0.00000000000E+00  0.00000000000E+00 -0.92237744133E+03  0.92237744134E+03  0.50400001928E-02 0. -1.
    10030    2    1    2    0    0  0.00000000000E+00  0.00000000000E+00 -0.46012052313E+03  0.13846343596E+04  0.13059484729E+04 0.  0.
        4    1    3    3  502    0 -0.41503191051E+02 -0.16400579976E+03 -0.89873662359E+03  0.91452148619E+03  0.12699999809E+01 0. -1.
       -4    1    3    3    0  502  0.41503191051E+02  0.16400579976E+03  0.43861610046E+03  0.47011287337E+03  0.12699999809E+01 0.  1.
</event>
<event>
 5   0  0.3535876E-04  0.1905841E+04  0.7818609E-02  0.8651955E-01
        2   -1    0    0  501    0  0.00000000000E+00  0.00000000000E+00  0.99124955280E+03  0.99124955280E+03  0.25500000920E-02 0.  1.
       -2   -1    0    0    0  501  0.00000000000E+00  0.00000000000E+00 -0.91607308345E+03  0.91607308345E+03  0.25500000920E-02 0. -1.
    10030    2    1    2    0    0  0.00000000000E+00  0.00000000000E+00  0.75176469352E+02  0.19073226363E+04  0.19058405330E+04 0.  0.
        2    1    3    3  502    0  0.61523501589E+03 -0.57393802772E+03 -0.41012758048E+03  0.93601475240E+03  0.25500000920E-02 0. -1.
       -2    1    3    3    0  502 -0.61523501589E+03  0.57393802772E+03  0.48530404983E+03  0.97130788385E+03  0.25500000920E-02 0.  1.
</event>
<event>
 5   0  0.3516539E-04  0.1933442E+04  0.7818609E-02  0.8638387E-01
        2   -1    0    0  501    0  0.00000000000E+00  0.00000000000E+00  0.12257972246E+04  0.12257972246E+04  0.25500000920E-02 0.  1.
       -2   -1    0    0    0  501  0.00000000000E+00  0.00000000000E+00 -0.76240117083E+03  0.76240117083E+03  0.25500000920E-02 0. -1.
    10030    2    1    2    0    0  0.00000000000E+00  0.00000000000E+00  0.46339605378E+03  0.19881983954E+04  0.19334417387E+04 0.  0.
        4    1    3    3  502    0  0.49367626312E+03  0.43843443652E+03  0.95781677237E+03  0.11633381238E+04  0.12699999809E+01 0.  1.
       -4    1    3    3    0  502 -0.49367626312E+03 -0.43843443652E+03 -0.49442071860E+03  0.82486027166E+03  0.12699999809E+01 0. -1.
</event>
<event>
 5   0  0.3459485E-04  0.1801872E+04  0.7818609E-02  0.8705304E-01
       -2   -1    0    0    0  501  0.00000000000E+00  0.00000000000E+00  0.40975865991E+03  0.40975865992E+03  0.25500000920E-02 0. -1.
        2   -1    0    0  501    0  0.00000000000E+00  0.00000000000E+00 -0.19808882353E+04  0.19808882353E+04  0.25500000920E-02 0.  1.
    10030    2    1    2    0    0  0.00000000000E+00  0.00000000000E+00 -0.15711295754E+04  0.23906468952E+04  0.18018724802E+04 0.  0.
        3    1    3    3  502    0 -0.19741108688E+03 -0.65066167993E+03 -0.13690938688E+01  0.67995120676E+03  0.10100000352E+00 0. -1.
       -3    1    3    3    0  502  0.19741108688E+03  0.65066167993E+03 -0.15697604815E+04  0.17106956884E+04  0.10100000352E+00 0.  1.
</event>
<event>
 5   0  0.3623359E-04  0.1905397E+04  0.7818609E-02  0.8652175E-01
        2   -1    0    0  501    0  0.00000000000E+00  0.00000000000E+00  0.26447481618E+04  0.26447481618E+04  0.25500000920E-02 0.  1.
       -2   -1    0    0    0  501  0.00000000000E+00  0.00000000000E+00 -0.34318363672E+03  0.34318363673E+03  0.25500000920E-02 0. -1.
    10030    2    1    2    0    0  0.00000000000E+00  0.00000000000E+00  0.23015645251E+04  0.29879317986E+04  0.19053968536E+04 0.  0.
        5    1    3    3  502    0  0.62426204157E+02 -0.66856741049E+03  0.91000767574E+02  0.67763016685E+03  0.46999998093E+01 0. -1.
       -5    1    3    3    0  502 -0.62426204157E+02  0.66856741049E+03  0.22105637575E+04  0.23103016317E+04  0.46999998093E+01 0.  1.
</event>
<event>
 5   0  0.1711979E-04  0.1913589E+04  0.7818609E-02  0.8648122E-01
        1   -1    0    0  501    0  0.00000000000E+00  0.00000000000E+00  0.10189372878E+04  0.10189372878E+04  0.50400001928E-02 0.  1.
       -1   -1    0    0    0  501  0.00000000000E+00  0.00000000000E+00 -0.89844191536E+03  0.89844191538E+03  0.50400001928E-02 0. -1.
    10030    2    1    2    0    0  0.00000000000E+00  0.00000000000E+00  0.12049537243E+03  0.19173792032E+04  0.19135892647E+04 0.  0.
        4    1    3    3  502    0 -0.17808417507E+02 -0.57724966018E+03 -0.70409998282E+03  0.91065509861E+03  0.12699999809E+01 0. -1.
       -4    1    3    3    0  502  0.17808417507E+02  0.57724966018E+03  0.82459535525E+03  0.10067241046E+04  0.12699999809E+01 0.  1.
</event>
<event>
 5   0  0.1813834E-04  0.1918658E+04  0.7818609E-02  0.8645624E-01
       -1   -1    0    0    0  501  0.00000000000E+00  0.00000000000E+00  0.83396827195E+03  0.83396827196E+03  0.50400001928E-02 0.  1.
        1   -1    0    0  501    0  0.00000000000E+00  0.00000000000E+00 -0.11035342914E+04  0.11035342914E+04  0.50400001928E-02 0. -1.
    10030    2    1    2    0    0  0.00000000000E+00  0.00000000000E+00 -0.26956601947E+03  0.19375025634E+04  0.19186584752E+04 0.  0.
        5    1    3    3  502    0  0.64590296317E+03  0.36202020740E+03  0.48115945108E+03  0.88305479771E+03  0.46999998093E+01 0.  1.
       -5    1    3    3    0  502 -0.64590296317E+03 -0.36202020740E+03 -0.75072547055E+03  0.10544477657E+04  0.46999998093E+01 0. -1.
</event>
<event>
 5   0  0.1694830E-04  0.1874696E+04  0.7818609E-02  0.8667555E-01
       -1   -1    0    0    0  501  0.00000000000E+00  0.00000000000E+00  0.97538605206E+03  0.97538605207E+03  0.50400001928E-02 0.  1.
        1   -1    0    0  501    0  0.00000000000E+00  0.00000000000E+00 -0.90079366758E+03  0.90079366760E+03  0.50400001928E-02 0. -1.
    10030    2    1    2    0    0  0.00000000000E+00  0.00000000000E+00  0.74592384478E+02  0.18761797197E+04  0.18746963265E+04 0.  0.
        1    1    3    3  502    0  0.84770556670E+03 -0.66540227947E+02 -0.35746395441E+03  0.92239514769E+03  0.50400001928E-02 0. -1.
       -1    1    3    3    0  502 -0.84770556670E+03  0.66540227947E+02  0.43205633889E+03  0.95378457198E+03  0.50400001928E-02 0.  1.
</event>
<event>
 5   0  0.3516539E-04  0.1894088E+04  0.7818609E-02  0.8657805E-01
       -2   -1    0    0    0  501  0.00000000000E+00  0.00000000000E+00  0.65076467032E+03  0.65076467033E+03  0.25500000920E-02 0.  1.
        2   -1    0    0  501    0  0.00000000000E+00  0.00000000000E+00 -0.13782128765E+04  0.13782128765E+04  0.25500000920E-02 0. -1.
    10030    2    1    2    0    0  0.00000000000E+00  0.00000000000E+00 -0.72744820620E+03  0.20289775469E+04  0.18940879053E+04 0.  0.
        4    1    3    3  502    0  0.37620560283E+03  0.76318333771E+03 -0.80916351312E+03  0.11741919206E+04  0.12699999809E+01 0. -1.
       -4    1    3    3    0  502 -0.37620560283E+03 -0.76318333771E+03  0.81715306917E+02  0.85478562625E+03  0.12699999809E+01 0.  1.
</event>
<event>
 5   0  0.3516539E-04  0.1918650E+04  0.7818609E-02  0.8645628E-01
        2   -1    0    0  501    0  0.00000000000E+00  0.00000000000E+00  0.19831028829E+04  0.19831028829E+04  0.25500000920E-02 0.  1.
       -2   -1    0    0    0  501  0.00000000000E+00  0.00000000000E+00 -0.46407287982E+03  0.46407287982E+03  0.25500000920E-02 0. -1.
    10030    2    1    2    0    0  0.00000000000E+00  0.00000000000E+00  0.15190300031E+04  0.24471757628E+04  0.19186498022E+04 0.  0.
        4    1    3    3  502    0 -0.83767175923E+03  0.46474061941E+03  0.69416880372E+03  0.11830256804E+04  0.12699999809E+01 0.  1.
       -4    1    3    3    0  502  0.83767175923E+03 -0.46474061941E+03  0.82486119940E+03  0.12641500824E+04  0.12699999809E+01 0. -1.
</event>
<event>
 5   0  0.1287000E-04  0.1902718E+04  0.7818609E-02  0.8653505E-01
       -3   -1    0    0    0  501  0.00000000000E+00  0.00000000000E+00  0.17574420586E+04  0.17574420615E+04  0.10100000352E+00 0. -1.
        3   -1    0    0  501    0  0.00000000000E+00  0.00000000000E+00 -0.51500047843E+03  0.51500048833E+03  0.10100000352E+00 0.  1.
    10030    2    1    2    0    0  0.00000000000E+00  0.00000000000E+00  0.12424415801E+04  0.22724425498E+04  0.19027175466E+04 0.  0.
        2    1    3    3  502    0 -0.52472645088E+03  0.42322371165E+03  0.14229493712E+04  0.15745605963E+04  0.25500000920E-02 0. -1.
       -2    1    3    3    0  502  0.52472645088E+03 -0.42322371165E+03 -0.18050779109E+03  0.69788195349E+03  0.25500000920E-02 0.  1.
</event>
<event>
 5   0  0.3535876E-04  0.1891259E+04  0.7818609E-02  0.8659219E-01
       -2   -1    0    0    0  501  0.00000000000E+00  0.00000000000E+00  0.68914154881E+03  0.68914154881E+03  0.25500000920E-02 0.  1.
        2   -1    0    0  501    0  0.00000000000E+00  0.00000000000E+00 -0.12975787508E+04  0.12975787508E+04  0.25500000920E-02 0. -1.
    10030    2    1    2    0    0  0.00000000000E+00  0.00000000000E+00 -0.60843720202E+03  0.19867202997E+04  0.18912592948E+04 0.  0.
        2    1    3    3  502    0 -0.10738113750E+03  0.87368534032E+03  0.58702816337E+02  0.88221471493E+03  0.25500000920E-02 0.  1.
       -2    1    3    3    0  502  0.10738113750E+03 -0.87368534032E+03 -0.66714001836E+03  0.11045055847E+04  0.25500000920E-02 0. -1.
</event>
<event>
 5   0  0.1758946E-04  0.1883092E+04  0.7818609E-02  0.8663319E-01
        1   -1    0    0  501    0  0.00000000000E+00  0.00000000000E+00  0.19263113590E+04  0.19263113590E+04  0.50400001928E-02 0. -1.
       -1   -1    0    0    0  501  0.00000000000E+00  0.00000000000E+00 -0.46021054532E+03  0.46021054534E+03  0.50400001928E-02 0.  1.
    10030    2    1    2    0    0  0.00000000000E+00  0.00000000000E+00  0.14661008136E+04  0.23865219043E+04  0.18830919266E+04 0.  0.
        2    1    3    3  502    0  0.70692548147E+02 -0.54952174937E+03 -0.23174353296E+03  0.60056361401E+03  0.25500000920E-02 0.  1.
       -2    1    3    3    0  502 -0.70692548147E+02  0.54952174937E+03  0.16978443466E+04  0.17859582903E+04  0.25500000920E-02 0. -1.
</event>
<event>
 5   0  0.1782613E-04  0.1911017E+04  0.7818609E-02  0.8649392E-01
       -1   -1    0    0    0  501  0.00000000000E+00  0.00000000000E+00  0.10374175184E+04  0.10374175184E+04  0.50400001928E-02 0. -1.
        1   -1    0    0  501    0  0.00000000000E+00  0.00000000000E+00 -0.88006640825E+03  0.88006640827E+03  0.50400001928E-02 0.  1.
    10030    2    1    2    0    0  0.00000000000E+00  0.00000000000E+00  0.15735111011E+03  0.19174839266E+04  0.19110168071E+04 0.  0.
        3    1    3    3  502    0  0.70429925749E+02 -0.22994172912E+03 -0.84920400304E+03  0.88259901553E+03  0.10100000352E+00 0.  1.
       -3    1    3    3    0  502 -0.70429925749E+02  0.22994172912E+03  0.10065551132E+04  0.10348849111E+04  0.10100000352E+00 0. -1.
</event>
<event>
 5   0  0.3623359E-04  0.1886826E+04  0.7818609E-02  0.8661442E-01
       -2   -1    0    0    0  501  0.00000000000E+00  0.00000000000E+00  0.34355169893E+03  0.34355169894E+03  0.25500000920E-02 0.  1.
        2   -1    0    0  501    0  0.00000000000E+00  0.00000000000E+00 -0.25906662132E+04  0.25906662132E+04  0.25500000920E-02 0. -1.
    10030    2    1    2    0    0  0.00000000000E+00  0.00000000000E+00 -0.22471145143E+04  0.29342179121E+04  0.18868256718E+04 0.  0.
        5    1    3    3  502    0 -0.86119826451E+03  0.10263972393E+03 -0.17008529466E+04  0.19092197882E+04  0.46999998093E+01 0. -1.
       -5    1    3    3    0  502  0.86119826451E+03 -0.10263972393E+03 -0.54626156765E+03  0.10249981239E+04  0.46999998093E+01 0.  1.
</event>
<event>
 5   0  0.3720978E-04  0.1945849E+04  0.7818609E-02  0.8632365E-01
       -2   -1    0    0    0  501  0.00000000000E+00  0.00000000000E+00  0.12507488916E+04  0.12507488916E+04  0.25500000920E-02 0. -1.
        2   -1    0    0  501    0  0.00000000000E+00  0.00000000000E+00 -0.75681210675E+03  0.75681210676E+03  0.25500000920E-02 0.  1.
    10030    2    1    2    0    0  0.00000000000E+00  0.00000000000E+00  0.49393678480E+03  0.20075609983E+04  0.19458488160E+04 0.  0.
        1    1    3    3  502    0  0.60415635750E+03 -0.61295160663E+03 -0.22114748163E+03  0.88860609104E+03  0.50400001928E-02 0.  1.
       -1    1    3    3    0  502 -0.60415635750E+03  0.61295160663E+03  0.71508426644E+03  0.11189549073E+04  0.50400001928E-02 0. -1.
</event>
<event>
 5   0  0.1711979E-04  0.1877473E+04  0.7818609E-02  0.8666151E-01
       -1   -1    0    0    0  501  0.00000000000E+00  0.00000000000E+00  0.68731941272E+03  0.68731941274E+03  0.50400001928E-02 0.  1.
        1   -1    0    0  501    0  0.00000000000E+00  0.00000000000E+00 -0.12821204646E+04  0.12821204646E+04  0.50400001928E-02 0. -1.
    10030    2    1    2    0    0  0.00000000000E+00  0.00000000000E+00 -0.59480105184E+03  0.19694398773E+04  0.18774730728E+04 0.  0.
        4    1    3    3  502    0 -0.44523046660E+03 -0.66140658935E+03  0.22238770940E+03  0.82773591865E+03  0.12699999809E+01 0. -1.
       -4    1    3    3    0  502  0.44523046660E+03  0.66140658935E+03 -0.81718876124E+03  0.11417039587E+04  0.12699999809E+01 0.  1.
</event>
<event>
 5   0  0.1711979E-04  0.1891713E+04  0.7818609E-02  0.8658992E-01
       -1   -1    0    0    0  501  0.00000000000E+00  0.00000000000E+00  0.10794427738E+04  0.10794427738E+04  0.50400001928E-02 0. -1.
        1   -1    0    0  501    0  0.00000000000E+00  0.00000000000E+00 -0.82880205921E+03  0.82880205923E+03  0.50400001928E-02 0.  1.
    10030    2    1    2    0    0  0.00000000000E+00  0.00000000000E+00  0.25064071454E+03  0.19082448330E+04  0.18917128680E+04 0.  0.
        4    1    3    3  502    0 -0.23730212547E+03  0.11392205241E+03  0.10417487717E+04  0.10744918097E+04  0.12699999809E+01 0. -1.
       -4    1    3    3    0  502  0.23730212547E+03 -0.11392205241E+03 -0.79110805720E+03  0.83375302329E+03  0.12699999809E+01 0.  1.
</event>
<event>
 5   0  0.1813834E-04  0.1940737E+04  0.7818609E-02  0.8634840E-01
        1   -1    0    0  501    0  0.00000000000E+00  0.00000000000E+00  0.11059830860E+04  0.11059830860E+04  0.50400001928E-02 0.  1.
       -1   -1    0    0    0  501  0.00000000000E+00  0.00000000000E+00 -0.85138298798E+03  0.85138298799E+03  0.50400001928E-02 0. -1.
    10030    2    1    2    0    0  0.00000000000E+00  0.00000000000E+00  0.25460009805E+03  0.19573660740E+04  0.19407371635E+04 0.  0.
        5    1    3    3  502    0 -0.51194808406E+03 -0.25837043706E+03 -0.66218865561E+03  0.87599202572E+03  0.46999998093E+01 0. -1.
       -5    1    3    3    0  502  0.51194808406E+03  0.25837043706E+03  0.91678875366E+03  0.10813740483E+04  0.46999998093E+01 0.  1.
</event>
<event>
 5   0  0.3516539E-04  0.1906904E+04  0.7818609E-02  0.8651428E-01
       -2   -1    0    0    0  501  0.00000000000E+00  0.00000000000E+00  0.99581853116E+03  0.99581853116E+03  0.25500000920E-02 0. -1.
        2   -1    0    0  501    0  0.00000000000E+00  0.00000000000E+00 -0.91288760391E+03  0.91288760392E+03  0.25500000920E-02 0.  1.
    10030    2    1    2    0    0  0.00000000000E+00  0.00000000000E+00  0.82930927242E+02  0.19087061351E+04  0.19069036608E+04 0.  0.
        4    1    3    3  502    0 -0.54373766788E+03  0.76241152054E+03 -0.13799930504E+03  0.94655554470E+03  0.12699999809E+01 0.  1.
       -4    1    3    3    0  502  0.54373766788E+03 -0.76241152054E+03  0.22093023228E+03  0.96215059037E+03  0.12699999809E+01 0. -1.
</event>
<event>
 5   0  0.1813834E-04  0.1623596E+04  0.7818609E-02  0.8806182E-01
        1   -1    0    0  501    0  0.00000000000E+00  0.00000000000E+00  0.17658549317E+04  0.17658549317E+04  0.50400001928E-02 0.  1.
       -1   -1    0    0    0  501  0.00000000000E+00  0.00000000000E+00 -0.37319927953E+03  0.37319927956E+03  0.50400001928E-02 0. -1.
    10030    2    1    2    0    0  0.00000000000E+00  0.00000000000E+00  0.13926556521E+04  0.21390542112E+04  0.16235957481E+04 0.  0.
        5    1    3    3  502    0  0.49955746389E+03  0.43204311561E+03  0.13181653171E+04  0.14743814997E+04  0.46999998093E+01 0.  1.
       -5    1    3    3    0  502 -0.49955746389E+03 -0.43204311561E+03  0.74490335074E+02  0.66467271156E+03  0.46999998093E+01 0. -1.
</event>
<event>
 5   0  0.3459485E-04  0.1902304E+04  0.7818609E-02  0.8653710E-01
        2   -1    0    0  501    0  0.00000000000E+00  0.00000000000E+00  0.10500982946E+04  0.10500982946E+04  0.25500000920E-02 0.  1.
       -2   -1    0    0    0  501  0.00000000000E+00  0.00000000000E+00 -0.86152918938E+03  0.86152918939E+03  0.25500000920E-02 0. -1.
    10030    2    1    2    0    0  0.00000000000E+00  0.00000000000E+00  0.18856910521E+03  0.19116274840E+04  0.19023042160E+04 0.  0.
        3    1    3    3  502    0  0.51680952477E+02  0.57378174754E+02 -0.85837390064E+03  0.86184043725E+03  0.10100000352E+00 0. -1.
       -3    1    3    3    0  502 -0.51680952477E+02 -0.57378174754E+02  0.10469430058E+04  0.10497870467E+04  0.10100000352E+00 0.  1.
</event>
<event>
 5   0  0.3459485E-04  0.1554310E+04  0.7818609E-02  0.8849120E-01
        2   -1    0    0  501    0  0.00000000000E+00  0.00000000000E+00  0.23338045272E+04  0.23338045272E+04  0.25500000920E-02 0. -1.
       -2   -1    0    0    0  501  0.00000000000E+00  0.00000000000E+00 -0.25879181362E+03  0.25879181363E+03  0.25500000920E-02 0.  1.
    10030    2    1    2    0    0  0.00000000000E+00  0.00000000000E+00  0.20750127136E+04  0.25925963409E+04  0.15543095010E+04 0.  0.
        3    1    3    3  502    0 -0.68473794282E+02  0.77329099313E+03  0.10976905061E+04  0.13444672097E+04  0.10100000352E+00 0.  1.
       -3    1    3    3    0  502  0.68473794282E+02 -0.77329099313E+03  0.97732220752E+03  0.12481291312E+04  0.10100000352E+00 0. -1.
</event>
<event>
 5   0  0.1287000E-04  0.1900520E+04  0.7818609E-02  0.8654598E-01
       -3   -1    0    0    0  501  0.00000000000E+00  0.00000000000E+00  0.17744349211E+04  0.17744349240E+04  0.10100000352E+00 0. -1.
        3   -1    0    0  501    0  0.00000000000E+00  0.00000000000E+00 -0.50889096786E+03  0.50889097788E+03  0.10100000352E+00 0.  1.
    10030    2    1    2    0    0  0.00000000000E+00  0.00000000000E+00  0.12655439533E+04  0.22833259019E+04  0.19005198438E+04 0.  0.
        1    1    3    3  502    0 -0.20343654582E+03 -0.43894741012E+02 -0.48117390951E+03  0.52425328581E+03  0.50400001928E-02 0.  1.
       -1    1    3    3    0  502  0.20343654582E+03  0.43894741012E+02  0.17467178628E+04  0.17590726161E+04  0.50400001928E-02 0. -1.
</event>
<event>
 5   0  0.1813834E-04  0.1911885E+04  0.7818609E-02  0.8648963E-01
       -1   -1    0    0    0  501  0.00000000000E+00  0.00000000000E+00  0.56179781587E+03  0.56179781589E+03  0.50400001928E-02 0.  1.
        1   -1    0    0  501    0  0.00000000000E+00  0.00000000000E+00 -0.16266107507E+04  0.16266107507E+04  0.50400001928E-02 0. -1.
    10030    2    1    2    0    0  0.00000000000E+00  0.00000000000E+00 -0.10648129348E+04  0.21884085666E+04  0.19118853177E+04 0.  0.
        5    1    3    3  502    0  0.93461872753E+03 -0.13412055770E+03 -0.36146167533E+03  0.10110277556E+04  0.46999998093E+01 0.  1.
       -5    1    3    3    0  502 -0.93461872753E+03  0.13412055770E+03 -0.70335125949E+03  0.11773808110E+04  0.46999998093E+01 0. -1.
</event>
<event>
 5   0  0.3459485E-04  0.1920599E+04  0.7818609E-02  0.8644670E-01
       -2   -1    0    0    0  501  0.00000000000E+00  0.00000000000E+00  0.61560116627E+03  0.61560116627E+03  0.25500000920E-02 0.  1.
        2   -1    0    0  501    0  0.00000000000E+00  0.00000000000E+00 -0.14980076436E+04  0.14980076436E+04  0.25500000920E-02 0. -1.
    10030    2    1    2    0    0  0.00000000000E+00  0.00000000000E+00 -0.88240647732E+03  0.21136088099E+04  0.19205991279E+04 0.  0.
        3    1    3    3  502    0  0.14987255876E+03 -0.73194496198E+03  0.22272432011E+03  0.77962256523E+03  0.10100000352E+00 0.  1.
       -3    1    3    3    0  502 -0.14987255876E+03  0.73194496198E+03 -0.11051307974E+04  0.13339862446E+04  0.10100000352E+00 0. -1.
</event>
<event>
 5   0  0.1287000E-04  0.1896595E+04  0.7818609E-02  0.8656553E-01
        3   -1    0    0  501    0  0.00000000000E+00  0.00000000000E+00  0.59826121164E+03  0.59826122017E+03  0.10100000352E+00 0.  1.
       -3   -1    0    0    0  501  0.00000000000E+00  0.00000000000E+00 -0.15031364803E+04  0.15031364837E+04  0.10100000352E+00 0. -1.
    10030    2    1    2    0    0  0.00000000000E+00  0.00000000000E+00 -0.90487526865E+03  0.21013977039E+04  0.18965951223E+04 0.  0.
        5    1    3    3  502    0  0.35470671115E+03  0.50753691542E+03  0.34333551458E+03  0.70803385302E+03  0.46999998093E+01 0.  1.
       -5    1    3    3    0  502 -0.35470671115E+03 -0.50753691542E+03 -0.12482107832E+04  0.13933638508E+04  0.46999998093E+01 0. -1.
</event>
<event>
 5   0  0.3535876E-04  0.1822021E+04  0.7818609E-02  0.8694676E-01
       -2   -1    0    0    0  501  0.00000000000E+00  0.00000000000E+00  0.82501144899E+03  0.82501144899E+03  0.25500000920E-02 0.  1.
        2   -1    0    0  501    0  0.00000000000E+00  0.00000000000E+00 -0.10059739066E+04  0.10059739066E+04  0.25500000920E-02 0. -1.
    10030    2    1    2    0    0  0.00000000000E+00  0.00000000000E+00 -0.18096245757E+03  0.18309853555E+04  0.18220208454E+04 0.  0.
        2    1    3    3  502    0 -0.51227385147E+03  0.13725297937E+03  0.65389063845E+03  0.84192389579E+03  0.25500000920E-02 0.  1.
       -2    1    3    3    0  502  0.51227385147E+03 -0.13725297937E+03 -0.83485309601E+03  0.98906145976E+03  0.25500000920E-02 0. -1.
</event>
<event>
 5   0  0.3720978E-04  0.1961151E+04  0.7818609E-02  0.8625002E-01
        2   -1    0    0  501    0  0.00000000000E+00  0.00000000000E+00  0.92014603499E+03  0.92014603500E+03  0.25500000920E-02 0. -1.
       -2   -1    0    0    0  501  0.00000000000E+00  0.00000000000E+00 -0.10449740875E+04  0.10449740875E+04  0.25500000920E-02 0.  1.
    10030    2    1    2    0    0  0.00000000000E+00  0.00000000000E+00 -0.12482805249E+03  0.19651201225E+04  0.19611514610E+04 0.  0.
        1    1    3    3  502    0 -0.24231076817E+03  0.50523107210E+03  0.74392294311E+03  0.93134005063E+03  0.50400001928E-02 0. -1.
       -1    1    3    3    0  502  0.24231076817E+03 -0.50523107210E+03 -0.86875099560E+03  0.10337800719E+04  0.50400001928E-02 0.  1.
</event>
<event>
 5   0  0.1694830E-04  0.1859095E+04  0.7818609E-02  0.8675490E-01
        1   -1    0    0  501    0  0.00000000000E+00  0.00000000000E+00  0.11203891119E+04  0.11203891119E+04  0.50400001928E-02 0.  1.
       -1   -1    0    0    0  501  0.00000000000E+00  0.00000000000E+00 -0.77121298229E+03  0.77121298231E+03  0.50400001928E-02 0. -1.
    10030    2    1    2    0    0  0.00000000000E+00  0.00000000000E+00  0.34917612959E+03  0.18916020942E+04  0.18590950791E+04 0.  0.
        1    1    3    3  502    0  0.35955301728E+03  0.83199451995E+03  0.38450932069E+03  0.98455099979E+03  0.50400001928E-02 0.  1.
       -1    1    3    3    0  502 -0.35955301728E+03 -0.83199451995E+03 -0.35333191107E+02  0.90705109441E+03  0.50400001928E-02 0. -1.
</event>
<event>
 5   0  0.3516539E-04  0.1970043E+04  0.7818609E-02  0.8620756E-01
        2   -1    0    0  501    0  0.00000000000E+00  0.00000000000E+00  0.47305377028E+03  0.47305377029E+03  0.25500000920E-02 0. -1.
       -2   -1    0    0    0  501  0.00000000000E+00  0.00000000000E+00 -0.20510726074E+04  0.20510726074E+04  0.25500000920E-02 0.  1.
    10030    2    1    2    0    0  0.00000000000E+00  0.00000000000E+00 -0.15780188372E+04  0.25241263777E+04  0.19700432788E+04 0.  0.
        4    1    3    3  502    0  0.38307711616E+03 -0.21090712860E+03 -0.19198831765E+04  0.19690563522E+04  0.12699999809E+01 0.  1.
       -4    1    3    3    0  502 -0.38307711616E+03  0.21090712860E+03  0.34186433935E+03  0.55507002553E+03  0.12699999809E+01 0. -1.
</event>
<event>
 5   0  0.3516539E-04  0.1866980E+04  0.7818609E-02  0.8671469E-01
       -2   -1    0    0    0  501  0.00000000000E+00  0.00000000000E+00  0.94015458699E+03  0.94015458699E+03  0.25500000920E-02 0.  1.
        2   -1    0    0  501    0  0.00000000000E+00  0.00000000000E+00 -0.92687268498E+03  0.92687268498E+03  0.25500000920E-02 0. -1.
    10030    2    1    2    0    0  0.00000000000E+00  0.00000000000E+00  0.13281902011E+02  0.18670272720E+04  0.18669800281E+04 0.  0.
        4    1    3    3  502    0  0.26058159612E+03  0.55903124571E+03 -0.69407877932E+03  0.92852876462E+03  0.12699999809E+01 0. -1.
       -4    1    3    3    0  502 -0.26058159612E+03 -0.55903124571E+03  0.70736068134E+03  0.93849850736E+03  0.12699999809E+01 0.  1.
</event>
<event>
 5   0  0.3623359E-04  0.1878792E+04  0.7818609E-02  0.8665485E-01
        2   -1    0    0  501    0  0.00000000000E+00  0.00000000000E+00  0.86100302869E+03  0.86100302869E+03  0.25500000920E-02 0. -1.
       -2   -1    0    0    0  501  0.00000000000E+00  0.00000000000E+00 -0.10249269255E+04  0.10249269255E+04  0.25500000920E-02 0.  1.
    10030    2    1    2    0    0  0.00000000000E+00  0.00000000000E+00 -0.16392389678E+03  0.18859299542E+04  0.18787923643E+04 0.  0.
        5    1    3    3  502    0 -0.58371023064E+03  0.53846124426E+02 -0.81879834049E+03  0.10070103529E+04  0.46999998093E+01 0.  1.
       -5    1    3    3    0  502  0.58371023064E+03 -0.53846124426E+02  0.65487444371E+03  0.87891960126E+03  0.46999998093E+01 0. -1.
</event>
<event>
 5   0  0.1711979E-04  0.1852366E+04  0.7818609E-02  0.8678937E-01
        1   -1    0    0  501    0  0.00000000000E+00  0.00000000000E+00  0.89012101703E+03  0.89012101704E+03  0.50400001928E-02 0. -1.
       -1   -1    0    0    0  501  0.00000000000E+00  0.00000000000E+00 -0.96370589659E+03  0.96370589660E+03  0.50400001928E-02 0.  1.
    10030    2    1    2    0    0  0.00000000000E+00  0.00000000000E+00 -0.73584879557E+02  0.18538269136E+04  0.18523659172E+04 0.  0.
        4    1    3    3  502    0  0.24730377821E+03  0.86900473141E+03 -0.24063145378E+03  0.93500454083E+03  0.12699999809E+01 0.  1.
       -4    1    3    3    0  502 -0.24730377821E+03 -0.86900473141E+03  0.16704657423E+03  0.91882237281E+03  0.12699999809E+01 0. -1.
</event>
<event>
 5   0  0.1758946E-04  0.1931522E+04  0.7818609E-02  0.8639323E-01
        1   -1    0    0  501    0  0.00000000000E+00  0.00000000000E+00  0.12303824608E+04  0.12303824608E+04  0.50400001928E-02 0. -1.
       -1   -1    0    0    0  501  0.00000000000E+00  0.00000000000E+00 -0.75805251033E+03  0.75805251034E+03  0.50400001928E-02 0.  1.
    10030    2    1    2    0    0  0.00000000000E+00  0.00000000000E+00  0.47232995049E+03  0.19884349712E+04  0.19315222112E+04 0.  0.
        2    1    3    3  502    0  0.28117444440E+03 -0.38772708849E+03 -0.62717721986E+03  0.78914043646E+03  0.25500000920E-02 0.  1.
       -2    1    3    3    0  502 -0.28117444440E+03  0.38772708849E+03  0.10995071704E+04  0.11992945347E+04  0.25500000920E-02 0. -1.
</event>
<event>
 5   0  0.3459485E-04  0.1925782E+04  0.7818609E-02  0.8642129E-01
       -2   -1    0    0    0  501  0.00000000000E+00  0.00000000000E+00  0.74988930535E+03  0.74988930535E+03  0.25500000920E-02 0.  1.
        2   -1    0    0  501    0  0.00000000000E+00  0.00000000000E+00 -0.12363942017E+04  0.12363942017E+04  0.25500000920E-02 0. -1.
    10030    2    1    2    0    0  0.00000000000E+00  0.00000000000E+00 -0.48650489633E+03  0.19862835070E+04  0.19257817000E+04 0.  0.
        3    1    3    3  502    0 -0.11298764262E+03 -0.10170935142E+03  0.73743332018E+03  0.75294017787E+03  0.10100000352E+00 0.  1.
       -3    1    3    3    0  502  0.11298764262E+03  0.10170935142E+03 -0.12239382165E+04  0.12333433292E+04  0.10100000352E+00 0. -1.
</event>
<event>
 5   0  0.3516539E-04  0.1547881E+04  0.7818609E-02  0.8853222E-01
       -2   -1    0    0    0  501  0.00000000000E+00  0.00000000000E+00  0.68159456460E+03  0.68159456461E+03  0.25500000920E-02 0. -1.
        2   -1    0    0  501    0  0.00000000000E+00  0.00000000000E+00 -0.87879848176E+03  0.87879848176E+03  0.25500000920E-02 0.  1.
    10030    2    1    2    0    0  0.00000000000E+00  0.00000000000E+00 -0.19720391715E+03  0.15603930464E+04  0.15478814794E+04 0.  0.
        4    1    3    3  502    0  0.16219134881E+03 -0.54605968175E+03  0.42955605580E+03  0.71344742458E+03  0.12699999809E+01 0. -1.
       -4    1    3    3    0  502 -0.16219134881E+03  0.54605968175E+03 -0.62675997295E+03  0.84694562179E+03  0.12699999809E+01 0.  1.
</event>
<event>
 5   0  0.3516539E-04  0.1900597E+04  0.7818609E-02  0.8654559E-01
       -2   -1    0    0    0  501  0.00000000000E+00  0.00000000000E+00  0.41779188690E+03  0.41779188691E+03  0.25500000920E-02 0.  1.
        2   -1    0    0  501    0  0.00000000000E+00  0.00000000000E+00 -0.21615245261E+04  0.21615245261E+04  0.25500000920E-02 0. -1.
    10030    2    1    2    0    0  0.00000000000E+00  0.00000000000E+00 -0.17437326392E+04  0.25793164130E+04  0.19005971802E+04 0.  0.
        4    1    3    3  502    0  0.45985636918E+03 -0.44642031146E+03  0.80343089079E+02  0.64592228606E+03  0.12699999809E+01 0.  1.
       -4    1    3    3    0  502 -0.45985636918E+03  0.44642031146E+03 -0.18240757283E+04  0.19333941270E+04  0.12699999809E+01 0. -1.
</event>
<event>
 5   0  0.1782613E-04  0.1924927E+04  0.7818609E-02  0.8642547E-01
       -1   -1    0    0    0  501  0.00000000000E+00  0.00000000000E+00  0.83495579881E+03  0.83495579882E+03  0.50400001928E-02 0. -1.
        1   -1    0    0  501    0  0.00000000000E+00  0.00000000000E+00 -0.11094433368E+04  0.11094433368E+04  0.50400001928E-02 0.  1.
    10030    2    1    2    0    0  0.00000000000E+00  0.00000000000E+00 -0.27448753794E+03  0.19443991356E+04  0.19249271649E+04 0.  0.
        3    1    3    3  502    0 -0.20326935331E+03  0.55942807535E+03 -0.90123984025E+03  0.10800516012E+04  0.10100000352E+00 0.  1.
       -3    1    3    3    0  502  0.20326935331E+03 -0.55942807535E+03  0.62675230230E+03  0.86434753435E+03  0.10100000352E+00 0. -1.
</event>
<event>
 5   0  0.1694830E-04  0.1834259E+04  0.7818609E-02  0.8688290E-01
       -1   -1    0    0    0  501  0.00000000000E+00  0.00000000000E+00  0.59825940533E+03  0.59825940535E+03  0.50400001928E-02 0. -1.
        1   -1    0    0  501    0  0.00000000000E+00  0.00000000000E+00 -0.14059556217E+04  0.14059556217E+04  0.50400001928E-02 0.  1.
    10030    2    1    2    0    0  0.00000000000E+00  0.00000000000E+00 -0.80769621641E+03  0.20042150271E+04  0.18342586232E+04 0.  0.
        1    1    3    3  502    0 -0.84079568375E+03 -0.12442836511E+03 -0.78030977851E+03  0.11538211085E+04  0.50400001928E-02 0.  1.
       -1    1    3    3    0  502  0.84079568375E+03  0.12442836511E+03 -0.27386437899E+02  0.85039391864E+03  0.50400001928E-02 0. -1.
</event>
<event>
 5   0  0.1758946E-04  0.1767782E+04  0.7818609E-02  0.8723623E-01
       -1   -1    0    0    0  501  0.00000000000E+00  0.00000000000E+00  0.75449592538E+03  0.75449592540E+03  0.50400001928E-02 0.  1.
        1   -1    0    0  501    0  0.00000000000E+00  0.00000000000E+00 -0.10354769439E+04  0.10354769439E+04  0.50400001928E-02 0. -1.
    10030    2    1    2    0    0  0.00000000000E+00  0.00000000000E+00 -0.28098101852E+03  0.17899728693E+04  0.17677818135E+04 0.  0.
        2    1    3    3  502    0  0.46701983472E+02  0.88155807865E+03 -0.95921911272E+02  0.88799027830E+03  0.25500000920E-02 0.  1.
       -2    1    3    3    0  502 -0.46701983472E+02 -0.88155807865E+03 -0.18505910725E+03  0.90198259100E+03  0.25500000920E-02 0. -1.
</event>
<event>
 5   0  0.3720978E-04  0.1863513E+04  0.7818609E-02  0.8673234E-01
       -2   -1    0    0    0  501  0.00000000000E+00  0.00000000000E+00  0.71562213246E+03  0.71562213246E+03  0.25500000920E-02 0. -1.
        2   -1    0    0  501    0  0.00000000000E+00  0.00000000000E+00 -0.12131689034E+04  0.12131689034E+04  0.25500000920E-02 0.  1.
    10030    2    1    2    0    0  0.00000000000E+00  0.00000000000E+00 -0.49754677089E+03  0.19287910358E+04  0.18635133674E+04 0.  0.
        1    1    3    3  502    0 -0.56333838151E+03 -0.70319450216E+03 -0.31029430928E+01  0.90102290106E+03  0.50400001928E-02 0. -1.
       -1    1    3    3    0  502  0.56333838151E+03  0.70319450216E+03 -0.49444382780E+03  0.10277681348E+04  0.50400001928E-02 0.  1.
</event>
<event>
 5   0  0.3516539E-04  0.1856450E+04  0.7818609E-02  0.8676843E-01
        2   -1    0    0  501    0  0.00000000000E+00  0.00000000000E+00  0.49627132402E+03  0.49627132403E+03  0.25500000920E-02 0.  1.
       -2   -1    0    0    0  501  0.00000000000E+00  0.00000000000E+00 -0.17361500898E+04  0.17361500898E+04  0.25500000920E-02 0. -1.
    10030    2    1    2    0    0  0.00000000000E+00  0.00000000000E+00 -0.12398787658E+04  0.22324214139E+04  0.18564498418E+04 0.  0.
        4    1    3    3  502    0 -0.28537953702E+03 -0.44978926089E+03 -0.15340521592E+04  0.16239056313E+04  0.12699999809E+01 0. -1.
       -4    1    3    3    0  502  0.28537953702E+03  0.44978926089E+03  0.29417339337E+03  0.60851578257E+03  0.12699999809E+01 0.  1.
</event>
<event>
 5   0  0.1813834E-04  0.1715757E+04  0.7818609E-02  0.8752428E-01
       -1   -1    0    0    0  501  0.00000000000E+00  0.00000000000E+00  0.47738073425E+03  0.47738073427E+03  0.50400001928E-02 0. -1.
        1   -1    0    0  501    0  0.00000000000E+00  0.00000000000E+00 -0.15416527644E+04  0.15416527644E+04  0.50400001928E-02 0.  1.
    10030    2    1    2    0    0  0.00000000000E+00  0.00000000000E+00 -0.10642720302E+04  0.20190334987E+04  0.17157567761E+04 0.  0.
        5    1    3    3  502    0 -0.50976012162E+02  0.13656174720E+03 -0.15269578522E+04  0.15339067889E+04  0.46999998093E+01 0.  1.
       -5    1    3    3    0  502  0.50976012162E+02 -0.13656174720E+03  0.46268582205E+03  0.48512670978E+03  0.46999998093E+01 0. -1.
</event>
<event>
 5   0  0.3720978E-04  0.1925989E+04  0.7818609E-02  0.8642027E-01
        2   -1    0    0  501    0  0.00000000000E+00  0.00000000000E+00  0.10796073468E+04  0.10796073468E+04  0.25500000920E-02 0. -1.
       -2   -1    0    0    0  501  0.00000000000E+00  0.00000000000E+00 -0.85897765027E+03  0.85897765027E+03  0.25500000920E-02 0.  1.
    10030    2    1    2    0    0  0.00000000000E+00  0.00000000000E+00  0.22062969651E+03  0.19385849971E+04  0.19259891816E+04 0.  0.
        1    1    3    3  502    0  0.42214036744E+03 -0.66009981906E+03  0.67381929931E+03  0.10334247477E+04  0.50400001928E-02 0.  1.
       -1    1    3    3    0  502 -0.42214036744E+03  0.66009981906E+03 -0.45318960280E+03  0.90516024938E+03  0.50400001928E-02 0. -1.
</event>
<event>
 5   0  0.1782613E-04  0.1845577E+04  0.7818609E-02  0.8682431E-01
       -1   -1    0    0    0  501  0.00000000000E+00  0.00000000000E+00  0.76945934650E+03  0.76945934651E+03  0.50400001928E-02 0. -1.
        1   -1    0    0  501    0  0.00000000000E+00  0.00000000000E+00 -0.11066712507E+04  0.11066712507E+04  0.50400001928E-02 0.  1.
    10030    2    1    2    0    0  0.00000000000E+00  0.00000000000E+00 -0.33721190416E+03  0.18761305972E+04  0.18455769151E+04 0.  0.
        3    1    3    3  502    0  0.72970886954E+03 -0.19097989828E+02  0.40527406638E+03  0.83491726930E+03  0.10100000352E+00 0. -1.
       -3    1    3    3    0  502 -0.72970886954E+03  0.19097989828E+02 -0.74248597054E+03  0.10412133279E+04  0.10100000352E+00 0.  1.
</event>
<event>
 5   0  0.1813834E-04  0.1917568E+04  0.7818609E-02  0.8646161E-01
       -1   -1    0    0    0  501  0.00000000000E+00  0.00000000000E+00  0.52918751358E+03  0.52918751360E+03  0.50400001928E-02 0.  1.
        1   -1    0    0  501    0  0.00000000000E+00  0.00000000000E+00 -0.17371279690E+04  0.17371279690E+04  0.50400001928E-02 0. -1.
    10030    2    1    2    0    0  0.00000000000E+00  0.00000000000E+00 -0.12079404554E+04  0.22663154826E+04  0.19175676580E+04 0.  0.
        5    1    3    3  502    0  0.15141432907E+03 -0.44757238898E+03  0.38202168507E+03  0.60762653027E+03  0.46999998093E+01 0.  1.
       -5    1    3    3    0  502 -0.15141432907E+03  0.44757238898E+03 -0.15899621405E+04  0.16586889523E+04  0.46999998093E+01 0. -1.
</event>
<event>
 5   0  0.1813834E-04  0.1902099E+04  0.7818609E-02  0.8653812E-01
        1   -1    0    0  501    0  0.00000000000E+00  0.00000000000E+00  0.14097665772E+04  0.14097665772E+04  0.50400001928E-02 0. -1.
       -1   -1    0    0    0  501  0.00000000000E+00  0.00000000000E+00 -0.64159195187E+03  0.64159195189E+03  0.50400001928E-02 0.  1.
    10030    2    1    2    0    0  0.00000000000E+00  0.00000000000E+00  0.76817462534E+03  0.20513585291E+04  0.19020987251E+04 0.  0.
        5    1    3    3  502    0  0.15012963130E+03  0.75152517492E+03  0.99143395289E+03  0.12531130706E+04  0.46999998093E+01 0. -1.
       -5    1    3    3    0  502 -0.15012963130E+03 -0.75152517492E+03 -0.22325932754E+03  0.79824545853E+03  0.46999998093E+01 0.  1.
</event>
<event>
 5   0  0.1287000E-04  0.1903757E+04  0.7818609E-02  0.8652989E-01
        4   -1    0    0  501    0  0.00000000000E+00  0.00000000000E+00  0.61008867431E+03  0.61008999616E+03  0.12699999809E+01 0.  1.
       -4   -1    0    0    0  501  0.00000000000E+00  0.00000000000E+00 -0.14851456054E+04  0.14851461484E+04  0.12699999809E+01 0. -1.
    10030    2    1    2    0    0  0.00000000000E+00  0.00000000000E+00 -0.87505693112E+03  0.20952361446E+04  0.19037567778E+04 0.  0.
        2    1    3    3  502    0  0.51091519426E+03 -0.23508929659E+03  0.40767891067E+03  0.69462465210E+03  0.25500000920E-02 0.  1.
       -2    1    3    3    0  502 -0.51091519426E+03  0.23508929659E+03 -0.12827358418E+04  0.14006114925E+04  0.25500000920E-02 0. -1.
</event>
<event>
 5   0  0.3623359E-04  0.1674705E+04  0.7818609E-02  0.8775924E-01
        2   -1    0    0  501    0  0.00000000000E+00  0.00000000000E+00  0.10976304062E+04  0.10976304062E+04  0.25500000920E-02 0. -1.
       -2   -1    0    0    0  501  0.00000000000E+00  0.00000000000E+00 -0.63879364038E+03  0.63879364038E+03  0.25500000920E-02 0.  1.
    10030    2    1    2    0    0  0.00000000000E+00  0.00000000000E+00  0.45883676578E+03  0.17364240465E+04  0.16747051358E+04 0.  0.
        5    1    3    3  502    0 -0.40060686784E+03 -0.71716903126E+03  0.61205219831E+02  0.82376298223E+03  0.46999998093E+01 0.  1.
       -5    1    3    3    0  502  0.40060686784E+03  0.71716903126E+03  0.39763154595E+03  0.91266106430E+03  0.46999998093E+01 0. -1.
</event>
<event>
 5   0  0.3516539E-04  0.1977023E+04  0.7818609E-02  0.8617439E-01
        2   -1    0    0  501    0  0.00000000000E+00  0.00000000000E+00  0.18752606656E+04  0.18752606656E+04  0.25500000920E-02 0. -1.
       -2   -1    0    0    0  501  0.00000000000E+00  0.00000000000E+00 -0.52107670828E+03  0.52107670829E+03  0.25500000920E-02 0.  1.
    10030    2    1    2    0    0  0.00000000000E+00  0.00000000000E+00  0.13541839573E+04  0.23963373739E+04  0.19770226653E+04 0.  0.
        4    1    3    3  502    0  0.50854030363E+03  0.26192287702E+03 -0.30008151731E+03  0.64596235482E+03  0.12699999809E+01 0.  1.
       -4    1    3    3    0  502 -0.50854030363E+03 -0.26192287702E+03  0.16542654746E+04  0.17503750191E+04  0.12699999809E+01 0. -1.
</event>
<event>
 5   0  0.1694830E-04  0.1941761E+04  0.7818609E-02  0.8634344E-01
        1   -1    0    0  501    0  0.00000000000E+00  0.00000000000E+00  0.17512686968E+04  0.17512686968E+04  0.50400001928E-02 0.  1.
       -1   -1    0    0    0  501  0.00000000000E+00  0.00000000000E+00 -0.53824367865E+03  0.53824367867E+03  0.50400001928E-02 0. -1.
    10030    2    1    2    0    0  0.00000000000E+00  0.00000000000E+00  0.12130250181E+04  0.22895123755E+04  0.19417613712E+04 0.  0.
        1    1    3    3  502    0  0.70868682858E+03 -0.57539896257E+03  0.99630548629E+03  0.13512755489E+04  0.50400001928E-02 0.  1.
       -1    1    3    3    0  502 -0.70868682858E+03  0.57539896257E+03  0.21671953184E+03  0.93823682652E+03  0.50400001928E-02 0. -1.
</event>
<event>
 5   0  0.3623359E-04  0.1858789E+04  0.7818609E-02  0.8675646E-01
        2   -1    0    0  501    0  0.00000000000E+00  0.00000000000E+00  0.11953798958E+04  0.11953798958E+04  0.25500000920E-02 0. -1.
       -2   -1    0    0    0  501  0.00000000000E+00  0.00000000000E+00 -0.72259371310E+03  0.72259371311E+03  0.25500000920E-02 0.  1.
    10030    2    1    2    0    0  0.00000000000E+00  0.00000000000E+00  0.47278618270E+03  0.19179736089E+04  0.18587888503E+04 0.  0.
        5    1    3    3  502    0  0.14716024092E+03 -0.88739508791E+03  0.47755637633E+03  0.10184342694E+04  0.46999998093E+01 0. -1.
       -5    1    3    3    0  502 -0.14716024092E+03  0.88739508791E+03 -0.47701936255E+01  0.89953933950E+03  0.46999998093E+01 0.  1.
</event>
<event>
 5   0  0.1813834E-04  0.1915909E+04  0.7818609E-02  0.8646978E-01
       -1   -1    0    0    0  501  0.00000000000E+00  0.00000000000E+00  0.14390421191E+04  0.14390421191E+04  0.50400001928E-02 0. -1.
        1   -1    0    0  501    0  0.00000000000E+00  0.00000000000E+00 -0.63769995961E+03  0.63769995963E+03  0.50400001928E-02 0.  1.
    10030    2    1    2    0    0  0.00000000000E+00  0.00000000000E+00  0.80134215946E+03  0.20767420787E+04  0.19159092893E+04 0.  0.
        5    1    3    3  502    0 -0.64510138883E+03 -0.66381413215E+03  0.13328552762E+03  0.93519630334E+03  0.46999998093E+01 0.  1.
       -5    1    3    3    0  502  0.64510138883E+03  0.66381413215E+03  0.66805663184E+03  0.11415457754E+04  0.46999998093E+01 0. -1.
</event>
<event>
 5   0  0.3459485E-04  0.1862165E+04  0.7818609E-02  0.8673922E-01
        2   -1    0    0  501    0  0.00000000000E+00  0.00000000000E+00  0.73567380296E+03  0.73567380297E+03  0.25500000920E-02 0. -1.
       -2   -1    0    0    0  501  0.00000000000E+00  0.00000000000E+00 -0.11783953762E+04  0.11783953762E+04  0.25500000920E-02 0.  1.
    10030    2    1    2    0    0  0.00000000000E+00  0.00000000000E+00 -0.44272157325E+03  0.19140691792E+04  0.18621649850E+04 0.  0.
        3    1    3    3  502    0 -0.42101206071E+03 -0.82756217601E+03 -0.15011585822E+03  0.94055573546E+03  0.10100000352E+00 0. -1.
       -3    1    3    3    0  502  0.42101206071E+03  0.82756217601E+03 -0.29260571503E+03  0.97351344371E+03  0.10100000352E+00 0.  1.
</event>
<event>
 5   0  0.3623359E-04  0.1889433E+04  0.7818609E-02  0.8660134E-01
       -2   -1    0    0    0  501  0.00000000000E+00  0.00000000000E+00  0.59262417719E+03  0.59262417720E+03  0.25500000920E-02 0. -1.
        2   -1    0    0  501    0  0.00000000000E+00  0.00000000000E+00 -0.15059951010E+04  0.15059951010E+04  0.25500000920E-02 0.  1.
    10030    2    1    2    0    0  0.00000000000E+00  0.00000000000E+00 -0.91337092379E+03  0.20986192782E+04  0.18894328330E+04 0.  0.
        5    1    3    3  502    0  0.22445471308E+03 -0.75671689444E+03  0.11988807356E+03  0.79837060113E+03  0.46999998093E+01 0. -1.
       -5    1    3    3    0  502 -0.22445471308E+03  0.75671689444E+03 -0.10332589974E+04  0.13002486771E+04  0.46999998093E+01 0.  1.
</event>
<event>
 5   0  0.1711979E-04  0.1827068E+04  0.7818609E-02  0.8692036E-01
        1   -1    0    0  501    0  0.00000000000E+00  0.00000000000E+00  0.16514740099E+04  0.16514740100E+04  0.50400001928E-02 0. -1.
       -1   -1    0    0    0  501  0.00000000000E+00  0.00000000000E+00 -0.50533302485E+03  0.50533302488E+03  0.50400001928E-02 0.  1.
    10030    2    1    2    0    0  0.00000000000E+00  0.00000000000E+00  0.11461409851E+04  0.21568070348E+04  0.18270679866E+04 0.  0.
        4    1    3    3  502    0  0.25709339646E+03  0.69762634694E+03 -0.53541534208E+02  0.74541789839E+03  0.12699999809E+01 0.  1.
       -4    1    3    3    0  502 -0.25709339646E+03 -0.69762634694E+03  0.11996825193E+04  0.14113891364E+04  0.12699999809E+01 0. -1.
</event>
<event>
 5   0  0.3459485E-04  0.1881723E+04  0.7818609E-02  0.8664008E-01
       -2   -1    0    0    0  501  0.00000000000E+00  0.00000000000E+00  0.55044311356E+03  0.55044311356E+03  0.25500000920E-02 0.  1.
        2   -1    0    0  501    0  0.00000000000E+00  0.00000000000E+00 -0.16081958700E+04  0.16081958700E+04  0.25500000920E-02 0. -1.
    10030    2    1    2    0    0  0.00000000000E+00  0.00000000000E+00 -0.10577527565E+04  0.21586389836E+04  0.18817229785E+04 0.  0.
        3    1    3    3  502    0  0.85250733727E+03 -0.36185165850E+03 -0.33858956960E+03  0.98607722300E+03  0.10100000352E+00 0.  1.
       -3    1    3    3    0  502 -0.85250733727E+03  0.36185165850E+03 -0.71916318689E+03  0.11725617606E+04  0.10100000352E+00 0. -1.
</event>
<event>
 5   0  0.3535876E-04  0.1909871E+04  0.7818609E-02  0.8649959E-01
        2   -1    0    0  501    0  0.00000000000E+00  0.00000000000E+00  0.44789811528E+03  0.44789811529E+03  0.25500000920E-02 0.  1.
       -2   -1    0    0    0  501  0.00000000000E+00  0.00000000000E+00 -0.20359574258E+04  0.20359574258E+04  0.25500000920E-02 0. -1.
    10030    2    1    2    0    0  0.00000000000E+00  0.00000000000E+00 -0.15880593105E+04  0.24838555411E+04  0.19098706698E+04 0.  0.
        2    1    3    3  502    0 -0.92320845460E+03  0.83214438423E+02 -0.49557718751E+03  0.10511114319E+04  0.25500000920E-02 0.  1.
       -2    1    3    3    0  502  0.92320845460E+03 -0.83214438423E+02 -0.10924821230E+04  0.14327441092E+04  0.25500000920E-02 0. -1.
</event>
<event>
 5   0  0.3516539E-04  0.1908705E+04  0.7818609E-02  0.8650535E-01
       -2   -1    0    0    0  501  0.00000000000E+00  0.00000000000E+00  0.14633986051E+04  0.14633986051E+04  0.25500000920E-02 0. -1.
        2   -1    0    0  501    0  0.00000000000E+00  0.00000000000E+00 -0.62237939028E+03  0.62237939029E+03  0.25500000920E-02 0.  1.
    10030    2    1    2    0    0  0.00000000000E+00  0.00000000000E+00  0.84101921485E+03  0.20857779954E+04  0.19087054583E+04 0.  0.
        4    1    3    3  502    0 -0.70530935227E+03 -0.37254142440E+03 -0.15206394966E+03  0.81201813586E+03  0.12699999809E+01 0.  1.
       -4    1    3    3    0  502  0.70530935227E+03  0.37254142440E+03  0.99308316451E+03  0.12737598596E+04  0.12699999809E+01 0. -1.
</event>
<event>
 5   0  0.3459485E-04  0.1898368E+04  0.7818609E-02  0.8655669E-01
        2   -1    0    0  501    0  0.00000000000E+00  0.00000000000E+00  0.10547145281E+04  0.10547145281E+04  0.25500000920E-02 0. -1.
       -2   -1    0    0    0  501  0.00000000000E+00  0.00000000000E+00 -0.85421258107E+03  0.85421258108E+03  0.25500000920E-02 0.  1.
    10030    2    1    2    0    0  0.00000000000E+00  0.00000000000E+00  0.20050194706E+03  0.19089271092E+04  0.18983681617E+04 0.  0.
        3    1    3    3  502    0  0.60615271120E+02 -0.64124980713E+03  0.80131953815E+03  0.10280994790E+04  0.10100000352E+00 0. -1.
       -3    1    3    3    0  502 -0.60615271120E+02  0.64124980713E+03 -0.60081759109E+03  0.88082763024E+03  0.10100000352E+00 0.  1.
</event>
<event>
 5   0  0.3720978E-04  0.1876967E+04  0.7818609E-02  0.8666407E-01
       -2   -1    0    0    0  501  0.00000000000E+00  0.00000000000E+00  0.37340340268E+03  0.37340340269E+03  0.25500000920E-02 0. -1.
        2   -1    0    0  501    0  0.00000000000E+00  0.00000000000E+00 -0.23587123756E+04  0.23587123756E+04  0.25500000920E-02 0.  1.
    10030    2    1    2    0    0  0.00000000000E+00  0.00000000000E+00 -0.19853089729E+04  0.27321157783E+04  0.18769669438E+04 0.  0.
        1    1    3    3  502    0 -0.26572835791E+03  0.85718724957E+03 -0.59304036379E+03  0.10756757942E+04  0.50400001928E-02 0. -1.
       -1    1    3    3    0  502  0.26572835791E+03 -0.85718724957E+03 -0.13922686091E+04  0.16564399841E+04  0.50400001928E-02 0.  1.
</event>
<event>
 5   0  0.3720978E-04  0.1894079E+04  0.7818609E-02  0.8657809E-01
       -2   -1    0    0    0  501  0.00000000000E+00  0.00000000000E+00  0.87417107237E+03  0.87417107237E+03  0.25500000920E-02 0. -1.
        2   -1    0    0  501    0  0.00000000000E+00  0.00000000000E+00 -0.10259815773E+04  0.10259815773E+04  0.25500000920E-02 0.  1.
    10030    2    1    2    0    0  0.00000000000E+00  0.00000000000E+00 -0.15181050495E+03  0.19001526497E+04  0.18940785788E+04 0.  0.
        1    1    3    3  502    0  0.38334994773E+03 -0.11269119228E+03  0.78546742962E+03  0.88125794763E+03  0.50400001928E-02 0. -1.
       -1    1    3    3    0  502 -0.38334994773E+03  0.11269119228E+03 -0.93727793456E+03  0.10188947021E+04  0.50400001928E-02 0.  1.
</event>
<event>
 5   0  0.1694830E-04  0.1910214E+04  0.7818609E-02  0.8649789E-01
        1   -1    0    0  501    0  0.00000000000E+00  0.00000000000E+00  0.20318888313E+04  0.20318888313E+04  0.50400001928E-02 0. -1.
       -1   -1    0    0    0  501  0.00000000000E+00  0.00000000000E+00 -0.44895633394E+03  0.44895633397E+03  0.50400001928E-02 0.  1.
    10030    2    1    2    0    0  0.00000000000E+00  0.00000000000E+00  0.15829324973E+04  0.24808451652E+04  0.19102139783E+04 0.  0.
        1    1    3    3  502    0 -0.80055434547E+03  0.44463498675E+03  0.43903052357E+03  0.10155468144E+04  0.50400001928E-02 0.  1.
       -1    1    3    3    0  502  0.80055434547E+03 -0.44463498675E+03  0.11439019737E+04  0.14652983509E+04  0.50400001928E-02 0. -1.
</event>
<event>
 5   0  0.1758946E-04  0.1845559E+04  0.7818609E-02  0.8682440E-01
       -1   -1    0    0    0  501  0.00000000000E+00  0.00000000000E+00  0.80233188730E+03  0.80233188732E+03  0.50400001928E-02 0.  1.
        1   -1    0    0  501    0  0.00000000000E+00  0.00000000000E+00 -0.10613094901E+04  0.10613094901E+04  0.50400001928E-02 0. -1.
    10030    2    1    2    0    0  0.00000000000E+00  0.00000000000E+00 -0.25897760276E+03  0.18636413774E+04  0.18455594774E+04 0.  0.
        2    1    3    3  502    0 -0.57470352964E+03 -0.13464257253E+03 -0.84574044852E+03  0.10313533224E+04  0.25500000920E-02 0. -1.
       -2    1    3    3    0  502  0.57470352964E+03  0.13464257253E+03  0.58676284576E+03  0.83228805500E+03  0.25500000920E-02 0.  1.
</event>
<event>
 5   0  0.3720978E-04  0.1900481E+04  0.7818609E-02  0.8654617E-01
       -2   -1    0    0    0  501  0.00000000000E+00  0.00000000000E+00  0.11566312256E+04  0.11566312256E+04  0.25500000920E-02 0. -1.
        2   -1    0    0  501    0  0.00000000000E+00  0.00000000000E+00 -0.78067814862E+03  0.78067814862E+03  0.25500000920E-02 0.  1.
    10030    2    1    2    0    0  0.00000000000E+00  0.00000000000E+00  0.37595307700E+03  0.19373093742E+04  0.19004807011E+04 0.  0.
        1    1    3    3  502    0  0.80439940221E+03 -0.50576476782E+03  0.19818688570E+03  0.97063610088E+03  0.50400001928E-02 0.  1.
       -1    1    3    3    0  502 -0.80439940221E+03  0.50576476782E+03  0.17776619130E+03  0.96667327336E+03  0.50400001928E-02 0. -1.
</event>
<event>
 5   0  0.1813834E-04  0.1853836E+04  0.7818609E-02  0.8678182E-01
        1   -1    0    0  501    0  0.00000000000E+00  0.00000000000E+00  0.11374838817E+04  0.11374838817E+04  0.50400001928E-02 0.  1.
       -1   -1    0    0    0  501  0.00000000000E+00  0.00000000000E+00 -0.75533150360E+03  0.75533150362E+03  0.50400001928E-02 0. -1.
    10030    2    1    2    0    0  0.00000000000E+00  0.00000000000E+00  0.38215237807E+03  0.18928153853E+04  0.18538364660E+04 0.  0.
        5    1    3    3  502    0 -0.76523615055E+03  0.45188737191E+03  0.45998964513E+03  0.10007003181E+04  0.46999998093E+01 0.  1.
       -5    1    3    3    0  502  0.76523615055E+03 -0.45188737191E+03 -0.77837267062E+02  0.89211506721E+03  0.46999998093E+01 0. -1.
</event>
<event>
 5   0  0.3623359E-04  0.1683423E+04  0.7818609E-02  0.8770876E-01
       -2   -1    0    0    0  501  0.00000000000E+00  0.00000000000E+00  0.42593162409E+03  0.42593162410E+03  0.25500000920E-02 0. -1.
        2   -1    0    0  501    0  0.00000000000E+00  0.00000000000E+00 -0.16633619003E+04  0.16633619003E+04  0.25500000920E-02 0.  1.
    10030    2    1    2    0    0  0.00000000000E+00  0.00000000000E+00 -0.12374302762E+04  0.20892935244E+04  0.16834232215E+04 0.  0.
        5    1    3    3  502    0 -0.40476818941E+03 -0.60929627907E+01  0.29716314145E+03  0.50219760452E+03  0.46999998093E+01 0. -1.
       -5    1    3    3    0  502  0.40476818941E+03  0.60929627907E+01 -0.15345934176E+04  0.15870959198E+04  0.46999998093E+01 0.  1.
</event>
<event>
 5   0  0.1782613E-04  0.1903247E+04  0.7818609E-02  0.8653242E-01
       -1   -1    0    0    0  501  0.00000000000E+00  0.00000000000E+00  0.64234590878E+03  0.64234590880E+03  0.50400001928E-02 0. -1.
        1   -1    0    0  501    0  0.00000000000E+00  0.00000000000E+00 -0.14098122616E+04  0.14098122616E+04  0.50400001928E-02 0.  1.
    10030    2    1    2    0    0  0.00000000000E+00  0.00000000000E+00 -0.76746635278E+03  0.20521581704E+04  0.19032468452E+04 0.  0.
        3    1    3    3  502    0 -0.93106926734E+03 -0.86654846749E+02 -0.19331426939E+03  0.95486620006E+03  0.10100000352E+00 0. -1.
       -3    1    3    3    0  502  0.93106926734E+03  0.86654846749E+02 -0.57415208339E+03  0.10972919703E+04  0.10100000352E+00 0.  1.
</event>
<event>
 5   0  0.3535876E-04  0.1914593E+04  0.7818609E-02  0.8647627E-01
       -2   -1    0    0    0  501  0.00000000000E+00  0.00000000000E+00  0.65270359585E+03  0.65270359585E+03  0.25500000920E-02 0. -1.
        2   -1    0    0  501    0  0.00000000000E+00  0.00000000000E+00 -0.14040310782E+04  0.14040310782E+04  0.25500000920E-02 0.  1.
    10030    2    1    2    0    0  0.00000000000E+00  0.00000000000E+00 -0.75132748231E+03  0.20567346740E+04  0.19145925242E+04 0.  0.
        2    1    3    3  502    0 -0.60438217422E+03 -0.68626615724E+03 -0.71486277006E+02  0.91725096833E+03  0.25500000920E-02 0.  1.
       -2    1    3    3    0  502  0.60438217422E+03  0.68626615724E+03 -0.67984120530E+03  0.11394837057E+04  0.25500000920E-02 0. -1.
</event>
<event>
 5   0  0.1711979E-04  0.1887199E+04  0.7818609E-02  0.8661255E-01
        1   -1    0    0  501    0  0.00000000000E+00  0.00000000000E+00  0.11621589081E+04  0.11621589081E+04  0.50400001928E-02 0. -1.
       -1   -1    0    0    0  501  0.00000000000E+00  0.00000000000E+00 -0.76614309859E+03  0.76614309861E+03  0.50400001928E-02 0.  1.
    10030    2    1    2    0    0  0.00000000000E+00  0.00000000000E+00  0.39601580952E+03  0.19283020067E+04  0.18871990112E+04 0.  0.
        4    1    3    3  502    0 -0.47579138118E+03 -0.80906377360E+03  0.98854255914E+02  0.94378779658E+03  0.12699999809E+01 0.  1.
       -4    1    3    3    0  502  0.47579138118E+03  0.80906377360E+03  0.29716155361E+03  0.98451421016E+03  0.12699999809E+01 0. -1.
</event>
<event>
 5   0  0.1813834E-04  0.1887243E+04  0.7818609E-02  0.8661232E-01
       -1   -1    0    0    0  501  0.00000000000E+00  0.00000000000E+00  0.50979247440E+03  0.50979247443E+03  0.50400001928E-02 0.  1.
        1   -1    0    0  501    0  0.00000000000E+00  0.00000000000E+00 -0.17466358076E+04  0.17466358076E+04  0.50400001928E-02 0. -1.
    10030    2    1    2    0    0  0.00000000000E+00  0.00000000000E+00 -0.12368433332E+04  0.22564282820E+04  0.18872432703E+04 0.  0.
        5    1    3    3  502    0  0.13115397042E+03  0.16718273780E+03  0.48080130075E+03  0.52568375719E+03  0.46999998093E+01 0.  1.
       -5    1    3    3    0  502 -0.13115397042E+03 -0.16718273780E+03 -0.17176446340E+04  0.17307445249E+04  0.46999998093E+01 0. -1.
</event>
<event>
 5   0  0.1694830E-04  0.1948518E+04  0.7818609E-02  0.8631076E-01
        1   -1    0    0  501    0  0.00000000000E+00  0.00000000000E+00  0.18151655700E+04  0.18151655700E+04  0.50400001928E-02 0. -1.
       -1   -1    0    0    0  501  0.00000000000E+00  0.00000000000E+00 -0.52291681797E+03  0.52291681799E+03  0.50400001928E-02 0.  1.
    10030    2    1    2    0    0  0.00000000000E+00  0.00000000000E+00  0.12922487520E+04  0.23380823880E+04  0.19485180050E+04 0.  0.
        1    1    3    3  502    0 -0.52859319154E+03 -0.46835156542E+03  0.14514334763E+04  0.16141323017E+04  0.50400001928E-02 0. -1.
       -1    1    3    3    0  502  0.52859319154E+03  0.46835156542E+03 -0.15918472434E+03  0.72395008631E+03  0.50400001928E-02 0.  1.
</event>
<event>
 5   0  0.1758946E-04  0.1925727E+04  0.7818609E-02  0.8642155E-01
        1   -1    0    0  501    0  0.00000000000E+00  0.00000000000E+00  0.14774552092E+04  0.14774552092E+04  0.50400001928E-02 0.  1.
       -1   -1    0    0    0  501  0.00000000000E+00  0.00000000000E+00 -0.62750198727E+03  0.62750198729E+03  0.50400001928E-02 0. -1.
    10030    2    1    2    0    0  0.00000000000E+00  0.00000000000E+00  0.84995322193E+03  0.21049571965E+04  0.19257269588E+04 0.  0.
        2    1    3    3  502    0  0.19407982265E+03  0.88626444554E+03  0.77743823922E+03  0.11947978326E+04  0.25500000920E-02 0. -1.
       -2    1    3    3    0  502 -0.19407982265E+03 -0.88626444554E+03  0.72514982712E+02  0.91015936391E+03  0.25500000920E-02 0.  1.
</event>
<event>
 5   0  0.3459485E-04  0.1938986E+04  0.7818609E-02  0.8635690E-01
        2   -1    0    0  501    0  0.00000000000E+00  0.00000000000E+00  0.66513583261E+03  0.66513583262E+03  0.25500000920E-02 0. -1.
       -2   -1    0    0    0  501  0.00000000000E+00  0.00000000000E+00 -0.14131206108E+04  0.14131206108E+04  0.25500000920E-02 0.  1.
    10030    2    1    2    0    0  0.00000000000E+00  0.00000000000E+00 -0.74798477822E+03  0.20782564435E+04  0.19389864920E+04 0.  0.
        3    1    3    3  502    0  0.85176112602E+03  0.46249557724E+03 -0.34959876747E+03  0.10303487192E+04  0.10100000352E+00 0.  1.
       -3    1    3    3    0  502 -0.85176112602E+03 -0.46249557724E+03 -0.39838601075E+03  0.10479077242E+04  0.10100000352E+00 0. -1.
</event>
<event>
 5   0  0.3720978E-04  0.1867834E+04  0.7818609E-02  0.8671035E-01
       -2   -1    0    0    0  501  0.00000000000E+00  0.00000000000E+00  0.44991861160E+03  0.44991861161E+03  0.25500000920E-02 0.  1.
        2   -1    0    0  501    0  0.00000000000E+00  0.00000000000E+00 -0.19385756478E+04  0.19385756478E+04  0.25500000920E-02 0. -1.
    10030    2    1    2    0    0  0.00000000000E+00  0.00000000000E+00 -0.14886570362E+04  0.23884942594E+04  0.18678343224E+04 0.  0.
        1    1    3    3  502    0 -0.34689028760E+03  0.14389263184E+03  0.34910666340E+03  0.51275083967E+03  0.50400001928E-02 0.  1.
       -1    1    3    3    0  502  0.34689028760E+03 -0.14389263184E+03 -0.18377636996E+04  0.18757434197E+04  0.50400001928E-02 0. -1.
</event>
<event>
 5   0  0.1758946E-04  0.1928897E+04  0.7818609E-02  0.8640605E-01
        1   -1    0    0  501    0  0.00000000000E+00  0.00000000000E+00  0.11991100626E+04  0.11991100626E+04  0.50400001928E-02 0. -1.
       -1   -1    0    0    0  501  0.00000000000E+00  0.00000000000E+00 -0.77570923274E+03  0.77570923275E+03  0.50400001928E-02 0.  1.
    10030    2    1    2    0    0  0.00000000000E+00  0.00000000000E+00  0.42340082984E+03  0.19748192953E+04  0.19288968315E+04 0.  0.
        2    1    3    3  502    0  0.36412859623E+03 -0.31591840960E+03 -0.64351096812E+03  0.80405251210E+03  0.25500000920E-02 0.  1.
       -2    1    3    3    0  502 -0.36412859623E+03  0.31591840960E+03  0.10669117980E+04  0.11707667832E+04  0.25500000920E-02 0. -1.
</event>
<event>
 5   0  0.1711979E-04  0.1736729E+04  0.7818609E-02  0.8740689E-01
        1   -1    0    0  501    0  0.00000000000E+00  0.00000000000E+00  0.90913537297E+03  0.90913537298E+03  0.50400001928E-02 0.  1.
       -1   -1    0    0    0  501  0.00000000000E+00  0.00000000000E+00 -0.82942215621E+03  0.82942215622E+03  0.50400001928E-02 0. -1.
    10030    2    1    2    0    0  0.00000000000E+00  0.00000000000E+00  0.79713216761E+02  0.17385575292E+04  0.17367291342E+04 0.  0.
        4    1    3    3  502    0  0.80484450600E+03  0.17582099533E+03  0.31467742657E+03  0.88187935508E+03  0.12699999809E+01 0.  1.
       -4    1    3    3    0  502 -0.80484450600E+03 -0.17582099533E+03 -0.23496420981E+03  0.85667817412E+03  0.12699999809E+01 0. -1.
</event>
<event>
 5   0  0.1782613E-04  0.1876785E+04  0.7818609E-02  0.8666499E-01
       -1   -1    0    0    0  501  0.00000000000E+00  0.00000000000E+00  0.90590403704E+03  0.90590403705E+03  0.50400001928E-02 0. -1.
        1   -1    0    0  501    0  0.00000000000E+00  0.00000000000E+00 -0.97204585534E+03  0.97204585535E+03  0.50400001928E-02 0.  1.
    10030    2    1    2    0    0  0.00000000000E+00  0.00000000000E+00 -0.66141818303E+02  0.18779498924E+04  0.18767847661E+04 0.  0.
        3    1    3    3  502    0 -0.30099027440E+03 -0.81770009541E+03  0.31550100940E+03  0.92669816470E+03  0.10100000352E+00 0. -1.
       -3    1    3    3    0  502  0.30099027440E+03  0.81770009541E+03 -0.38164282771E+03  0.95125172771E+03  0.10100000352E+00 0.  1.
</event>
<event>
 5   0  0.1711979E-04  0.1885559E+04  0.7818609E-02  0.8662078E-01
       -1   -1    0    0    0  501  0.00000000000E+00  0.00000000000E+00  0.10341682597E+04  0.10341682598E+04  0.50400001928E-02 0. -1.
        1   -1    0    0  501    0  0.00000000000E+00  0.00000000000E+00 -0.85946646558E+03  0.85946646559E+03  0.50400001928E-02 0.  1.
    10030    2    1    2    0    0  0.00000000000E+00  0.00000000000E+00  0.17470179416E+03  0.18936347253E+04  0.18855587384E+04 0.  0.
        4    1    3    3  502    0 -0.88577102818E+03  0.29134842389E+03  0.22707662344E+03  0.95970809326E+03  0.12699999809E+01 0.  1.
       -4    1    3    3    0  502  0.88577102818E+03 -0.29134842389E+03 -0.52374829279E+02  0.93392663208E+03  0.12699999809E+01 0. -1.
</event>
<event>
 5   0  0.3535876E-04  0.1897469E+04  0.7818609E-02  0.8656117E-01
       -2   -1    0    0    0  501  0.00000000000E+00  0.00000000000E+00  0.33345521622E+03  0.33345521623E+03  0.25500000920E-02 0. -1.
        2   -1    0    0  501    0  0.00000000000E+00  0.00000000000E+00 -0.26993032118E+04  0.26993032118E+04  0.25500000920E-02 0.  1.
    10030    2    1    2    0    0  0.00000000000E+00  0.00000000000E+00 -0.23658479955E+04  0.30327584280E+04  0.18974685622E+04 0.  0.
        2    1    3    3  502    0  0.61450432109E+02 -0.76185388980E+03 -0.20812573287E+04  0.22171670152E+04  0.25500000920E-02 0.  1.
       -2    1    3    3    0  502 -0.61450432109E+02  0.76185388980E+03 -0.28459066688E+03  0.81559141283E+03  0.25500000920E-02 0. -1.
</event>
<event>
 5   0  0.3720978E-04  0.1989629E+04  0.7818609E-02  0.8611485E-01
       -2   -1    0    0    0  501  0.00000000000E+00  0.00000000000E+00  0.81287724090E+03  0.81287724091E+03  0.25500000920E-02 0. -1.
        2   -1    0    0  501    0  0.00000000000E+00  0.00000000000E+00 -0.12174724376E+04  0.12174724376E+04  0.25500000920E-02 0.  1.
    10030    2    1    2    0    0  0.00000000000E+00  0.00000000000E+00 -0.40459519666E+03  0.20303496785E+04  0.19896287452E+04 0.  0.
        1    1    3    3  502    0  0.31790595684E+02  0.98653019791E+03 -0.32894717531E+03  0.10404127631E+04  0.50400001928E-02 0.  1.
       -1    1    3    3    0  502 -0.31790595684E+02 -0.98653019791E+03 -0.75648021349E+02  0.98993691542E+03  0.50400001928E-02 0. -1.
</event>
<event>
 5   0  0.1694830E-04  0.1855984E+04  0.7818609E-02  0.8677082E-01
        1   -1    0    0  501    0  0.00000000000E+00  0.00000000000E+00  0.21941803794E+04  0.21941803794E+04  0.50400001928E-02 0.  1.
       -1   -1    0    0    0  501  0.00000000000E+00  0.00000000000E+00 -0.39247868517E+03  0.39247868520E+03  0.50400001928E-02 0. -1.
    10030    2    1    2    0    0  0.00000000000E+00  0.00000000000E+00  0.18017016943E+04  0.25866590646E+04  0.18559838689E+04 0.  0.
        1    1    3    3  502    0 -0.62108004950E+03  0.24913715649E+03  0.48078731527E+01  0.66920315772E+03  0.50400001928E-02 0. -1.
       -1    1    3    3    0  502  0.62108004950E+03 -0.24913715649E+03  0.17968938211E+04  0.19174559069E+04  0.50400001928E-02 0.  1.
</event>
<event>
 5   0  0.3535876E-04  0.1898400E+04  0.7818609E-02  0.8655653E-01
        2   -1    0    0  501    0  0.00000000000E+00  0.00000000000E+00  0.11281269780E+04  0.11281269780E+04  0.25500000920E-02 0. -1.
       -2   -1    0    0    0  501  0.00000000000E+00  0.00000000000E+00 -0.79865151221E+03  0.79865151222E+03  0.25500000920E-02 0.  1.
    10030    2    1    2    0    0  0.00000000000E+00  0.00000000000E+00  0.32947546580E+03  0.19267784902E+04  0.18983996597E+04 0.  0.
        2    1    3    3  502    0 -0.61300946725E+03  0.47658589542E+03  0.71885293634E+03  0.10581418935E+04  0.25500000920E-02 0. -1.
       -2    1    3    3    0  502  0.61300946725E+03 -0.47658589542E+03 -0.38937747054E+03  0.86863659675E+03  0.25500000920E-02 0.  1.
</event>
<event>
 5   0  0.1782613E-04  0.1685769E+04  0.7818609E-02  0.8769523E-01
        1   -1    0    0  501    0  0.00000000000E+00  0.00000000000E+00  0.95991313514E+03  0.95991313515E+03  0.50400001928E-02 0. -1.
       -1   -1    0    0    0  501  0.00000000000E+00  0.00000000000E+00 -0.74012333663E+03  0.74012333665E+03  0.50400001928E-02 0.  1.
    10030    2    1    2    0    0  0.00000000000E+00  0.00000000000E+00  0.21978979850E+03  0.17000364718E+04  0.16857688009E+04 0.  0.
        3    1    3    3  502    0  0.91873482117E+02  0.23391403661E+03  0.92125233645E+03  0.95491486053E+03  0.10100000352E+00 0. -1.
       -3    1    3    3    0  502 -0.91873482117E+02 -0.23391403661E+03 -0.70146253795E+03  0.74512161127E+03  0.10100000352E+00 0.  1.
</event>
<event>
 5   0  0.3720978E-04  0.1918071E+04  0.7818609E-02  0.8645913E-01
        2   -1    0    0  501    0  0.00000000000E+00  0.00000000000E+00  0.49500116171E+03  0.49500116172E+03  0.25500000920E-02 0.  1.
       -2   -1    0    0    0  501  0.00000000000E+00  0.00000000000E+00 -0.18580754887E+04  0.18580754887E+04  0.25500000920E-02 0. -1.
    10030    2    1    2    0    0  0.00000000000E+00  0.00000000000E+00 -0.13630743270E+04  0.23530766504E+04  0.19180714538E+04 0.  0.
        1    1    3    3  502    0 -0.73781567278E+03 -0.15347537955E+03  0.46130915178E+02  0.75501968219E+03  0.50400001928E-02 0.  1.
       -1    1    3    3    0  502  0.73781567278E+03  0.15347537955E+03 -0.14092052422E+04  0.15980569682E+04  0.50400001928E-02 0. -1.
</event>
<event>
 5   0  0.1782613E-04  0.1939940E+04  0.7818609E-02  0.8635227E-01
       -1   -1    0    0    0  501  0.00000000000E+00  0.00000000000E+00  0.91484134999E+03  0.91484135001E+03  0.50400001928E-02 0. -1.
        1   -1    0    0  501    0  0.00000000000E+00  0.00000000000E+00 -0.10284207904E+04  0.10284207904E+04  0.50400001928E-02 0.  1.
    10030    2    1    2    0    0  0.00000000000E+00  0.00000000000E+00 -0.11357944042E+03  0.19432621404E+04  0.19399400653E+04 0.  0.
        3    1    3    3  502    0  0.81351682086E+03 -0.91675109183E+02 -0.57789967470E+03  0.10020888123E+04  0.10100000352E+00 0.  1.
       -3    1    3    3    0  502 -0.81351682086E+03  0.91675109183E+02  0.46432023429E+03  0.94117332816E+03  0.10100000352E+00 0. -1.
</event>
<event>
 5   0  0.3623359E-04  0.1944950E+04  0.7818609E-02  0.8632800E-01
       -2   -1    0    0    0  501  0.00000000000E+00  0.00000000000E+00  0.58770050496E+03  0.58770050496E+03  0.25500000920E-02 0. -1.
        2   -1    0    0  501    0  0.00000000000E+00  0.00000000000E+00 -0.16091659063E+04  0.16091659063E+04  0.25500000920E-02 0.  1.
    10030    2    1    2    0    0  0.00000000000E+00  0.00000000000E+00 -0.10214654013E+04  0.21968664113E+04  0.19449499898E+04 0.  0.
        5    1    3    3  502    0 -0.95595530799E+03 -0.17642569360E+03 -0.54080750754E+03  0.11124169301E+04  0.46999998093E+01 0. -1.
       -5    1    3    3    0  502  0.95595530799E+03  0.17642569360E+03 -0.48065789379E+03  0.10844494811E+04  0.46999998093E+01 0.  1.
</event>
<event>
 5   0  0.3720978E-04  0.1838414E+04  0.7818609E-02  0.8686134E-01
        2   -1    0    0  501    0  0.00000000000E+00  0.00000000000E+00  0.16879963363E+04  0.16879963363E+04  0.25500000920E-02 0.  1.
       -2   -1    0    0    0  501  0.00000000000E+00  0.00000000000E+00 -0.50055890511E+03  0.50055890512E+03  0.25500000920E-02 0. -1.
    10030    2    1    2    0    0  0.00000000000E+00  0.00000000000E+00  0.11874374312E+04  0.21885552414E+04  0.18384140969E+04 0.  0.
        1    1    3    3  502    0 -0.66869853302E+03  0.14448174962E+03 -0.13713820616E+03  0.69773891367E+03  0.50400001928E-02 0. -1.
       -1    1    3    3    0  502  0.66869853302E+03 -0.14448174962E+03  0.13245756374E+04  0.14908163278E+04  0.50400001928E-02 0.  1.
</event>
<event>
 5   0  0.1758946E-04  0.1585901E+04  0.7818609E-02  0.8829257E-01
       -1   -1    0    0    0  501  0.00000000000E+00  0.00000000000E+00  0.57431272989E+03  0.57431272992E+03  0.50400001928E-02 0. -1.
        1   -1    0    0  501    0  0.00000000000E+00  0.00000000000E+00 -0.10948225562E+04  0.10948225562E+04  0.50400001928E-02 0.  1.
    10030    2    1    2    0    0  0.00000000000E+00  0.00000000000E+00 -0.52050982628E+03  0.16691352861E+04  0.15859010449E+04 0.  0.
        2    1    3    3  502    0  0.69440393690E+03 -0.17874803104E+03 -0.61658381107E+03  0.94568667235E+03  0.25500000920E-02 0.  1.
       -2    1    3    3    0  502 -0.69440393690E+03  0.17874803104E+03  0.96073984790E+02  0.72344861375E+03  0.25500000920E-02 0. -1.
</event>
<event>
 5   0  0.3535876E-04  0.1877028E+04  0.7818609E-02  0.8666376E-01
       -2   -1    0    0    0  501  0.00000000000E+00  0.00000000000E+00  0.84795779590E+03  0.84795779590E+03  0.25500000920E-02 0.  1.
        2   -1    0    0  501    0  0.00000000000E+00  0.00000000000E+00 -0.10387408834E+04  0.10387408834E+04  0.25500000920E-02 0. -1.
    10030    2    1    2    0    0  0.00000000000E+00  0.00000000000E+00 -0.19078308747E+03  0.18866986793E+04  0.18770278953E+04 0.  0.
        2    1    3    3  502    0 -0.39180741313E+03 -0.31033876116E+03  0.70304685819E+03  0.86261119891E+03  0.25500000920E-02 0.  1.
       -2    1    3    3    0  502  0.39180741313E+03  0.31033876116E+03 -0.89382994566E+03  0.10240874804E+04  0.25500000920E-02 0. -1.
</event>
<event>
 5   0  0.3720978E-04  0.1888856E+04  0.7818609E-02  0.8660423E-01
       -2   -1    0    0    0  501  0.00000000000E+00  0.00000000000E+00  0.38095233941E+03  0.38095233942E+03  0.25500000920E-02 0. -1.
        2   -1    0    0  501    0  0.00000000000E+00  0.00000000000E+00 -0.23413541962E+04  0.23413541962E+04  0.25500000920E-02 0.  1.
    10030    2    1    2    0    0  0.00000000000E+00  0.00000000000E+00 -0.19604018568E+04  0.27223065356E+04  0.18888561178E+04 0.  0.
        1    1    3    3  502    0  0.30793446828E+03 -0.33880509964E+03  0.21031706309E+03  0.50383112186E+03  0.50400001928E-02 0. -1.
       -1    1    3    3    0  502 -0.30793446828E+03  0.33880509964E+03 -0.21707189199E+04  0.22184754137E+04  0.50400001928E-02 0.  1.
</event>
<event>
 5   0  0.1758946E-04  0.2002826E+04  0.7818609E-02  0.8605301E-01
       -1   -1    0    0    0  501  0.00000000000E+00  0.00000000000E+00  0.98005243002E+03  0.98005243003E+03  0.50400001928E-02 0.  1.
        1   -1    0    0  501    0  0.00000000000E+00  0.00000000000E+00 -0.10232386370E+04  0.10232386370E+04  0.50400001928E-02 0. -1.
    10030    2    1    2    0    0  0.00000000000E+00  0.00000000000E+00 -0.43186206963E+02  0.20032910670E+04  0.20028255168E+04 0.  0.
        2    1    3    3  502    0 -0.20308646523E+03 -0.24535110890E+03 -0.97122741780E+03  0.10221173984E+04  0.25500000920E-02 0. -1.
       -2    1    3    3    0  502  0.20308646523E+03  0.24535110890E+03  0.92804121084E+03  0.98117366863E+03  0.25500000920E-02 0.  1.
</event>
<event>
 5   0  0.1711979E-04  0.1940797E+04  0.7818609E-02  0.8634812E-01
        1   -1    0    0  501    0  0.00000000000E+00  0.00000000000E+00  0.92440287251E+03  0.92440287253E+03  0.50400001928E-02 0. -1.
       -1   -1    0    0    0  501  0.00000000000E+00  0.00000000000E+00 -0.10186823540E+04  0.10186823540E+04  0.50400001928E-02 0.  1.
    10030    2    1    2    0    0  0.00000000000E+00  0.00000000000E+00 -0.94279481452E+02  0.19430852265E+04  0.19407966346E+04 0.  0.
        4    1    3    3  502    0 -0.24165848857E+03  0.91911209241E+03  0.14931962577E+03  0.96201030507E+03  0.12699999809E+01 0. -1.
       -4    1    3    3    0  502  0.24165848857E+03 -0.91911209241E+03 -0.24359910723E+03  0.98107492143E+03  0.12699999809E+01 0.  1.
</event>
<event>
 5   0  0.3623359E-04  0.1937580E+04  0.7818609E-02  0.8636373E-01
        2   -1    0    0  501    0  0.00000000000E+00  0.00000000000E+00  0.15489694480E+04  0.15489694480E+04  0.25500000920E-02 0. -1.
       -2   -1    0    0    0  501  0.00000000000E+00  0.00000000000E+00 -0.60592163823E+03  0.60592163824E+03  0.25500000920E-02 0.  1.
    10030    2    1    2    0    0  0.00000000000E+00  0.00000000000E+00  0.94304780975E+03  0.21548910862E+04  0.19375800427E+04 0.  0.
        5    1    3    3  502    0 -0.19355753260E+03  0.83798712973E+03 -0.24409181437E+02  0.86040969669E+03  0.46999998093E+01 0.  1.
       -5    1    3    3    0  502  0.19355753260E+03 -0.83798712973E+03  0.96745699118E+03  0.12944813895E+04  0.46999998093E+01 0. -1.
</event>
<event>
 5   0  0.1782613E-04  0.1906472E+04  0.7818609E-02  0.8651641E-01
       -1   -1    0    0    0  501  0.00000000000E+00  0.00000000000E+00  0.65149483228E+03  0.65149483230E+03  0.50400001928E-02 0.  1.
        1   -1    0    0  501    0  0.00000000000E+00  0.00000000000E+00 -0.13947297830E+04  0.13947297830E+04  0.50400001928E-02 0. -1.
    10030    2    1    2    0    0  0.00000000000E+00  0.00000000000E+00 -0.74323495069E+03  0.20462246153E+04  0.19064723927E+04 0.  0.
        3    1    3    3  502    0  0.24940951095E+03  0.54629247993E+03 -0.11661660566E+04  0.13117102803E+04  0.10100000352E+00 0. -1.
       -3    1    3    3    0  502 -0.24940951095E+03 -0.54629247993E+03  0.42293110587E+03  0.73451433498E+03  0.10100000352E+00 0.  1.
</event>
<event>
 5   0  0.1782613E-04  0.1872015E+04  0.7818609E-02  0.8668913E-01
        1   -1    0    0  501    0  0.00000000000E+00  0.00000000000E+00  0.14898732030E+04  0.14898732030E+04  0.50400001928E-02 0.  1.
       -1   -1    0    0    0  501  0.00000000000E+00  0.00000000000E+00 -0.58804337566E+03  0.58804337568E+03  0.50400001928E-02 0. -1.
    10030    2    1    2    0    0  0.00000000000E+00  0.00000000000E+00  0.90182982735E+03  0.20779165787E+04  0.18720150295E+04 0.  0.
        3    1    3    3  502    0 -0.47333711818E+02  0.70228487714E+03 -0.23392734716E+03  0.74173212340E+03  0.10100000352E+00 0. -1.
       -3    1    3    3    0  502  0.47333711818E+02 -0.70228487714E+03  0.11357571745E+04  0.13361844553E+04  0.10100000352E+00 0.  1.
</event>
<event>
 5   0  0.3459485E-04  0.1987721E+04  0.7818609E-02  0.8612383E-01
        2   -1    0    0  501    0  0.00000000000E+00  0.00000000000E+00  0.67176373566E+03  0.67176373566E+03  0.25500000920E-02 0.  1.
       -2   -1    0    0    0  501  0.00000000000E+00  0.00000000000E+00 -0.14703962147E+04  0.14703962147E+04  0.25500000920E-02 0. -1.
    10030    2    1    2    0    0  0.00000000000E+00  0.00000000000E+00 -0.79863247902E+03  0.21421599503E+04  0.19877211616E+04 0.  0.
        3    1    3    3  502    0 -0.74924666851E+03 -0.16410768741E+03 -0.10804484524E+04  0.13250172722E+04  0.10100000352E+00 0. -1.
       -3    1    3    3    0  502  0.74924666851E+03  0.16410768741E+03  0.28181597334E+03  0.81714267810E+03  0.10100000352E+00 0.  1.
</event>
<event>
 5   0  0.3623359E-04  0.2039057E+04  0.7818609E-02  0.8588575E-01
        2   -1    0    0  501    0  0.00000000000E+00  0.00000000000E+00  0.24418126185E+04  0.24418126185E+04  0.25500000920E-02 0. -1.
       -2   -1    0    0    0  501  0.00000000000E+00  0.00000000000E+00 -0.42568298730E+03  0.42568298731E+03  0.25500000920E-02 0.  1.
    10030    2    1    2    0    0  0.00000000000E+00  0.00000000000E+00  0.20161296312E+04  0.28674956058E+04  0.20390567328E+04 0.  0.
        5    1    3    3  502    0 -0.65735224097E+03 -0.35791756833E+03  0.34574974337E+02  0.74928931213E+03  0.46999998093E+01 0. -1.
       -5    1    3    3    0  502  0.65735224097E+03  0.35791756833E+03  0.19815546568E+04  0.21182062936E+04  0.46999998093E+01 0.  1.
</event>
<event>
 5   0  0.1813834E-04  0.1525535E+04  0.7818609E-02  0.8867648E-01
       -1   -1    0    0    0  501  0.00000000000E+00  0.00000000000E+00  0.58108851523E+03  0.58108851526E+03  0.50400001928E-02 0.  1.
        1   -1    0    0  501    0  0.00000000000E+00  0.00000000000E+00 -0.10012495225E+04  0.10012495225E+04  0.50400001928E-02 0. -1.
    10030    2    1    2    0    0  0.00000000000E+00  0.00000000000E+00 -0.42016100725E+03  0.15823380377E+04  0.15255354449E+04 0.  0.
        5    1    3    3  502    0 -0.35104469468E+03  0.39255840812E+03  0.36224181183E+03  0.63919926602E+03  0.46999998093E+01 0.  1.
       -5    1    3    3    0  502  0.35104469468E+03 -0.39255840812E+03 -0.78240281908E+03  0.94313877173E+03  0.46999998093E+01 0. -1.
</event>
<event>
 5   0  0.1758946E-04  0.1904358E+04  0.7818609E-02  0.8652690E-01
       -1   -1    0    0    0  501  0.00000000000E+00  0.00000000000E+00  0.98455026788E+03  0.98455026789E+03  0.50400001928E-02 0. -1.
        1   -1    0    0  501    0  0.00000000000E+00  0.00000000000E+00 -0.92087249351E+03  0.92087249352E+03  0.50400001928E-02 0.  1.
    10030    2    1    2    0    0  0.00000000000E+00  0.00000000000E+00  0.63677774366E+02  0.19054227614E+04  0.19043584328E+04 0.  0.
        2    1    3    3  502    0 -0.10994825229E+03 -0.36988044445E+03  0.90281094710E+03  0.98181860218E+03  0.25500000920E-02 0. -1.
       -2    1    3    3    0  502  0.10994825229E+03  0.36988044445E+03 -0.83913317274E+03  0.92360415924E+03  0.25500000920E-02 0.  1.
</event>
<event>
 5   0  0.3516539E-04  0.1861428E+04  0.7818609E-02  0.8674298E-01
       -2   -1    0    0    0  501  0.00000000000E+00  0.00000000000E+00  0.52658277468E+03  0.52658277469E+03  0.25500000920E-02 0. -1.
        2   -1    0    0  501    0  0.00000000000E+00  0.00000000000E+00 -0.16449992962E+04  0.16449992962E+04  0.25500000920E-02 0.  1.
    10030    2    1    2    0    0  0.00000000000E+00  0.00000000000E+00 -0.11184165216E+04  0.21715820709E+04  0.18614277249E+04 0.  0.
        4    1    3    3  502    0  0.54759928334E+03  0.67098127652E+03 -0.16162152744E+03  0.88102439216E+03  0.12699999809E+01 0. -1.
       -4    1    3    3    0  502 -0.54759928334E+03 -0.67098127652E+03 -0.95679499411E+03  0.12905576788E+04  0.12699999809E+01 0.  1.
</event>
<event>
 5   0  0.3623359E-04  0.1943636E+04  0.7818609E-02  0.8633436E-01
        2   -1    0    0  501    0  0.00000000000E+00  0.00000000000E+00  0.13916529632E+04  0.13916529632E+04  0.25500000920E-02 0. -1.
       -2   -1    0    0    0  501  0.00000000000E+00  0.00000000000E+00 -0.67863900122E+03  0.67863900123E+03  0.25500000920E-02 0.  1.
    10030    2    1    2    0    0  0.00000000000E+00  0.00000000000E+00  0.71301396199E+03  0.20702919644E+04  0.19436357447E+04 0.  0.
        5    1    3    3  502    0  0.94324913178E+03 -0.22915802519E+03  0.40618936668E+03  0.10522567257E+04  0.46999998093E+01 0.  1.
       -5    1    3    3    0  502 -0.94324913178E+03  0.22915802519E+03  0.30682459532E+03  0.10180352388E+04  0.46999998093E+01 0. -1.
</event>
<event>
 5   0  0.1694830E-04  0.1922309E+04  0.7818609E-02  0.8643831E-01
        1   -1    0    0  501    0  0.00000000000E+00  0.00000000000E+00  0.31623354343E+03  0.31623354347E+03  0.50400001928E-02 0. -1.
       -1   -1    0    0    0  501  0.00000000000E+00  0.00000000000E+00 -0.29213161050E+04  0.29213161050E+04  0.50400001928E-02 0.  1.
    10030    2    1    2    0    0  0.00000000000E+00  0.00000000000E+00 -0.26050825616E+04  0.32375496485E+04  0.19223091774E+04 0.  0.
        1    1    3    3  502    0 -0.70794720803E+03 -0.32001730133E+03 -0.34949070806E+03  0.85190614363E+03  0.50400001928E-02 0. -1.
       -1    1    3    3    0  502  0.70794720803E+03  0.32001730133E+03 -0.22555918535E+04  0.23856435048E+04  0.50400001928E-02 0.  1.
</event>
<event>
 5   0  0.3535876E-04  0.1894454E+04  0.7818609E-02  0.8657622E-01
       -2   -1    0    0    0  501  0.00000000000E+00  0.00000000000E+00  0.61763286311E+03  0.61763286312E+03  0.25500000920E-02 0.  1.
        2   -1    0    0  501    0  0.00000000000E+00  0.00000000000E+00 -0.14527065718E+04  0.14527065718E+04  0.25500000920E-02 0. -1.
    10030    2    1    2    0    0  0.00000000000E+00  0.00000000000E+00 -0.83507370869E+03  0.20703394349E+04  0.18944543481E+04 0.  0.
        2    1    3    3  502    0 -0.72823442977E+03  0.55132276577E+03 -0.14332898508E+03  0.92456766908E+03  0.25500000920E-02 0.  1.
       -2    1    3    3    0  502  0.72823442977E+03 -0.55132276577E+03 -0.69174472361E+03  0.11457717658E+04  0.25500000920E-02 0. -1.
</event>
<event>
 5   0  0.1758946E-04  0.1889377E+04  0.7818609E-02  0.8660162E-01
       -1   -1    0    0    0  501  0.00000000000E+00  0.00000000000E+00  0.54381789097E+03  0.54381789099E+03  0.50400001928E-02 0. -1.
        1   -1    0    0  501    0  0.00000000000E+00  0.00000000000E+00 -0.16410568064E+04  0.16410568064E+04  0.50400001928E-02 0.  1.
    10030    2    1    2    0    0  0.00000000000E+00  0.00000000000E+00 -0.10972389154E+04  0.21848746974E+04  0.18893766712E+04 0.  0.
        2    1    3    3  502    0 -0.44317083813E+03 -0.57882642434E+03 -0.12434180965E+04  0.14413635849E+04  0.25500000920E-02 0.  1.
       -2    1    3    3    0  502  0.44317083813E+03  0.57882642434E+03  0.14617918112E+03  0.74351111241E+03  0.25500000920E-02 0. -1.
</event>
<event>
 5   0  0.3720978E-04  0.1921998E+04  0.7818609E-02  0.8643983E-01
        2   -1    0    0  501    0  0.00000000000E+00  0.00000000000E+00  0.76629423386E+03  0.76629423387E+03  0.25500000920E-02 0. -1.
       -2   -1    0    0    0  501  0.00000000000E+00  0.00000000000E+00 -0.12051755745E+04  0.12051755745E+04  0.25500000920E-02 0.  1.
    10030    2    1    2    0    0  0.00000000000E+00  0.00000000000E+00 -0.43888134062E+03  0.19714698084E+04  0.19219980162E+04 0.  0.
        1    1    3    3  502    0  0.21805240898E+03 -0.90457132238E+03 -0.46588084279E+03  0.10405965068E+04  0.50400001928E-02 0.  1.
       -1    1    3    3    0  502 -0.21805240898E+03  0.90457132238E+03  0.26999502168E+02  0.93087330152E+03  0.50400001928E-02 0. -1.
</event>
<event>
 5   0  0.1782613E-04  0.1928391E+04  0.7818609E-02  0.8640852E-01
        1   -1    0    0  501    0  0.00000000000E+00  0.00000000000E+00  0.20984091991E+04  0.20984091991E+04  0.50400001928E-02 0.  1.
       -1   -1    0    0    0  501  0.00000000000E+00  0.00000000000E+00 -0.44303693916E+03  0.44303693919E+03  0.50400001928E-02 0. -1.
    10030    2    1    2    0    0  0.00000000000E+00  0.00000000000E+00  0.16553722599E+04  0.25414461383E+04  0.19283908201E+04 0.  0.
        3    1    3    3  502    0 -0.65953599484E+03  0.51079740509E+02  0.17521754678E+04  0.18728896787E+04  0.10100000352E+00 0.  1.
       -3    1    3    3    0  502  0.65953599484E+03 -0.51079740509E+02 -0.96803207893E+02  0.66855645958E+03  0.10100000352E+00 0. -1.
</event>
<event>
 5   0  0.1782613E-04  0.1931488E+04  0.7818609E-02  0.8639340E-01
       -1   -1    0    0    0  501  0.00000000000E+00  0.00000000000E+00  0.68414290414E+03  0.68414290416E+03  0.50400001928E-02 0. -1.
        1   -1    0    0  501    0  0.00000000000E+00  0.00000000000E+00 -0.13632551221E+04  0.13632551221E+04  0.50400001928E-02 0.  1.
    10030    2    1    2    0    0  0.00000000000E+00  0.00000000000E+00 -0.67911221793E+03  0.20473980262E+04  0.19314878393E+04 0.  0.
        3    1    3    3  502    0 -0.32912845539E+03 -0.87565490067E+03 -0.85232442407E+02  0.93934105875E+03  0.10100000352E+00 0. -1.
       -3    1    3    3    0  502  0.32912845539E+03  0.87565490067E+03 -0.59387977552E+03  0.11080569675E+04  0.10100000352E+00 0.  1.
</event>
<event>
 5   0  0.3516539E-04  0.1790424E+04  0.7818609E-02  0.8711408E-01
       -2   -1    0    0    0  501  0.00000000000E+00  0.00000000000E+00  0.76670185372E+03  0.76670185372E+03  0.25500000920E-02 0.  1.
        2   -1    0    0  501    0  0.00000000000E+00  0.00000000000E+00 -0.10452627101E+04  0.10452627101E+04  0.25500000920E-02 0. -1.
    10030    2    1    2    0    0  0.00000000000E+00  0.00000000000E+00 -0.27856085636E+03  0.18119645638E+04  0.17904243714E+04 0.  0.
        4    1    3    3  502    0  0.35109923962E+03 -0.63635994698E+03  0.38967252455E+03  0.82466414222E+03  0.12699999809E+01 0.  1.
       -4    1    3    3    0  502 -0.35109923962E+03  0.63635994698E+03 -0.66823338091E+03  0.98730042157E+03  0.12699999809E+01 0. -1.
</event>
<event>
 5   0  0.3720978E-04  0.1218967E+04  0.7818609E-02  0.9096415E-01
       -2   -1    0    0    0  501  0.00000000000E+00  0.00000000000E+00  0.45761236923E+03  0.45761236923E+03  0.25500000920E-02 0.  1.
        2   -1    0    0  501    0  0.00000000000E+00  0.00000000000E+00 -0.81175739658E+03  0.81175739659E+03  0.25500000920E-02 0. -1.
    10030    2    1    2    0    0  0.00000000000E+00  0.00000000000E+00 -0.35414502736E+03  0.12693697658E+04  0.12189671456E+04 0.  0.
        1    1    3    3  502    0 -0.33811501834E+03  0.49788589057E+03 -0.27727005827E+03  0.66263927660E+03  0.50400001928E-02 0.  1.
       -1    1    3    3    0  502  0.33811501834E+03 -0.49788589057E+03 -0.76874969084E+02  0.60673048922E+03  0.50400001928E-02 0. -1.
</event>
<event>
 5   0  0.1287000E-04  0.1937454E+04  0.7818609E-02  0.8636434E-01
        4   -1    0    0  501    0  0.00000000000E+00  0.00000000000E+00  0.12610460582E+04  0.12610466977E+04  0.12699999809E+01 0. -1.
       -4   -1    0    0    0  501  0.00000000000E+00  0.00000000000E+00 -0.74416823449E+03  0.74416931818E+03  0.12699999809E+01 0.  1.
    10030    2    1    2    0    0  0.00000000000E+00  0.00000000000E+00  0.51687782367E+03  0.20052160158E+04  0.19374541506E+04 0.  0.
        1    1    3    3  502    0  0.66812622560E+02  0.71912149649E+03  0.92664513170E+03  0.11748492896E+04  0.50400001928E-02 0. -1.
       -1    1    3    3    0  502 -0.66812622560E+02 -0.71912149649E+03 -0.40976730803E+03  0.83036672621E+03  0.50400001928E-02 0.  1.
</event>
<event>
 5   0  0.1711979E-04  0.1796228E+04  0.7818609E-02  0.8708308E-01
        1   -1    0    0  501    0  0.00000000000E+00  0.00000000000E+00  0.11600162107E+04  0.11600162107E+04  0.50400001928E-02 0.  1.
       -1   -1    0    0    0  501  0.00000000000E+00  0.00000000000E+00 -0.69534293417E+03  0.69534293419E+03  0.50400001928E-02 0. -1.
    10030    2    1    2    0    0  0.00000000000E+00  0.00000000000E+00  0.46467327654E+03  0.18553591449E+04  0.17962283548E+04 0.  0.
        4    1    3    3  502    0 -0.81025382848E+03  0.36720990189E+03  0.35990567455E+03  0.95962913987E+03  0.12699999809E+01 0. -1.
       -4    1    3    3    0  502  0.81025382848E+03 -0.36720990189E+03  0.10476760198E+03  0.89573000504E+03  0.12699999809E+01 0.  1.
</event>
<event>
 5   0  0.1813834E-04  0.1868795E+04  0.7818609E-02  0.8670547E-01
        1   -1    0    0  501    0  0.00000000000E+00  0.00000000000E+00  0.10733450955E+04  0.10733450955E+04  0.50400001928E-02 0. -1.
       -1   -1    0    0    0  501  0.00000000000E+00  0.00000000000E+00 -0.81343677362E+03  0.81343677364E+03  0.50400001928E-02 0.  1.
    10030    2    1    2    0    0  0.00000000000E+00  0.00000000000E+00  0.25990832188E+03  0.18867818691E+04  0.18687946613E+04 0.  0.
        5    1    3    3  502    0 -0.15785715686E+03  0.55732782105E+03 -0.61027596329E+03  0.84142261882E+03  0.46999998093E+01 0.  1.
       -5    1    3    3    0  502  0.15785715686E+03 -0.55732782105E+03  0.87018428517E+03  0.10453592503E+04  0.46999998093E+01 0. -1.
</event>
<event>
 5   0  0.3535876E-04  0.1960307E+04  0.7818609E-02  0.8625407E-01
       -2   -1    0    0    0  501  0.00000000000E+00  0.00000000000E+00  0.54539987573E+03  0.54539987574E+03  0.25500000920E-02 0.  1.
        2   -1    0    0  501    0  0.00000000000E+00  0.00000000000E+00 -0.17614613089E+04  0.17614613089E+04  0.25500000920E-02 0. -1.
    10030    2    1    2    0    0  0.00000000000E+00  0.00000000000E+00 -0.12160614332E+04  0.23068611846E+04  0.19603068933E+04 0.  0.
        2    1    3    3  502    0 -0.49043247216E+03  0.83303325919E+03 -0.79862771740E+03  0.12539037649E+04  0.25500000920E-02 0. -1.
       -2    1    3    3    0  502  0.49043247216E+03 -0.83303325919E+03 -0.41743371575E+03  0.10529574197E+04  0.25500000920E-02 0.  1.
</event>
<event>
 5   0  0.1711979E-04  0.1993410E+04  0.7818609E-02  0.8609708E-01
       -1   -1    0    0    0  501  0.00000000000E+00  0.00000000000E+00  0.18007727027E+04  0.18007727027E+04  0.50400001928E-02 0. -1.
        1   -1    0    0  501    0  0.00000000000E+00  0.00000000000E+00 -0.55166358568E+03  0.55166358570E+03  0.50400001928E-02 0.  1.
    10030    2    1    2    0    0  0.00000000000E+00  0.00000000000E+00  0.12491091170E+04  0.23524362884E+04  0.19934098687E+04 0.  0.
        4    1    3    3  502    0  0.53582107704E+03 -0.24575762849E+03  0.15729948274E+04  0.16798259964E+04  0.12699999809E+01 0. -1.
       -4    1    3    3    0  502 -0.53582107704E+03  0.24575762849E+03 -0.32388571035E+03  0.67261029194E+03  0.12699999809E+01 0.  1.
</event>
<event>
 5   0  0.3623359E-04  0.1963324E+04  0.7818609E-02  0.8623963E-01
       -2   -1    0    0    0  501  0.00000000000E+00  0.00000000000E+00  0.10600115727E+04  0.10600115727E+04  0.25500000920E-02 0. -1.
        2   -1    0    0  501    0  0.00000000000E+00  0.00000000000E+00 -0.90910330255E+03  0.90910330255E+03  0.25500000920E-02 0.  1.
    10030    2    1    2    0    0  0.00000000000E+00  0.00000000000E+00  0.15090827010E+03  0.19691148752E+04  0.19633237343E+04 0.  0.
        5    1    3    3  502    0 -0.52053570717E+03 -0.80314637591E+03 -0.14344731517E+03  0.96778135227E+03  0.46999998093E+01 0.  1.
       -5    1    3    3    0  502  0.52053570717E+03  0.80314637591E+03  0.29435558527E+03  0.10013335229E+04  0.46999998093E+01 0. -1.
</event>
<event>
 5   0  0.1813834E-04  0.1901197E+04  0.7818609E-02  0.8654261E-01
        1   -1    0    0  501    0  0.00000000000E+00  0.00000000000E+00  0.13575398152E+04  0.13575398152E+04  0.50400001928E-02 0. -1.
       -1   -1    0    0    0  501  0.00000000000E+00  0.00000000000E+00 -0.66564340168E+03  0.66564340170E+03  0.50400001928E-02 0.  1.
    10030    2    1    2    0    0  0.00000000000E+00  0.00000000000E+00  0.69189641351E+03  0.20231832169E+04  0.19011969078E+04 0.  0.
        5    1    3    3  502    0  0.26329058350E+03 -0.90416310325E+03  0.20808886260E+03  0.96444591003E+03  0.46999998093E+01 0. -1.
       -5    1    3    3    0  502 -0.26329058350E+03  0.90416310325E+03  0.48380755092E+03  0.10587373069E+04  0.46999998093E+01 0.  1.
</event>
<event>
 5   0  0.1694830E-04  0.1896555E+04  0.7818609E-02  0.8656573E-01
       -1   -1    0    0    0  501  0.00000000000E+00  0.00000000000E+00  0.38520618158E+03  0.38520618161E+03  0.50400001928E-02 0.  1.
        1   -1    0    0  501    0  0.00000000000E+00  0.00000000000E+00 -0.23344125539E+04  0.23344125539E+04  0.50400001928E-02 0. -1.
    10030    2    1    2    0    0  0.00000000000E+00  0.00000000000E+00 -0.19492063723E+04  0.27196187355E+04  0.18965549253E+04 0.  0.
        1    1    3    3  502    0  0.86093354305E+03 -0.20880783051E+03 -0.14596671585E+04  0.17074646378E+04  0.50400001928E-02 0. -1.
       -1    1    3    3    0  502 -0.86093354305E+03  0.20880783051E+03 -0.48953921377E+03  0.10121540977E+04  0.50400001928E-02 0.  1.
</event>
<event>
 5   0  0.3535876E-04  0.1675016E+04  0.7818609E-02  0.8775744E-01
        2   -1    0    0  501    0  0.00000000000E+00  0.00000000000E+00  0.10448968802E+04  0.10448968802E+04  0.25500000920E-02 0.  1.
       -2   -1    0    0    0  501  0.00000000000E+00  0.00000000000E+00 -0.67128091378E+03  0.67128091379E+03  0.25500000920E-02 0. -1.
    10030    2    1    2    0    0  0.00000000000E+00  0.00000000000E+00  0.37361596637E+03  0.17161777939E+04  0.16750156209E+04 0.  0.
        2    1    3    3  502    0 -0.66909812452E+03  0.38397252608E+03 -0.14722855544E+03  0.78536835215E+03  0.25500000920E-02 0. -1.
       -2    1    3    3    0  502  0.66909812452E+03 -0.38397252608E+03  0.52084452181E+03  0.93080944179E+03  0.25500000920E-02 0.  1.
</event>
<event>
 5   0  0.1813834E-04  0.1873527E+04  0.7818609E-02  0.8668147E-01
       -1   -1    0    0    0  501  0.00000000000E+00  0.00000000000E+00  0.14445819797E+04  0.14445819797E+04  0.50400001928E-02 0.  1.
        1   -1    0    0  501    0  0.00000000000E+00  0.00000000000E+00 -0.60746030105E+03  0.60746030107E+03  0.50400001928E-02 0. -1.
    10030    2    1    2    0    0  0.00000000000E+00  0.00000000000E+00  0.83712167860E+03  0.20520422807E+04  0.18735273729E+04 0.  0.
        5    1    3    3  502    0 -0.58702699586E+03  0.22590290022E+03  0.11788727475E+04  0.13361870598E+04  0.46999998093E+01 0.  1.
       -5    1    3    3    0  502  0.58702699586E+03 -0.22590290022E+03 -0.34175106886E+03  0.71585522088E+03  0.46999998093E+01 0. -1.
</event>
<event>
 5   0  0.3720978E-04  0.1912947E+04  0.7818609E-02  0.8648439E-01
        2   -1    0    0  501    0  0.00000000000E+00  0.00000000000E+00  0.15236507109E+04  0.15236507109E+04  0.25500000920E-02 0. -1.
       -2   -1    0    0    0  501  0.00000000000E+00  0.00000000000E+00 -0.60042715070E+03  0.60042715071E+03  0.25500000920E-02 0.  1.
    10030    2    1    2    0    0  0.00000000000E+00  0.00000000000E+00  0.92322356015E+03  0.21240778616E+04  0.19129466851E+04 0.  0.
        1    1    3    3  502    0 -0.12001733828E+03 -0.16725853477E+03 -0.57553624780E+03  0.61124590101E+03  0.50400001928E-02 0.  1.
       -1    1    3    3    0  502  0.12001733828E+03  0.16725853477E+03  0.14987598080E+04  0.15128319606E+04  0.50400001928E-02 0. -1.
</event>
<event>
 5   0  0.1694830E-04  0.1899551E+04  0.7818609E-02  0.8655080E-01
        1   -1    0    0  501    0  0.00000000000E+00  0.00000000000E+00  0.89842863023E+03  0.89842863025E+03  0.50400001928E-02 0.  1.
       -1   -1    0    0    0  501  0.00000000000E+00  0.00000000000E+00 -0.10040564602E+04  0.10040564602E+04  0.50400001928E-02 0. -1.
    10030    2    1    2    0    0  0.00000000000E+00  0.00000000000E+00 -0.10562782992E+03  0.19024850904E+04  0.18995505470E+04 0.  0.
        1    1    3    3  502    0 -0.35208654163E+03  0.15240866800E+03 -0.92299430249E+03  0.99955581002E+03  0.50400001928E-02 0. -1.
       -1    1    3    3    0  502  0.35208654163E+03 -0.15240866800E+03  0.81736647257E+03  0.90292928039E+03  0.50400001928E-02 0.  1.
</event>
<event>
 5   0  0.1758946E-04  0.1810216E+04  0.7818609E-02  0.8700885E-01
       -1   -1    0    0    0  501  0.00000000000E+00  0.00000000000E+00  0.80004967063E+03  0.80004967064E+03  0.50400001928E-02 0. -1.
        1   -1    0    0  501    0  0.00000000000E+00  0.00000000000E+00 -0.10239621890E+04  0.10239621890E+04  0.50400001928E-02 0.  1.
    10030    2    1    2    0    0  0.00000000000E+00  0.00000000000E+00 -0.22391251839E+03  0.18240118597E+04  0.18102161330E+04 0.  0.
        2    1    3    3  502    0 -0.21850999106E+03 -0.30878740509E+02  0.77252640534E+03  0.80342837874E+03  0.25500000920E-02 0. -1.
       -2    1    3    3    0  502  0.21850999106E+03  0.30878740509E+02 -0.99643892373E+03  0.10205834809E+04  0.25500000920E-02 0.  1.
</event>
<event>
 5   0  0.3516539E-04  0.1849533E+04  0.7818609E-02  0.8680393E-01
        2   -1    0    0  501    0  0.00000000000E+00  0.00000000000E+00  0.53877389943E+03  0.53877389944E+03  0.25500000920E-02 0.  1.
       -2   -1    0    0    0  501  0.00000000000E+00  0.00000000000E+00 -0.15872955204E+04  0.15872955204E+04  0.25500000920E-02 0. -1.
    10030    2    1    2    0    0  0.00000000000E+00  0.00000000000E+00 -0.10485216210E+04  0.21260694198E+04  0.18495333434E+04 0.  0.
        4    1    3    3  502    0 -0.54133472253E+03 -0.71599079318E+03 -0.78002681497E+03  0.11891717886E+04  0.12699999809E+01 0. -1.
       -4    1    3    3    0  502  0.54133472253E+03  0.71599079318E+03 -0.26849480599E+03  0.93689763127E+03  0.12699999809E+01 0.  1.
</event>
<event>
 5   0  0.3535876E-04  0.1929931E+04  0.7818609E-02  0.8640100E-01
        2   -1    0    0  501    0  0.00000000000E+00  0.00000000000E+00  0.15577786561E+04  0.15577786561E+04  0.25500000920E-02 0.  1.
       -2   -1    0    0    0  501  0.00000000000E+00  0.00000000000E+00 -0.59774729902E+03  0.59774729902E+03  0.25500000920E-02 0. -1.
    10030    2    1    2    0    0  0.00000000000E+00  0.00000000000E+00  0.96003135704E+03  0.21555259551E+04  0.19299305523E+04 0.  0.
        2    1    3    3  502    0 -0.90670821436E+03  0.32838448065E+03  0.51873549387E+03  0.10950080665E+04  0.25500000920E-02 0. -1.
       -2    1    3    3    0  502  0.90670821436E+03 -0.32838448065E+03  0.44129586317E+03  0.10605178886E+04  0.25500000920E-02 0.  1.
</event>
<event>
 5   0  0.3516539E-04  0.1925738E+04  0.7818609E-02  0.8642150E-01
       -2   -1    0    0    0  501  0.00000000000E+00  0.00000000000E+00  0.64820619559E+03  0.64820619560E+03  0.25500000920E-02 0.  1.
        2   -1    0    0  501    0  0.00000000000E+00  0.00000000000E+00 -0.14302808040E+04  0.14302808040E+04  0.25500000920E-02 0. -1.
    10030    2    1    2    0    0  0.00000000000E+00  0.00000000000E+00 -0.78207460842E+03  0.20784869996E+04  0.19257381739E+04 0.  0.
        4    1    3    3  502    0 -0.43771317891E+03  0.72898953709E+03  0.96567591514E+02  0.85577186493E+03  0.12699999809E+01 0.  1.
       -4    1    3    3    0  502  0.43771317891E+03 -0.72898953709E+03 -0.87864219994E+03  0.12227151347E+04  0.12699999809E+01 0. -1.
</event>
<event>
 5   0  0.1758946E-04  0.1913380E+04  0.7818609E-02  0.8648225E-01
        1   -1    0    0  501    0  0.00000000000E+00  0.00000000000E+00  0.82758000741E+03  0.82758000743E+03  0.50400001928E-02 0.  1.
       -1   -1    0    0    0  501  0.00000000000E+00  0.00000000000E+00 -0.11059424124E+04  0.11059424124E+04  0.50400001928E-02 0. -1.
    10030    2    1    2    0    0  0.00000000000E+00  0.00000000000E+00 -0.27836240499E+03  0.19335224198E+04  0.19133800771E+04 0.  0.
        2    1    3    3  502    0  0.75766255978E+03  0.45548854411E+03  0.23036437364E+03  0.91355903638E+03  0.25500000920E-02 0. -1.
       -2    1    3    3    0  502 -0.75766255978E+03 -0.45548854411E+03 -0.50872677862E+03  0.10199633835E+04  0.25500000920E-02 0.  1.
</event>
<event>
 5   0  0.3720978E-04  0.1909157E+04  0.7818609E-02  0.8650312E-01
       -2   -1    0    0    0  501  0.00000000000E+00  0.00000000000E+00  0.71171410382E+03  0.71171410383E+03  0.25500000920E-02 0. -1.
        2   -1    0    0  501    0  0.00000000000E+00  0.00000000000E+00 -0.12803176948E+04  0.12803176948E+04  0.25500000920E-02 0.  1.
    10030    2    1    2    0    0  0.00000000000E+00  0.00000000000E+00 -0.56860359096E+03  0.19920317986E+04  0.19091570504E+04 0.  0.
        1    1    3    3  502    0 -0.17066195346E+03  0.76563329861E+03  0.28327851532E+03  0.83400633545E+03  0.50400001928E-02 0. -1.
       -1    1    3    3    0  502  0.17066195346E+03 -0.76563329861E+03 -0.85188210627E+03  0.11580254632E+04  0.50400001928E-02 0.  1.
</event>
<event>
 5   0  0.1711979E-04  0.1920277E+04  0.7818609E-02  0.8644829E-01
        1   -1    0    0  501    0  0.00000000000E+00  0.00000000000E+00  0.15400203573E+04  0.15400203573E+04  0.50400001928E-02 0.  1.
       -1   -1    0    0    0  501  0.00000000000E+00  0.00000000000E+00 -0.59860609973E+03  0.59860609975E+03  0.50400001928E-02 0. -1.
    10030    2    1    2    0    0  0.00000000000E+00  0.00000000000E+00  0.94141425759E+03  0.21386264571E+04  0.19202766255E+04 0.  0.
        4    1    3    3  502    0 -0.92255356753E+02  0.73602937653E+02 -0.59049629844E+03  0.60217599973E+03  0.12699999809E+01 0. -1.
       -4    1    3    3    0  502  0.92255356753E+02 -0.73602937653E+02  0.15319105560E+04  0.15364504573E+04  0.12699999809E+01 0.  1.
</event>
<event>
 5   0  0.1758946E-04  0.1913607E+04  0.7818609E-02  0.8648113E-01
       -1   -1    0    0    0  501  0.00000000000E+00  0.00000000000E+00  0.14859218900E+04  0.14859218900E+04  0.50400001928E-02 0. -1.
        1   -1    0    0  501    0  0.00000000000E+00  0.00000000000E+00 -0.61609789891E+03  0.61609789894E+03  0.50400001928E-02 0.  1.
    10030    2    1    2    0    0  0.00000000000E+00  0.00000000000E+00  0.86982399104E+03  0.21020197889E+04  0.19136074356E+04 0.  0.
        2    1    3    3  502    0 -0.47497788585E+03 -0.10077318670E+03  0.13405342759E+04  0.14257599280E+04  0.25500000920E-02 0. -1.
       -2    1    3    3    0  502  0.47497788585E+03  0.10077318670E+03 -0.47071028490E+03  0.67625986094E+03  0.25500000920E-02 0.  1.
</event>
<event>
 5   0  0.1694830E-04  0.1875948E+04  0.7818609E-02  0.8666922E-01
        1   -1    0    0  501    0  0.00000000000E+00  0.00000000000E+00  0.13621925118E+04  0.13621925118E+04  0.50400001928E-02 0. -1.
       -1   -1    0    0    0  501  0.00000000000E+00  0.00000000000E+00 -0.64586698892E+03  0.64586698894E+03  0.50400001928E-02 0.  1.
    10030    2    1    2    0    0  0.00000000000E+00  0.00000000000E+00  0.71632552289E+03  0.20080595008E+04  0.18759479481E+04 0.  0.
        1    1    3    3  502    0 -0.44608653900E+03  0.23822927516E+03  0.12037629390E+04  0.13056766832E+04  0.50400001928E-02 0. -1.
       -1    1    3    3    0  502  0.44608653900E+03 -0.23822927516E+03 -0.48743741606E+03  0.70238281757E+03  0.50400001928E-02 0.  1.
</event>
<event>
 5   0  0.3720978E-04  0.1898745E+04  0.7818609E-02  0.8655481E-01
        2   -1    0    0  501    0  0.00000000000E+00  0.00000000000E+00  0.60118049639E+03  0.60118049639E+03  0.25500000920E-02 0.  1.
       -2   -1    0    0    0  501  0.00000000000E+00  0.00000000000E+00 -0.14992308349E+04  0.14992308349E+04  0.25500000920E-02 0. -1.
    10030    2    1    2    0    0  0.00000000000E+00  0.00000000000E+00 -0.89805033853E+03  0.21004113313E+04  0.18987452041E+04 0.  0.
        1    1    3    3  502    0  0.68917676629E+03 -0.59748241160E+03 -0.74035669137E+03  0.11747671590E+04  0.50400001928E-02 0.  1.
       -1    1    3    3    0  502 -0.68917676629E+03  0.59748241160E+03 -0.15769364716E+03  0.92564417232E+03  0.50400001928E-02 0. -1.
</event>
<event>
 5   0  0.1782613E-04  0.1842133E+04  0.7818609E-02  0.8684209E-01
        1   -1    0    0  501    0  0.00000000000E+00  0.00000000000E+00  0.46112929678E+03  0.46112929680E+03  0.50400001928E-02 0.  1.
       -1   -1    0    0    0  501  0.00000000000E+00  0.00000000000E+00 -0.18397509513E+04  0.18397509513E+04  0.50400001928E-02 0. -1.
    10030    2    1    2    0    0  0.00000000000E+00  0.00000000000E+00 -0.13786216545E+04  0.23008802481E+04  0.18421325278E+04 0.  0.
        3    1    3    3  502    0 -0.81335860614E+03 -0.41538548733E+03 -0.54012756534E+03  0.10610537792E+04  0.10100000352E+00 0. -1.
       -3    1    3    3    0  502  0.81335860614E+03  0.41538548733E+03 -0.83849408920E+03  0.12398264689E+04  0.10100000352E+00 0.  1.
</event>
<event>
 5   0  0.1813834E-04  0.1814203E+04  0.7818609E-02  0.8698783E-01
        1   -1    0    0  501    0  0.00000000000E+00  0.00000000000E+00  0.92518719696E+03  0.92518719698E+03  0.50400001928E-02 0.  1.
       -1   -1    0    0    0  501  0.00000000000E+00  0.00000000000E+00 -0.88936945892E+03  0.88936945893E+03  0.50400001928E-02 0. -1.
    10030    2    1    2    0    0  0.00000000000E+00  0.00000000000E+00  0.35817738045E+02  0.18145566559E+04  0.18142031163E+04 0.  0.
        5    1    3    3  502    0  0.20018045068E+03 -0.28577148038E+03  0.85537341307E+03  0.92380913484E+03  0.46999998093E+01 0.  1.
       -5    1    3    3    0  502 -0.20018045068E+03  0.28577148038E+03 -0.81955567502E+03  0.89074752107E+03  0.46999998093E+01 0. -1.
</event>
<event>
 5   0  0.1782613E-04  0.1899186E+04  0.7818609E-02  0.8655262E-01
        1   -1    0    0  501    0  0.00000000000E+00  0.00000000000E+00  0.15885190910E+04  0.15885190910E+04  0.50400001928E-02 0. -1.
       -1   -1    0    0    0  501  0.00000000000E+00  0.00000000000E+00 -0.56765250262E+03  0.56765250264E+03  0.50400001928E-02 0.  1.
    10030    2    1    2    0    0  0.00000000000E+00  0.00000000000E+00  0.10208665884E+04  0.21561715936E+04  0.18991859704E+04 0.  0.
        3    1    3    3  502    0 -0.80706705216E+03 -0.29328991175E+03  0.50175119211E+02  0.86017076898E+03  0.10100000352E+00 0.  1.
       -3    1    3    3    0  502  0.80706705216E+03  0.29328991175E+03  0.97069146916E+03  0.12960008247E+04  0.10100000352E+00 0. -1.
</event>
<event>
 5   0  0.3535876E-04  0.1876289E+04  0.7818609E-02  0.8666750E-01
       -2   -1    0    0    0  501  0.00000000000E+00  0.00000000000E+00  0.87622859210E+03  0.87622859211E+03  0.25500000920E-02 0.  1.
        2   -1    0    0  501    0  0.00000000000E+00  0.00000000000E+00 -0.10044356006E+04  0.10044356006E+04  0.25500000920E-02 0. -1.
    10030    2    1    2    0    0  0.00000000000E+00  0.00000000000E+00 -0.12820700847E+03  0.18806641927E+04  0.18762890952E+04 0.  0.
        2    1    3    3  502    0 -0.51834759311E+03  0.71341014032E+03  0.25676313712E+03  0.91845825391E+03  0.25500000920E-02 0. -1.
       -2    1    3    3    0  502  0.51834759311E+03 -0.71341014032E+03 -0.38497014558E+03  0.96220593876E+03  0.25500000920E-02 0.  1.
</event>
<event>
 5   0  0.3535876E-04  0.1889394E+04  0.7818609E-02  0.8660153E-01
       -2   -1    0    0    0  501  0.00000000000E+00  0.00000000000E+00  0.10557574098E+04  0.10557574098E+04  0.25500000920E-02 0.  1.
        2   -1    0    0  501    0  0.00000000000E+00  0.00000000000E+00 -0.84532002781E+03  0.84532002781E+03  0.25500000920E-02 0. -1.
    10030    2    1    2    0    0  0.00000000000E+00  0.00000000000E+00  0.21043738198E+03  0.19010774376E+04  0.18893944882E+04 0.  0.
        2    1    3    3  502    0  0.85625229899E+03 -0.29690271481E+03 -0.16313943175E+03  0.92083315307E+03  0.25500000920E-02 0. -1.
       -2    1    3    3    0  502 -0.85625229899E+03  0.29690271481E+03  0.37357681373E+03  0.98024428453E+03  0.25500000920E-02 0.  1.
</event>
<event>
 5   0  0.3516539E-04  0.1857740E+04  0.7818609E-02  0.8676183E-01
       -2   -1    0    0    0  501  0.00000000000E+00  0.00000000000E+00  0.48894505358E+03  0.48894505359E+03  0.25500000920E-02 0. -1.
        2   -1    0    0  501    0  0.00000000000E+00  0.00000000000E+00 -0.17646142020E+04  0.17646142020E+04  0.25500000920E-02 0.  1.
    10030    2    1    2    0    0  0.00000000000E+00  0.00000000000E+00 -0.12756691485E+04  0.22535592556E+04  0.18577399017E+04 0.  0.
        4    1    3    3  502    0 -0.73711837523E+03 -0.24755729956E+03 -0.12541977322E+04  0.14756834620E+04  0.12699999809E+01 0.  1.
       -4    1    3    3    0  502  0.73711837523E+03  0.24755729956E+03 -0.21471416227E+02  0.77787579361E+03  0.12699999809E+01 0. -1.
</event>
<event>
 5   0  0.1287000E-04  0.1888703E+04  0.7818609E-02  0.8660500E-01
       -3   -1    0    0    0  501  0.00000000000E+00  0.00000000000E+00  0.15101806290E+04  0.15101806323E+04  0.10100000352E+00 0. -1.
        3   -1    0    0  501    0  0.00000000000E+00  0.00000000000E+00 -0.59052545000E+03  0.59052545864E+03  0.10100000352E+00 0.  1.
    10030    2    1    2    0    0  0.00000000000E+00  0.00000000000E+00  0.91965517897E+03  0.21007060910E+04  0.18887033734E+04 0.  0.
        1    1    3    3  502    0 -0.44598199752E+03 -0.82686640875E+03  0.56646487943E+03  0.10970371278E+04  0.50400001928E-02 0. -1.
       -1    1    3    3    0  502  0.44598199752E+03  0.82686640875E+03  0.35319029953E+03  0.10036689632E+04  0.50400001928E-02 0.  1.
</event>
<event>
 5   0  0.1782613E-04  0.1914571E+04  0.7818609E-02  0.8647637E-01
        1   -1    0    0  501    0  0.00000000000E+00  0.00000000000E+00  0.55729758765E+03  0.55729758767E+03  0.50400001928E-02 0.  1.
       -1   -1    0    0    0  501  0.00000000000E+00  0.00000000000E+00 -0.16443562987E+04  0.16443562987E+04  0.50400001928E-02 0. -1.
    10030    2    1    2    0    0  0.00000000000E+00  0.00000000000E+00 -0.10870587111E+04  0.22016538864E+04  0.19145712821E+04 0.  0.
        3    1    3    3  502    0 -0.82517057180E+03  0.45199543261E+03 -0.34044272832E+03  0.10005536493E+04  0.10100000352E+00 0.  1.
       -3    1    3    3    0  502  0.82517057180E+03 -0.45199543261E+03 -0.74661598276E+03  0.12011002371E+04  0.10100000352E+00 0. -1.
</event>
<event>
 5   0  0.1711979E-04  0.1908696E+04  0.7818609E-02  0.8650540E-01
       -1   -1    0    0    0  501  0.00000000000E+00  0.00000000000E+00  0.73606369342E+03  0.73606369344E+03  0.50400001928E-02 0.  1.
        1   -1    0    0  501    0  0.00000000000E+00  0.00000000000E+00 -0.12373660364E+04  0.12373660364E+04  0.50400001928E-02 0. -1.
    10030    2    1    2    0    0  0.00000000000E+00  0.00000000000E+00 -0.50130234300E+03  0.19734297299E+04  0.19086961151E+04 0.  0.
        4    1    3    3  502    0 -0.23470254094E+03  0.41777784992E+03 -0.11039631605E+04  0.12034782454E+04  0.12699999809E+01 0. -1.
       -4    1    3    3    0  502  0.23470254094E+03 -0.41777784992E+03  0.60266081747E+03  0.76995148446E+03  0.12699999809E+01 0.  1.
</event>
<event>
 5   0  0.3623359E-04  0.1899145E+04  0.7818609E-02  0.8655282E-01
        2   -1    0    0  501    0  0.00000000000E+00  0.00000000000E+00  0.14791410570E+04  0.14791410570E+04  0.25500000920E-02 0.  1.
       -2   -1    0    0    0  501  0.00000000000E+00  0.00000000000E+00 -0.60960252735E+03  0.60960252736E+03  0.25500000920E-02 0. -1.
    10030    2    1    2    0    0  0.00000000000E+00  0.00000000000E+00  0.86953852962E+03  0.20887435843E+04  0.18991452042E+04 0.  0.
        5    1    3    3  502    0  0.40572666145E+03 -0.27090745680E+03 -0.46121447222E+03  0.67137608934E+03  0.46999998093E+01 0. -1.
       -5    1    3    3    0  502 -0.40572666145E+03  0.27090745680E+03  0.13307530018E+04  0.14173674950E+04  0.46999998093E+01 0.  1.
</event>
<event>
 5   0  0.1782613E-04  0.1982641E+04  0.7818609E-02  0.8614780E-01
       -1   -1    0    0    0  501  0.00000000000E+00  0.00000000000E+00  0.51468709729E+03  0.51468709732E+03  0.50400001928E-02 0. -1.
        1   -1    0    0  501    0  0.00000000000E+00  0.00000000000E+00 -0.19093470007E+04  0.19093470007E+04  0.50400001928E-02 0.  1.
    10030    2    1    2    0    0  0.00000000000E+00  0.00000000000E+00 -0.13946599034E+04  0.24240340980E+04  0.19826409312E+04 0.  0.
        3    1    3    3  502    0 -0.23226812710E+02 -0.56281102204E+03  0.30000893503E+03  0.63820145930E+03  0.10100000352E+00 0. -1.
       -3    1    3    3    0  502  0.23226812710E+02  0.56281102204E+03 -0.16946688385E+04  0.17858326387E+04  0.10100000352E+00 0.  1.
</event>
<event>
 5   0  0.1758946E-04  0.1865090E+04  0.7818609E-02  0.8672431E-01
        1   -1    0    0  501    0  0.00000000000E+00  0.00000000000E+00  0.10879155669E+04  0.10879155669E+04  0.50400001928E-02 0. -1.
       -1   -1    0    0    0  501  0.00000000000E+00  0.00000000000E+00 -0.79936370539E+03  0.79936370541E+03  0.50400001928E-02 0.  1.
    10030    2    1    2    0    0  0.00000000000E+00  0.00000000000E+00  0.28855186151E+03  0.18872792723E+04  0.18650900447E+04 0.  0.
        2    1    3    3  502    0 -0.38297117955E+03  0.35989635313E+03  0.92379665952E+03  0.10628229286E+04  0.25500000920E-02 0. -1.
       -2    1    3    3    0  502  0.38297117955E+03 -0.35989635313E+03 -0.63524479800E+03  0.82445634375E+03  0.25500000920E-02 0.  1.
</event>
<event>
 5   0  0.3459485E-04  0.1891376E+04  0.7818609E-02  0.8659161E-01
        2   -1    0    0  501    0  0.00000000000E+00  0.00000000000E+00  0.21023064291E+04  0.21023064291E+04  0.25500000920E-02 0.  1.
       -2   -1    0    0    0  501  0.00000000000E+00  0.00000000000E+00 -0.42540204976E+03  0.42540204976E+03  0.25500000920E-02 0. -1.
    10030    2    1    2    0    0  0.00000000000E+00  0.00000000000E+00  0.16769043794E+04  0.25277084789E+04  0.18913756519E+04 0.  0.
        3    1    3    3  502    0 -0.88582716720E+03 -0.26824936010E+03  0.10978658898E+04  0.14359516049E+04  0.10100000352E+00 0.  1.
       -3    1    3    3    0  502  0.88582716720E+03  0.26824936010E+03  0.57903848954E+03  0.10917568740E+04  0.10100000352E+00 0. -1.
</event>
<event>
 5   0  0.1782613E-04  0.1898720E+04  0.7818609E-02  0.8655494E-01
       -1   -1    0    0    0  501  0.00000000000E+00  0.00000000000E+00  0.45954639066E+03  0.45954639069E+03  0.50400001928E-02 0. -1.
        1   -1    0    0  501    0  0.00000000000E+00  0.00000000000E+00 -0.19612478189E+04  0.19612478189E+04  0.50400001928E-02 0.  1.
    10030    2    1    2    0    0  0.00000000000E+00  0.00000000000E+00 -0.15017014282E+04  0.24207942096E+04  0.18987199440E+04 0.  0.
        3    1    3    3  502    0 -0.95830934922E+02 -0.88979156956E+03 -0.34692389643E+03  0.95982748734E+03  0.10100000352E+00 0.  1.
       -3    1    3    3    0  502  0.95830934922E+02  0.88979156956E+03 -0.11547775318E+04  0.14609667222E+04  0.10100000352E+00 0. -1.
</event>
<event>
 5   0  0.1782613E-04  0.1887014E+04  0.7818609E-02  0.8661348E-01
       -1   -1    0    0    0  501  0.00000000000E+00  0.00000000000E+00  0.30338300756E+03  0.30338300760E+03  0.50400001928E-02 0.  1.
        1   -1    0    0  501    0  0.00000000000E+00  0.00000000000E+00 -0.29342620372E+04  0.29342620372E+04  0.50400001928E-02 0. -1.
    10030    2    1    2    0    0  0.00000000000E+00  0.00000000000E+00 -0.26308790297E+04  0.32376450448E+04  0.18870137698E+04 0.  0.
        3    1    3    3  502    0 -0.72849523633E+03  0.43492000889E+03 -0.20235780574E+04  0.21942490487E+04  0.10100000352E+00 0. -1.
       -3    1    3    3    0  502  0.72849523633E+03 -0.43492000889E+03 -0.60730097230E+03  0.10433959961E+04  0.10100000352E+00 0.  1.
</event>
<event>
 5   0  0.1782613E-04  0.1897833E+04  0.7818609E-02  0.8655936E-01
        1   -1    0    0  501    0  0.00000000000E+00  0.00000000000E+00  0.62705726984E+03  0.62705726986E+03  0.50400001928E-02 0.  1.
       -1   -1    0    0    0  501  0.00000000000E+00  0.00000000000E+00 -0.14359807959E+04  0.14359807959E+04  0.50400001928E-02 0. -1.
    10030    2    1    2    0    0  0.00000000000E+00  0.00000000000E+00 -0.80892352606E+03  0.20630380658E+04  0.18978326559E+04 0.  0.
        3    1    3    3  502    0 -0.13389912101E+02  0.65649774891E+02 -0.14334062420E+04  0.14349713055E+04  0.10100000352E+00 0. -1.
       -3    1    3    3    0  502  0.13389912101E+02 -0.65649774891E+02  0.62448271594E+03  0.62806676031E+03  0.10100000352E+00 0.  1.
</event>
<event>
 5   0  0.1287000E-04  0.1776336E+04  0.7818609E-02  0.8718986E-01
       -4   -1    0    0    0  501  0.00000000000E+00  0.00000000000E+00  0.92536582340E+03  0.92536669490E+03  0.12699999809E+01 0. -1.
        4   -1    0    0  501    0  0.00000000000E+00  0.00000000000E+00 -0.85246392191E+03  0.85246486793E+03  0.12699999809E+01 0.  1.
    10030    2    1    2    0    0  0.00000000000E+00  0.00000000000E+00  0.72901901497E+02  0.17778315628E+04  0.17763362234E+04 0.  0.
        3    1    3    3  502    0 -0.86496380193E+03 -0.83567908083E+01  0.23814074010E+03  0.89718628885E+03  0.10100000352E+00 0. -1.
       -3    1    3    3    0  502  0.86496380193E+03  0.83567908083E+01 -0.16523883861E+03  0.88064527398E+03  0.10100000352E+00 0.  1.
</event>
<event>
 5   0  0.1711979E-04  0.1893879E+04  0.7818609E-02  0.8657909E-01
        1   -1    0    0  501    0  0.00000000000E+00  0.00000000000E+00  0.84795687979E+03  0.84795687980E+03  0.50400001928E-02 0.  1.
       -1   -1    0    0    0  501  0.00000000000E+00  0.00000000000E+00 -0.10574758842E+04  0.10574758842E+04  0.50400001928E-02 0. -1.
    10030    2    1    2    0    0  0.00000000000E+00  0.00000000000E+00 -0.20951900439E+03  0.19054327640E+04  0.18938785085E+04 0.  0.
        4    1    3    3  502    0  0.48247504993E+03 -0.14654877412E+03 -0.91116901743E+03  0.10413881640E+04  0.12699999809E+01 0. -1.
       -4    1    3    3    0  502 -0.48247504993E+03  0.14654877412E+03  0.70165001303E+03  0.86404459995E+03  0.12699999809E+01 0.  1.
</event>
<event>
 5   0  0.1711979E-04  0.1904652E+04  0.7818609E-02  0.8652544E-01
        1   -1    0    0  501    0  0.00000000000E+00  0.00000000000E+00  0.17345191314E+04  0.17345191314E+04  0.50400001928E-02 0. -1.
       -1   -1    0    0    0  501  0.00000000000E+00  0.00000000000E+00 -0.52286816124E+03  0.52286816127E+03  0.50400001928E-02 0.  1.
    10030    2    1    2    0    0  0.00000000000E+00  0.00000000000E+00  0.12116509701E+04  0.22573872927E+04  0.19046520196E+04 0.  0.
        4    1    3    3  502    0 -0.27345071436E+03  0.33259864961E+03  0.16125634477E+04  0.16690595078E+04  0.12699999809E+01 0. -1.
       -4    1    3    3    0  502  0.27345071436E+03 -0.33259864961E+03 -0.40091247753E+03  0.58832778486E+03  0.12699999809E+01 0.  1.
</event>
<event>
 5   0  0.3459485E-04  0.1888404E+04  0.7818609E-02  0.8660650E-01
       -2   -1    0    0    0  501  0.00000000000E+00  0.00000000000E+00  0.69332066859E+03  0.69332066859E+03  0.25500000920E-02 0.  1.
        2   -1    0    0  501    0  0.00000000000E+00  0.00000000000E+00 -0.12858659352E+04  0.12858659352E+04  0.25500000920E-02 0. -1.
    10030    2    1    2    0    0  0.00000000000E+00  0.00000000000E+00 -0.59254526660E+03  0.19791866038E+04  0.18884040139E+04 0.  0.
        3    1    3    3  502    0 -0.51475406519E+03  0.22795201787E+03  0.49818075542E+03  0.75174327091E+03  0.10100000352E+00 0.  1.
       -3    1    3    3    0  502  0.51475406519E+03 -0.22795201787E+03 -0.10907260220E+04  0.12274433329E+04  0.10100000352E+00 0. -1.
</event>
<event>
 5   0  0.3516539E-04  0.1908991E+04  0.7818609E-02  0.8650394E-01
       -2   -1    0    0    0  501  0.00000000000E+00  0.00000000000E+00  0.56473928641E+03  0.56473928642E+03  0.25500000920E-02 0. -1.
        2   -1    0    0  501    0  0.00000000000E+00  0.00000000000E+00 -0.16132429132E+04  0.16132429132E+04  0.25500000920E-02 0.  1.
    10030    2    1    2    0    0  0.00000000000E+00  0.00000000000E+00 -0.10485036268E+04  0.21779821996E+04  0.19089909917E+04 0.  0.
        4    1    3    3  502    0 -0.95338953752E+03 -0.42431203355E+02 -0.54427535621E+03  0.10986306447E+04  0.12699999809E+01 0. -1.
       -4    1    3    3    0  502  0.95338953752E+03  0.42431203355E+02 -0.50422827056E+03  0.10793515549E+04  0.12699999809E+01 0.  1.
</event>
<event>
 5   0  0.3516539E-04  0.1881786E+04  0.7818609E-02  0.8663976E-01
        2   -1    0    0  501    0  0.00000000000E+00  0.00000000000E+00  0.76762488272E+03  0.76762488272E+03  0.25500000920E-02 0. -1.
       -2   -1    0    0    0  501  0.00000000000E+00  0.00000000000E+00 -0.11532714802E+04  0.11532714802E+04  0.25500000920E-02 0.  1.
    10030    2    1    2    0    0  0.00000000000E+00  0.00000000000E+00 -0.38564659745E+03  0.19208963629E+04  0.18817862628E+04 0.  0.
        4    1    3    3  502    0 -0.10359352399E+03  0.53426397238E+03 -0.97630948617E+03  0.11177439045E+04  0.12699999809E+01 0.  1.
       -4    1    3    3    0  502  0.10359352399E+03 -0.53426397238E+03  0.59066288872E+03  0.80315245838E+03  0.12699999809E+01 0. -1.
</event>
<event>
 5   0  0.1813834E-04  0.1934361E+04  0.7818609E-02  0.8637939E-01
        1   -1    0    0  501    0  0.00000000000E+00  0.00000000000E+00  0.95462012080E+03  0.95462012081E+03  0.50400001928E-02 0.  1.
       -1   -1    0    0    0  501  0.00000000000E+00  0.00000000000E+00 -0.97990587560E+03  0.97990587561E+03  0.50400001928E-02 0. -1.
    10030    2    1    2    0    0  0.00000000000E+00  0.00000000000E+00 -0.25285754800E+02  0.19345259964E+04  0.19343607372E+04 0.  0.
        5    1    3    3  502    0 -0.95793458231E+03 -0.11561186559E+03 -0.79063970683E+02  0.96813117340E+03  0.46999998093E+01 0. -1.
       -5    1    3    3    0  502  0.95793458231E+03  0.11561186559E+03  0.53778215884E+02  0.96639482302E+03  0.46999998093E+01 0.  1.
</event>
<event>
 5   0  0.1782613E-04  0.1866156E+04  0.7818609E-02  0.8671888E-01
       -1   -1    0    0    0  501  0.00000000000E+00  0.00000000000E+00  0.38777147562E+03  0.38777147566E+03  0.50400001928E-02 0. -1.
        1   -1    0    0  501    0  0.00000000000E+00  0.00000000000E+00 -0.22452263534E+04  0.22452263534E+04  0.50400001928E-02 0.  1.
    10030    2    1    2    0    0  0.00000000000E+00  0.00000000000E+00 -0.18574548778E+04  0.26329978291E+04  0.18661561952E+04 0.  0.
        3    1    3    3  502    0  0.17051808503E+03 -0.52314899553E+03  0.13450516920E+03  0.56643882246E+03  0.10100000352E+00 0. -1.
       -3    1    3    3    0  502 -0.17051808503E+03  0.52314899553E+03 -0.19919600470E+04  0.20665590066E+04  0.10100000352E+00 0.  1.
</event>
<event>
 5   0  0.3516539E-04  0.1871114E+04  0.7818609E-02  0.8669370E-01
       -2   -1    0    0    0  501  0.00000000000E+00  0.00000000000E+00  0.61170498603E+03  0.61170498604E+03  0.25500000920E-02 0.  1.
        2   -1    0    0  501    0  0.00000000000E+00  0.00000000000E+00 -0.14308636774E+04  0.14308636774E+04  0.25500000920E-02 0. -1.
    10030    2    1    2    0    0  0.00000000000E+00  0.00000000000E+00 -0.81915869142E+03  0.20425686635E+04  0.18711135143E+04 0.  0.
        4    1    3    3  502    0 -0.81276329825E+03  0.18862077487E+03  0.52405560194E+02  0.83600833210E+03  0.12699999809E+01 0.  1.
       -4    1    3    3    0  502  0.81276329825E+03 -0.18862077487E+03 -0.87156425161E+03  0.12065603314E+04  0.12699999809E+01 0. -1.
</event>
<event>
 5   0  0.3623359E-04  0.1877159E+04  0.7818609E-02  0.8666310E-01
       -2   -1    0    0    0  501  0.00000000000E+00  0.00000000000E+00  0.37986550246E+03  0.37986550247E+03  0.25500000920E-02 0.  1.
        2   -1    0    0  501    0  0.00000000000E+00  0.00000000000E+00 -0.23190613075E+04  0.23190613075E+04  0.25500000920E-02 0. -1.
    10030    2    1    2    0    0  0.00000000000E+00  0.00000000000E+00 -0.19391958051E+04  0.26989268100E+04  0.18771589052E+04 0.  0.
        5    1    3    3  502    0  0.24737284641E+03 -0.90310561083E+03 -0.10618422692E+04  0.14157415598E+04  0.46999998093E+01 0.  1.
       -5    1    3    3    0  502 -0.24737284641E+03  0.90310561083E+03 -0.87735353583E+03  0.12831852502E+04  0.46999998093E+01 0. -1.
</event>
<event>
 5   0  0.1813834E-04  0.1947307E+04  0.7818609E-02  0.8631660E-01
       -1   -1    0    0    0  501  0.00000000000E+00  0.00000000000E+00  0.41381523565E+03  0.41381523568E+03  0.50400001928E-02 0. -1.
        1   -1    0    0  501    0  0.00000000000E+00  0.00000000000E+00 -0.22908812268E+04  0.22908812269E+04  0.50400001928E-02 0.  1.
    10030    2    1    2    0    0  0.00000000000E+00  0.00000000000E+00 -0.18770659912E+04  0.27046964625E+04  0.19473074280E+04 0.  0.
        5    1    3    3  502    0  0.81941540997E+03 -0.42130439576E+03 -0.13756425806E+04  0.16557033574E+04  0.46999998093E+01 0.  1.
       -5    1    3    3    0  502 -0.81941540997E+03  0.42130439576E+03 -0.50142341056E+03  0.10489931051E+04  0.46999998093E+01 0. -1.
</event>
<event>
 5   0  0.1782613E-04  0.1265815E+04  0.7818609E-02  0.9057122E-01
       -1   -1    0    0    0  501  0.00000000000E+00  0.00000000000E+00  0.58155908919E+03  0.58155908921E+03  0.50400001928E-02 0.  1.
        1   -1    0    0  501    0  0.00000000000E+00  0.00000000000E+00 -0.68878993633E+03  0.68878993635E+03  0.50400001928E-02 0. -1.
    10030    2    1    2    0    0  0.00000000000E+00  0.00000000000E+00 -0.10723084714E+03  0.12703490256E+04  0.12658152283E+04 0.  0.
        3    1    3    3  502    0  0.15263965774E+03  0.34661209484E+03 -0.56251471244E+03  0.67813097652E+03  0.10100000352E+00 0. -1.
       -3    1    3    3    0  502 -0.15263965774E+03 -0.34661209484E+03  0.45528386530E+03  0.59221804904E+03  0.10100000352E+00 0.  1.
</event>
<event>
 5   0  0.3535876E-04  0.1909310E+04  0.7818609E-02  0.8650236E-01
       -2   -1    0    0    0  501  0.00000000000E+00  0.00000000000E+00  0.42036397729E+03  0.42036397730E+03  0.25500000920E-02 0. -1.
        2   -1    0    0  501    0  0.00000000000E+00  0.00000000000E+00 -0.21680402802E+04  0.21680402802E+04  0.25500000920E-02 0.  1.
    10030    2    1    2    0    0  0.00000000000E+00  0.00000000000E+00 -0.17476763029E+04  0.25884042575E+04  0.19093098598E+04 0.  0.
        2    1    3    3  502    0 -0.12917167796E+03 -0.54233389851E+03 -0.19244249981E+04  0.20035525831E+04  0.25500000920E-02 0.  1.
       -2    1    3    3    0  502  0.12917167796E+03  0.54233389851E+03  0.17674869516E+03  0.58485167445E+03  0.25500000920E-02 0. -1.
</event>
<event>
 5   0  0.3623359E-04  0.1882751E+04  0.7818609E-02  0.8663490E-01
       -2   -1    0    0    0  501  0.00000000000E+00  0.00000000000E+00  0.42257206932E+03  0.42257206933E+03  0.25500000920E-02 0.  1.
        2   -1    0    0  501    0  0.00000000000E+00  0.00000000000E+00 -0.20971288027E+04  0.20971288027E+04  0.25500000920E-02 0. -1.
    10030    2    1    2    0    0  0.00000000000E+00  0.00000000000E+00 -0.16745567334E+04  0.25197008720E+04  0.18827512399E+04 0.  0.
        5    1    3    3  502    0  0.10212272250E+03 -0.57262337161E+03 -0.18278426673E+04  0.19181651344E+04  0.46999998093E+01 0. -1.
       -5    1    3    3    0  502 -0.10212272250E+03  0.57262337161E+03  0.15328593393E+03  0.60153573768E+03  0.46999998093E+01 0.  1.
</event>
<event>
 5   0  0.3720978E-04  0.1877524E+04  0.7818609E-02  0.8666126E-01
        2   -1    0    0  501    0  0.00000000000E+00  0.00000000000E+00  0.85982020694E+03  0.85982020694E+03  0.25500000920E-02 0. -1.
       -2   -1    0    0    0  501  0.00000000000E+00  0.00000000000E+00 -0.10249510839E+04  0.10249510839E+04  0.25500000920E-02 0.  1.
    10030    2    1    2    0    0  0.00000000000E+00  0.00000000000E+00 -0.16513087701E+03  0.18847712909E+04  0.18775235318E+04 0.  0.
        1    1    3    3  502    0  0.39823161979E+02 -0.93039341635E+03  0.36449636627E+02  0.93195835178E+03  0.50400001928E-02 0.  1.
       -1    1    3    3    0  502 -0.39823161979E+02  0.93039341635E+03 -0.20158051364E+03  0.95281293911E+03  0.50400001928E-02 0. -1.
</event>
<event>
 5   0  0.3516539E-04  0.1887181E+04  0.7818609E-02  0.8661264E-01
       -2   -1    0    0    0  501  0.00000000000E+00  0.00000000000E+00  0.33496330689E+03  0.33496330690E+03  0.25500000920E-02 0. -1.
        2   -1    0    0  501    0  0.00000000000E+00  0.00000000000E+00 -0.26580919369E+04  0.26580919369E+04  0.25500000920E-02 0.  1.
    10030    2    1    2    0    0  0.00000000000E+00  0.00000000000E+00 -0.23231286301E+04  0.29930552438E+04  0.18871812475E+04 0.  0.
        4    1    3    3  502    0  0.36485136089E+03  0.26573647419E+03  0.15263814149E+03  0.47647917520E+03  0.12699999809E+01 0. -1.
       -4    1    3    3    0  502 -0.36485136089E+03 -0.26573647419E+03 -0.24757667716E+04  0.25165760686E+04  0.12699999809E+01 0.  1.
</event>
<event>
 5   0  0.3623359E-04  0.1895388E+04  0.7818609E-02  0.8657155E-01
       -2   -1    0    0    0  501  0.00000000000E+00  0.00000000000E+00  0.90883304899E+03  0.90883304900E+03  0.25500000920E-02 0.  1.
        2   -1    0    0  501    0  0.00000000000E+00  0.00000000000E+00 -0.98821706374E+03  0.98821706375E+03  0.25500000920E-02 0. -1.
    10030    2    1    2    0    0  0.00000000000E+00  0.00000000000E+00 -0.79384014751E+02  0.18970501127E+04  0.18953884321E+04 0.  0.
        5    1    3    3  502    0 -0.69937415420E+03 -0.59320376868E+03  0.19944698728E+03  0.93851803898E+03  0.46999998093E+01 0. -1.
       -5    1    3    3    0  502  0.69937415420E+03  0.59320376868E+03 -0.27883100203E+03  0.95853207377E+03  0.46999998093E+01 0.  1.
</event>
<event>
 5   0  0.3459485E-04  0.1893932E+04  0.7818609E-02  0.8657883E-01
       -2   -1    0    0    0  501  0.00000000000E+00  0.00000000000E+00  0.47431098995E+03  0.47431098996E+03  0.25500000920E-02 0. -1.
        2   -1    0    0  501    0  0.00000000000E+00  0.00000000000E+00 -0.18906264066E+04  0.18906264066E+04  0.25500000920E-02 0.  1.
    10030    2    1    2    0    0  0.00000000000E+00  0.00000000000E+00 -0.14163154167E+04  0.23649373966E+04  0.18939322929E+04 0.  0.
        3    1    3    3  502    0 -0.86100243383E+03 -0.39035191771E+03 -0.63925231068E+03  0.11412025840E+04  0.10100000352E+00 0.  1.
       -3    1    3    3    0  502  0.86100243383E+03  0.39035191771E+03 -0.77706310597E+03  0.12237348126E+04  0.10100000352E+00 0. -1.
</event>
<event>
 5   0  0.1711979E-04  0.1894709E+04  0.7818609E-02  0.8657494E-01
       -1   -1    0    0    0  501  0.00000000000E+00  0.00000000000E+00  0.54655216916E+03  0.54655216918E+03  0.50400001928E-02 0.  1.
        1   -1    0    0  501    0  0.00000000000E+00  0.00000000000E+00 -0.16420771580E+04  0.16420771580E+04  0.50400001928E-02 0. -1.
    10030    2    1    2    0    0  0.00000000000E+00  0.00000000000E+00 -0.10955249889E+04  0.21886293272E+04  0.18947092998E+04 0.  0.
        4    1    3    3  502    0  0.37684821250E+02 -0.74344256424E+02  0.54230752157E+03  0.54867684029E+03  0.12699999809E+01 0.  1.
       -4    1    3    3    0  502 -0.37684821250E+02  0.74344256424E+02 -0.16378325104E+04  0.16399524869E+04  0.12699999809E+01 0. -1.
</event>
<event>
 5   0  0.3623359E-04  0.1791729E+04  0.7818609E-02  0.8710710E-01
        2   -1    0    0  501    0  0.00000000000E+00  0.00000000000E+00  0.10314573541E+04  0.10314573541E+04  0.25500000920E-02 0. -1.
       -2   -1    0    0    0  501  0.00000000000E+00  0.00000000000E+00 -0.77809602547E+03  0.77809602547E+03  0.25500000920E-02 0.  1.
    10030    2    1    2    0    0  0.00000000000E+00  0.00000000000E+00  0.25336132858E+03  0.18095533795E+04  0.17917286264E+04 0.  0.
        5    1    3    3  502    0 -0.81729935985E+03 -0.29492481677E+03  0.34700660156E+03  0.93562522555E+03  0.46999998093E+01 0. -1.
       -5    1    3    3    0  502  0.81729935985E+03  0.29492481677E+03 -0.93645272977E+02  0.87392815398E+03  0.46999998093E+01 0.  1.
</event>
<event>
 5   0  0.1813834E-04  0.1881542E+04  0.7818609E-02  0.8664099E-01
        1   -1    0    0  501    0  0.00000000000E+00  0.00000000000E+00  0.12727137549E+04  0.12727137549E+04  0.50400001928E-02 0.  1.
       -1   -1    0    0    0  501  0.00000000000E+00  0.00000000000E+00 -0.69540369396E+03  0.69540369398E+03  0.50400001928E-02 0. -1.
    10030    2    1    2    0    0  0.00000000000E+00  0.00000000000E+00  0.57731006096E+03  0.19681174489E+04  0.18815417578E+04 0.  0.
        5    1    3    3  502    0  0.41010812074E+03  0.83739734415E+03  0.15798803946E+03  0.94573003193E+03  0.46999998093E+01 0.  1.
       -5    1    3    3    0  502 -0.41010812074E+03 -0.83739734415E+03  0.41932202150E+03  0.10223874170E+04  0.46999998093E+01 0. -1.
</event>
<event>
 5   0  0.1813834E-04  0.1895650E+04  0.7818609E-02  0.8657025E-01
        1   -1    0    0  501    0  0.00000000000E+00  0.00000000000E+00  0.20823850818E+04  0.20823850818E+04  0.50400001928E-02 0.  1.
       -1   -1    0    0    0  501  0.00000000000E+00  0.00000000000E+00 -0.43141481312E+03  0.43141481315E+03  0.50400001928E-02 0. -1.
    10030    2    1    2    0    0  0.00000000000E+00  0.00000000000E+00  0.16509702687E+04  0.25137998949E+04  0.18956495150E+04 0.  0.
        5    1    3    3  502    0  0.17518706688E+03 -0.35299149490E+03 -0.31761291615E+03  0.50615566615E+03  0.46999998093E+01 0. -1.
       -5    1    3    3    0  502 -0.17518706688E+03  0.35299149490E+03  0.19685831848E+04  0.20076442288E+04  0.46999998093E+01 0.  1.
</event>
<event>
 5   0  0.1813834E-04  0.1915572E+04  0.7818609E-02  0.8647144E-01
        1   -1    0    0  501    0  0.00000000000E+00  0.00000000000E+00  0.16752201727E+04  0.16752201728E+04  0.50400001928E-02 0. -1.
       -1   -1    0    0    0  501  0.00000000000E+00  0.00000000000E+00 -0.54760199808E+03  0.54760199810E+03  0.50400001928E-02 0.  1.
    10030    2    1    2    0    0  0.00000000000E+00  0.00000000000E+00  0.11276181747E+04  0.22228221709E+04  0.19155718873E+04 0.  0.
        5    1    3    3  502    0  0.38534440197E+03  0.64733256921E+03  0.12501145360E+04  0.14595678149E+04  0.46999998093E+01 0. -1.
       -5    1    3    3    0  502 -0.38534440197E+03 -0.64733256921E+03 -0.12249636134E+03  0.76325435591E+03  0.46999998093E+01 0.  1.
</event>
<event>
 5   0  0.1694830E-04  0.1883813E+04  0.7818609E-02  0.8662956E-01
        1   -1    0    0  501    0  0.00000000000E+00  0.00000000000E+00  0.70883362839E+03  0.70883362840E+03  0.50400001928E-02 0. -1.
       -1   -1    0    0    0  501  0.00000000000E+00  0.00000000000E+00 -0.12516161326E+04  0.12516161326E+04  0.50400001928E-02 0.  1.
    10030    2    1    2    0    0  0.00000000000E+00  0.00000000000E+00 -0.54278250419E+03  0.19604497610E+04  0.18838127345E+04 0.  0.
        1    1    3    3  502    0 -0.23054856095E+03 -0.62161101452E+03  0.42488224981E+03  0.78745020068E+03  0.50400001928E-02 0. -1.
       -1    1    3    3    0  502  0.23054856095E+03  0.62161101452E+03 -0.96766475400E+03  0.11729995603E+04  0.50400001928E-02 0.  1.
</event>
<event>
 5   0  0.3459485E-04  0.1935434E+04  0.7818609E-02  0.8637417E-01
        2   -1    0    0  501    0  0.00000000000E+00  0.00000000000E+00  0.69375854698E+03  0.69375854699E+03  0.25500000920E-02 0. -1.
       -2   -1    0    0    0  501  0.00000000000E+00  0.00000000000E+00 -0.13498587315E+04  0.13498587315E+04  0.25500000920E-02 0.  1.
    10030    2    1    2    0    0  0.00000000000E+00  0.00000000000E+00 -0.65610018454E+03  0.20436172785E+04  0.19354338348E+04 0.  0.
        3    1    3    3  502    0 -0.76023964064E+03  0.36720406989E+02 -0.95908685954E+03  0.12244020230E+04  0.10100000352E+00 0.  1.
       -3    1    3    3    0  502  0.76023964064E+03 -0.36720406989E+02  0.30298667500E+03  0.81921525555E+03  0.10100000352E+00 0. -1.
</event>
<event>
 5   0  0.1287000E-04  0.1898667E+04  0.7818609E-02  0.8655520E-01
       -4   -1    0    0    0  501  0.00000000000E+00  0.00000000000E+00  0.19092395451E+04  0.19092399675E+04  0.12699999809E+01 0.  1.
        4   -1    0    0  501    0  0.00000000000E+00  0.00000000000E+00 -0.47203712587E+03  0.47203883431E+03  0.12699999809E+01 0. -1.
    10030    2    1    2    0    0  0.00000000000E+00  0.00000000000E+00  0.14372024192E+04  0.23812788018E+04  0.18986674111E+04 0.  0.
        4    1    3    3  502    0  0.64309717587E+03 -0.26382487216E+03  0.15295216220E+04  0.16800641493E+04  0.12699999809E+01 0.  1.
       -4    1    3    3    0  502 -0.64309717587E+03  0.26382487216E+03 -0.92319202748E+02  0.70121465250E+03  0.12699999809E+01 0. -1.
</event>
<event>
 5   0  0.1711979E-04  0.1911380E+04  0.7818609E-02  0.8649213E-01
       -1   -1    0    0    0  501  0.00000000000E+00  0.00000000000E+00  0.80034303351E+03  0.80034303352E+03  0.50400001928E-02 0.  1.
        1   -1    0    0  501    0  0.00000000000E+00  0.00000000000E+00 -0.11411897005E+04  0.11411897006E+04  0.50400001928E-02 0. -1.
    10030    2    1    2    0    0  0.00000000000E+00  0.00000000000E+00 -0.34084666703E+03  0.19415327341E+04  0.19113798437E+04 0.  0.
        4    1    3    3  502    0 -0.83428356505E+03 -0.17543116748E+02  0.30276319440E+03  0.88769588973E+03  0.12699999809E+01 0.  1.
       -4    1    3    3    0  502  0.83428356505E+03  0.17543116748E+02 -0.64360986143E+03  0.10538368443E+04  0.12699999809E+01 0. -1.
</event>
<event>
 5   0  0.3535876E-04  0.1895512E+04  0.7818609E-02  0.8657093E-01
        2   -1    0    0  501    0  0.00000000000E+00  0.00000000000E+00  0.11825991749E+04  0.11825991749E+04  0.25500000920E-02 0.  1.
       -2   -1    0    0    0  501  0.00000000000E+00  0.00000000000E+00 -0.75954863209E+03  0.75954863210E+03  0.25500000920E-02 0. -1.
    10030    2    1    2    0    0  0.00000000000E+00  0.00000000000E+00  0.42305054283E+03  0.19421478070E+04  0.18955121584E+04 0.  0.
        2    1    3    3  502    0  0.15822321252E+03  0.60596057399E+03  0.94037672355E+03  0.11298367955E+04  0.25500000920E-02 0.  1.
       -2    1    3    3    0  502 -0.15822321252E+03 -0.60596057399E+03 -0.51732618072E+03  0.81231101154E+03  0.25500000920E-02 0. -1.
</event>
<event>
 5   0  0.3535876E-04  0.1841488E+04  0.7818609E-02  0.8684543E-01
       -2   -1    0    0    0  501  0.00000000000E+00  0.00000000000E+00  0.51113496384E+03  0.51113496385E+03  0.25500000920E-02 0. -1.
        2   -1    0    0  501    0  0.00000000000E+00  0.00000000000E+00 -0.16586014494E+04  0.16586014494E+04  0.25500000920E-02 0.  1.
    10030    2    1    2    0    0  0.00000000000E+00  0.00000000000E+00 -0.11474664855E+04  0.21697364132E+04  0.18414876506E+04 0.  0.
        2    1    3    3  502    0  0.35196933167E+03 -0.19591769134E+03  0.40180176553E+03  0.56895589548E+03  0.25500000920E-02 0. -1.
       -2    1    3    3    0  502 -0.35196933167E+03  0.19591769134E+03 -0.15492682510E+04  0.16007805177E+04  0.25500000920E-02 0.  1.
</event>
<event>
 5   0  0.1694830E-04  0.1346554E+04  0.7818609E-02  0.8993441E-01
        1   -1    0    0  501    0  0.00000000000E+00  0.00000000000E+00  0.90678510930E+03  0.90678510931E+03  0.50400001928E-02 0. -1.
       -1   -1    0    0    0  501  0.00000000000E+00  0.00000000000E+00 -0.49990021547E+03  0.49990021550E+03  0.50400001928E-02 0.  1.
    10030    2    1    2    0    0  0.00000000000E+00  0.00000000000E+00  0.40688489383E+03  0.14066853248E+04  0.13465542270E+04 0.  0.
        1    1    3    3  502    0  0.14768839389E+02  0.66486023175E+03  0.31322985488E+03  0.73509876098E+03  0.50400001928E-02 0. -1.
       -1    1    3    3    0  502 -0.14768839389E+02 -0.66486023175E+03  0.93655038945E+02  0.67158656383E+03  0.50400001928E-02 0.  1.
</event>
<event>
 5   0  0.3623359E-04  0.1885720E+04  0.7818609E-02  0.8661997E-01
        2   -1    0    0  501    0  0.00000000000E+00  0.00000000000E+00  0.10997591140E+04  0.10997591140E+04  0.25500000920E-02 0. -1.
       -2   -1    0    0    0  501  0.00000000000E+00  0.00000000000E+00 -0.80834542319E+03  0.80834542320E+03  0.25500000920E-02 0.  1.
    10030    2    1    2    0    0  0.00000000000E+00  0.00000000000E+00  0.29141369082E+03  0.19081045372E+04  0.18857202830E+04 0.  0.
        5    1    3    3  502    0  0.74120809595E+03  0.40436276797E+03  0.57028803522E+03  0.10188960804E+04  0.46999998093E+01 0. -1.
       -5    1    3    3    0  502 -0.74120809595E+03 -0.40436276797E+03 -0.27887434440E+03  0.88920845677E+03  0.46999998093E+01 0.  1.
</event>
<event>
 5   0  0.1782613E-04  0.1191361E+04  0.7818609E-02  0.9120452E-01
       -1   -1    0    0    0  501  0.00000000000E+00  0.00000000000E+00  0.63458378632E+03  0.63458378634E+03  0.50400001928E-02 0. -1.
        1   -1    0    0  501    0  0.00000000000E+00  0.00000000000E+00 -0.55916243420E+03  0.55916243422E+03  0.50400001928E-02 0.  1.
    10030    2    1    2    0    0  0.00000000000E+00  0.00000000000E+00  0.75421352121E+02  0.11937462206E+04  0.11913612629E+04 0.  0.
        3    1    3    3  502    0  0.50637432709E+03 -0.74810422707E+02  0.34299064868E+03  0.61616081810E+03  0.10100000352E+00 0. -1.
       -3    1    3    3    0  502 -0.50637432709E+03  0.74810422707E+02 -0.26756929656E+03  0.57758540247E+03  0.10100000352E+00 0.  1.
</event>
<event>
 5   0  0.3516539E-04  0.1900749E+04  0.7818609E-02  0.8654484E-01
        2   -1    0    0  501    0  0.00000000000E+00  0.00000000000E+00  0.24033050614E+04  0.24033050614E+04  0.25500000920E-02 0. -1.
       -2   -1    0    0    0  501  0.00000000000E+00  0.00000000000E+00 -0.37582064891E+03  0.37582064892E+03  0.25500000920E-02 0.  1.
    10030    2    1    2    0    0  0.00000000000E+00  0.00000000000E+00  0.20274844125E+04  0.27791257103E+04  0.19007489763E+04 0.  0.
        4    1    3    3  502    0  0.47649643860E+01 -0.77129900175E+03  0.18255622402E+04  0.19818183471E+04  0.12699999809E+01 0. -1.
       -4    1    3    3    0  502 -0.47649643860E+01  0.77129900175E+03  0.20192217232E+03  0.79730736330E+03  0.12699999809E+01 0.  1.
</event>
<event>
 5   0  0.1287000E-04  0.2039906E+04  0.7818609E-02  0.8588187E-01
        4   -1    0    0  501    0  0.00000000000E+00  0.00000000000E+00  0.14684064705E+04  0.14684070197E+04  0.12699999809E+01 0. -1.
       -4   -1    0    0    0  501  0.00000000000E+00  0.00000000000E+00 -0.70845674235E+03  0.70845788067E+03  0.12699999809E+01 0.  1.
    10030    2    1    2    0    0  0.00000000000E+00  0.00000000000E+00  0.75994972812E+03  0.21768649003E+04  0.20399061756E+04 0.  0.
        4    1    3    3  502    0  0.38800585047E+03 -0.19125754671E+03  0.13656646770E+04  0.14325395673E+04  0.12699999809E+01 0. -1.
       -4    1    3    3    0  502 -0.38800585047E+03  0.19125754671E+03 -0.60571494885E+03  0.74432533299E+03  0.12699999809E+01 0.  1.
</event>
<event>
 5   0  0.1694830E-04  0.1921879E+04  0.7818609E-02  0.8644042E-01
       -1   -1    0    0    0  501  0.00000000000E+00  0.00000000000E+00  0.96840508533E+03  0.96840508534E+03  0.50400001928E-02 0. -1.
        1   -1    0    0  501    0  0.00000000000E+00  0.00000000000E+00 -0.95353105541E+03  0.95353105543E+03  0.50400001928E-02 0.  1.
    10030    2    1    2    0    0  0.00000000000E+00  0.00000000000E+00  0.14874029913E+02  0.19219361408E+04  0.19218785842E+04 0.  0.
        1    1    3    3  502    0 -0.22703897872E+03 -0.43074268296E+03 -0.82103113455E+03  0.95455648377E+03  0.50400001928E-02 0.  1.
       -1    1    3    3    0  502  0.22703897872E+03  0.43074268296E+03  0.83590516446E+03  0.96737965700E+03  0.50400001928E-02 0. -1.
</event>
<event>
 5   0  0.1694830E-04  0.1886884E+04  0.7818609E-02  0.8661413E-01
        1   -1    0    0  501    0  0.00000000000E+00  0.00000000000E+00  0.12364817640E+04  0.12364817640E+04  0.50400001928E-02 0.  1.
       -1   -1    0    0    0  501  0.00000000000E+00  0.00000000000E+00 -0.71985107113E+03  0.71985107115E+03  0.50400001928E-02 0. -1.
    10030    2    1    2    0    0  0.00000000000E+00  0.00000000000E+00  0.51663069284E+03  0.19563328351E+04  0.18868839098E+04 0.  0.
        1    1    3    3  502    0 -0.90574596461E+03  0.17966626506E+03  0.45889648364E+03  0.10311361219E+04  0.50400001928E-02 0. -1.
       -1    1    3    3    0  502  0.90574596461E+03 -0.17966626506E+03  0.57734209202E+02  0.92519671321E+03  0.50400001928E-02 0.  1.
</event>
<event>
 5   0  0.1782613E-04  0.1909424E+04  0.7818609E-02  0.8650180E-01
        1   -1    0    0  501    0  0.00000000000E+00  0.00000000000E+00  0.21180501477E+04  0.21180501477E+04  0.50400001928E-02 0. -1.
       -1   -1    0    0    0  501  0.00000000000E+00  0.00000000000E+00 -0.43033689510E+03  0.43033689513E+03  0.50400001928E-02 0.  1.
    10030    2    1    2    0    0  0.00000000000E+00  0.00000000000E+00  0.16877132526E+04  0.25483870428E+04  0.19094241271E+04 0.  0.
        3    1    3    3  502    0 -0.34033915303E+03  0.53925808636E+03 -0.10443529621E+03  0.64617084745E+03  0.10100000352E+00 0. -1.
       -3    1    3    3    0  502  0.34033915303E+03 -0.53925808636E+03  0.17921485488E+04  0.19022161954E+04  0.10100000352E+00 0.  1.
</event>
<event>
 5   0  0.3516539E-04  0.1914500E+04  0.7818609E-02  0.8647672E-01
        2   -1    0    0  501    0  0.00000000000E+00  0.00000000000E+00  0.14870339931E+04  0.14870339931E+04  0.25500000920E-02 0. -1.
       -2   -1    0    0    0  501  0.00000000000E+00  0.00000000000E+00 -0.61621177897E+03  0.61621177897E+03  0.25500000920E-02 0.  1.
    10030    2    1    2    0    0  0.00000000000E+00  0.00000000000E+00  0.87082221415E+03  0.21032457721E+04  0.19145003132E+04 0.  0.
        4    1    3    3  502    0 -0.68124063995E+03 -0.54437498203E+03  0.86916994255E+03  0.12312152259E+04  0.12699999809E+01 0. -1.
       -4    1    3    3    0  502  0.68124063995E+03  0.54437498203E+03  0.16522716033E+01  0.87203054619E+03  0.12699999809E+01 0.  1.
</event>
<event>
 5   0  0.3720978E-04  0.1945614E+04  0.7818609E-02  0.8632479E-01
       -2   -1    0    0    0  501  0.00000000000E+00  0.00000000000E+00  0.11752671376E+04  0.11752671376E+04  0.25500000920E-02 0. -1.
        2   -1    0    0  501    0  0.00000000000E+00  0.00000000000E+00 -0.80522427174E+03  0.80522427174E+03  0.25500000920E-02 0.  1.
    10030    2    1    2    0    0  0.00000000000E+00  0.00000000000E+00  0.37004286586E+03  0.19804914093E+04  0.19456141704E+04 0.  0.
        1    1    3    3  502    0 -0.47109119332E+03 -0.77782972152E+03  0.53676996524E+03  0.10559677948E+04  0.50400001928E-02 0. -1.
       -1    1    3    3    0  502  0.47109119332E+03  0.77782972152E+03 -0.16672709937E+03  0.92452361452E+03  0.50400001928E-02 0.  1.
</event>
<event>
 5   0  0.1287000E-04  0.1821897E+04  0.7818609E-02  0.8694741E-01
        4   -1    0    0  501    0  0.00000000000E+00  0.00000000000E+00  0.64949133344E+03  0.64949257510E+03  0.12699999809E+01 0. -1.
       -4   -1    0    0    0  501  0.00000000000E+00  0.00000000000E+00 -0.12776545425E+04  0.12776551736E+04  0.12699999809E+01 0.  1.
    10030    2    1    2    0    0  0.00000000000E+00  0.00000000000E+00 -0.62816320902E+03  0.19271477487E+04  0.18218972058E+04 0.  0.
        4    1    3    3  502    0 -0.35149751050E+03 -0.59323597072E+03  0.31557695308E+03  0.75833359616E+03  0.12699999809E+01 0. -1.
       -4    1    3    3    0  502  0.35149751050E+03  0.59323597072E+03 -0.94374016209E+03  0.11688141526E+04  0.12699999809E+01 0.  1.
</event>
<event>
 5   0  0.1758946E-04  0.1945922E+04  0.7818609E-02  0.8632330E-01
        1   -1    0    0  501    0  0.00000000000E+00  0.00000000000E+00  0.13458703853E+04  0.13458703853E+04  0.50400001928E-02 0. -1.
       -1   -1    0    0    0  501  0.00000000000E+00  0.00000000000E+00 -0.70337614391E+03  0.70337614393E+03  0.50400001928E-02 0.  1.
    10030    2    1    2    0    0  0.00000000000E+00  0.00000000000E+00  0.64249424137E+03  0.20492465292E+04  0.19459220147E+04 0.  0.
        2    1    3    3  502    0  0.50274167664E+02 -0.94280648266E+03  0.73731981161E+02  0.94702057038E+03  0.25500000920E-02 0.  1.
       -2    1    3    3    0  502 -0.50274167664E+02  0.94280648266E+03  0.56876226021E+03  0.11022259588E+04  0.25500000920E-02 0. -1.
</event>
<event>
 5   0  0.1287000E-04  0.1896692E+04  0.7818609E-02  0.8656505E-01
       -3   -1    0    0    0  501  0.00000000000E+00  0.00000000000E+00  0.11808218491E+04  0.11808218534E+04  0.10100000352E+00 0.  1.
        3   -1    0    0  501    0  0.00000000000E+00  0.00000000000E+00 -0.76163943117E+03  0.76163943787E+03  0.10100000352E+00 0. -1.
    10030    2    1    2    0    0  0.00000000000E+00  0.00000000000E+00  0.41918241794E+03  0.19424612913E+04  0.18966923759E+04 0.  0.
        2    1    3    3  502    0 -0.34547276459E+03 -0.53115503609E+03  0.93222670935E+03  0.11271751155E+04  0.25500000920E-02 0.  1.
       -2    1    3    3    0  502  0.34547276459E+03  0.53115503609E+03 -0.51304429141E+03  0.81528617577E+03  0.25500000920E-02 0. -1.
</event>
<event>
 5   0  0.3516539E-04  0.1824352E+04  0.7818609E-02  0.8693455E-01
        2   -1    0    0  501    0  0.00000000000E+00  0.00000000000E+00  0.20420909373E+04  0.20420909373E+04  0.25500000920E-02 0.  1.
       -2   -1    0    0    0  501  0.00000000000E+00  0.00000000000E+00 -0.40745760510E+03  0.40745760511E+03  0.25500000920E-02 0. -1.
    10030    2    1    2    0    0  0.00000000000E+00  0.00000000000E+00  0.16346333322E+04  0.24495485424E+04  0.18243524689E+04 0.  0.
        4    1    3    3  502    0  0.10705060287E+02 -0.82189533869E+03  0.13483814340E+04  0.15791645420E+04  0.12699999809E+01 0.  1.
       -4    1    3    3    0  502 -0.10705060287E+02  0.82189533869E+03  0.28625189815E+03  0.87038400042E+03  0.12699999809E+01 0. -1.
</event>
<event>
 5   0  0.1782613E-04  0.1907527E+04  0.7818609E-02  0.8651119E-01
       -1   -1    0    0    0  501  0.00000000000E+00  0.00000000000E+00  0.59385339120E+03  0.59385339122E+03  0.50400001928E-02 0.  1.
        1   -1    0    0  501    0  0.00000000000E+00  0.00000000000E+00 -0.15318003819E+04  0.15318003819E+04  0.50400001928E-02 0. -1.
    10030    2    1    2    0    0  0.00000000000E+00  0.00000000000E+00 -0.93794699068E+03  0.21256537731E+04  0.19075270393E+04 0.  0.
        3    1    3    3  502    0 -0.29423222517E+03  0.46443081716E+03  0.39950262205E+03  0.67961087505E+03  0.10100000352E+00 0.  1.
       -3    1    3    3    0  502  0.29423222517E+03 -0.46443081716E+03 -0.13374496127E+04  0.14460428981E+04  0.10100000352E+00 0. -1.
</event>
<event>
 5   0  0.3516539E-04  0.1920807E+04  0.7818609E-02  0.8644568E-01
       -2   -1    0    0    0  501  0.00000000000E+00  0.00000000000E+00  0.11298088198E+04  0.11298088198E+04  0.25500000920E-02 0.  1.
        2   -1    0    0  501    0  0.00000000000E+00  0.00000000000E+00 -0.81639906163E+03  0.81639906164E+03  0.25500000920E-02 0. -1.
    10030    2    1    2    0    0  0.00000000000E+00  0.00000000000E+00  0.31340975812E+03  0.19462078814E+04  0.19208069765E+04 0.  0.
        4    1    3    3  502    0 -0.17339468011E+03 -0.15940870984E+03  0.11000901712E+04  0.11250230440E+04  0.12699999809E+01 0.  1.
       -4    1    3    3    0  502  0.17339468011E+03  0.15940870984E+03 -0.78668041310E+03  0.82118483737E+03  0.12699999809E+01 0. -1.
</event>
<event>
 5   0  0.1782613E-04  0.1892141E+04  0.7818609E-02  0.8658778E-01
        1   -1    0    0  501    0  0.00000000000E+00  0.00000000000E+00  0.74768658791E+03  0.74768658792E+03  0.50400001928E-02 0.  1.
       -1   -1    0    0    0  501  0.00000000000E+00  0.00000000000E+00 -0.11970911496E+04  0.11970911496E+04  0.50400001928E-02 0. -1.
    10030    2    1    2    0    0  0.00000000000E+00  0.00000000000E+00 -0.44940456167E+03  0.19447777375E+04  0.18921405836E+04 0.  0.
        3    1    3    3  502    0  0.16125105927E+02 -0.16724658057E+03  0.73222827252E+03  0.75125873774E+03  0.10100000352E+00 0.  1.
       -3    1    3    3    0  502 -0.16125105927E+02  0.16724658057E+03 -0.11816328342E+04  0.11935189998E+04  0.10100000352E+00 0. -1.
</event>
<event>
 5   0  0.1694830E-04  0.1904199E+04  0.7818609E-02  0.8652769E-01
       -1   -1    0    0    0  501  0.00000000000E+00  0.00000000000E+00  0.21982156642E+04  0.21982156642E+04  0.50400001928E-02 0. -1.
        1   -1    0    0  501    0  0.00000000000E+00  0.00000000000E+00 -0.41237707127E+03  0.41237707130E+03  0.50400001928E-02 0.  1.
    10030    2    1    2    0    0  0.00000000000E+00  0.00000000000E+00  0.17858385929E+04  0.26105927355E+04  0.19041992938E+04 0.  0.
        1    1    3    3  502    0  0.28586981088E+03 -0.90808248805E+03  0.91017298930E+03  0.13170991703E+04  0.50400001928E-02 0.  1.
       -1    1    3    3    0  502 -0.28586981088E+03  0.90808248805E+03  0.87566560362E+03  0.12934935652E+04  0.50400001928E-02 0. -1.
</event>
<event>
 5   0  0.3516539E-04  0.1872935E+04  0.7818609E-02  0.8668447E-01
       -2   -1    0    0    0  501  0.00000000000E+00  0.00000000000E+00  0.55738608785E+03  0.55738608785E+03  0.25500000920E-02 0. -1.
        2   -1    0    0  501    0  0.00000000000E+00  0.00000000000E+00 -0.15733636175E+04  0.15733636175E+04  0.25500000920E-02 0.  1.
    10030    2    1    2    0    0  0.00000000000E+00  0.00000000000E+00 -0.10159775296E+04  0.21307497053E+04  0.18729345867E+04 0.  0.
        4    1    3    3  502    0  0.92817388201E+03 -0.99667139792E+02 -0.59258215793E+03  0.11057104145E+04  0.12699999809E+01 0.  1.
       -4    1    3    3    0  502 -0.92817388201E+03  0.99667139792E+02 -0.42339537170E+03  0.10250392908E+04  0.12699999809E+01 0. -1.
</event>
<event>
 5   0  0.3720978E-04  0.1906792E+04  0.7818609E-02  0.8651483E-01
        2   -1    0    0  501    0  0.00000000000E+00  0.00000000000E+00  0.14095067561E+04  0.14095067561E+04  0.25500000920E-02 0.  1.
       -2   -1    0    0    0  501  0.00000000000E+00  0.00000000000E+00 -0.64488106515E+03  0.64488106516E+03  0.25500000920E-02 0. -1.
    10030    2    1    2    0    0  0.00000000000E+00  0.00000000000E+00  0.76462569096E+03  0.20543878213E+04  0.19067922994E+04 0.  0.
        1    1    3    3  502    0 -0.89933661714E+03  0.17083840814E+03  0.66933993514E+03  0.11340229545E+04  0.50400001928E-02 0.  1.
       -1    1    3    3    0  502  0.89933661714E+03 -0.17083840814E+03  0.95285755823E+02  0.92036486673E+03  0.50400001928E-02 0. -1.
</event>
<event>
 5   0  0.3535876E-04  0.1915948E+04  0.7818609E-02  0.8646959E-01
        2   -1    0    0  501    0  0.00000000000E+00  0.00000000000E+00  0.72845473549E+03  0.72845473550E+03  0.25500000920E-02 0.  1.
       -2   -1    0    0    0  501  0.00000000000E+00  0.00000000000E+00 -0.12598092490E+04  0.12598092490E+04  0.25500000920E-02 0. -1.
    10030    2    1    2    0    0  0.00000000000E+00  0.00000000000E+00 -0.53135451351E+03  0.19882639845E+04  0.19159478211E+04 0.  0.
        2    1    3    3  502    0  0.81780552825E+02 -0.58319165407E+03 -0.10497845716E+04  0.12036811085E+04  0.25500000920E-02 0. -1.
       -2    1    3    3    0  502 -0.81780552825E+02  0.58319165407E+03  0.51843005808E+03  0.78458287601E+03  0.25500000920E-02 0.  1.
</event>
<event>
 5   0  0.3516539E-04  0.2009300E+04  0.7818609E-02  0.8602285E-01
        2   -1    0    0  501    0  0.00000000000E+00  0.00000000000E+00  0.64971541896E+03  0.64971541897E+03  0.25500000920E-02 0.  1.
       -2   -1    0    0    0  501  0.00000000000E+00  0.00000000000E+00 -0.15534833457E+04  0.15534833457E+04  0.25500000920E-02 0. -1.
    10030    2    1    2    0    0  0.00000000000E+00  0.00000000000E+00 -0.90376792677E+03  0.22031987647E+04  0.20093004582E+04 0.  0.
        4    1    3    3  502    0 -0.51265680424E+03  0.55197649713E+03  0.27695930074E+03  0.80262265074E+03  0.12699999809E+01 0.  1.
       -4    1    3    3    0  502  0.51265680424E+03 -0.55197649713E+03 -0.11807272275E+04  0.14005761140E+04  0.12699999809E+01 0. -1.
</event>
<event>
 5   0  0.1694830E-04  0.1925658E+04  0.7818609E-02  0.8642189E-01
       -1   -1    0    0    0  501  0.00000000000E+00  0.00000000000E+00  0.61466486538E+03  0.61466486540E+03  0.50400001928E-02 0.  1.
        1   -1    0    0  501    0  0.00000000000E+00  0.00000000000E+00 -0.15082035386E+04  0.15082035386E+04  0.50400001928E-02 0. -1.
    10030    2    1    2    0    0  0.00000000000E+00  0.00000000000E+00 -0.89353867321E+03  0.21228684040E+04  0.19256580434E+04 0.  0.
        1    1    3    3  502    0  0.91156345826E+03  0.25544660722E+03 -0.25317494876E+03  0.97994819367E+03  0.50400001928E-02 0. -1.
       -1    1    3    3    0  502 -0.91156345826E+03 -0.25544660722E+03 -0.64036372445E+03  0.11429202103E+04  0.50400001928E-02 0.  1.
</event>
<event>
 5   0  0.1782613E-04  0.1883622E+04  0.7818609E-02  0.8663052E-01
        1   -1    0    0  501    0  0.00000000000E+00  0.00000000000E+00  0.76018063159E+03  0.76018063161E+03  0.50400001928E-02 0.  1.
       -1   -1    0    0    0  501  0.00000000000E+00  0.00000000000E+00 -0.11668387966E+04  0.11668387966E+04  0.50400001928E-02 0. -1.
    10030    2    1    2    0    0  0.00000000000E+00  0.00000000000E+00 -0.40665816502E+03  0.19270194282E+04  0.18836223118E+04 0.  0.
        3    1    3    3  502    0  0.29030421897E+03  0.88903329888E+03 -0.31702688424E+03  0.98750331726E+03  0.10100000352E+00 0. -1.
       -3    1    3    3    0  502 -0.29030421897E+03 -0.88903329888E+03 -0.89631280785E+02  0.93951611097E+03  0.10100000352E+00 0.  1.
</event>
<event>
 5   0  0.3535876E-04  0.1873623E+04  0.7818609E-02  0.8668099E-01
        2   -1    0    0  501    0  0.00000000000E+00  0.00000000000E+00  0.15548879721E+04  0.15548879721E+04  0.25500000920E-02 0.  1.
       -2   -1    0    0    0  501  0.00000000000E+00  0.00000000000E+00 -0.56442357842E+03  0.56442357842E+03  0.25500000920E-02 0. -1.
    10030    2    1    2    0    0  0.00000000000E+00  0.00000000000E+00  0.99046439371E+03  0.21193115506E+04  0.18736226229E+04 0.  0.
        2    1    3    3  502    0  0.13443563598E+03  0.92710228917E+03  0.50075490132E+03  0.10622368220E+04  0.25500000920E-02 0. -1.
       -2    1    3    3    0  502 -0.13443563598E+03 -0.92710228917E+03  0.48970949240E+03  0.10570747286E+04  0.25500000920E-02 0.  1.
</event>
<event>
 5   0  0.1758946E-04  0.1953022E+04  0.7818609E-02  0.8628905E-01
       -1   -1    0    0    0  501  0.00000000000E+00  0.00000000000E+00  0.10739915006E+04  0.10739915006E+04  0.50400001928E-02 0.  1.
        1   -1    0    0  501    0  0.00000000000E+00  0.00000000000E+00 -0.88787806293E+03  0.88787806294E+03  0.50400001928E-02 0. -1.
    10030    2    1    2    0    0  0.00000000000E+00  0.00000000000E+00  0.18611343765E+03  0.19618695635E+04  0.19530217543E+04 0.  0.
        2    1    3    3  502    0 -0.21052729786E+03  0.34055994894E+03 -0.80163568006E+03  0.89605947655E+03  0.25500000920E-02 0. -1.
       -2    1    3    3    0  502  0.21052729786E+03 -0.34055994894E+03  0.98774911771E+03  0.10658100870E+04  0.25500000920E-02 0.  1.
</event>
<event>
 5   0  0.1711979E-04  0.1670630E+04  0.7818609E-02  0.8778295E-01
        1   -1    0    0  501    0  0.00000000000E+00  0.00000000000E+00  0.18183637568E+04  0.18183637568E+04  0.50400001928E-02 0. -1.
       -1   -1    0    0    0  501  0.00000000000E+00  0.00000000000E+00 -0.38372464601E+03  0.38372464604E+03  0.50400001928E-02 0.  1.
    10030    2    1    2    0    0  0.00000000000E+00  0.00000000000E+00  0.14346391108E+04  0.22020884028E+04  0.16706298081E+04 0.  0.
        4    1    3    3  502    0  0.10997381486E+02  0.78065092061E+02 -0.37880871502E+03  0.38692732712E+03  0.12699999809E+01 0.  1.
       -4    1    3    3    0  502 -0.10997381486E+02 -0.78065092061E+02  0.18134478258E+04  0.18151610757E+04  0.12699999809E+01 0. -1.
</event>
<event>
 5   0  0.1711979E-04  0.1790413E+04  0.7818609E-02  0.8711415E-01
        1   -1    0    0  501    0  0.00000000000E+00  0.00000000000E+00  0.10211441660E+04  0.10211441660E+04  0.50400001928E-02 0.  1.
       -1   -1    0    0    0  501  0.00000000000E+00  0.00000000000E+00 -0.78480033823E+03  0.78480033824E+03  0.50400001928E-02 0. -1.
    10030    2    1    2    0    0  0.00000000000E+00  0.00000000000E+00  0.23634382774E+03  0.18059445042E+04  0.17904125635E+04 0.  0.
        4    1    3    3  502    0 -0.49749452081E+03 -0.69503245645E+03  0.38660413324E+03  0.93810195741E+03  0.12699999809E+01 0.  1.
       -4    1    3    3    0  502  0.49749452081E+03  0.69503245645E+03 -0.15026030550E+03  0.86784254681E+03  0.12699999809E+01 0. -1.
</event>
<event>
 5   0  0.3535876E-04  0.1556594E+04  0.7818609E-02  0.8847667E-01
       -2   -1    0    0    0  501  0.00000000000E+00  0.00000000000E+00  0.59569730916E+03  0.59569730917E+03  0.25500000920E-02 0. -1.
        2   -1    0    0  501    0  0.00000000000E+00  0.00000000000E+00 -0.10168692402E+04  0.10168692402E+04  0.25500000920E-02 0.  1.
    10030    2    1    2    0    0  0.00000000000E+00  0.00000000000E+00 -0.42117193102E+03  0.16125665493E+04  0.15565940642E+04 0.  0.
        2    1    3    3  502    0 -0.14125337719E+03 -0.68283609820E+03 -0.56874690714E+03  0.89982814912E+03  0.25500000920E-02 0.  1.
       -2    1    3    3    0  502  0.14125337719E+03  0.68283609820E+03  0.14757497612E+03  0.71273840022E+03  0.25500000920E-02 0. -1.
</event>
<event>
 5   0  0.1694830E-04  0.1884761E+04  0.7818609E-02  0.8662479E-01
       -1   -1    0    0    0  501  0.00000000000E+00  0.00000000000E+00  0.10486055173E+04  0.10486055173E+04  0.50400001928E-02 0. -1.
        1   -1    0    0  501    0  0.00000000000E+00  0.00000000000E+00 -0.84691664055E+03  0.84691664056E+03  0.50400001928E-02 0.  1.
    10030    2    1    2    0    0  0.00000000000E+00  0.00000000000E+00  0.20168887676E+03  0.18955221579E+04  0.18847614831E+04 0.  0.
        1    1    3    3  502    0 -0.82561004860E+03  0.19470984396E+03 -0.31203271568E+03  0.90382979115E+03  0.50400001928E-02 0.  1.
       -1    1    3    3    0  502  0.82561004860E+03 -0.19470984396E+03  0.51372159244E+03  0.99169236674E+03  0.50400001928E-02 0. -1.
</event>
<event>
 5   0  0.3535876E-04  0.1899370E+04  0.7818609E-02  0.8655170E-01
       -2   -1    0    0    0  501  0.00000000000E+00  0.00000000000E+00  0.56000842394E+03  0.56000842394E+03  0.25500000920E-02 0.  1.
        2   -1    0    0  501    0  0.00000000000E+00  0.00000000000E+00 -0.16105135467E+04  0.16105135468E+04  0.25500000920E-02 0. -1.
    10030    2    1    2    0    0  0.00000000000E+00  0.00000000000E+00 -0.10505051228E+04  0.21705219707E+04  0.18993695302E+04 0.  0.
        2    1    3    3  502    0  0.82949776203E+03 -0.32741767961E+03 -0.89841598167E+03  0.12658673510E+04  0.25500000920E-02 0. -1.
       -2    1    3    3    0  502 -0.82949776203E+03  0.32741767961E+03 -0.15208914114E+03  0.90465461972E+03  0.25500000920E-02 0.  1.
</event>
<event>
 5   0  0.3535876E-04  0.1768466E+04  0.7818609E-02  0.8723251E-01
        2   -1    0    0  501    0  0.00000000000E+00  0.00000000000E+00  0.17459232884E+04  0.17459232884E+04  0.25500000920E-02 0. -1.
       -2   -1    0    0    0  501  0.00000000000E+00  0.00000000000E+00 -0.44782498984E+03  0.44782498985E+03  0.25500000920E-02 0.  1.
    10030    2    1    2    0    0  0.00000000000E+00  0.00000000000E+00  0.12980982985E+04  0.21937482782E+04  0.17684660911E+04 0.  0.
        2    1    3    3  502    0  0.40281999589E+03  0.35242195173E+03  0.15221598828E+04  0.16135166221E+04  0.25500000920E-02 0. -1.
       -2    1    3    3    0  502 -0.40281999589E+03 -0.35242195173E+03 -0.22406158427E+03  0.58023165607E+03  0.25500000920E-02 0.  1.
</event>
<event>
 5   0  0.3535876E-04  0.1899423E+04  0.7818609E-02  0.8655143E-01
       -2   -1    0    0    0  501  0.00000000000E+00  0.00000000000E+00  0.92683104630E+03  0.92683104630E+03  0.25500000920E-02 0.  1.
        2   -1    0    0  501    0  0.00000000000E+00  0.00000000000E+00 -0.97315716038E+03  0.97315716039E+03  0.25500000920E-02 0. -1.
    10030    2    1    2    0    0  0.00000000000E+00  0.00000000000E+00 -0.46326114085E+02  0.18999882067E+04  0.18994233537E+04 0.  0.
        2    1    3    3  502    0  0.73645125854E+03 -0.47934803282E+03 -0.38357185041E+03  0.95878170467E+03  0.25500000920E-02 0. -1.
       -2    1    3    3    0  502 -0.73645125854E+03  0.47934803282E+03  0.33724573632E+03  0.94120650202E+03  0.25500000920E-02 0.  1.
</event>
<event>
 5   0  0.3720978E-04  0.1929667E+04  0.7818609E-02  0.8640229E-01
       -2   -1    0    0    0  501  0.00000000000E+00  0.00000000000E+00  0.10091862234E+04  0.10091862234E+04  0.25500000920E-02 0. -1.
        2   -1    0    0  501    0  0.00000000000E+00  0.00000000000E+00 -0.92242987452E+03  0.92242987452E+03  0.25500000920E-02 0.  1.
    10030    2    1    2    0    0  0.00000000000E+00  0.00000000000E+00  0.86756348870E+02  0.19316160979E+04  0.19296668328E+04 0.  0.
        1    1    3    3  502    0 -0.92097040609E+03 -0.26083668146E+03 -0.77910464005E+02  0.96036050716E+03  0.50400001928E-02 0.  1.
       -1    1    3    3    0  502  0.92097040609E+03  0.26083668146E+03  0.16466681287E+03  0.97125559075E+03  0.50400001928E-02 0. -1.
</event>
<event>
 5   0  0.1758946E-04  0.1875496E+04  0.7818609E-02  0.8667150E-01
       -1   -1    0    0    0  501  0.00000000000E+00  0.00000000000E+00  0.89363160946E+03  0.89363160947E+03  0.50400001928E-02 0.  1.
        1   -1    0    0  501    0  0.00000000000E+00  0.00000000000E+00 -0.98404281329E+03  0.98404281330E+03  0.50400001928E-02 0. -1.
    10030    2    1    2    0    0  0.00000000000E+00  0.00000000000E+00 -0.90411203830E+02  0.18776744228E+04  0.18754964815E+04 0.  0.
        2    1    3    3  502    0  0.22340371973E+02  0.57362344337E+03 -0.78757110974E+03  0.97458257726E+03  0.25500000920E-02 0. -1.
       -2    1    3    3    0  502 -0.22340371973E+02 -0.57362344337E+03  0.69715990591E+03  0.90309184550E+03  0.25500000920E-02 0.  1.
</event>
<event>
 5   0  0.3516539E-04  0.1884384E+04  0.7818609E-02  0.8662669E-01
       -2   -1    0    0    0  501  0.00000000000E+00  0.00000000000E+00  0.27484518325E+04  0.27484518325E+04  0.25500000920E-02 0. -1.
        2   -1    0    0  501    0  0.00000000000E+00  0.00000000000E+00 -0.32299115052E+03  0.32299115053E+03  0.25500000920E-02 0.  1.
    10030    2    1    2    0    0  0.00000000000E+00  0.00000000000E+00  0.24254606820E+04  0.30714429831E+04  0.18843838458E+04 0.  0.
        4    1    3    3  502    0 -0.86040124428E+03 -0.15391845665E+03  0.63936283156E+03  0.10829439670E+04  0.12699999809E+01 0.  1.
       -4    1    3    3    0  502  0.86040124428E+03  0.15391845665E+03  0.17860978505E+04  0.19884990160E+04  0.12699999809E+01 0. -1.
</event>
<event>
 5   0  0.3623359E-04  0.1898422E+04  0.7818609E-02  0.8655642E-01
        2   -1    0    0  501    0  0.00000000000E+00  0.00000000000E+00  0.17062335045E+04  0.17062335045E+04  0.25500000920E-02 0.  1.
       -2   -1    0    0    0  501  0.00000000000E+00  0.00000000000E+00 -0.52806488194E+03  0.52806488194E+03  0.25500000920E-02 0. -1.
    10030    2    1    2    0    0  0.00000000000E+00  0.00000000000E+00  0.11781686226E+04  0.22342983864E+04  0.18984224968E+04 0.  0.
        5    1    3    3  502    0 -0.93489850233E+03 -0.98887317422E+02  0.43488488261E+03  0.10358382414E+04  0.46999998093E+01 0. -1.
       -5    1    3    3    0  502  0.93489850233E+03  0.98887317422E+02  0.74328373994E+03  0.11984601450E+04  0.46999998093E+01 0.  1.
</event>
<event>
 5   0  0.1782613E-04  0.1863253E+04  0.7818609E-02  0.8673367E-01
       -1   -1    0    0    0  501  0.00000000000E+00  0.00000000000E+00  0.73549479563E+03  0.73549479565E+03  0.50400001928E-02 0. -1.
        1   -1    0    0  501    0  0.00000000000E+00  0.00000000000E+00 -0.11800598400E+04  0.11800598400E+04  0.50400001928E-02 0.  1.
    10030    2    1    2    0    0  0.00000000000E+00  0.00000000000E+00 -0.44456504438E+03  0.19155546357E+04  0.18632529306E+04 0.  0.
        3    1    3    3  502    0  0.78047108106E+03 -0.30151987707E+03 -0.64351348945E+03  0.10555372878E+04  0.10100000352E+00 0. -1.
       -3    1    3    3    0  502 -0.78047108106E+03  0.30151987707E+03  0.19894844507E+03  0.86001734787E+03  0.10100000352E+00 0.  1.
</event>
<event>
 5   0  0.3623359E-04  0.1802214E+04  0.7818609E-02  0.8705123E-01
       -2   -1    0    0    0  501  0.00000000000E+00  0.00000000000E+00  0.36194657635E+03  0.36194657636E+03  0.25500000920E-02 0.  1.
        2   -1    0    0  501    0  0.00000000000E+00  0.00000000000E+00 -0.22434081703E+04  0.22434081703E+04  0.25500000920E-02 0. -1.
    10030    2    1    2    0    0  0.00000000000E+00  0.00000000000E+00 -0.18814615939E+04  0.26053547466E+04  0.18022140901E+04 0.  0.
        5    1    3    3  502    0 -0.65949400601E+03 -0.69475191303E+02 -0.58756231433E+02  0.66575786207E+03  0.46999998093E+01 0.  1.
       -5    1    3    3    0  502  0.65949400601E+03  0.69475191303E+02 -0.18227053625E+04  0.19395968846E+04  0.46999998093E+01 0. -1.
</event>
<event>
 5   0  0.1813834E-04  0.2097164E+04  0.7818609E-02  0.8562494E-01
       -1   -1    0    0    0  501  0.00000000000E+00  0.00000000000E+00  0.11205855108E+04  0.11205855109E+04  0.50400001928E-02 0.  1.
        1   -1    0    0  501    0  0.00000000000E+00  0.00000000000E+00 -0.98120498174E+03  0.98120498175E+03  0.50400001928E-02 0. -1.
    10030    2    1    2    0    0  0.00000000000E+00  0.00000000000E+00  0.13938052911E+03  0.21017904926E+04  0.20971638808E+04 0.  0.
        5    1    3    3  502    0 -0.62214235288E+03 -0.64152337622E+03  0.61943357590E+03  0.10873515505E+04  0.46999998093E+01 0.  1.
       -5    1    3    3    0  502  0.62214235288E+03  0.64152337622E+03 -0.48005304678E+03  0.10144389421E+04  0.46999998093E+01 0. -1.
</event>
<event>
 5   0  0.3623359E-04  0.1882617E+04  0.7818609E-02  0.8663558E-01
        2   -1    0    0  501    0  0.00000000000E+00  0.00000000000E+00  0.76578226215E+03  0.76578226216E+03  0.25500000920E-02 0.  1.
       -2   -1    0    0    0  501  0.00000000000E+00  0.00000000000E+00 -0.11570674525E+04  0.11570674525E+04  0.25500000920E-02 0. -1.
    10030    2    1    2    0    0  0.00000000000E+00  0.00000000000E+00 -0.39128519038E+03  0.19228497147E+04  0.18826170415E+04 0.  0.
        5    1    3    3  502    0 -0.76158073687E+03  0.54804309196E+03 -0.11864458271E+03  0.94575635151E+03  0.46999998093E+01 0.  1.
       -5    1    3    3    0  502  0.76158073687E+03 -0.54804309196E+03 -0.27264060767E+03  0.97709336318E+03  0.46999998093E+01 0. -1.
</event>
<event>
 5   0  0.3535876E-04  0.1899227E+04  0.7818609E-02  0.8655241E-01
        2   -1    0    0  501    0  0.00000000000E+00  0.00000000000E+00  0.87858580629E+03  0.87858580630E+03  0.25500000920E-02 0. -1.
       -2   -1    0    0    0  501  0.00000000000E+00  0.00000000000E+00 -0.10263831036E+04  0.10263831036E+04  0.25500000920E-02 0.  1.
    10030    2    1    2    0    0  0.00000000000E+00  0.00000000000E+00 -0.14779729729E+03  0.19049689099E+04  0.18992268181E+04 0.  0.
        2    1    3    3  502    0  0.88636360464E+03  0.33642329802E+03 -0.19470866366E+02  0.94826166733E+03  0.25500000920E-02 0. -1.
       -2    1    3    3    0  502 -0.88636360464E+03 -0.33642329802E+03 -0.12832643093E+03  0.95670724256E+03  0.25500000920E-02 0.  1.
</event>
<event>
 5   0  0.1694830E-04  0.1898210E+04  0.7818609E-02  0.8655748E-01
       -1   -1    0    0    0  501  0.00000000000E+00  0.00000000000E+00  0.21107574155E+04  0.21107574156E+04  0.50400001928E-02 0. -1.
        1   -1    0    0  501    0  0.00000000000E+00  0.00000000000E+00 -0.42676620737E+03  0.42676620740E+03  0.50400001928E-02 0.  1.
    10030    2    1    2    0    0  0.00000000000E+00  0.00000000000E+00  0.16839912082E+04  0.25375236230E+04  0.18982096164E+04 0.  0.
        1    1    3    3  502    0  0.20808631239E+03  0.51885411398E+02 -0.39395238537E+03  0.44854263040E+03  0.50400001928E-02 0.  1.
       -1    1    3    3    0  502 -0.20808631239E+03 -0.51885411398E+02  0.20779435935E+04  0.20889809926E+04  0.50400001928E-02 0. -1.
</event>
<event>
 5   0  0.1782613E-04  0.2062204E+04  0.7818609E-02  0.8578078E-01
        1   -1    0    0  501    0  0.00000000000E+00  0.00000000000E+00  0.11960117249E+04  0.11960117249E+04  0.50400001928E-02 0.  1.
       -1   -1    0    0    0  501  0.00000000000E+00  0.00000000000E+00 -0.88893076328E+03  0.88893076330E+03  0.50400001928E-02 0. -1.
    10030    2    1    2    0    0  0.00000000000E+00  0.00000000000E+00  0.30708096160E+03  0.20849424882E+04  0.20622042726E+04 0.  0.
        3    1    3    3  502    0  0.64074077223E+03  0.70746922721E+03 -0.24077289554E+03  0.98439475927E+03  0.10100000352E+00 0. -1.
       -3    1    3    3    0  502 -0.64074077223E+03 -0.70746922721E+03  0.54785385714E+03  0.11005477289E+04  0.10100000352E+00 0.  1.
</event>
<event>
 5   0  0.3516539E-04  0.1762375E+04  0.7818609E-02  0.8726568E-01
        2   -1    0    0  501    0  0.00000000000E+00  0.00000000000E+00  0.12901482671E+04  0.12901482671E+04  0.25500000920E-02 0.  1.
       -2   -1    0    0    0  501  0.00000000000E+00  0.00000000000E+00 -0.60186208426E+03  0.60186208427E+03  0.25500000920E-02 0. -1.
    10030    2    1    2    0    0  0.00000000000E+00  0.00000000000E+00  0.68828618286E+03  0.18920103514E+04  0.17623749034E+04 0.  0.
        4    1    3    3  502    0  0.75753033874E+02 -0.51430720582E+03  0.11079843832E+04  0.12238796633E+04  0.12699999809E+01 0.  1.
       -4    1    3    3    0  502 -0.75753033874E+02  0.51430720582E+03 -0.41969820029E+03  0.66813068806E+03  0.12699999809E+01 0. -1.
</event>
<event>
 5   0  0.3516539E-04  0.1907896E+04  0.7818609E-02  0.8650936E-01
        2   -1    0    0  501    0  0.00000000000E+00  0.00000000000E+00  0.19442304984E+04  0.19442304984E+04  0.25500000920E-02 0. -1.
       -2   -1    0    0    0  501  0.00000000000E+00  0.00000000000E+00 -0.46806015414E+03  0.46806015415E+03  0.25500000920E-02 0.  1.
    10030    2    1    2    0    0  0.00000000000E+00  0.00000000000E+00  0.14761703442E+04  0.24122906525E+04  0.19078960420E+04 0.  0.
        4    1    3    3  502    0 -0.24447369866E+03 -0.28651680021E+03  0.18462379149E+04  0.18842651930E+04  0.12699999809E+01 0. -1.
       -4    1    3    3    0  502  0.24447369866E+03  0.28651680021E+03 -0.37006757069E+03  0.52802545953E+03  0.12699999809E+01 0.  1.
</event>
<event>
 5   0  0.3720978E-04  0.1908049E+04  0.7818609E-02  0.8650860E-01
       -2   -1    0    0    0  501  0.00000000000E+00  0.00000000000E+00  0.86467381929E+03  0.86467381930E+03  0.25500000920E-02 0.  1.
        2   -1    0    0  501    0  0.00000000000E+00  0.00000000000E+00 -0.10526079132E+04  0.10526079132E+04  0.25500000920E-02 0. -1.
    10030    2    1    2    0    0  0.00000000000E+00  0.00000000000E+00 -0.18793409386E+03  0.19172817325E+04  0.19080487462E+04 0.  0.
        1    1    3    3  502    0  0.39747477697E+03  0.66674967252E+03 -0.65128699218E+03  0.10132699889E+04  0.50400001928E-02 0. -1.
       -1    1    3    3    0  502 -0.39747477697E+03 -0.66674967252E+03  0.46335289832E+03  0.90401174359E+03  0.50400001928E-02 0.  1.
</event>
<event>
 5   0  0.3623359E-04  0.1877259E+04  0.7818609E-02  0.8666260E-01
       -2   -1    0    0    0  501  0.00000000000E+00  0.00000000000E+00  0.10013217174E+04  0.10013217174E+04  0.25500000920E-02 0.  1.
        2   -1    0    0  501    0  0.00000000000E+00  0.00000000000E+00 -0.87986198299E+03  0.87986198299E+03  0.25500000920E-02 0. -1.
    10030    2    1    2    0    0  0.00000000000E+00  0.00000000000E+00  0.12145973443E+03  0.18811837004E+04  0.18772585458E+04 0.  0.
        5    1    3    3  502    0 -0.42407346117E+03 -0.41132508088E+03  0.79162188393E+03  0.98778232407E+03  0.46999998093E+01 0.  1.
       -5    1    3    3    0  502  0.42407346117E+03  0.41132508088E+03 -0.67016214950E+03  0.89340137634E+03  0.46999998093E+01 0. -1.
</event>
<event>
 5   0  0.1782613E-04  0.1883745E+04  0.7818609E-02  0.8662990E-01
        1   -1    0    0  501    0  0.00000000000E+00  0.00000000000E+00  0.10918629566E+04  0.10918629566E+04  0.50400001928E-02 0. -1.
       -1   -1    0    0    0  501  0.00000000000E+00  0.00000000000E+00 -0.81248656830E+03  0.81248656831E+03  0.50400001928E-02 0.  1.
    10030    2    1    2    0    0  0.00000000000E+00  0.00000000000E+00  0.27937638830E+03  0.19043495249E+04  0.18837451916E+04 0.  0.
        3    1    3    3  502    0  0.38067170103E+03 -0.58798469534E+03 -0.49687129722E+03  0.85878870633E+03  0.10100000352E+00 0.  1.
       -3    1    3    3    0  502 -0.38067170103E+03  0.58798469534E+03  0.77624768552E+03  0.10455608186E+04  0.10100000352E+00 0. -1.
</event>
<event>
 5   0  0.1694830E-04  0.1927811E+04  0.7818609E-02  0.8641136E-01
       -1   -1    0    0    0  501  0.00000000000E+00  0.00000000000E+00  0.55148490391E+03  0.55148490393E+03  0.50400001928E-02 0.  1.
        1   -1    0    0  501    0  0.00000000000E+00  0.00000000000E+00 -0.16847493093E+04  0.16847493093E+04  0.50400001928E-02 0. -1.
    10030    2    1    2    0    0  0.00000000000E+00  0.00000000000E+00 -0.11332644054E+04  0.22362342133E+04  0.19278109980E+04 0.  0.
        1    1    3    3  502    0 -0.35932537424E+02 -0.36073142631E+02 -0.16831883312E+04  0.16839582469E+04  0.50400001928E-02 0. -1.
       -1    1    3    3    0  502  0.35932537424E+02  0.36073142631E+02  0.54992392579E+03  0.55227596639E+03  0.50400001928E-02 0.  1.
</event>
<event>
 5   0  0.3535876E-04  0.1926160E+04  0.7818609E-02  0.8641943E-01
        2   -1    0    0  501    0  0.00000000000E+00  0.00000000000E+00  0.20414855080E+04  0.20414855080E+04  0.25500000920E-02 0.  1.
       -2   -1    0    0    0  501  0.00000000000E+00  0.00000000000E+00 -0.45433730960E+03  0.45433730961E+03  0.25500000920E-02 0. -1.
    10030    2    1    2    0    0  0.00000000000E+00  0.00000000000E+00  0.15871481984E+04  0.24958228176E+04  0.19261599449E+04 0.  0.
        2    1    3    3  502    0 -0.13374420251E+03  0.63281940029E+03 -0.13102825362E+03  0.65993659418E+03  0.25500000920E-02 0. -1.
       -2    1    3    3    0  502  0.13374420251E+03 -0.63281940029E+03  0.17181764520E+04  0.18358862234E+04  0.25500000920E-02 0.  1.
</event>
<event>
 5   0  0.1813834E-04  0.1904076E+04  0.7818609E-02  0.8652830E-01
       -1   -1    0    0    0  501  0.00000000000E+00  0.00000000000E+00  0.86664543756E+03  0.86664543758E+03  0.50400001928E-02 0. -1.
        1   -1    0    0  501    0  0.00000000000E+00  0.00000000000E+00 -0.10458448170E+04  0.10458448170E+04  0.50400001928E-02 0.  1.
    10030    2    1    2    0    0  0.00000000000E+00  0.00000000000E+00 -0.17919937944E+03  0.19124902546E+04  0.19040763000E+04 0.  0.
        5    1    3    3  502    0 -0.42769909179E+03 -0.46264398281E+03 -0.80646817089E+03  0.10234153451E+04  0.46999998093E+01 0.  1.
       -5    1    3    3    0  502  0.42769909179E+03  0.46264398281E+03  0.62726879145E+03  0.88907490948E+03  0.46999998093E+01 0. -1.
</event>
<event>
 5   0  0.1694830E-04  0.1928409E+04  0.7818609E-02  0.8640843E-01
       -1   -1    0    0    0  501  0.00000000000E+00  0.00000000000E+00  0.99756717472E+03  0.99756717474E+03  0.50400001928E-02 0. -1.
        1   -1    0    0  501    0  0.00000000000E+00  0.00000000000E+00 -0.93195717920E+03  0.93195717922E+03  0.50400001928E-02 0.  1.
    10030    2    1    2    0    0  0.00000000000E+00  0.00000000000E+00  0.65609995520E+02  0.19295243540E+04  0.19284085566E+04 0.  0.
        1    1    3    3  502    0 -0.15449655665E+03  0.11375344123E+03 -0.91266547676E+03  0.93261315876E+03  0.50400001928E-02 0.  1.
       -1    1    3    3    0  502  0.15449655665E+03 -0.11375344123E+03  0.97827547228E+03  0.99691119519E+03  0.50400001928E-02 0. -1.
</event>
<event>
 5   0  0.1758946E-04  0.1854423E+04  0.7818609E-02  0.8677882E-01
        1   -1    0    0  501    0  0.00000000000E+00  0.00000000000E+00  0.14569432762E+04  0.14569432762E+04  0.50400001928E-02 0. -1.
       -1   -1    0    0    0  501  0.00000000000E+00  0.00000000000E+00 -0.59008541039E+03  0.59008541041E+03  0.50400001928E-02 0.  1.
    10030    2    1    2    0    0  0.00000000000E+00  0.00000000000E+00  0.86685786580E+03  0.20470286866E+04  0.18544227901E+04 0.  0.
        2    1    3    3  502    0  0.13818837319E+03 -0.60756092131E+03  0.11914016390E+04  0.13444940182E+04  0.25500000920E-02 0. -1.
       -2    1    3    3    0  502 -0.13818837319E+03  0.60756092131E+03 -0.32454377320E+03  0.70253466840E+03  0.25500000920E-02 0.  1.
</event>
<event>
 5   0  0.3535876E-04  0.1863727E+04  0.7818609E-02  0.8673126E-01
       -2   -1    0    0    0  501  0.00000000000E+00  0.00000000000E+00  0.10687874014E+04  0.10687874014E+04  0.25500000920E-02 0.  1.
        2   -1    0    0  501    0  0.00000000000E+00  0.00000000000E+00 -0.81248072289E+03  0.81248072289E+03  0.25500000920E-02 0. -1.
    10030    2    1    2    0    0  0.00000000000E+00  0.00000000000E+00  0.25630667846E+03  0.18812681243E+04  0.18637265470E+04 0.  0.
        2    1    3    3  502    0  0.12166794849E+03  0.47277556502E+03 -0.67307404603E+03  0.83147368931E+03  0.25500000920E-02 0. -1.
       -2    1    3    3    0  502 -0.12166794849E+03 -0.47277556502E+03  0.92938072449E+03  0.10497944349E+04  0.25500000920E-02 0.  1.
</event>
<event>
 5   0  0.3459485E-04  0.1904048E+04  0.7818609E-02  0.8652844E-01
       -2   -1    0    0    0  501  0.00000000000E+00  0.00000000000E+00  0.69882625419E+03  0.69882625419E+03  0.25500000920E-02 0. -1.
        2   -1    0    0  501    0  0.00000000000E+00  0.00000000000E+00 -0.12969601845E+04  0.12969601845E+04  0.25500000920E-02 0.  1.
    10030    2    1    2    0    0  0.00000000000E+00  0.00000000000E+00 -0.59813393034E+03  0.19957864387E+04  0.19040481376E+04 0.  0.
        3    1    3    3  502    0  0.27505391785E+03 -0.58323806452E+03 -0.10331890254E+04  0.12179083997E+04  0.10100000352E+00 0.  1.
       -3    1    3    3    0  502 -0.27505391785E+03  0.58323806452E+03  0.43505509507E+03  0.77787803902E+03  0.10100000352E+00 0. -1.
</event>
<event>
 5   0  0.1813834E-04  0.1911487E+04  0.7818609E-02  0.8649159E-01
       -1   -1    0    0    0  501  0.00000000000E+00  0.00000000000E+00  0.10627979510E+04  0.10627979510E+04  0.50400001928E-02 0. -1.
        1   -1    0    0  501    0  0.00000000000E+00  0.00000000000E+00 -0.85947294165E+03  0.85947294166E+03  0.50400001928E-02 0.  1.
    10030    2    1    2    0    0  0.00000000000E+00  0.00000000000E+00  0.20332500932E+03  0.19222708926E+04  0.19114874641E+04 0.  0.
        5    1    3    3  502    0  0.32948802265E+03  0.13363556275E+03  0.99379914566E+03  0.10554997170E+04  0.46999998093E+01 0. -1.
       -5    1    3    3    0  502 -0.32948802265E+03 -0.13363556275E+03 -0.79047413634E+03  0.86677117564E+03  0.46999998093E+01 0.  1.
</event>
<event>
 5   0  0.1694830E-04  0.1894459E+04  0.7818609E-02  0.8657620E-01
       -1   -1    0    0    0  501  0.00000000000E+00  0.00000000000E+00  0.58328195485E+03  0.58328195487E+03  0.50400001928E-02 0. -1.
        1   -1    0    0  501    0  0.00000000000E+00  0.00000000000E+00 -0.15382670151E+04  0.15382670151E+04  0.50400001928E-02 0.  1.
    10030    2    1    2    0    0  0.00000000000E+00  0.00000000000E+00 -0.95498506028E+03  0.21215489700E+04  0.18944586474E+04 0.  0.
        1    1    3    3  502    0 -0.35393675531E+03  0.79043930344E+03 -0.47867880288E+02  0.86738506626E+03  0.50400001928E-02 0.  1.
       -1    1    3    3    0  502  0.35393675531E+03 -0.79043930344E+03 -0.90711717999E+03  0.12541639037E+04  0.50400001928E-02 0. -1.
</event>
<event>
 5   0  0.1782613E-04  0.1888844E+04  0.7818609E-02  0.8660429E-01
        1   -1    0    0  501    0  0.00000000000E+00  0.00000000000E+00  0.11248350611E+04  0.11248350611E+04  0.50400001928E-02 0.  1.
       -1   -1    0    0    0  501  0.00000000000E+00  0.00000000000E+00 -0.79294570486E+03  0.79294570488E+03  0.50400001928E-02 0. -1.
    10030    2    1    2    0    0  0.00000000000E+00  0.00000000000E+00  0.33188935626E+03  0.19177807660E+04  0.18888442291E+04 0.  0.
        3    1    3    3  502    0 -0.86812345342E+03  0.32073971485E+03 -0.25142766243E+02  0.92582096755E+03  0.10100000352E+00 0. -1.
       -3    1    3    3    0  502  0.86812345342E+03 -0.32073971485E+03  0.35703212250E+03  0.99195979846E+03  0.10100000352E+00 0.  1.
</event>
<event>
 5   0  0.3623359E-04  0.1892410E+04  0.7818609E-02  0.8658644E-01
       -2   -1    0    0    0  501  0.00000000000E+00  0.00000000000E+00  0.50747182922E+03  0.50747182922E+03  0.25500000920E-02 0. -1.
        2   -1    0    0  501    0  0.00000000000E+00  0.00000000000E+00 -0.17642431626E+04  0.17642431626E+04  0.25500000920E-02 0.  1.
    10030    2    1    2    0    0  0.00000000000E+00  0.00000000000E+00 -0.12567713334E+04  0.22717149918E+04  0.18924097917E+04 0.  0.
        5    1    3    3  502    0 -0.25568655231E+03 -0.26444723820E+03 -0.16748825223E+04  0.17148065513E+04  0.46999998093E+01 0.  1.
       -5    1    3    3    0  502  0.25568655231E+03  0.26444723820E+03  0.41811118893E+03  0.55690844053E+03  0.46999998093E+01 0. -1.
</event>
<event>
 5   0  0.1287000E-04  0.1281168E+04  0.7818609E-02  0.9044634E-01
       -3   -1    0    0    0  501  0.00000000000E+00  0.00000000000E+00  0.50716774721E+03  0.50716775727E+03  0.10100000352E+00 0.  1.
        3   -1    0    0  501    0  0.00000000000E+00  0.00000000000E+00 -0.80909695030E+03  0.80909695660E+03  0.10100000352E+00 0. -1.
    10030    2    1    2    0    0  0.00000000000E+00  0.00000000000E+00 -0.30192920308E+03  0.13162647139E+04  0.12811680426E+04 0.  0.
        1    1    3    3  502    0 -0.72406040769E+02 -0.61381140619E+02  0.49990212688E+03  0.50883436956E+03  0.50400001928E-02 0.  1.
       -1    1    3    3    0  502  0.72406040769E+02  0.61381140619E+02 -0.80183132997E+03  0.80743034430E+03  0.50400001928E-02 0. -1.
</event>
<event>
 5   0  0.3535876E-04  0.1902904E+04  0.7818609E-02  0.8653412E-01
       -2   -1    0    0    0  501  0.00000000000E+00  0.00000000000E+00  0.52383262786E+03  0.52383262787E+03  0.25500000920E-02 0.  1.
        2   -1    0    0  501    0  0.00000000000E+00  0.00000000000E+00 -0.17281492232E+04  0.17281492232E+04  0.25500000920E-02 0. -1.
    10030    2    1    2    0    0  0.00000000000E+00  0.00000000000E+00 -0.12043165954E+04  0.22519818511E+04  0.19029040427E+04 0.  0.
        2    1    3    3  502    0  0.80659061170E+03  0.50459209351E+03 -0.61127567921E+03  0.11308667259E+04  0.25500000920E-02 0. -1.
       -2    1    3    3    0  502 -0.80659061170E+03 -0.50459209351E+03 -0.59304091615E+03  0.11211151252E+04  0.25500000920E-02 0.  1.
</event>
<event>
 5   0  0.3535876E-04  0.1847218E+04  0.7818609E-02  0.8681585E-01
       -2   -1    0    0    0  501  0.00000000000E+00  0.00000000000E+00  0.23669234243E+03  0.23669234244E+03  0.25500000920E-02 0. -1.
        2   -1    0    0  501    0  0.00000000000E+00  0.00000000000E+00 -0.36040601090E+04  0.36040601090E+04  0.25500000920E-02 0.  1.
    10030    2    1    2    0    0  0.00000000000E+00  0.00000000000E+00 -0.33673677665E+04  0.38407524514E+04  0.18472178317E+04 0.  0.
        2    1    3    3  502    0  0.59093169780E+03 -0.54112340831E+03 -0.26388505720E+04  0.27578156494E+04  0.25500000920E-02 0.  1.
       -2    1    3    3    0  502 -0.59093169780E+03  0.54112340831E+03 -0.72851719453E+03  0.10829368020E+04  0.25500000920E-02 0. -1.
</event>
<event>
 5   0  0.3623359E-04  0.1943533E+04  0.7818609E-02  0.8633485E-01
        2   -1    0    0  501    0  0.00000000000E+00  0.00000000000E+00  0.84344837627E+03  0.84344837627E+03  0.25500000920E-02 0.  1.
       -2   -1    0    0    0  501  0.00000000000E+00  0.00000000000E+00 -0.11196066016E+04  0.11196066016E+04  0.25500000920E-02 0. -1.
    10030    2    1    2    0    0  0.00000000000E+00  0.00000000000E+00 -0.27615822532E+03  0.19630549779E+04  0.19435332466E+04 0.  0.
        5    1    3    3  502    0  0.94716948918E+03 -0.75007520621E+02 -0.34396995657E+03  0.10104917567E+04  0.46999998093E+01 0. -1.
       -5    1    3    3    0  502 -0.94716948918E+03  0.75007520621E+02  0.67811731251E+02  0.95256322114E+03  0.46999998093E+01 0.  1.
</event>
<event>
 5   0  0.3720978E-04  0.1906342E+04  0.7818609E-02  0.8651706E-01
       -2   -1    0    0    0  501  0.00000000000E+00  0.00000000000E+00  0.87775771274E+03  0.87775771274E+03  0.25500000920E-02 0. -1.
        2   -1    0    0  501    0  0.00000000000E+00  0.00000000000E+00 -0.10350633611E+04  0.10350633611E+04  0.25500000920E-02 0.  1.
    10030    2    1    2    0    0  0.00000000000E+00  0.00000000000E+00 -0.15730564840E+03  0.19128210739E+04  0.19063418879E+04 0.  0.
        1    1    3    3  502    0  0.65776848750E+02  0.18525459884E+03  0.85719551448E+03  0.87944869680E+03  0.50400001928E-02 0. -1.
       -1    1    3    3    0  502 -0.65776848750E+02 -0.18525459884E+03 -0.10145011629E+04  0.10333723771E+04  0.50400001928E-02 0.  1.
</event>
<event>
 5   0  0.3535876E-04  0.1529230E+04  0.7818609E-02  0.8865245E-01
        2   -1    0    0  501    0  0.00000000000E+00  0.00000000000E+00  0.22426194551E+04  0.22426194551E+04  0.25500000920E-02 0.  1.
       -2   -1    0    0    0  501  0.00000000000E+00  0.00000000000E+00 -0.26069338530E+03  0.26069338532E+03  0.25500000920E-02 0. -1.
    10030    2    1    2    0    0  0.00000000000E+00  0.00000000000E+00  0.19819260698E+04  0.25033128405E+04  0.15292299470E+04 0.  0.
        2    1    3    3  502    0  0.11429638728E+02  0.76281879277E+03  0.90728632468E+03  0.11854077873E+04  0.25500000920E-02 0. -1.
       -2    1    3    3    0  502 -0.11429638728E+02 -0.76281879277E+03  0.10746397452E+04  0.13179050532E+04  0.25500000920E-02 0.  1.
</event>
<event>
 5   0  0.3720978E-04  0.1893182E+04  0.7818609E-02  0.8658258E-01
        2   -1    0    0  501    0  0.00000000000E+00  0.00000000000E+00  0.94249113950E+03  0.94249113950E+03  0.25500000920E-02 0. -1.
       -2   -1    0    0    0  501  0.00000000000E+00  0.00000000000E+00 -0.95070852220E+03  0.95070852220E+03  0.25500000920E-02 0.  1.
    10030    2    1    2    0    0  0.00000000000E+00  0.00000000000E+00 -0.82173826993E+01  0.18931996617E+04  0.18931818280E+04 0.  0.
        1    1    3    3  502    0  0.37775303501E+03 -0.14891023835E+03 -0.85919729437E+03  0.95031132015E+03  0.50400001928E-02 0.  1.
       -1    1    3    3    0  502 -0.37775303501E+03  0.14891023835E+03  0.85097991167E+03  0.94288834155E+03  0.50400001928E-02 0. -1.
</event>
<event>
 5   0  0.1711979E-04  0.1976209E+04  0.7818609E-02  0.8617825E-01
       -1   -1    0    0    0  501  0.00000000000E+00  0.00000000000E+00  0.61466980011E+03  0.61466980013E+03  0.50400001928E-02 0. -1.
        1   -1    0    0  501    0  0.00000000000E+00  0.00000000000E+00 -0.15884147038E+04  0.15884147038E+04  0.50400001928E-02 0.  1.
    10030    2    1    2    0    0  0.00000000000E+00  0.00000000000E+00 -0.97374490368E+03  0.22030845039E+04  0.19762090461E+04 0.  0.
        4    1    3    3  502    0 -0.41661232188E+03 -0.26543525010E+03 -0.14408779248E+04  0.15232046829E+04  0.12699999809E+01 0.  1.
       -4    1    3    3    0  502  0.41661232188E+03  0.26543525010E+03  0.46713302116E+03  0.67987982107E+03  0.12699999809E+01 0. -1.
</event>
<event>
 5   0  0.1711979E-04  0.1895543E+04  0.7818609E-02  0.8657078E-01
       -1   -1    0    0    0  501  0.00000000000E+00  0.00000000000E+00  0.12059459237E+04  0.12059459237E+04  0.50400001928E-02 0.  1.
        1   -1    0    0  501    0  0.00000000000E+00  0.00000000000E+00 -0.74486842322E+03  0.74486842324E+03  0.50400001928E-02 0. -1.
    10030    2    1    2    0    0  0.00000000000E+00  0.00000000000E+00  0.46107750047E+03  0.19508143469E+04  0.18955432347E+04 0.  0.
        4    1    3    3  502    0 -0.36515441294E+03  0.68307660458E+03  0.79266848316E+03  0.11082672647E+04  0.12699999809E+01 0.  1.
       -4    1    3    3    0  502  0.36515441294E+03 -0.68307660458E+03 -0.33159098269E+03  0.84254708219E+03  0.12699999809E+01 0. -1.
</event>
<event>
 5   0  0.1711979E-04  0.1856737E+04  0.7818609E-02  0.8676696E-01
        1   -1    0    0  501    0  0.00000000000E+00  0.00000000000E+00  0.12971998184E+04  0.12971998184E+04  0.50400001928E-02 0.  1.
       -1   -1    0    0    0  501  0.00000000000E+00  0.00000000000E+00 -0.66440644866E+03  0.66440644868E+03  0.50400001928E-02 0. -1.
    10030    2    1    2    0    0  0.00000000000E+00  0.00000000000E+00  0.63279336978E+03  0.19616062671E+04  0.18567368415E+04 0.  0.
        4    1    3    3  502    0  0.17481511212E+03 -0.73144321333E+03  0.89147233143E+03  0.11663164358E+04  0.12699999809E+01 0.  1.
       -4    1    3    3    0  502 -0.17481511212E+03  0.73144321333E+03 -0.25867896165E+03  0.79528983136E+03  0.12699999809E+01 0. -1.
</event>
<event>
 5   0  0.3516539E-04  0.1907817E+04  0.7818609E-02  0.8650975E-01
       -2   -1    0    0    0  501  0.00000000000E+00  0.00000000000E+00  0.97579470548E+03  0.97579470549E+03  0.25500000920E-02 0. -1.
        2   -1    0    0  501    0  0.00000000000E+00  0.00000000000E+00 -0.93251272790E+03  0.93251272790E+03  0.25500000920E-02 0.  1.
    10030    2    1    2    0    0  0.00000000000E+00  0.00000000000E+00  0.43281977585E+02  0.19083074334E+04  0.19078165349E+04 0.  0.
        4    1    3    3  502    0  0.22658318474E+03  0.32135487361E+03 -0.84768014414E+03  0.93443680047E+03  0.12699999809E+01 0.  1.
       -4    1    3    3    0  502 -0.22658318474E+03 -0.32135487361E+03  0.89096212173E+03  0.97387063292E+03  0.12699999809E+01 0. -1.
</event>
<event>
 5   0  0.1813834E-04  0.1910405E+04  0.7818609E-02  0.8649695E-01
       -1   -1    0    0    0  501  0.00000000000E+00  0.00000000000E+00  0.55801149461E+03  0.55801149463E+03  0.50400001928E-02 0. -1.
        1   -1    0    0  501    0  0.00000000000E+00  0.00000000000E+00 -0.16351125091E+04  0.16351125092E+04  0.50400001928E-02 0.  1.
    10030    2    1    2    0    0  0.00000000000E+00  0.00000000000E+00 -0.10771010145E+04  0.21931240038E+04  0.19104047478E+04 0.  0.
        5    1    3    3  502    0 -0.91447492431E+03  0.27321285619E+03 -0.49438897088E+03  0.10748731072E+04  0.46999998093E+01 0.  1.
       -5    1    3    3    0  502  0.91447492431E+03 -0.27321285619E+03 -0.58271204366E+03  0.11182508966E+04  0.46999998093E+01 0. -1.
</event>
<event>
 5   0  0.1758946E-04  0.1854458E+04  0.7818609E-02  0.8677864E-01
       -1   -1    0    0    0  501  0.00000000000E+00  0.00000000000E+00  0.93384893794E+03  0.93384893796E+03  0.50400001928E-02 0.  1.
        1   -1    0    0  501    0  0.00000000000E+00  0.00000000000E+00 -0.92065564970E+03  0.92065564971E+03  0.50400001928E-02 0. -1.
    10030    2    1    2    0    0  0.00000000000E+00  0.00000000000E+00  0.13193288248E+02  0.18545045877E+04  0.18544576573E+04 0.  0.
        2    1    3    3  502    0 -0.64274791194E+03  0.77289371802E+02 -0.65723848510E+03  0.92252964808E+03  0.25500000920E-02 0. -1.
       -2    1    3    3    0  502  0.64274791194E+03 -0.77289371802E+02  0.67043177335E+03  0.93197493958E+03  0.25500000920E-02 0.  1.
</event>
<event>
 5   0  0.1711979E-04  0.1746913E+04  0.7818609E-02  0.8735052E-01
       -1   -1    0    0    0  501  0.00000000000E+00  0.00000000000E+00  0.42922651296E+03  0.42922651299E+03  0.50400001928E-02 0.  1.
        1   -1    0    0  501    0  0.00000000000E+00  0.00000000000E+00 -0.17774437194E+04  0.17774437194E+04  0.50400001928E-02 0. -1.
    10030    2    1    2    0    0  0.00000000000E+00  0.00000000000E+00 -0.13482172064E+04  0.22066702324E+04  0.17469126706E+04 0.  0.
        4    1    3    3  502    0  0.79278768374E+02 -0.49006951699E+03 -0.15819066730E+04  0.16579757506E+04  0.12699999809E+01 0. -1.
       -4    1    3    3    0  502 -0.79278768374E+02  0.49006951699E+03  0.23368946661E+03  0.54869448175E+03  0.12699999809E+01 0.  1.
</event>
<event>
 5   0  0.1711979E-04  0.1780217E+04  0.7818609E-02  0.8716891E-01
        1   -1    0    0  501    0  0.00000000000E+00  0.00000000000E+00  0.83819321507E+03  0.83819321509E+03  0.50400001928E-02 0. -1.
       -1   -1    0    0    0  501  0.00000000000E+00  0.00000000000E+00 -0.94523958865E+03  0.94523958866E+03  0.50400001928E-02 0.  1.
    10030    2    1    2    0    0  0.00000000000E+00  0.00000000000E+00 -0.10704637358E+03  0.17834328038E+04  0.17802173012E+04 0.  0.
        4    1    3    3  502    0 -0.21791434380E+03  0.76478550227E+03 -0.45413079891E+03  0.91576193475E+03  0.12699999809E+01 0.  1.
       -4    1    3    3    0  502  0.21791434380E+03 -0.76478550227E+03  0.34708442533E+03  0.86767086900E+03  0.12699999809E+01 0. -1.
</event>
<event>
 5   0  0.3459485E-04  0.1890892E+04  0.7818609E-02  0.8659403E-01
       -2   -1    0    0    0  501  0.00000000000E+00  0.00000000000E+00  0.71117636809E+03  0.71117636810E+03  0.25500000920E-02 0. -1.
        2   -1    0    0  501    0  0.00000000000E+00  0.00000000000E+00 -0.12568864457E+04  0.12568864457E+04  0.25500000920E-02 0.  1.
    10030    2    1    2    0    0  0.00000000000E+00  0.00000000000E+00 -0.54571007761E+03  0.19680628138E+04  0.18908917870E+04 0.  0.
        3    1    3    3  502    0  0.43688176891E+03  0.51508770417E+03 -0.96143448702E+03  0.11749626828E+04  0.10100000352E+00 0.  1.
       -3    1    3    3    0  502 -0.43688176891E+03 -0.51508770417E+03  0.41572440940E+03  0.79310013098E+03  0.10100000352E+00 0. -1.
</event>
<event>
 5   0  0.1758946E-04  0.1653855E+04  0.7818609E-02  0.8788129E-01
        1   -1    0    0  501    0  0.00000000000E+00  0.00000000000E+00  0.12821068280E+04  0.12821068280E+04  0.50400001928E-02 0. -1.
       -1   -1    0    0    0  501  0.00000000000E+00  0.00000000000E+00 -0.53334776978E+03  0.53334776980E+03  0.50400001928E-02 0.  1.
    10030    2    1    2    0    0  0.00000000000E+00  0.00000000000E+00  0.74875905822E+03  0.18154545978E+04  0.16538546700E+04 0.  0.
        2    1    3    3  502    0 -0.54381325870E+02 -0.39410753166E+03  0.11701487026E+04  0.12359312527E+04  0.25500000920E-02 0. -1.
       -2    1    3    3    0  502  0.54381325870E+02  0.39410753166E+03 -0.42138964440E+03  0.57952334512E+03  0.25500000920E-02 0.  1.
</event>
<event>
 5   0  0.3459485E-04  0.1915441E+04  0.7818609E-02  0.8647208E-01
       -2   -1    0    0    0  501  0.00000000000E+00  0.00000000000E+00  0.10744525221E+04  0.10744525221E+04  0.25500000920E-02 0.  1.
        2   -1    0    0  501    0  0.00000000000E+00  0.00000000000E+00 -0.85367053536E+03  0.85367053536E+03  0.25500000920E-02 0. -1.
    10030    2    1    2    0    0  0.00000000000E+00  0.00000000000E+00  0.22078198670E+03  0.19281230574E+04  0.19154408994E+04 0.  0.
        3    1    3    3  502    0 -0.93642777383E+03  0.15506374824E+03 -0.18073363084E+02  0.94935156727E+03  0.10100000352E+00 0.  1.
       -3    1    3    3    0  502  0.93642777383E+03 -0.15506374824E+03  0.23885534978E+03  0.97877149015E+03  0.10100000352E+00 0. -1.
</event>
<event>
 5   0  0.1813834E-04  0.1849484E+04  0.7818609E-02  0.8680418E-01
        1   -1    0    0  501    0  0.00000000000E+00  0.00000000000E+00  0.74867214621E+03  0.74867214622E+03  0.50400001928E-02 0.  1.
       -1   -1    0    0    0  501  0.00000000000E+00  0.00000000000E+00 -0.11422187913E+04  0.11422187913E+04  0.50400001928E-02 0. -1.
    10030    2    1    2    0    0  0.00000000000E+00  0.00000000000E+00 -0.39354664509E+03  0.18908909375E+04  0.18494835971E+04 0.  0.
        5    1    3    3  502    0 -0.30109223413E+03 -0.81691605557E+03  0.12183965857E+03  0.87913330485E+03  0.46999998093E+01 0. -1.
       -5    1    3    3    0  502  0.30109223413E+03  0.81691605557E+03 -0.51538630366E+03  0.10117576327E+04  0.46999998093E+01 0.  1.
</event>
<event>
 5   0  0.3459485E-04  0.1846019E+04  0.7818609E-02  0.8682203E-01
        2   -1    0    0  501    0  0.00000000000E+00  0.00000000000E+00  0.13706970104E+04  0.13706970104E+04  0.25500000920E-02 0.  1.
       -2   -1    0    0    0  501  0.00000000000E+00  0.00000000000E+00 -0.62154250891E+03  0.62154250892E+03  0.25500000920E-02 0. -1.
    10030    2    1    2    0    0  0.00000000000E+00  0.00000000000E+00  0.74915450144E+03  0.19922395193E+04  0.18460189152E+04 0.  0.
        3    1    3    3  502    0 -0.67159915413E+03 -0.61758526401E+03  0.52523982329E+03  0.10527743653E+04  0.10100000352E+00 0.  1.
       -3    1    3    3    0  502  0.67159915413E+03  0.61758526401E+03  0.22391467815E+03  0.93946515393E+03  0.10100000352E+00 0. -1.
</event>
<event>
 5   0  0.1782613E-04  0.1353400E+04  0.7818609E-02  0.8988258E-01
        1   -1    0    0  501    0  0.00000000000E+00  0.00000000000E+00  0.60359039502E+03  0.60359039504E+03  0.50400001928E-02 0.  1.
       -1   -1    0    0    0  501  0.00000000000E+00  0.00000000000E+00 -0.75866474816E+03  0.75866474818E+03  0.50400001928E-02 0. -1.
    10030    2    1    2    0    0  0.00000000000E+00  0.00000000000E+00 -0.15507435315E+03  0.13622551432E+04  0.13533998006E+04 0.  0.
        3    1    3    3  502    0 -0.47661623324E+03  0.10744022294E+03 -0.54880607497E+03  0.73477517202E+03  0.10100000352E+00 0. -1.
       -3    1    3    3    0  502  0.47661623324E+03 -0.10744022294E+03  0.39373172182E+03  0.62747997120E+03  0.10100000352E+00 0.  1.
</event>
<event>
 5   0  0.1813834E-04  0.1926358E+04  0.7818609E-02  0.8641846E-01
       -1   -1    0    0    0  501  0.00000000000E+00  0.00000000000E+00  0.10098709046E+04  0.10098709047E+04  0.50400001928E-02 0. -1.
        1   -1    0    0  501    0  0.00000000000E+00  0.00000000000E+00 -0.91864583478E+03  0.91864583479E+03  0.50400001928E-02 0.  1.
    10030    2    1    2    0    0  0.00000000000E+00  0.00000000000E+00  0.91225069863E+02  0.19285167395E+04  0.19263579109E+04 0.  0.
        5    1    3    3  502    0 -0.78520308011E+03  0.56113616263E+02  0.60121105728E+03  0.99053997412E+03  0.46999998093E+01 0. -1.
       -5    1    3    3    0  502  0.78520308011E+03 -0.56113616263E+02 -0.50998598742E+03  0.93797676533E+03  0.46999998093E+01 0.  1.
</event>
<event>
 5   0  0.3623359E-04  0.1903877E+04  0.7818609E-02  0.8652929E-01
        2   -1    0    0  501    0  0.00000000000E+00  0.00000000000E+00  0.17761358974E+04  0.17761358974E+04  0.25500000920E-02 0.  1.
       -2   -1    0    0    0  501  0.00000000000E+00  0.00000000000E+00 -0.51020117297E+03  0.51020117298E+03  0.25500000920E-02 0. -1.
    10030    2    1    2    0    0  0.00000000000E+00  0.00000000000E+00  0.12659347244E+04  0.22863370704E+04  0.19038766958E+04 0.  0.
        5    1    3    3  502    0 -0.35892903433E+03  0.80609493959E+03  0.20408925007E+03  0.90570062123E+03  0.46999998093E+01 0. -1.
       -5    1    3    3    0  502  0.35892903433E+03 -0.80609493959E+03  0.10618454744E+04  0.13806364492E+04  0.46999998093E+01 0.  1.
</event>
<event>
 5   0  0.1782613E-04  0.1933064E+04  0.7818609E-02  0.8638571E-01
       -1   -1    0    0    0  501  0.00000000000E+00  0.00000000000E+00  0.10999506327E+04  0.10999506327E+04  0.50400001928E-02 0.  1.
        1   -1    0    0  501    0  0.00000000000E+00  0.00000000000E+00 -0.84929662799E+03  0.84929662800E+03  0.50400001928E-02 0. -1.
    10030    2    1    2    0    0  0.00000000000E+00  0.00000000000E+00  0.25065400469E+03  0.19492472607E+04  0.19330642652E+04 0.  0.
        3    1    3    3  502    0 -0.54359119437E+03  0.31301240407E+03 -0.61616305395E+03  0.87927531010E+03  0.10100000352E+00 0. -1.
       -3    1    3    3    0  502  0.54359119437E+03 -0.31301240407E+03  0.86681705864E+03  0.10699719506E+04  0.10100000352E+00 0.  1.
</event>
<event>
 5   0  0.1758946E-04  0.1945325E+04  0.7818609E-02  0.8632618E-01
       -1   -1    0    0    0  501  0.00000000000E+00  0.00000000000E+00  0.97812568408E+03  0.97812568409E+03  0.50400001928E-02 0.  1.
        1   -1    0    0  501    0  0.00000000000E+00  0.00000000000E+00 -0.96723013497E+03  0.96723013499E+03  0.50400001928E-02 0. -1.
    10030    2    1    2    0    0  0.00000000000E+00  0.00000000000E+00  0.10895549106E+02  0.19453558191E+04  0.19453253069E+04 0.  0.
        2    1    3    3  502    0 -0.11055814306E+03  0.42547572572E+03 -0.86221780457E+03  0.96781828806E+03  0.25500000920E-02 0. -1.
       -2    1    3    3    0  502  0.11055814306E+03 -0.42547572572E+03  0.87311335368E+03  0.97753753102E+03  0.25500000920E-02 0.  1.
</event>
<event>
 5   0  0.3535876E-04  0.1862094E+04  0.7818609E-02  0.8673958E-01
       -2   -1    0    0    0  501  0.00000000000E+00  0.00000000000E+00  0.10327375585E+04  0.10327375585E+04  0.25500000920E-02 0. -1.
        2   -1    0    0  501    0  0.00000000000E+00  0.00000000000E+00 -0.83936965191E+03  0.83936965192E+03  0.25500000920E-02 0.  1.
    10030    2    1    2    0    0  0.00000000000E+00  0.00000000000E+00  0.19336790661E+03  0.18721072104E+04  0.18620940524E+04 0.  0.
        2    1    3    3  502    0  0.62528898095E+03 -0.55241396043E+03  0.51206552647E+03  0.97895791369E+03  0.25500000920E-02 0. -1.
       -2    1    3    3    0  502 -0.62528898095E+03  0.55241396043E+03 -0.31869761986E+03  0.89314929675E+03  0.25500000920E-02 0.  1.
</event>
<event>
 5   0  0.3535876E-04  0.1856214E+04  0.7818609E-02  0.8676964E-01
       -2   -1    0    0    0  501  0.00000000000E+00  0.00000000000E+00  0.79386800667E+03  0.79386800667E+03  0.25500000920E-02 0. -1.
        2   -1    0    0  501    0  0.00000000000E+00  0.00000000000E+00 -0.10850451459E+04  0.10850451459E+04  0.25500000920E-02 0.  1.
    10030    2    1    2    0    0  0.00000000000E+00  0.00000000000E+00 -0.29117713922E+03  0.18789131526E+04  0.18562140255E+04 0.  0.
        2    1    3    3  502    0  0.26072609879E+03 -0.65870271098E+03 -0.75251678183E+03  0.10335128770E+04  0.25500000920E-02 0.  1.
       -2    1    3    3    0  502 -0.26072609879E+03  0.65870271098E+03  0.46133964260E+03  0.84540027554E+03  0.25500000920E-02 0. -1.
</event>
<event>
 5   0  0.3516539E-04  0.1887401E+04  0.7818609E-02  0.8661153E-01
       -2   -1    0    0    0  501  0.00000000000E+00  0.00000000000E+00  0.11308971021E+04  0.11308971021E+04  0.25500000920E-02 0. -1.
        2   -1    0    0  501    0  0.00000000000E+00  0.00000000000E+00 -0.78749062427E+03  0.78749062427E+03  0.25500000920E-02 0.  1.
    10030    2    1    2    0    0  0.00000000000E+00  0.00000000000E+00  0.34340647781E+03  0.19183877264E+04  0.18874012450E+04 0.  0.
        4    1    3    3  502    0  0.23992916591E+03  0.27287332329E+03 -0.71353948546E+03  0.80072845923E+03  0.12699999809E+01 0.  1.
       -4    1    3    3    0  502 -0.23992916591E+03 -0.27287332329E+03  0.10569459633E+04  0.11176592671E+04  0.12699999809E+01 0. -1.
</event>
<event>
 5   0  0.3720978E-04  0.1899314E+04  0.7818609E-02  0.8655198E-01
       -2   -1    0    0    0  501  0.00000000000E+00  0.00000000000E+00  0.58976626795E+03  0.58976626795E+03  0.25500000920E-02 0. -1.
        2   -1    0    0  501    0  0.00000000000E+00  0.00000000000E+00 -0.15291625835E+04  0.15291625835E+04  0.25500000920E-02 0.  1.
    10030    2    1    2    0    0  0.00000000000E+00  0.00000000000E+00 -0.93939631552E+03  0.21189288514E+04  0.18993140972E+04 0.  0.
        1    1    3    3  502    0  0.17927058606E+03 -0.84465385907E+03 -0.91071784779E+03  0.12549840967E+04  0.50400001928E-02 0.  1.
       -1    1    3    3    0  502 -0.17927058606E+03  0.84465385907E+03 -0.28678467731E+02  0.86394475472E+03  0.50400001928E-02 0. -1.
</event>
<event>
 5   0  0.1287000E-04  0.2171710E+04  0.7818609E-02  0.8530296E-01
       -4   -1    0    0    0  501  0.00000000000E+00  0.00000000000E+00  0.18425009371E+04  0.18425013748E+04  0.12699999809E+01 0.  1.
        4   -1    0    0  501    0  0.00000000000E+00  0.00000000000E+00 -0.63993378905E+03  0.63993504926E+03  0.12699999809E+01 0. -1.
    10030    2    1    2    0    0  0.00000000000E+00  0.00000000000E+00  0.12025671481E+04  0.24824364241E+04  0.21717096615E+04 0.  0.
        1    1    3    3  502    0  0.24182325155E+03  0.39261062834E+03  0.17250294643E+04  0.17855946470E+04  0.50400001928E-02 0.  1.
       -1    1    3    3    0  502 -0.24182325155E+03 -0.39261062834E+03 -0.52246231622E+03  0.69684177714E+03  0.50400001928E-02 0. -1.
</event>
<event>
 5   0  0.3535876E-04  0.2120997E+04  0.7818609E-02  0.8552050E-01
        2   -1    0    0  501    0  0.00000000000E+00  0.00000000000E+00  0.11189411810E+04  0.11189411810E+04  0.25500000920E-02 0. -1.
       -2   -1    0    0    0  501  0.00000000000E+00  0.00000000000E+00 -0.10051080002E+04  0.10051080002E+04  0.25500000920E-02 0.  1.
    10030    2    1    2    0    0  0.00000000000E+00  0.00000000000E+00  0.11383318077E+03  0.21240491812E+04  0.21209966834E+04 0.  0.
        2    1    3    3  502    0  0.50859286859E+03  0.23620331466E+03  0.95832201635E+03  0.11103331927E+04  0.25500000920E-02 0. -1.
       -2    1    3    3    0  502 -0.50859286859E+03 -0.23620331466E+03 -0.84448883557E+03  0.10137159885E+04  0.25500000920E-02 0.  1.
</event>
<event>
 5   0  0.3459485E-04  0.1902776E+04  0.7818609E-02  0.8653476E-01
       -2   -1    0    0    0  501  0.00000000000E+00  0.00000000000E+00  0.70554190061E+03  0.70554190061E+03  0.25500000920E-02 0. -1.
        2   -1    0    0  501    0  0.00000000000E+00  0.00000000000E+00 -0.12828993416E+04  0.12828993416E+04  0.25500000920E-02 0.  1.
    10030    2    1    2    0    0  0.00000000000E+00  0.00000000000E+00 -0.57735744103E+03  0.19884412423E+04  0.19027761190E+04 0.  0.
        3    1    3    3  502    0 -0.94645614220E+03 -0.93950647809E+02 -0.26454628278E+03  0.98721360367E+03  0.10100000352E+00 0.  1.
       -3    1    3    3    0  502  0.94645614220E+03  0.93950647809E+02 -0.31281115825E+03  0.10012276386E+04  0.10100000352E+00 0. -1.
</event>
<event>
 5   0  0.1287000E-04  0.1756785E+04  0.7818609E-02  0.8729624E-01
        3   -1    0    0  501    0  0.00000000000E+00  0.00000000000E+00  0.59995858902E+03  0.59995859753E+03  0.10100000352E+00 0.  1.
       -3   -1    0    0    0  501  0.00000000000E+00  0.00000000000E+00 -0.12860448288E+04  0.12860448328E+04  0.10100000352E+00 0. -1.
    10030    2    1    2    0    0  0.00000000000E+00  0.00000000000E+00 -0.68608623981E+03  0.18860034303E+04  0.17567853058E+04 0.  0.
        3    1    3    3  502    0  0.51568051645E+03 -0.57454735648E+03  0.10675230097E+03  0.77937611193E+03  0.10100000352E+00 0. -1.
       -3    1    3    3    0  502 -0.51568051645E+03  0.57454735648E+03 -0.79283854077E+03  0.11066273184E+04  0.10100000352E+00 0.  1.
</event>
<event>
 5   0  0.1287000E-04  0.1930439E+04  0.7818609E-02  0.8639852E-01
       -3   -1    0    0    0  501  0.00000000000E+00  0.00000000000E+00  0.17162245200E+04  0.17162245230E+04  0.10100000352E+00 0.  1.
        3   -1    0    0  501    0  0.00000000000E+00  0.00000000000E+00 -0.54284782551E+03  0.54284783490E+03  0.10100000352E+00 0. -1.
    10030    2    1    2    0    0  0.00000000000E+00  0.00000000000E+00  0.11733766945E+04  0.22590723579E+04  0.19304390824E+04 0.  0.
        3    1    3    3  502    0 -0.87630140698E+03 -0.29869636434E+03  0.26722189308E+03  0.96360325046E+03  0.10100000352E+00 0.  1.
       -3    1    3    3    0  502  0.87630140698E+03  0.29869636434E+03  0.90615480142E+03  0.12954691074E+04  0.10100000352E+00 0. -1.
</event>
<event>
 5   0  0.1782613E-04  0.1911009E+04  0.7818609E-02  0.8649396E-01
        1   -1    0    0  501    0  0.00000000000E+00  0.00000000000E+00  0.86889539533E+03  0.86889539534E+03  0.50400001928E-02 0.  1.
       -1   -1    0    0    0  501  0.00000000000E+00  0.00000000000E+00 -0.10507463174E+04  0.10507463174E+04  0.50400001928E-02 0. -1.
    10030    2    1    2    0    0  0.00000000000E+00  0.00000000000E+00 -0.18185092208E+03  0.19196417128E+04  0.19110087775E+04 0.  0.
        3    1    3    3  502    0 -0.67678871311E+03 -0.31472697324E+03 -0.69018778413E+03  0.10165899948E+04  0.10100000352E+00 0. -1.
       -3    1    3    3    0  502  0.67678871311E+03  0.31472697324E+03  0.50833686205E+03  0.90305171801E+03  0.10100000352E+00 0.  1.
</event>
<event>
 5   0  0.3623359E-04  0.1920815E+04  0.7818609E-02  0.8644564E-01
       -2   -1    0    0    0  501  0.00000000000E+00  0.00000000000E+00  0.71091449030E+03  0.71091449030E+03  0.25500000920E-02 0.  1.
        2   -1    0    0  501    0  0.00000000000E+00  0.00000000000E+00 -0.12974587965E+04  0.12974587965E+04  0.25500000920E-02 0. -1.
    10030    2    1    2    0    0  0.00000000000E+00  0.00000000000E+00 -0.58654430621E+03  0.20083732868E+04  0.19208146803E+04 0.  0.
        5    1    3    3  502    0 -0.68923910054E+03  0.23676931318E+03 -0.94728473424E+03  0.11951906555E+04  0.46999998093E+01 0. -1.
       -5    1    3    3    0  502  0.68923910054E+03 -0.23676931318E+03  0.36074042803E+03  0.81318263127E+03  0.46999998093E+01 0.  1.
</event>
<event>
 5   0  0.1711979E-04  0.1923356E+04  0.7818609E-02  0.8643317E-01
       -1   -1    0    0    0  501  0.00000000000E+00  0.00000000000E+00  0.57269576313E+03  0.57269576316E+03  0.50400001928E-02 0. -1.
        1   -1    0    0  501    0  0.00000000000E+00  0.00000000000E+00 -0.16148621363E+04  0.16148621363E+04  0.50400001928E-02 0.  1.
    10030    2    1    2    0    0  0.00000000000E+00  0.00000000000E+00 -0.10421663732E+04  0.21875578995E+04  0.19233561329E+04 0.  0.
        4    1    3    3  502    0 -0.38262266581E+03 -0.40168109524E+03 -0.14145304559E+04  0.15194228609E+04  0.12699999809E+01 0.  1.
       -4    1    3    3    0  502  0.38262266581E+03  0.40168109524E+03  0.37236408277E+03  0.66813503853E+03  0.12699999809E+01 0. -1.
</event>
<event>
 5   0  0.3720978E-04  0.1766949E+04  0.7818609E-02  0.8724076E-01
        2   -1    0    0  501    0  0.00000000000E+00  0.00000000000E+00  0.10304984133E+04  0.10304984133E+04  0.25500000920E-02 0. -1.
       -2   -1    0    0    0  501  0.00000000000E+00  0.00000000000E+00 -0.75742684030E+03  0.75742684031E+03  0.25500000920E-02 0.  1.
    10030    2    1    2    0    0  0.00000000000E+00  0.00000000000E+00  0.27307157296E+03  0.17879252536E+04  0.17669489603E+04 0.  0.
        1    1    3    3  502    0  0.50473571595E+03  0.57298993238E+03 -0.31309457469E+03  0.82529014189E+03  0.50400001928E-02 0.  1.
       -1    1    3    3    0  502 -0.50473571595E+03 -0.57298993238E+03  0.58616614765E+03  0.96263511168E+03  0.50400001928E-02 0. -1.
</event>
<event>
 5   0  0.3535876E-04  0.1930208E+04  0.7818609E-02  0.8639964E-01
       -2   -1    0    0    0  501  0.00000000000E+00  0.00000000000E+00  0.10148214295E+04  0.10148214295E+04  0.25500000920E-02 0.  1.
        2   -1    0    0  501    0  0.00000000000E+00  0.00000000000E+00 -0.91782244147E+03  0.91782244148E+03  0.25500000920E-02 0. -1.
    10030    2    1    2    0    0  0.00000000000E+00  0.00000000000E+00  0.96998988005E+02  0.19326438710E+04  0.19302081567E+04 0.  0.
        2    1    3    3  502    0 -0.26626181395E+03 -0.30491089757E+03  0.92570998790E+03  0.10103489450E+04  0.25500000920E-02 0.  1.
       -2    1    3    3    0  502  0.26626181395E+03  0.30491089757E+03 -0.82871099990E+03  0.92229492592E+03  0.25500000920E-02 0. -1.
</event>
<event>
 5   0  0.1813834E-04  0.1902231E+04  0.7818609E-02  0.8653747E-01
        1   -1    0    0  501    0  0.00000000000E+00  0.00000000000E+00  0.82406100401E+03  0.82406100402E+03  0.50400001928E-02 0.  1.
       -1   -1    0    0    0  501  0.00000000000E+00  0.00000000000E+00 -0.10977596685E+04  0.10977596685E+04  0.50400001928E-02 0. -1.
    10030    2    1    2    0    0  0.00000000000E+00  0.00000000000E+00 -0.27369866447E+03  0.19218206725E+04  0.19022312526E+04 0.  0.
        5    1    3    3  502    0 -0.55049728029E+03  0.16424696043E+03 -0.90266232692E+03  0.10699746193E+04  0.46999998093E+01 0. -1.
       -5    1    3    3    0  502  0.55049728029E+03 -0.16424696043E+03  0.62896366245E+03  0.85184605316E+03  0.46999998093E+01 0.  1.
</event>
<event>
 5   0  0.3516539E-04  0.1901998E+04  0.7818609E-02  0.8653862E-01
       -2   -1    0    0    0  501  0.00000000000E+00  0.00000000000E+00  0.63019080122E+03  0.63019080122E+03  0.25500000920E-02 0. -1.
        2   -1    0    0  501    0  0.00000000000E+00  0.00000000000E+00 -0.14351195320E+04  0.14351195320E+04  0.25500000920E-02 0.  1.
    10030    2    1    2    0    0  0.00000000000E+00  0.00000000000E+00 -0.80492873075E+03  0.20653103332E+04  0.19019980312E+04 0.  0.
        4    1    3    3  502    0 -0.42719822253E+02  0.85259144997E+03 -0.85756991144E+03  0.12100268301E+04  0.12699999809E+01 0.  1.
       -4    1    3    3    0  502  0.42719822253E+02 -0.85259144997E+03  0.52641180692E+02  0.85528350304E+03  0.12699999809E+01 0. -1.
</event>
<event>
 5   0  0.3623359E-04  0.1873088E+04  0.7818609E-02  0.8668369E-01
        2   -1    0    0  501    0  0.00000000000E+00  0.00000000000E+00  0.26541400757E+04  0.26541400757E+04  0.25500000920E-02 0.  1.
       -2   -1    0    0    0  501  0.00000000000E+00  0.00000000000E+00 -0.33047037017E+03  0.33047037018E+03  0.25500000920E-02 0. -1.
    10030    2    1    2    0    0  0.00000000000E+00  0.00000000000E+00  0.23236697056E+04  0.29846104459E+04  0.18730879887E+04 0.  0.
        5    1    3    3  502    0 -0.11290367153E+03 -0.12225000858E+03  0.26303744813E+04  0.26356373623E+04  0.46999998093E+01 0.  1.
       -5    1    3    3    0  502  0.11290367153E+03  0.12225000858E+03 -0.30670477573E+03  0.34897308363E+03  0.46999998093E+01 0. -1.
</event>
<event>
 5   0  0.1711979E-04  0.1937744E+04  0.7818609E-02  0.8636294E-01
       -1   -1    0    0    0  501  0.00000000000E+00  0.00000000000E+00  0.23844599579E+04  0.23844599579E+04  0.50400001928E-02 0.  1.
        1   -1    0    0  501    0  0.00000000000E+00  0.00000000000E+00 -0.39367947215E+03  0.39367947218E+03  0.50400001928E-02 0. -1.
    10030    2    1    2    0    0  0.00000000000E+00  0.00000000000E+00  0.19907804857E+04  0.27781394301E+04  0.19377439848E+04 0.  0.
        4    1    3    3  502    0  0.52340447088E+03  0.14040609425E+03 -0.15608000092E+03  0.56394032577E+03  0.12699999809E+01 0. -1.
       -4    1    3    3    0  502 -0.52340447088E+03 -0.14040609425E+03  0.21468604866E+04  0.22141991043E+04  0.12699999809E+01 0.  1.
</event>
<event>
 5   0  0.3459485E-04  0.1884549E+04  0.7818609E-02  0.8662586E-01
        2   -1    0    0  501    0  0.00000000000E+00  0.00000000000E+00  0.15056095328E+04  0.15056095328E+04  0.25500000920E-02 0.  1.
       -2   -1    0    0    0  501  0.00000000000E+00  0.00000000000E+00 -0.58971557589E+03  0.58971557590E+03  0.25500000920E-02 0. -1.
    10030    2    1    2    0    0  0.00000000000E+00  0.00000000000E+00  0.91589395692E+03  0.20953251087E+04  0.18845491691E+04 0.  0.
        3    1    3    3  502    0  0.71339715643E+03 -0.26941977135E+02  0.11417266652E+04  0.13465515814E+04  0.10100000352E+00 0.  1.
       -3    1    3    3    0  502 -0.71339715643E+03  0.26941977135E+02 -0.22583270831E+03  0.74877352737E+03  0.10100000352E+00 0. -1.
</event>
<event>
 5   0  0.1813834E-04  0.1918115E+04  0.7818609E-02  0.8645892E-01
       -1   -1    0    0    0  501  0.00000000000E+00  0.00000000000E+00  0.63915853187E+03  0.63915853189E+03  0.50400001928E-02 0. -1.
        1   -1    0    0  501    0  0.00000000000E+00  0.00000000000E+00 -0.14390653048E+04  0.14390653049E+04  0.50400001928E-02 0.  1.
    10030    2    1    2    0    0  0.00000000000E+00  0.00000000000E+00 -0.79990677297E+03  0.20782238367E+04  0.19181145613E+04 0.  0.
        5    1    3    3  502    0 -0.36581986882E+03  0.77308145094E+03 -0.87009752742E+03  0.12200700404E+04  0.46999998093E+01 0.  1.
       -5    1    3    3    0  502  0.36581986882E+03 -0.77308145094E+03  0.70190754450E+02  0.85815379636E+03  0.46999998093E+01 0. -1.
</event>
<event>
 5   0  0.1782613E-04  0.1922245E+04  0.7818609E-02  0.8643862E-01
       -1   -1    0    0    0  501  0.00000000000E+00  0.00000000000E+00  0.10674143955E+04  0.10674143956E+04  0.50400001928E-02 0.  1.
        1   -1    0    0  501    0  0.00000000000E+00  0.00000000000E+00 -0.86541519826E+03  0.86541519827E+03  0.50400001928E-02 0. -1.
    10030    2    1    2    0    0  0.00000000000E+00  0.00000000000E+00  0.20199919729E+03  0.19328295938E+04  0.19222451881E+04 0.  0.
        3    1    3    3  502    0  0.14778792853E+03 -0.94018741248E+03  0.23576365540E+03  0.98049893106E+03  0.10100000352E+00 0. -1.
       -3    1    3    3    0  502 -0.14778792853E+03  0.94018741248E+03 -0.33764458106E+02  0.95233066277E+03  0.10100000352E+00 0.  1.
</event>
<event>
 5   0  0.1782613E-04  0.1892724E+04  0.7818609E-02  0.8658486E-01
        1   -1    0    0  501    0  0.00000000000E+00  0.00000000000E+00  0.14243676048E+04  0.14243676048E+04  0.50400001928E-02 0.  1.
       -1   -1    0    0    0  501  0.00000000000E+00  0.00000000000E+00 -0.62877122594E+03  0.62877122596E+03  0.50400001928E-02 0. -1.
    10030    2    1    2    0    0  0.00000000000E+00  0.00000000000E+00  0.79559637884E+03  0.20531388307E+04  0.18927243487E+04 0.  0.
        3    1    3    3  502    0 -0.14286552249E+03 -0.36787811399E+03  0.13308477051E+04  0.13881284122E+04  0.10100000352E+00 0.  1.
       -3    1    3    3    0  502  0.14286552249E+03  0.36787811399E+03 -0.53525132631E+03  0.66501041855E+03  0.10100000352E+00 0. -1.
</event>
<event>
 5   0  0.1694830E-04  0.1627249E+04  0.7818609E-02  0.8803981E-01
        1   -1    0    0  501    0  0.00000000000E+00  0.00000000000E+00  0.78714686239E+03  0.78714686241E+03  0.50400001928E-02 0.  1.
       -1   -1    0    0    0  501  0.00000000000E+00  0.00000000000E+00 -0.84099279825E+03  0.84099279826E+03  0.50400001928E-02 0. -1.
    10030    2    1    2    0    0  0.00000000000E+00  0.00000000000E+00 -0.53845935855E+02  0.16281396607E+04  0.16272490190E+04 0.  0.
        1    1    3    3  502    0 -0.25912600058E+03 -0.66366599836E+03 -0.42005786490E+03  0.82707161204E+03  0.50400001928E-02 0. -1.
       -1    1    3    3    0  502  0.25912600058E+03  0.66366599836E+03  0.36621192904E+03  0.80106804864E+03  0.50400001928E-02 0.  1.
</event>
<event>
 5   0  0.3459485E-04  0.1869687E+04  0.7818609E-02  0.8670094E-01
        2   -1    0    0  501    0  0.00000000000E+00  0.00000000000E+00  0.97932222273E+03  0.97932222273E+03  0.25500000920E-02 0.  1.
       -2   -1    0    0    0  501  0.00000000000E+00  0.00000000000E+00 -0.89238477528E+03  0.89238477529E+03  0.25500000920E-02 0. -1.
    10030    2    1    2    0    0  0.00000000000E+00  0.00000000000E+00  0.86937447449E+02  0.18717069980E+04  0.18696868633E+04 0.  0.
        3    1    3    3  502    0 -0.67783256842E+03 -0.63434547892E+03 -0.66563882753E+02  0.93074268094E+03  0.10100000352E+00 0. -1.
       -3    1    3    3    0  502  0.67783256842E+03  0.63434547892E+03  0.15350133020E+03  0.94096431708E+03  0.10100000352E+00 0.  1.
</event>
<event>
 5   0  0.1287000E-04  0.1902505E+04  0.7818609E-02  0.8653610E-01
       -3   -1    0    0    0  501  0.00000000000E+00  0.00000000000E+00  0.77345625239E+03  0.77345625898E+03  0.10100000352E+00 0. -1.
        3   -1    0    0  501    0  0.00000000000E+00  0.00000000000E+00 -0.11699194907E+04  0.11699194950E+04  0.10100000352E+00 0.  1.
    10030    2    1    2    0    0  0.00000000000E+00  0.00000000000E+00 -0.39646323829E+03  0.19433757540E+04  0.19025052489E+04 0.  0.
        4    1    3    3  502    0 -0.69831260826E+03 -0.40927780637E+03  0.31223488496E+03  0.86754887927E+03  0.12699999809E+01 0.  1.
       -4    1    3    3    0  502  0.69831260826E+03  0.40927780637E+03 -0.70869812324E+03  0.10758268747E+04  0.12699999809E+01 0. -1.
</event>
<event>
 5   0  0.3459485E-04  0.1940043E+04  0.7818609E-02  0.8635177E-01
        2   -1    0    0  501    0  0.00000000000E+00  0.00000000000E+00  0.21483512940E+04  0.21483512940E+04  0.25500000920E-02 0. -1.
       -2   -1    0    0    0  501  0.00000000000E+00  0.00000000000E+00 -0.43798322901E+03  0.43798322901E+03  0.25500000920E-02 0.  1.
    10030    2    1    2    0    0  0.00000000000E+00  0.00000000000E+00  0.17103680650E+04  0.25863345230E+04  0.19400431302E+04 0.  0.
        3    1    3    3  502    0  0.65513092723E+03 -0.71517922103E+03  0.83352415409E+03  0.12788433742E+04  0.10100000352E+00 0. -1.
       -3    1    3    3    0  502 -0.65513092723E+03  0.71517922103E+03  0.87684391090E+03  0.13074911488E+04  0.10100000352E+00 0.  1.
</event>
<event>
 5   0  0.3623359E-04  0.1881652E+04  0.7818609E-02  0.8664044E-01
        2   -1    0    0  501    0  0.00000000000E+00  0.00000000000E+00  0.30144492008E+04  0.30144492008E+04  0.25500000920E-02 0.  1.
       -2   -1    0    0    0  501  0.00000000000E+00  0.00000000000E+00 -0.29363696859E+03  0.29363696860E+03  0.25500000920E-02 0. -1.
    10030    2    1    2    0    0  0.00000000000E+00  0.00000000000E+00  0.27208122322E+04  0.33080861694E+04  0.18816521733E+04 0.  0.
        5    1    3    3  502    0  0.56080807845E+02  0.49558409099E+03 -0.42074112609E+02  0.50054067687E+03  0.46999998093E+01 0. -1.
       -5    1    3    3    0  502 -0.56080807845E+02 -0.49558409099E+03  0.27628863448E+04  0.28075454925E+04  0.46999998093E+01 0.  1.
</event>
<event>
 5   0  0.1758946E-04  0.1881883E+04  0.7818609E-02  0.8663927E-01
       -1   -1    0    0    0  501  0.00000000000E+00  0.00000000000E+00  0.14859702234E+04  0.14859702234E+04  0.50400001928E-02 0. -1.
        1   -1    0    0  501    0  0.00000000000E+00  0.00000000000E+00 -0.59581986089E+03  0.59581986091E+03  0.50400001928E-02 0.  1.
    10030    2    1    2    0    0  0.00000000000E+00  0.00000000000E+00  0.89015036251E+03  0.20817900843E+04  0.18818826444E+04 0.  0.
        2    1    3    3  502    0 -0.92477736544E+03  0.13884718076E+03  0.32969372283E+03  0.99155920959E+03  0.25500000920E-02 0.  1.
       -2    1    3    3    0  502  0.92477736544E+03 -0.13884718076E+03  0.56045663968E+03  0.10902308747E+04  0.25500000920E-02 0. -1.
</event>
<event>
 5   0  0.1711979E-04  0.1989583E+04  0.7818609E-02  0.8611507E-01
       -1   -1    0    0    0  501  0.00000000000E+00  0.00000000000E+00  0.58037422952E+03  0.58037422955E+03  0.50400001928E-02 0.  1.
        1   -1    0    0  501    0  0.00000000000E+00  0.00000000000E+00 -0.17051236227E+04  0.17051236227E+04  0.50400001928E-02 0. -1.
    10030    2    1    2    0    0  0.00000000000E+00  0.00000000000E+00 -0.11247493931E+04  0.22854978522E+04  0.19895826786E+04 0.  0.
        4    1    3    3  502    0  0.58924121859E+02 -0.16883639826E+03 -0.16865079411E+04  0.16959623905E+04  0.12699999809E+01 0. -1.
       -4    1    3    3    0  502 -0.58924121859E+02  0.16883639826E+03  0.56175854799E+03  0.58953546174E+03  0.12699999809E+01 0.  1.
</event>
<event>
 5   0  0.3535876E-04  0.1786420E+04  0.7818609E-02  0.8713555E-01
        2   -1    0    0  501    0  0.00000000000E+00  0.00000000000E+00  0.54799122460E+03  0.54799122460E+03  0.25500000920E-02 0.  1.
       -2   -1    0    0    0  501  0.00000000000E+00  0.00000000000E+00 -0.14559060272E+04  0.14559060272E+04  0.25500000920E-02 0. -1.
    10030    2    1    2    0    0  0.00000000000E+00  0.00000000000E+00 -0.90791480259E+03  0.20038972518E+04  0.17864195775E+04 0.  0.
        2    1    3    3  502    0  0.63103611535E+03 -0.19049838373E+03 -0.11301043983E+04  0.13082936078E+04  0.25500000920E-02 0. -1.
       -2    1    3    3    0  502 -0.63103611535E+03  0.19049838373E+03  0.22218959574E+03  0.69560364399E+03  0.25500000920E-02 0.  1.
</event>
<event>
 5   0  0.3459485E-04  0.1903361E+04  0.7818609E-02  0.8653185E-01
       -2   -1    0    0    0  501  0.00000000000E+00  0.00000000000E+00  0.56127641380E+03  0.56127641381E+03  0.25500000920E-02 0. -1.
        2   -1    0    0  501    0  0.00000000000E+00  0.00000000000E+00 -0.16136352584E+04  0.16136352584E+04  0.25500000920E-02 0.  1.
    10030    2    1    2    0    0  0.00000000000E+00  0.00000000000E+00 -0.10523588445E+04  0.21749116722E+04  0.19033606185E+04 0.  0.
        3    1    3    3  502    0 -0.33061357826E+03  0.51436331038E+03 -0.13594826429E+04  0.14906602630E+04  0.10100000352E+00 0.  1.
       -3    1    3    3    0  502  0.33061357826E+03 -0.51436331038E+03  0.30712379836E+03  0.68425140914E+03  0.10100000352E+00 0. -1.
</event>
<event>
 5   0  0.1694830E-04  0.1949836E+04  0.7818609E-02  0.8630440E-01
       -1   -1    0    0    0  501  0.00000000000E+00  0.00000000000E+00  0.65347618028E+03  0.65347618030E+03  0.50400001928E-02 0.  1.
        1   -1    0    0  501    0  0.00000000000E+00  0.00000000000E+00 -0.14544758577E+04  0.14544758577E+04  0.50400001928E-02 0. -1.
    10030    2    1    2    0    0  0.00000000000E+00  0.00000000000E+00 -0.80099967744E+03  0.21079520380E+04  0.19498362268E+04 0.  0.
        1    1    3    3  502    0  0.45631841701E+03 -0.60775703563E+03 -0.10606480292E+04  0.13048254113E+04  0.50400001928E-02 0. -1.
       -1    1    3    3    0  502 -0.45631841701E+03  0.60775703563E+03  0.25964835172E+03  0.80312662677E+03  0.50400001928E-02 0.  1.
</event>
<event>
 5   0  0.3623359E-04  0.2046414E+04  0.7818609E-02  0.8585223E-01
        2   -1    0    0  501    0  0.00000000000E+00  0.00000000000E+00  0.13585177353E+04  0.13585177353E+04  0.25500000920E-02 0.  1.
       -2   -1    0    0    0  501  0.00000000000E+00  0.00000000000E+00 -0.77065831572E+03  0.77065831572E+03  0.25500000920E-02 0. -1.
    10030    2    1    2    0    0  0.00000000000E+00  0.00000000000E+00  0.58785941955E+03  0.21291760510E+04  0.20464144153E+04 0.  0.
        5    1    3    3  502    0 -0.11608082614E+02  0.52969529136E+03 -0.61681039017E+03  0.81313528806E+03  0.46999998093E+01 0. -1.
       -5    1    3    3    0  502  0.11608082614E+02 -0.52969529136E+03  0.12046698097E+04  0.13160407629E+04  0.46999998093E+01 0.  1.
</event>
<event>
 5   0  0.1711979E-04  0.1900970E+04  0.7818609E-02  0.8654374E-01
       -1   -1    0    0    0  501  0.00000000000E+00  0.00000000000E+00  0.10520532246E+04  0.10520532247E+04  0.50400001928E-02 0.  1.
        1   -1    0    0  501    0  0.00000000000E+00  0.00000000000E+00 -0.85872213292E+03  0.85872213294E+03  0.50400001928E-02 0. -1.
    10030    2    1    2    0    0  0.00000000000E+00  0.00000000000E+00  0.19333109172E+03  0.19107753576E+04  0.19009696358E+04 0.  0.
        4    1    3    3  502    0 -0.14445398996E+01 -0.51616483225E+03 -0.70556887000E+03  0.87421808718E+03  0.12699999809E+01 0. -1.
       -4    1    3    3    0  502  0.14445398996E+01  0.51616483225E+03  0.89889996172E+03  0.10365572704E+04  0.12699999809E+01 0.  1.
</event>
<event>
 5   0  0.1813834E-04  0.1923063E+04  0.7818609E-02  0.8643461E-01
        1   -1    0    0  501    0  0.00000000000E+00  0.00000000000E+00  0.87089961886E+03  0.87089961887E+03  0.50400001928E-02 0. -1.
       -1   -1    0    0    0  501  0.00000000000E+00  0.00000000000E+00 -0.10615948863E+04  0.10615948863E+04  0.50400001928E-02 0.  1.
    10030    2    1    2    0    0  0.00000000000E+00  0.00000000000E+00 -0.19069526741E+03  0.19324945052E+04  0.19230627466E+04 0.  0.
        5    1    3    3  502    0 -0.46154490311E+03 -0.43188267524E+03 -0.82345222901E+03  0.10380953743E+04  0.46999998093E+01 0.  1.
       -5    1    3    3    0  502  0.46154490311E+03  0.43188267524E+03  0.63275696159E+03  0.89439913082E+03  0.46999998093E+01 0. -1.
</event>
<event>
 5   0  0.3535876E-04  0.1926359E+04  0.7818609E-02  0.8641846E-01
       -2   -1    0    0    0  501  0.00000000000E+00  0.00000000000E+00  0.76989050164E+03  0.76989050164E+03  0.25500000920E-02 0. -1.
        2   -1    0    0  501    0  0.00000000000E+00  0.00000000000E+00 -0.12049963118E+04  0.12049963118E+04  0.25500000920E-02 0.  1.
    10030    2    1    2    0    0  0.00000000000E+00  0.00000000000E+00 -0.43510581015E+03  0.19748868134E+04  0.19263594836E+04 0.  0.
        2    1    3    3  502    0 -0.49882956740E+03 -0.82296024484E+03 -0.25882513567E+03  0.99653647839E+03  0.25500000920E-02 0. -1.
       -2    1    3    3    0  502  0.49882956740E+03  0.82296024484E+03 -0.17628067448E+03  0.97835033505E+03  0.25500000920E-02 0.  1.
</event>
<event>
 5   0  0.1694830E-04  0.1878776E+04  0.7818609E-02  0.8665494E-01
       -1   -1    0    0    0  501  0.00000000000E+00  0.00000000000E+00  0.53068195411E+03  0.53068195413E+03  0.50400001928E-02 0. -1.
        1   -1    0    0  501    0  0.00000000000E+00  0.00000000000E+00 -0.16628599352E+04  0.16628599352E+04  0.50400001928E-02 0.  1.
    10030    2    1    2    0    0  0.00000000000E+00  0.00000000000E+00 -0.11321779811E+04  0.21935418894E+04  0.18787759418E+04 0.  0.
        1    1    3    3  502    0 -0.58798102001E+03  0.70976413100E+03 -0.77806369219E+03  0.12061798832E+04  0.50400001928E-02 0.  1.
       -1    1    3    3    0  502  0.58798102001E+03 -0.70976413100E+03 -0.35411428893E+03  0.98736200616E+03  0.50400001928E-02 0. -1.
</event>
<event>
 5   0  0.1758946E-04  0.1835017E+04  0.7818609E-02  0.8687897E-01
        1   -1    0    0  501    0  0.00000000000E+00  0.00000000000E+00  0.69843542839E+03  0.69843542840E+03  0.50400001928E-02 0.  1.
       -1   -1    0    0    0  501  0.00000000000E+00  0.00000000000E+00 -0.12052961591E+04  0.12052961591E+04  0.50400001928E-02 0. -1.
    10030    2    1    2    0    0  0.00000000000E+00  0.00000000000E+00 -0.50686073070E+03  0.19037315875E+04  0.18350166639E+04 0.  0.
        2    1    3    3  502    0 -0.41721367677E+03  0.78879706290E+02  0.59037294255E+03  0.72720662225E+03  0.25500000920E-02 0.  1.
       -2    1    3    3    0  502  0.41721367677E+03 -0.78879706290E+02 -0.10972336732E+04  0.11765249652E+04  0.25500000920E-02 0. -1.
</event>
<event>
 5   0  0.3623359E-04  0.1934353E+04  0.7818609E-02  0.8637943E-01
        2   -1    0    0  501    0  0.00000000000E+00  0.00000000000E+00  0.84468842883E+03  0.84468842883E+03  0.25500000920E-02 0.  1.
       -2   -1    0    0    0  501  0.00000000000E+00  0.00000000000E+00 -0.11074261374E+04  0.11074261374E+04  0.25500000920E-02 0. -1.
    10030    2    1    2    0    0  0.00000000000E+00  0.00000000000E+00 -0.26273770855E+03  0.19521145662E+04  0.19343526504E+04 0.  0.
        5    1    3    3  502    0 -0.24049320364E+03  0.60083471267E+02 -0.10748118469E+04  0.11030365364E+04  0.46999998093E+01 0. -1.
       -5    1    3    3    0  502  0.24049320364E+03 -0.60083471267E+02  0.81207413833E+03  0.84907802978E+03  0.46999998093E+01 0.  1.
</event>
<event>
 5   0  0.3516539E-04  0.2035058E+04  0.7818609E-02  0.8590403E-01
        2   -1    0    0  501    0  0.00000000000E+00  0.00000000000E+00  0.12354349708E+04  0.12354349708E+04  0.25500000920E-02 0.  1.
       -2   -1    0    0    0  501  0.00000000000E+00  0.00000000000E+00 -0.83805713813E+03  0.83805713813E+03  0.25500000920E-02 0. -1.
    10030    2    1    2    0    0  0.00000000000E+00  0.00000000000E+00  0.39737783264E+03  0.20734921089E+04  0.20350578330E+04 0.  0.
        4    1    3    3  502    0  0.34775776871E+03 -0.62327860321E+03 -0.54023309579E+03  0.89513412046E+03  0.12699999809E+01 0. -1.
       -4    1    3    3    0  502 -0.34775776871E+03  0.62327860321E+03  0.93761092843E+03  0.11783579884E+04  0.12699999809E+01 0.  1.
</event>
<event>
 5   0  0.1758946E-04  0.1895204E+04  0.7818609E-02  0.8657247E-01
       -1   -1    0    0    0  501  0.00000000000E+00  0.00000000000E+00  0.77356751786E+03  0.77356751787E+03  0.50400001928E-02 0.  1.
        1   -1    0    0  501    0  0.00000000000E+00  0.00000000000E+00 -0.11607903506E+04  0.11607903506E+04  0.50400001928E-02 0. -1.
    10030    2    1    2    0    0  0.00000000000E+00  0.00000000000E+00 -0.38722283275E+03  0.19343578685E+04  0.18952041687E+04 0.  0.
        2    1    3    3  502    0 -0.16913782639E+03 -0.15909925278E+03 -0.11313021907E+04  0.11548873639E+04  0.25500000920E-02 0. -1.
       -2    1    3    3    0  502  0.16913782639E+03  0.15909925278E+03  0.74407935798E+03  0.77947050459E+03  0.25500000920E-02 0.  1.
</event>
<event>
 5   0  0.1782613E-04  0.1895098E+04  0.7818609E-02  0.8657300E-01
        1   -1    0    0  501    0  0.00000000000E+00  0.00000000000E+00  0.78508834777E+03  0.78508834779E+03  0.50400001928E-02 0. -1.
       -1   -1    0    0    0  501  0.00000000000E+00  0.00000000000E+00 -0.11436282571E+04  0.11436282571E+04  0.50400001928E-02 0.  1.
    10030    2    1    2    0    0  0.00000000000E+00  0.00000000000E+00 -0.35853990935E+03  0.19287166049E+04  0.18950981177E+04 0.  0.
        3    1    3    3  502    0  0.74465132935E+03 -0.30462400650E+03 -0.68869704281E+03  0.10590585511E+04  0.10100000352E+00 0.  1.
       -3    1    3    3    0  502 -0.74465132935E+03  0.30462400650E+03  0.33015713346E+03  0.86965805384E+03  0.10100000352E+00 0. -1.
</event>
<event>
 5   0  0.1758946E-04  0.1911672E+04  0.7818609E-02  0.8649068E-01
       -1   -1    0    0    0  501  0.00000000000E+00  0.00000000000E+00  0.90330254567E+03  0.90330254568E+03  0.50400001928E-02 0. -1.
        1   -1    0    0  501    0  0.00000000000E+00  0.00000000000E+00 -0.10114246702E+04  0.10114246702E+04  0.50400001928E-02 0.  1.
    10030    2    1    2    0    0  0.00000000000E+00  0.00000000000E+00 -0.10812212452E+03  0.19147272159E+04  0.19116720214E+04 0.  0.
        2    1    3    3  502    0  0.28139679573E+03  0.64176357313E+03  0.59703772325E+03  0.92059691691E+03  0.25500000920E-02 0. -1.
       -2    1    3    3    0  502 -0.28139679573E+03 -0.64176357313E+03 -0.70515984777E+03  0.99413029898E+03  0.25500000920E-02 0.  1.
</event>
<event>
 5   0  0.3459485E-04  0.1891446E+04  0.7818609E-02  0.8659126E-01
        2   -1    0    0  501    0  0.00000000000E+00  0.00000000000E+00  0.11182237548E+04  0.11182237548E+04  0.25500000920E-02 0.  1.
       -2   -1    0    0    0  501  0.00000000000E+00  0.00000000000E+00 -0.79983276213E+03  0.79983276214E+03  0.25500000920E-02 0. -1.
    10030    2    1    2    0    0  0.00000000000E+00  0.00000000000E+00  0.31839099262E+03  0.19180565169E+04  0.18914460018E+04 0.  0.
        3    1    3    3  502    0 -0.81897412142E+03  0.24233168953E+03  0.57104821193E+03  0.10273944373E+04  0.10100000352E+00 0.  1.
       -3    1    3    3    0  502  0.81897412142E+03 -0.24233168953E+03 -0.25265721931E+03  0.89066207956E+03  0.10100000352E+00 0. -1.
</event>
<event>
 5   0  0.1287000E-04  0.1900378E+04  0.7818609E-02  0.8654668E-01
        3   -1    0    0  501    0  0.00000000000E+00  0.00000000000E+00  0.17160757827E+04  0.17160757857E+04  0.10100000352E+00 0. -1.
       -3   -1    0    0    0  501  0.00000000000E+00  0.00000000000E+00 -0.52611866397E+03  0.52611867367E+03  0.10100000352E+00 0.  1.
    10030    2    1    2    0    0  0.00000000000E+00  0.00000000000E+00  0.11899571188E+04  0.22421944594E+04  0.19003783963E+04 0.  0.
        2    1    3    3  502    0  0.46971971819E+03 -0.77869709228E+02  0.15651705241E+04  0.16359887148E+04  0.25500000920E-02 0. -1.
       -2    1    3    3    0  502 -0.46971971819E+03  0.77869709228E+02 -0.37521340534E+03  0.60620574463E+03  0.25500000920E-02 0.  1.
</event>
<event>
 5   0  0.1711979E-04  0.1898819E+04  0.7818609E-02  0.8655444E-01
       -1   -1    0    0    0  501  0.00000000000E+00  0.00000000000E+00  0.80687382990E+03  0.80687382991E+03  0.50400001928E-02 0. -1.
        1   -1    0    0  501    0  0.00000000000E+00  0.00000000000E+00 -0.11171243968E+04  0.11171243968E+04  0.50400001928E-02 0.  1.
    10030    2    1    2    0    0  0.00000000000E+00  0.00000000000E+00 -0.31025056691E+03  0.19239982267E+04  0.18988190441E+04 0.  0.
        4    1    3    3  502    0 -0.56260696934E+03  0.34747357365E+03  0.53516640959E+03  0.85068747798E+03  0.12699999809E+01 0. -1.
       -4    1    3    3    0  502  0.56260696934E+03 -0.34747357365E+03 -0.84541697650E+03  0.10733107487E+04  0.12699999809E+01 0.  1.
</event>
<event>
 5   0  0.1782613E-04  0.1890758E+04  0.7818609E-02  0.8659471E-01
        1   -1    0    0  501    0  0.00000000000E+00  0.00000000000E+00  0.18893621993E+04  0.18893621993E+04  0.50400001928E-02 0.  1.
       -1   -1    0    0    0  501  0.00000000000E+00  0.00000000000E+00 -0.47303859455E+03  0.47303859458E+03  0.50400001928E-02 0. -1.
    10030    2    1    2    0    0  0.00000000000E+00  0.00000000000E+00  0.14163236047E+04  0.23624007939E+04  0.18907577734E+04 0.  0.
        3    1    3    3  502    0  0.81707539951E+03  0.40743173687E+03  0.10145397558E+04  0.13648823228E+04  0.10100000352E+00 0.  1.
       -3    1    3    3    0  502 -0.81707539951E+03 -0.40743173687E+03  0.40178384889E+03  0.99751847107E+03  0.10100000352E+00 0. -1.
</event>
<event>
 5   0  0.3720978E-04  0.1858376E+04  0.7818609E-02  0.8675857E-01
        2   -1    0    0  501    0  0.00000000000E+00  0.00000000000E+00  0.83097243736E+03  0.83097243736E+03  0.25500000920E-02 0. -1.
       -2   -1    0    0    0  501  0.00000000000E+00  0.00000000000E+00 -0.10390116972E+04  0.10390116972E+04  0.25500000920E-02 0.  1.
    10030    2    1    2    0    0  0.00000000000E+00  0.00000000000E+00 -0.20803925981E+03  0.18699841345E+04  0.18583757235E+04 0.  0.
        1    1    3    3  502    0  0.87630386975E+03  0.11595571302E+03  0.18418856582E+03  0.90292836223E+03  0.50400001928E-02 0. -1.
       -1    1    3    3    0  502 -0.87630386975E+03 -0.11595571302E+03 -0.39222782562E+03  0.96705577230E+03  0.50400001928E-02 0.  1.
</event>
<event>
 5   0  0.1694830E-04  0.1226996E+04  0.7818609E-02  0.9089550E-01
       -1   -1    0    0    0  501  0.00000000000E+00  0.00000000000E+00  0.55319202098E+03  0.55319202100E+03  0.50400001928E-02 0.  1.
        1   -1    0    0  501    0  0.00000000000E+00  0.00000000000E+00 -0.68037769099E+03  0.68037769101E+03  0.50400001928E-02 0. -1.
    10030    2    1    2    0    0  0.00000000000E+00  0.00000000000E+00 -0.12718567002E+03  0.12335697120E+04  0.12269955337E+04 0.  0.
        1    1    3    3  502    0  0.45020733764E+03  0.41092554748E+03 -0.13348551527E+03  0.62399105382E+03  0.50400001928E-02 0. -1.
       -1    1    3    3    0  502 -0.45020733764E+03 -0.41092554748E+03  0.62998452550E+01  0.60957865819E+03  0.50400001928E-02 0.  1.
</event>
<event>
 5   0  0.3459485E-04  0.1906436E+04  0.7818609E-02  0.8651659E-01
        2   -1    0    0  501    0  0.00000000000E+00  0.00000000000E+00  0.85101779282E+03  0.85101779283E+03  0.25500000920E-02 0.  1.
       -2   -1    0    0    0  501  0.00000000000E+00  0.00000000000E+00 -0.10676913732E+04  0.10676913732E+04  0.25500000920E-02 0. -1.
    10030    2    1    2    0    0  0.00000000000E+00  0.00000000000E+00 -0.21667358035E+03  0.19187091660E+04  0.19064357905E+04 0.  0.
        3    1    3    3  502    0  0.15687247719E+03 -0.11038340601E+03  0.83139320693E+03  0.85323393343E+03  0.10100000352E+00 0.  1.
       -3    1    3    3    0  502 -0.15687247719E+03  0.11038340601E+03 -0.10480667873E+04  0.10654752326E+04  0.10100000352E+00 0. -1.
</event>
<event>
 5   0  0.3459485E-04  0.1888419E+04  0.7818609E-02  0.8660643E-01
       -2   -1    0    0    0  501  0.00000000000E+00  0.00000000000E+00  0.64945982891E+03  0.64945982892E+03  0.25500000920E-02 0. -1.
        2   -1    0    0  501    0  0.00000000000E+00  0.00000000000E+00 -0.13727271299E+04  0.13727271299E+04  0.25500000920E-02 0.  1.
    10030    2    1    2    0    0  0.00000000000E+00  0.00000000000E+00 -0.72326730095E+03  0.20221869588E+04  0.18884185203E+04 0.  0.
        3    1    3    3  502    0  0.82251230856E+03 -0.30851808528E+03  0.90384548946E+01  0.87851671045E+03  0.10100000352E+00 0. -1.
       -3    1    3    3    0  502 -0.82251230856E+03  0.30851808528E+03 -0.73230575585E+03  0.11436702483E+04  0.10100000352E+00 0.  1.
</event>
<event>
 5   0  0.3516539E-04  0.1864912E+04  0.7818609E-02  0.8672522E-01
        2   -1    0    0  501    0  0.00000000000E+00  0.00000000000E+00  0.47565407487E+03  0.47565407488E+03  0.25500000920E-02 0. -1.
       -2   -1    0    0    0  501  0.00000000000E+00  0.00000000000E+00 -0.18279546577E+04  0.18279546577E+04  0.25500000920E-02 0.  1.
    10030    2    1    2    0    0  0.00000000000E+00  0.00000000000E+00 -0.13523005828E+04  0.23036087326E+04  0.18649118817E+04 0.  0.
        4    1    3    3  502    0 -0.43549124767E+03 -0.62047070266E+02  0.33942964457E+03  0.55562267974E+03  0.12699999809E+01 0. -1.
       -4    1    3    3    0  502  0.43549124767E+03  0.62047070266E+02 -0.16917302274E+04  0.17479860528E+04  0.12699999809E+01 0.  1.
</event>
<event>
 5   0  0.1782613E-04  0.1930821E+04  0.7818609E-02  0.8639665E-01
       -1   -1    0    0    0  501  0.00000000000E+00  0.00000000000E+00  0.14556599975E+04  0.14556599975E+04  0.50400001928E-02 0.  1.
        1   -1    0    0  501    0  0.00000000000E+00  0.00000000000E+00 -0.64027143582E+03  0.64027143584E+03  0.50400001928E-02 0. -1.
    10030    2    1    2    0    0  0.00000000000E+00  0.00000000000E+00  0.81538856165E+03  0.20959314333E+04  0.19308210861E+04 0.  0.
        3    1    3    3  502    0  0.21362234582E+03 -0.16923030562E+02 -0.61412848806E+03  0.65044193103E+03  0.10100000352E+00 0. -1.
       -3    1    3    3    0  502 -0.21362234582E+03  0.16923030562E+02  0.14295170497E+04  0.14454895023E+04  0.10100000352E+00 0.  1.
</event>
<event>
 5   0  0.3516539E-04  0.1874113E+04  0.7818609E-02  0.8667850E-01
        2   -1    0    0  501    0  0.00000000000E+00  0.00000000000E+00  0.19262939723E+04  0.19262939723E+04  0.25500000920E-02 0. -1.
       -2   -1    0    0    0  501  0.00000000000E+00  0.00000000000E+00 -0.45583657487E+03  0.45583657487E+03  0.25500000920E-02 0.  1.
    10030    2    1    2    0    0  0.00000000000E+00  0.00000000000E+00  0.14704573975E+04  0.23821305472E+04  0.18741133867E+04 0.  0.
        4    1    3    3  502    0 -0.83738084459E+02  0.66616580588E+03  0.15660896708E+04  0.17039446639E+04  0.12699999809E+01 0. -1.
       -4    1    3    3    0  502  0.83738084459E+02 -0.66616580588E+03 -0.95632273348E+02  0.67818588331E+03  0.12699999809E+01 0.  1.
</event>
<event>
 5   0  0.1813834E-04  0.1845547E+04  0.7818609E-02  0.8682446E-01
       -1   -1    0    0    0  501  0.00000000000E+00  0.00000000000E+00  0.24188832810E+03  0.24188832815E+03  0.50400001928E-02 0.  1.
        1   -1    0    0  501    0  0.00000000000E+00  0.00000000000E+00 -0.35202649831E+04  0.35202649831E+04  0.50400001928E-02 0. -1.
    10030    2    1    2    0    0  0.00000000000E+00  0.00000000000E+00 -0.32783766550E+04  0.37621533113E+04  0.18455470856E+04 0.  0.
        5    1    3    3  502    0 -0.49864359320E+03  0.44311600116E+03 -0.29388706130E+04  0.30136323255E+04  0.46999998093E+01 0. -1.
       -5    1    3    3    0  502  0.49864359320E+03 -0.44311600116E+03 -0.33950604200E+03  0.74852098573E+03  0.46999998093E+01 0.  1.
</event>
<event>
 5   0  0.3720978E-04  0.1611315E+04  0.7818609E-02  0.8813627E-01
       -2   -1    0    0    0  501  0.00000000000E+00  0.00000000000E+00  0.11330800635E+04  0.11330800635E+04  0.25500000920E-02 0. -1.
        2   -1    0    0  501    0  0.00000000000E+00  0.00000000000E+00 -0.57284942293E+03  0.57284942293E+03  0.25500000920E-02 0.  1.
    10030    2    1    2    0    0  0.00000000000E+00  0.00000000000E+00  0.56023064053E+03  0.17059294864E+04  0.16113153143E+04 0.  0.
        1    1    3    3  502    0 -0.69392181424E+03  0.32097355121E+03  0.54906476147E+03  0.94128827527E+03  0.50400001928E-02 0. -1.
       -1    1    3    3    0  502  0.69392181424E+03 -0.32097355121E+03  0.11165879059E+02  0.76464121112E+03  0.50400001928E-02 0.  1.
</event>
<event>
 5   0  0.1758946E-04  0.1895289E+04  0.7818609E-02  0.8657205E-01
       -1   -1    0    0    0  501  0.00000000000E+00  0.00000000000E+00  0.59723540311E+03  0.59723540314E+03  0.50400001928E-02 0.  1.
        1   -1    0    0  501    0  0.00000000000E+00  0.00000000000E+00 -0.15036453970E+04  0.15036453970E+04  0.50400001928E-02 0. -1.
    10030    2    1    2    0    0  0.00000000000E+00  0.00000000000E+00 -0.90640999392E+03  0.21008808002E+04  0.18952891757E+04 0.  0.
        2    1    3    3  502    0  0.84939072488E+03  0.41610611610E+03 -0.38836762389E+03  0.10224667793E+04  0.25500000920E-02 0.  1.
       -2    1    3    3    0  502 -0.84939072488E+03 -0.41610611610E+03 -0.51804237003E+03  0.10784140209E+04  0.25500000920E-02 0. -1.
</event>
<event>
 5   0  0.3623359E-04  0.1880919E+04  0.7818609E-02  0.8664413E-01
       -2   -1    0    0    0  501  0.00000000000E+00  0.00000000000E+00  0.74058480076E+03  0.74058480077E+03  0.25500000920E-02 0. -1.
        2   -1    0    0  501    0  0.00000000000E+00  0.00000000000E+00 -0.11942783917E+04  0.11942783917E+04  0.25500000920E-02 0.  1.
    10030    2    1    2    0    0  0.00000000000E+00  0.00000000000E+00 -0.45369359096E+03  0.19348631925E+04  0.18809193760E+04 0.  0.
        5    1    3    3  502    0  0.20065903379E+03 -0.54137549653E+03  0.53679850999E+03  0.78836933376E+03  0.46999998093E+01 0. -1.
       -5    1    3    3    0  502 -0.20065903379E+03  0.54137549653E+03 -0.99049210095E+03  0.11464938587E+04  0.46999998093E+01 0.  1.
</event>
<event>
 5   0  0.1782613E-04  0.1974553E+04  0.7818609E-02  0.8618611E-01
        1   -1    0    0  501    0  0.00000000000E+00  0.00000000000E+00  0.14991492435E+04  0.14991492435E+04  0.50400001928E-02 0.  1.
       -1   -1    0    0    0  501  0.00000000000E+00  0.00000000000E+00 -0.65017878236E+03  0.65017878238E+03  0.50400001928E-02 0. -1.
    10030    2    1    2    0    0  0.00000000000E+00  0.00000000000E+00  0.84897046118E+03  0.21493280259E+04  0.19745531441E+04 0.  0.
        3    1    3    3  502    0 -0.41504112605E+03  0.11975193701E+03 -0.54185212787E+03  0.69296709980E+03  0.10100000352E+00 0. -1.
       -3    1    3    3    0  502  0.41504112605E+03 -0.11975193701E+03  0.13908225890E+04  0.14563609261E+04  0.10100000352E+00 0.  1.
</event>
<event>
 5   0  0.1782613E-04  0.1826448E+04  0.7818609E-02  0.8692360E-01
        1   -1    0    0  501    0  0.00000000000E+00  0.00000000000E+00  0.52566154645E+03  0.52566154648E+03  0.50400001928E-02 0.  1.
       -1   -1    0    0    0  501  0.00000000000E+00  0.00000000000E+00 -0.15865302788E+04  0.15865302788E+04  0.50400001928E-02 0. -1.
    10030    2    1    2    0    0  0.00000000000E+00  0.00000000000E+00 -0.10608687324E+04  0.21121918253E+04  0.18264478749E+04 0.  0.
        3    1    3    3  502    0  0.52554436650E+03 -0.31038364885E+03  0.25513607537E+03  0.66153557560E+03  0.10100000352E+00 0.  1.
       -3    1    3    3    0  502 -0.52554436650E+03  0.31038364885E+03 -0.13160048077E+04  0.14506562497E+04  0.10100000352E+00 0. -1.
</event>
<event>
 5   0  0.1287000E-04  0.1913085E+04  0.7818609E-02  0.8648370E-01
       -3   -1    0    0    0  501  0.00000000000E+00  0.00000000000E+00  0.53656601973E+03  0.53656602924E+03  0.10100000352E+00 0. -1.
        3   -1    0    0  501    0  0.00000000000E+00  0.00000000000E+00 -0.17052401119E+04  0.17052401149E+04  0.10100000352E+00 0.  1.
    10030    2    1    2    0    0  0.00000000000E+00  0.00000000000E+00 -0.11686740922E+04  0.22418061442E+04  0.19130853756E+04 0.  0.
        1    1    3    3  502    0 -0.38723362669E+03  0.59647607126E+03 -0.13339773284E+04  0.15116974227E+04  0.50400001928E-02 0.  1.
       -1    1    3    3    0  502  0.38723362669E+03 -0.59647607126E+03  0.16530323617E+03  0.73010872144E+03  0.50400001928E-02 0. -1.
</event>
<event>
 5   0  0.1694830E-04  0.1871379E+04  0.7818609E-02  0.8669235E-01
       -1   -1    0    0    0  501  0.00000000000E+00  0.00000000000E+00  0.68824289801E+03  0.68824289802E+03  0.50400001928E-02 0.  1.
        1   -1    0    0  501    0  0.00000000000E+00  0.00000000000E+00 -0.12721019246E+04  0.12721019246E+04  0.50400001928E-02 0. -1.
    10030    2    1    2    0    0  0.00000000000E+00  0.00000000000E+00 -0.58385902662E+03  0.19603448227E+04  0.18713792937E+04 0.  0.
        1    1    3    3  502    0 -0.33920037181E+03  0.49298555216E+03 -0.10454476528E+04  0.12045963812E+04  0.50400001928E-02 0. -1.
       -1    1    3    3    0  502  0.33920037181E+03 -0.49298555216E+03  0.46158862619E+03  0.75574844143E+03  0.50400001928E-02 0.  1.
</event>
<event>
 5   0  0.1758946E-04  0.2040054E+04  0.7818609E-02  0.8588120E-01
        1   -1    0    0  501    0  0.00000000000E+00  0.00000000000E+00  0.12925825636E+04  0.12925825636E+04  0.50400001928E-02 0. -1.
       -1   -1    0    0    0  501  0.00000000000E+00  0.00000000000E+00 -0.80494316535E+03  0.80494316537E+03  0.50400001928E-02 0.  1.
    10030    2    1    2    0    0  0.00000000000E+00  0.00000000000E+00  0.48763939828E+03  0.20975257290E+04  0.20400544113E+04 0.  0.
        2    1    3    3  502    0 -0.48320094379E+03 -0.73293180178E+03 -0.29021944968E+03  0.92460775852E+03  0.25500000920E-02 0.  1.
       -2    1    3    3    0  502  0.48320094379E+03  0.73293180178E+03  0.77785884795E+03  0.11729179705E+04  0.25500000920E-02 0. -1.
</event>
<event>
 5   0  0.1813834E-04  0.1811062E+04  0.7818609E-02  0.8700439E-01
        1   -1    0    0  501    0  0.00000000000E+00  0.00000000000E+00  0.17748010185E+04  0.17748010185E+04  0.50400001928E-02 0. -1.
       -1   -1    0    0    0  501  0.00000000000E+00  0.00000000000E+00 -0.46201592945E+03  0.46201592948E+03  0.50400001928E-02 0.  1.
    10030    2    1    2    0    0  0.00000000000E+00  0.00000000000E+00  0.13127850891E+04  0.22368169480E+04  0.18110619451E+04 0.  0.
        5    1    3    3  502    0 -0.44761415178E+03  0.43599167819E+03 -0.15305248165E+03  0.64334619332E+03  0.46999998093E+01 0.  1.
       -5    1    3    3    0  502  0.44761415178E+03 -0.43599167819E+03  0.14658375707E+04  0.15934707547E+04  0.46999998093E+01 0. -1.
</event>
<event>
 5   0  0.3623359E-04  0.1707549E+04  0.7818609E-02  0.8757071E-01
       -2   -1    0    0    0  501  0.00000000000E+00  0.00000000000E+00  0.74350011368E+03  0.74350011369E+03  0.25500000920E-02 0. -1.
        2   -1    0    0  501    0  0.00000000000E+00  0.00000000000E+00 -0.98040413749E+03  0.98040413750E+03  0.25500000920E-02 0.  1.
    10030    2    1    2    0    0  0.00000000000E+00  0.00000000000E+00 -0.23690402381E+03  0.17239042512E+04  0.17075486379E+04 0.  0.
        5    1    3    3  502    0 -0.62012215265E+03  0.91620187672E+02 -0.70362682410E+03  0.94236858001E+03  0.46999998093E+01 0.  1.
       -5    1    3    3    0  502  0.62012215265E+03 -0.91620187672E+02  0.46672280029E+03  0.78153567117E+03  0.46999998093E+01 0. -1.
</event>
<event>
 5   0  0.1813834E-04  0.1915049E+04  0.7818609E-02  0.8647402E-01
       -1   -1    0    0    0  501  0.00000000000E+00  0.00000000000E+00  0.68833618435E+03  0.68833618437E+03  0.50400001928E-02 0.  1.
        1   -1    0    0  501    0  0.00000000000E+00  0.00000000000E+00 -0.13319844301E+04  0.13319844301E+04  0.50400001928E-02 0. -1.
    10030    2    1    2    0    0  0.00000000000E+00  0.00000000000E+00 -0.64364824579E+03  0.20203206145E+04  0.19150489083E+04 0.  0.
        5    1    3    3  502    0  0.58861199919E+02 -0.32366025520E+02  0.68583521805E+03  0.68913296016E+03  0.46999998093E+01 0.  1.
       -5    1    3    3    0  502 -0.58861199919E+02  0.32366025520E+02 -0.13294834638E+04  0.13311876543E+04  0.46999998093E+01 0. -1.
</event>
<event>
 5   0  0.3720978E-04  0.1917312E+04  0.7818609E-02  0.8646287E-01
        2   -1    0    0  501    0  0.00000000000E+00  0.00000000000E+00  0.11122713396E+04  0.11122713396E+04  0.25500000920E-02 0.  1.
       -2   -1    0    0    0  501  0.00000000000E+00  0.00000000000E+00 -0.82625650038E+03  0.82625650038E+03  0.25500000920E-02 0. -1.
    10030    2    1    2    0    0  0.00000000000E+00  0.00000000000E+00  0.28601483925E+03  0.19385278400E+04  0.19173121025E+04 0.  0.
        1    1    3    3  502    0  0.54104249744E+03 -0.41896875581E+03  0.82182289077E+03  0.10694179100E+04  0.50400001928E-02 0.  1.
       -1    1    3    3    0  502 -0.54104249744E+03  0.41896875581E+03 -0.53580805151E+03  0.86910993003E+03  0.50400001928E-02 0. -1.
</event>
<event>
 5   0  0.1694830E-04  0.1987433E+04  0.7818609E-02  0.8612519E-01
       -1   -1    0    0    0  501  0.00000000000E+00  0.00000000000E+00  0.94142715081E+03  0.94142715082E+03  0.50400001928E-02 0. -1.
        1   -1    0    0  501    0  0.00000000000E+00  0.00000000000E+00 -0.10489098262E+04  0.10489098262E+04  0.50400001928E-02 0.  1.
    10030    2    1    2    0    0  0.00000000000E+00  0.00000000000E+00 -0.10748267540E+03  0.19903369770E+04  0.19874327049E+04 0.  0.
        1    1    3    3  502    0 -0.14866738261E+03 -0.43037774495E+03  0.83080766730E+03  0.94740085184E+03  0.50400001928E-02 0. -1.
       -1    1    3    3    0  502  0.14866738261E+03  0.43037774495E+03 -0.93829034270E+03  0.10429361252E+04  0.50400001928E-02 0.  1.
</event>
<event>
 5   0  0.3516539E-04  0.1903518E+04  0.7818609E-02  0.8653107E-01
       -2   -1    0    0    0  501  0.00000000000E+00  0.00000000000E+00  0.50157820680E+03  0.50157820681E+03  0.25500000920E-02 0.  1.
        2   -1    0    0  501    0  0.00000000000E+00  0.00000000000E+00 -0.18059907797E+04  0.18059907797E+04  0.25500000920E-02 0. -1.
    10030    2    1    2    0    0  0.00000000000E+00  0.00000000000E+00 -0.13044125729E+04  0.23075689865E+04  0.19035184441E+04 0.  0.
        4    1    3    3  502    0 -0.21077380339E+03  0.14849552389E+03 -0.17628472197E+04  0.17816027755E+04  0.12699999809E+01 0. -1.
       -4    1    3    3    0  502  0.21077380339E+03 -0.14849552389E+03  0.45843464681E+03  0.52596621099E+03  0.12699999809E+01 0.  1.
</event>
<event>
 5   0  0.3459485E-04  0.1900093E+04  0.7818609E-02  0.8654810E-01
        2   -1    0    0  501    0  0.00000000000E+00  0.00000000000E+00  0.10475858426E+04  0.10475858426E+04  0.25500000920E-02 0.  1.
       -2   -1    0    0    0  501  0.00000000000E+00  0.00000000000E+00 -0.86158856566E+03  0.86158856566E+03  0.25500000920E-02 0. -1.
    10030    2    1    2    0    0  0.00000000000E+00  0.00000000000E+00  0.18599727697E+03  0.19091744083E+04  0.19000926120E+04 0.  0.
        3    1    3    3  502    0  0.46953393217E+03 -0.69913138570E+03 -0.34880877694E+03  0.91154505155E+03  0.10100000352E+00 0. -1.
       -3    1    3    3    0  502 -0.46953393217E+03  0.69913138570E+03  0.53480605391E+03  0.99762935674E+03  0.10100000352E+00 0.  1.
</event>
<event>
 5   0  0.1782613E-04  0.1931968E+04  0.7818609E-02  0.8639106E-01
        1   -1    0    0  501    0  0.00000000000E+00  0.00000000000E+00  0.62928697747E+03  0.62928697749E+03  0.50400001928E-02 0. -1.
       -1   -1    0    0    0  501  0.00000000000E+00  0.00000000000E+00 -0.14828288499E+04  0.14828288500E+04  0.50400001928E-02 0.  1.
    10030    2    1    2    0    0  0.00000000000E+00  0.00000000000E+00 -0.85354187248E+03  0.21121158274E+04  0.19319677897E+04 0.  0.
        3    1    3    3  502    0  0.90767832268E+03  0.32606320243E+03 -0.48592478750E+03  0.10799629895E+04  0.10100000352E+00 0.  1.
       -3    1    3    3    0  502 -0.90767832268E+03 -0.32606320243E+03 -0.36761708498E+03  0.10321528379E+04  0.10100000352E+00 0. -1.
</event>
<event>
 5   0  0.1813834E-04  0.1920290E+04  0.7818609E-02  0.8644822E-01
       -1   -1    0    0    0  501  0.00000000000E+00  0.00000000000E+00  0.95837919863E+03  0.95837919864E+03  0.50400001928E-02 0.  1.
        1   -1    0    0  501    0  0.00000000000E+00  0.00000000000E+00 -0.96191379899E+03  0.96191379900E+03  0.50400001928E-02 0. -1.
    10030    2    1    2    0    0  0.00000000000E+00  0.00000000000E+00 -0.35346003584E+01  0.19202929976E+04  0.19202897446E+04 0.  0.
        5    1    3    3  502    0 -0.71673422110E+03 -0.63568324078E+03  0.61911372025E+02  0.96002928824E+03  0.46999998093E+01 0.  1.
       -5    1    3    3    0  502  0.71673422110E+03  0.63568324078E+03 -0.65445972383E+02  0.96026370940E+03  0.46999998093E+01 0. -1.
</event>
<event>
 5   0  0.1287000E-04  0.1889474E+04  0.7818609E-02  0.8660113E-01
       -3   -1    0    0    0  501  0.00000000000E+00  0.00000000000E+00  0.21622802746E+04  0.21622802769E+04  0.10100000352E+00 0.  1.
        3   -1    0    0  501    0  0.00000000000E+00  0.00000000000E+00 -0.41277185603E+03  0.41277186839E+03  0.10100000352E+00 0. -1.
    10030    2    1    2    0    0  0.00000000000E+00  0.00000000000E+00  0.17495084185E+04  0.25750521453E+04  0.18894744890E+04 0.  0.
        5    1    3    3  502    0  0.82582026920E+03  0.85585353949E+02  0.26041333231E+03  0.87013858866E+03  0.46999998093E+01 0. -1.
       -5    1    3    3    0  502 -0.82582026920E+03 -0.85585353949E+02  0.14890950862E+04  0.17049135567E+04  0.46999998093E+01 0.  1.
</event>
<event>
 5   0  0.1711979E-04  0.1874152E+04  0.7818609E-02  0.8667831E-01
        1   -1    0    0  501    0  0.00000000000E+00  0.00000000000E+00  0.16279377596E+04  0.16279377596E+04  0.50400001928E-02 0.  1.
       -1   -1    0    0    0  501  0.00000000000E+00  0.00000000000E+00 -0.53940092932E+03  0.53940092934E+03  0.50400001928E-02 0. -1.
    10030    2    1    2    0    0  0.00000000000E+00  0.00000000000E+00  0.10885368303E+04  0.21673386889E+04  0.18741516912E+04 0.  0.
        4    1    3    3  502    0 -0.44761050546E+03  0.80921319303E+03  0.36915934331E+03  0.99572154242E+03  0.12699999809E+01 0. -1.
       -4    1    3    3    0  502  0.44761050546E+03 -0.80921319303E+03  0.71937748696E+03  0.11716171465E+04  0.12699999809E+01 0.  1.
</event>
<event>
 5   0  0.3459485E-04  0.1935919E+04  0.7818609E-02  0.8637181E-01
       -2   -1    0    0    0  501  0.00000000000E+00  0.00000000000E+00  0.90044600757E+03  0.90044600758E+03  0.25500000920E-02 0. -1.
        2   -1    0    0  501    0  0.00000000000E+00  0.00000000000E+00 -0.10405346728E+04  0.10405346728E+04  0.25500000920E-02 0.  1.
    10030    2    1    2    0    0  0.00000000000E+00  0.00000000000E+00 -0.14008866525E+03  0.19409806804E+04  0.19359186883E+04 0.  0.
        3    1    3    3  502    0 -0.96743061451E+03  0.93048769347E+01 -0.10073002992E+03  0.97270505486E+03  0.10100000352E+00 0.  1.
       -3    1    3    3    0  502  0.96743061451E+03 -0.93048769347E+01 -0.39358635326E+02  0.96827562553E+03  0.10100000352E+00 0. -1.
</event>
<event>
 5   0  0.3535876E-04  0.1930745E+04  0.7818609E-02  0.8639702E-01
        2   -1    0    0  501    0  0.00000000000E+00  0.00000000000E+00  0.19250294307E+04  0.19250294307E+04  0.25500000920E-02 0.  1.
       -2   -1    0    0    0  501  0.00000000000E+00  0.00000000000E+00 -0.48411936022E+03  0.48411936023E+03  0.25500000920E-02 0. -1.
    10030    2    1    2    0    0  0.00000000000E+00  0.00000000000E+00  0.14409100705E+04  0.24091487909E+04  0.19307449510E+04 0.  0.
        2    1    3    3  502    0 -0.56671379061E+03 -0.40673467304E+03  0.15531533567E+04  0.17026106320E+04  0.25500000920E-02 0.  1.
       -2    1    3    3    0  502  0.56671379061E+03  0.40673467304E+03 -0.11224328623E+03  0.70653815894E+03  0.25500000920E-02 0. -1.
</event>
<event>
 5   0  0.3459485E-04  0.1974554E+04  0.7818609E-02  0.8618611E-01
        2   -1    0    0  501    0  0.00000000000E+00  0.00000000000E+00  0.11381127263E+04  0.11381127263E+04  0.25500000920E-02 0. -1.
       -2   -1    0    0    0  501  0.00000000000E+00  0.00000000000E+00 -0.85643143705E+03  0.85643143706E+03  0.25500000920E-02 0.  1.
    10030    2    1    2    0    0  0.00000000000E+00  0.00000000000E+00  0.28168128926E+03  0.19945441634E+04  0.19745536384E+04 0.  0.
        3    1    3    3  502    0  0.93662242856E+03 -0.31145001826E+03  0.16233564756E+03  0.10003077328E+04  0.10100000352E+00 0. -1.
       -3    1    3    3    0  502 -0.93662242856E+03  0.31145001826E+03  0.11934564170E+03  0.99423643061E+03  0.10100000352E+00 0.  1.
</event>
<event>
 5   0  0.3535876E-04  0.1842516E+04  0.7818609E-02  0.8684011E-01
        2   -1    0    0  501    0  0.00000000000E+00  0.00000000000E+00  0.19353049085E+04  0.19353049085E+04  0.25500000920E-02 0. -1.
       -2   -1    0    0    0  501  0.00000000000E+00  0.00000000000E+00 -0.43854405998E+03  0.43854405998E+03  0.25500000920E-02 0.  1.
    10030    2    1    2    0    0  0.00000000000E+00  0.00000000000E+00  0.14967608485E+04  0.23738489685E+04  0.18425161838E+04 0.  0.
        2    1    3    3  502    0  0.32017412561E+02 -0.77993928271E+03  0.11801669977E+03  0.78946712462E+03  0.25500000920E-02 0.  1.
       -2    1    3    3    0  502 -0.32017412561E+02  0.77993928271E+03  0.13787441487E+04  0.15843818438E+04  0.25500000920E-02 0. -1.
</event>
<event>
 5   0  0.3459485E-04  0.1987960E+04  0.7818609E-02  0.8612271E-01
        2   -1    0    0  501    0  0.00000000000E+00  0.00000000000E+00  0.16604791579E+04  0.16604791579E+04  0.25500000920E-02 0. -1.
       -2   -1    0    0    0  501  0.00000000000E+00  0.00000000000E+00 -0.59500646158E+03  0.59500646158E+03  0.25500000920E-02 0.  1.
    10030    2    1    2    0    0  0.00000000000E+00  0.00000000000E+00  0.10654726963E+04  0.22554856195E+04  0.19879595854E+04 0.  0.
        3    1    3    3  502    0  0.77402090648E+03 -0.25698727043E+03 -0.11192189739E+03  0.82321160229E+03  0.10100000352E+00 0.  1.
       -3    1    3    3    0  502 -0.77402090648E+03  0.25698727043E+03  0.11773945937E+04  0.14322740172E+04  0.10100000352E+00 0. -1.
</event>
<event>
 5   0  0.3623359E-04  0.1829533E+04  0.7818609E-02  0.8690750E-01
        2   -1    0    0  501    0  0.00000000000E+00  0.00000000000E+00  0.18033183390E+04  0.18033183390E+04  0.25500000920E-02 0. -1.
       -2   -1    0    0    0  501  0.00000000000E+00  0.00000000000E+00 -0.46403234614E+03  0.46403234615E+03  0.25500000920E-02 0.  1.
    10030    2    1    2    0    0  0.00000000000E+00  0.00000000000E+00  0.13392859928E+04  0.22673506851E+04  0.18295333172E+04 0.  0.
        5    1    3    3  502    0 -0.21694350796E+03 -0.16548455188E+03 -0.41241074995E+03  0.49452435656E+03  0.46999998093E+01 0.  1.
       -5    1    3    3    0  502  0.21694350796E+03  0.16548455188E+03  0.17516967428E+04  0.17728263285E+04  0.46999998093E+01 0. -1.
</event>
<event>
 5   0  0.3516539E-04  0.1838793E+04  0.7818609E-02  0.8685937E-01
       -2   -1    0    0    0  501  0.00000000000E+00  0.00000000000E+00  0.69713478853E+03  0.69713478853E+03  0.25500000920E-02 0.  1.
        2   -1    0    0  501    0  0.00000000000E+00  0.00000000000E+00 -0.12125202390E+04  0.12125202390E+04  0.25500000920E-02 0. -1.
    10030    2    1    2    0    0  0.00000000000E+00  0.00000000000E+00 -0.51538545048E+03  0.19096550275E+04  0.18387931264E+04 0.  0.
        4    1    3    3  502    0 -0.14361936706E+03 -0.36917702366E+03 -0.11193470835E+04  0.11873742896E+04  0.12699999809E+01 0. -1.
       -4    1    3    3    0  502  0.14361936706E+03  0.36917702366E+03  0.60396163299E+03  0.72228073796E+03  0.12699999809E+01 0.  1.
</event>
<event>
 5   0  0.3516539E-04  0.1878286E+04  0.7818609E-02  0.8665741E-01
        2   -1    0    0  501    0  0.00000000000E+00  0.00000000000E+00  0.23404529980E+04  0.23404529980E+04  0.25500000920E-02 0. -1.
       -2   -1    0    0    0  501  0.00000000000E+00  0.00000000000E+00 -0.37684573082E+03  0.37684573083E+03  0.25500000920E-02 0.  1.
    10030    2    1    2    0    0  0.00000000000E+00  0.00000000000E+00  0.19636072672E+04  0.27172987288E+04  0.18782861555E+04 0.  0.
        4    1    3    3  502    0 -0.51863413604E+03 -0.39808155009E+03  0.64532916446E+01  0.65382990560E+03  0.12699999809E+01 0.  1.
       -4    1    3    3    0  502  0.51863413604E+03  0.39808155009E+03  0.19571539755E+04  0.20634688232E+04  0.12699999809E+01 0. -1.
</event>
<event>
 5   0  0.1694830E-04  0.1956360E+04  0.7818609E-02  0.8627300E-01
        1   -1    0    0  501    0  0.00000000000E+00  0.00000000000E+00  0.12230474155E+04  0.12230474155E+04  0.50400001928E-02 0.  1.
       -1   -1    0    0    0  501  0.00000000000E+00  0.00000000000E+00 -0.78233786437E+03  0.78233786439E+03  0.50400001928E-02 0. -1.
    10030    2    1    2    0    0  0.00000000000E+00  0.00000000000E+00  0.44070955110E+03  0.20053852799E+04  0.19563601949E+04 0.  0.
        1    1    3    3  502    0 -0.23395688781E+03 -0.33502827762E+02 -0.75263014010E+03  0.78886652397E+03  0.50400001928E-02 0. -1.
       -1    1    3    3    0  502  0.23395688781E+03  0.33502827762E+02  0.11933396912E+04  0.12165187559E+04  0.50400001928E-02 0.  1.
</event>
<event>
 5   0  0.3535876E-04  0.1552800E+04  0.7818609E-02  0.8850081E-01
        2   -1    0    0  501    0  0.00000000000E+00  0.00000000000E+00  0.11285940690E+04  0.11285940690E+04  0.25500000920E-02 0. -1.
       -2   -1    0    0    0  501  0.00000000000E+00  0.00000000000E+00 -0.53411327340E+03  0.53411327341E+03  0.25500000920E-02 0.  1.
    10030    2    1    2    0    0  0.00000000000E+00  0.00000000000E+00  0.59448079557E+03  0.16627073424E+04  0.15528001449E+04 0.  0.
        2    1    3    3  502    0  0.74140773554E+02 -0.18207274271E+03  0.11015022056E+04  0.11189077026E+04  0.25500000920E-02 0. -1.
       -2    1    3    3    0  502 -0.74140773554E+02  0.18207274271E+03 -0.50702141006E+03  0.54379963977E+03  0.25500000920E-02 0.  1.
</event>
<event>
 5   0  0.1813834E-04  0.1907201E+04  0.7818609E-02  0.8651280E-01
       -1   -1    0    0    0  501  0.00000000000E+00  0.00000000000E+00  0.67393112162E+03  0.67393112164E+03  0.50400001928E-02 0.  1.
        1   -1    0    0  501    0  0.00000000000E+00  0.00000000000E+00 -0.13493272699E+04  0.13493272699E+04  0.50400001928E-02 0. -1.
    10030    2    1    2    0    0  0.00000000000E+00  0.00000000000E+00 -0.67539614830E+03  0.20232583916E+04  0.19072007136E+04 0.  0.
        5    1    3    3  502    0 -0.84878035552E+03 -0.30921846516E+03 -0.66171406410E+03  0.11197909375E+04  0.46999998093E+01 0. -1.
       -5    1    3    3    0  502  0.84878035552E+03  0.30921846516E+03 -0.13682084202E+02  0.90346745406E+03  0.46999998093E+01 0.  1.
</event>
<event>
 5   0  0.1711979E-04  0.1905456E+04  0.7818609E-02  0.8652145E-01
       -1   -1    0    0    0  501  0.00000000000E+00  0.00000000000E+00  0.58695059205E+03  0.58695059208E+03  0.50400001928E-02 0.  1.
        1   -1    0    0  501    0  0.00000000000E+00  0.00000000000E+00 -0.15464521753E+04  0.15464521753E+04  0.50400001928E-02 0. -1.
    10030    2    1    2    0    0  0.00000000000E+00  0.00000000000E+00 -0.95950158324E+03  0.21334027674E+04  0.19054563967E+04 0.  0.
        4    1    3    3  502    0  0.28084293487E+03  0.23278597812E+03  0.50566666142E+03  0.62350818042E+03  0.12699999809E+01 0.  1.
       -4    1    3    3    0  502 -0.28084293487E+03 -0.23278597812E+03 -0.14651682447E+04  0.15098945870E+04  0.12699999809E+01 0. -1.
</event>
<event>
 5   0  0.1813834E-04  0.1897511E+04  0.7818609E-02  0.8656096E-01
       -1   -1    0    0    0  501  0.00000000000E+00  0.00000000000E+00  0.38541058040E+03  0.38541058043E+03  0.50400001928E-02 0.  1.
        1   -1    0    0  501    0  0.00000000000E+00  0.00000000000E+00 -0.23355280994E+04  0.23355280994E+04  0.50400001928E-02 0. -1.
    10030    2    1    2    0    0  0.00000000000E+00  0.00000000000E+00 -0.19501175190E+04  0.27209386798E+04  0.18975112546E+04 0.  0.
        5    1    3    3  502    0  0.58603630300E+03 -0.68972256794E+03 -0.13830661070E+04  0.16528913199E+04  0.46999998093E+01 0. -1.
       -5    1    3    3    0  502 -0.58603630300E+03  0.68972256794E+03 -0.56705141200E+03  0.10680473599E+04  0.46999998093E+01 0.  1.
</event>
<event>
 5   0  0.3720978E-04  0.1809383E+04  0.7818609E-02  0.8701325E-01
       -2   -1    0    0    0  501  0.00000000000E+00  0.00000000000E+00  0.45863476651E+03  0.45863476652E+03  0.25500000920E-02 0.  1.
        2   -1    0    0  501    0  0.00000000000E+00  0.00000000000E+00 -0.17845726284E+04  0.17845726284E+04  0.25500000920E-02 0. -1.
    10030    2    1    2    0    0  0.00000000000E+00  0.00000000000E+00 -0.13259378619E+04  0.22432073949E+04  0.18093833765E+04 0.  0.
        1    1    3    3  502    0  0.20725130142E+03 -0.23625072715E+03 -0.17147235921E+04  0.17432855490E+04  0.50400001928E-02 0. -1.
       -1    1    3    3    0  502 -0.20725130142E+03  0.23625072715E+03  0.38878573019E+03  0.49992184594E+03  0.50400001928E-02 0.  1.
</event>
<event>
 5   0  0.3459485E-04  0.1880033E+04  0.7818609E-02  0.8664860E-01
       -2   -1    0    0    0  501  0.00000000000E+00  0.00000000000E+00  0.50568202794E+03  0.50568202795E+03  0.25500000920E-02 0.  1.
        2   -1    0    0  501    0  0.00000000000E+00  0.00000000000E+00 -0.17474042416E+04  0.17474042416E+04  0.25500000920E-02 0. -1.
    10030    2    1    2    0    0  0.00000000000E+00  0.00000000000E+00 -0.12417222136E+04  0.22530862695E+04  0.18800328939E+04 0.  0.
        3    1    3    3  502    0 -0.20110576278E+03  0.19291811720E+03 -0.16967608570E+04  0.17194936300E+04  0.10100000352E+00 0. -1.
       -3    1    3    3    0  502  0.20110576278E+03 -0.19291811720E+03  0.45503864335E+03  0.53359263948E+03  0.10100000352E+00 0.  1.
</event>
<event>
 5   0  0.3623359E-04  0.1308086E+04  0.7818609E-02  0.9023177E-01
       -2   -1    0    0    0  501  0.00000000000E+00  0.00000000000E+00  0.55428967516E+03  0.55428967517E+03  0.25500000920E-02 0. -1.
        2   -1    0    0  501    0  0.00000000000E+00  0.00000000000E+00 -0.77174885986E+03  0.77174885986E+03  0.25500000920E-02 0.  1.
    10030    2    1    2    0    0  0.00000000000E+00  0.00000000000E+00 -0.21745918469E+03  0.13260385350E+04  0.13080862737E+04 0.  0.
        5    1    3    3  502    0 -0.30006829825E+03 -0.60237442768E+02 -0.69465929740E+03  0.75910681896E+03  0.46999998093E+01 0.  1.
       -5    1    3    3    0  502  0.30006829825E+03  0.60237442768E+02  0.47720011271E+03  0.56693171607E+03  0.46999998093E+01 0. -1.
</event>
<event>
 5   0  0.1813834E-04  0.1893511E+04  0.7818609E-02  0.8658093E-01
       -1   -1    0    0    0  501  0.00000000000E+00  0.00000000000E+00  0.67864746080E+03  0.67864746082E+03  0.50400001928E-02 0. -1.
        1   -1    0    0  501    0  0.00000000000E+00  0.00000000000E+00 -0.13207822999E+04  0.13207823000E+04  0.50400001928E-02 0.  1.
    10030    2    1    2    0    0  0.00000000000E+00  0.00000000000E+00 -0.64213483915E+03  0.19994297608E+04  0.18935105536E+04 0.  0.
        5    1    3    3  502    0 -0.25074851017E+03 -0.76608803637E+03  0.20325420325E+03  0.83132427846E+03  0.46999998093E+01 0. -1.
       -5    1    3    3    0  502  0.25074851017E+03  0.76608803637E+03 -0.84538904240E+03  0.11681054823E+04  0.46999998093E+01 0.  1.
</event>
<event>
 5   0  0.3459485E-04  0.1891967E+04  0.7818609E-02  0.8658865E-01
       -2   -1    0    0    0  501  0.00000000000E+00  0.00000000000E+00  0.74744343397E+03  0.74744343398E+03  0.25500000920E-02 0.  1.
        2   -1    0    0  501    0  0.00000000000E+00  0.00000000000E+00 -0.11972603267E+04  0.11972603268E+04  0.25500000920E-02 0. -1.
    10030    2    1    2    0    0  0.00000000000E+00  0.00000000000E+00 -0.44981689278E+03  0.19447037607E+04  0.18919665642E+04 0.  0.
        3    1    3    3  502    0 -0.79573582036E+03  0.14884179810E+02 -0.75050040136E+03  0.10939231679E+04  0.10100000352E+00 0. -1.
       -3    1    3    3    0  502  0.79573582036E+03 -0.14884179810E+02  0.30068350858E+03  0.85078059283E+03  0.10100000352E+00 0.  1.
</event>
<event>
 5   0  0.3516539E-04  0.1935953E+04  0.7818609E-02  0.8637164E-01
       -2   -1    0    0    0  501  0.00000000000E+00  0.00000000000E+00  0.13189138497E+04  0.13189138497E+04  0.25500000920E-02 0.  1.
        2   -1    0    0  501    0  0.00000000000E+00  0.00000000000E+00 -0.71041666807E+03  0.71041666807E+03  0.25500000920E-02 0. -1.
    10030    2    1    2    0    0  0.00000000000E+00  0.00000000000E+00  0.60849718164E+03  0.20293305178E+04  0.19359528740E+04 0.  0.
        4    1    3    3  502    0  0.79856066585E+02  0.14108665083E+03 -0.69608377994E+03  0.71471440171E+03  0.12699999809E+01 0. -1.
       -4    1    3    3    0  502 -0.79856066585E+02 -0.14108665083E+03  0.13045809616E+04  0.13146161161E+04  0.12699999809E+01 0.  1.
</event>
<event>
 5   0  0.3623359E-04  0.1757689E+04  0.7818609E-02  0.8729129E-01
       -2   -1    0    0    0  501  0.00000000000E+00  0.00000000000E+00  0.94333118537E+03  0.94333118537E+03  0.25500000920E-02 0. -1.
        2   -1    0    0  501    0  0.00000000000E+00  0.00000000000E+00 -0.81876630124E+03  0.81876630124E+03  0.25500000920E-02 0.  1.
    10030    2    1    2    0    0  0.00000000000E+00  0.00000000000E+00  0.12456488413E+03  0.17620974866E+04  0.17576891483E+04 0.  0.
        5    1    3    3  502    0 -0.31056321750E+03  0.15784434464E+03 -0.74657527318E+03  0.82386957567E+03  0.46999998093E+01 0.  1.
       -5    1    3    3    0  502  0.31056321750E+03 -0.15784434464E+03  0.87114015731E+03  0.93822791094E+03  0.46999998093E+01 0. -1.
</event>
<event>
 5   0  0.1813834E-04  0.1665245E+04  0.7818609E-02  0.8781438E-01
        1   -1    0    0  501    0  0.00000000000E+00  0.00000000000E+00  0.91590344873E+03  0.91590344874E+03  0.50400001928E-02 0. -1.
       -1   -1    0    0    0  501  0.00000000000E+00  0.00000000000E+00 -0.75691405153E+03  0.75691405154E+03  0.50400001928E-02 0.  1.
    10030    2    1    2    0    0  0.00000000000E+00  0.00000000000E+00  0.15898939720E+03  0.16728175003E+04  0.16652449552E+04 0.  0.
        5    1    3    3  502    0 -0.55832537184E+03 -0.61644864865E+03  0.11842584159E+03  0.84010887819E+03  0.46999998093E+01 0. -1.
       -5    1    3    3    0  502  0.55832537184E+03  0.61644864865E+03  0.40563555618E+02  0.83270862209E+03  0.46999998093E+01 0.  1.
</event>
<event>
 5   0  0.3459485E-04  0.1908080E+04  0.7818609E-02  0.8650845E-01
       -2   -1    0    0    0  501  0.00000000000E+00  0.00000000000E+00  0.79912775515E+03  0.79912775516E+03  0.25500000920E-02 0.  1.
        2   -1    0    0  501    0  0.00000000000E+00  0.00000000000E+00 -0.11389816502E+04  0.11389816502E+04  0.25500000920E-02 0. -1.
    10030    2    1    2    0    0  0.00000000000E+00  0.00000000000E+00 -0.33985389507E+03  0.19381094054E+04  0.19080795050E+04 0.  0.
        3    1    3    3  502    0 -0.55457614810E+03  0.72212196351E+03  0.11947292410E+03  0.91830747793E+03  0.10100000352E+00 0.  1.
       -3    1    3    3    0  502  0.55457614810E+03 -0.72212196351E+03 -0.45932681917E+03  0.10198019275E+04  0.10100000352E+00 0. -1.
</event>
<event>
 5   0  0.3720978E-04  0.1883641E+04  0.7818609E-02  0.8663042E-01
        2   -1    0    0  501    0  0.00000000000E+00  0.00000000000E+00  0.20848880317E+04  0.20848880317E+04  0.25500000920E-02 0.  1.
       -2   -1    0    0    0  501  0.00000000000E+00  0.00000000000E+00 -0.42545486908E+03  0.42545486909E+03  0.25500000920E-02 0. -1.
    10030    2    1    2    0    0  0.00000000000E+00  0.00000000000E+00  0.16594331626E+04  0.25103429007E+04  0.18836409048E+04 0.  0.
        1    1    3    3  502    0  0.60346459088E+03 -0.71297241318E+03  0.99034292612E+03  0.13613516393E+04  0.50400001928E-02 0.  1.
       -1    1    3    3    0  502 -0.60346459088E+03  0.71297241318E+03  0.66909023644E+03  0.11489912615E+04  0.50400001928E-02 0. -1.
</event>
<event>
 5   0  0.3516539E-04  0.1879442E+04  0.7818609E-02  0.8665157E-01
       -2   -1    0    0    0  501  0.00000000000E+00  0.00000000000E+00  0.82601294117E+03  0.82601294117E+03  0.25500000920E-02 0.  1.
        2   -1    0    0  501    0  0.00000000000E+00  0.00000000000E+00 -0.10690824068E+04  0.10690824068E+04  0.25500000920E-02 0. -1.
    10030    2    1    2    0    0  0.00000000000E+00  0.00000000000E+00 -0.24306946563E+03  0.18950953480E+04  0.18794423675E+04 0.  0.
        4    1    3    3  502    0 -0.26696583826E+03 -0.49167207030E+03  0.63977808094E+03  0.84989987014E+03  0.12699999809E+01 0.  1.
       -4    1    3    3    0  502  0.26696583826E+03  0.49167207030E+03 -0.88284754657E+03  0.10451954778E+04  0.12699999809E+01 0. -1.
</event>
<event>
 5   0  0.3720978E-04  0.1861163E+04  0.7818609E-02  0.8674433E-01
        2   -1    0    0  501    0  0.00000000000E+00  0.00000000000E+00  0.64489238433E+03  0.64489238434E+03  0.25500000920E-02 0.  1.
       -2   -1    0    0    0  501  0.00000000000E+00  0.00000000000E+00 -0.13428316411E+04  0.13428316411E+04  0.25500000920E-02 0. -1.
    10030    2    1    2    0    0  0.00000000000E+00  0.00000000000E+00 -0.69793925674E+03  0.19877240254E+04  0.18611629684E+04 0.  0.
        1    1    3    3  502    0 -0.29855051764E+03  0.16485181912E+03 -0.12736842500E+04  0.13185522753E+04  0.50400001928E-02 0. -1.
       -1    1    3    3    0  502  0.29855051764E+03 -0.16485181912E+03  0.57574499329E+03  0.66917175013E+03  0.50400001928E-02 0.  1.
</event>
<event>
 5   0  0.3459485E-04  0.1903254E+04  0.7818609E-02  0.8653238E-01
       -2   -1    0    0    0  501  0.00000000000E+00  0.00000000000E+00  0.57003514537E+03  0.57003514538E+03  0.25500000920E-02 0.  1.
        2   -1    0    0  501    0  0.00000000000E+00  0.00000000000E+00 -0.15886641581E+04  0.15886641581E+04  0.25500000920E-02 0. -1.
    10030    2    1    2    0    0  0.00000000000E+00  0.00000000000E+00 -0.10186290127E+04  0.21586993034E+04  0.19032544804E+04 0.  0.
        3    1    3    3  502    0  0.16127029546E+03  0.88382071911E+03 -0.15343987996E+03  0.91142250284E+03  0.10100000352E+00 0.  1.
       -3    1    3    3    0  502 -0.16127029546E+03 -0.88382071911E+03 -0.86518913272E+03  0.12472768006E+04  0.10100000352E+00 0. -1.
</event>
<event>
 5   0  0.3535876E-04  0.1897364E+04  0.7818609E-02  0.8656170E-01
        2   -1    0    0  501    0  0.00000000000E+00  0.00000000000E+00  0.10923369305E+04  0.10923369305E+04  0.25500000920E-02 0.  1.
       -2   -1    0    0    0  501  0.00000000000E+00  0.00000000000E+00 -0.82391921618E+03  0.82391921618E+03  0.25500000920E-02 0. -1.
    10030    2    1    2    0    0  0.00000000000E+00  0.00000000000E+00  0.26841771433E+03  0.19162561467E+04  0.18973638424E+04 0.  0.
        2    1    3    3  502    0 -0.75875825718E+03  0.43275991850E+03  0.50803238229E+03  0.10104910397E+04  0.25500000920E-02 0. -1.
       -2    1    3    3    0  502  0.75875825718E+03 -0.43275991850E+03 -0.23961466796E+03  0.90576510697E+03  0.25500000920E-02 0.  1.
</event>
<event>
 5   0  0.3720978E-04  0.1840679E+04  0.7818609E-02  0.8684961E-01
        2   -1    0    0  501    0  0.00000000000E+00  0.00000000000E+00  0.63912248891E+03  0.63912248891E+03  0.25500000920E-02 0.  1.
       -2   -1    0    0    0  501  0.00000000000E+00  0.00000000000E+00 -0.13252927339E+04  0.13252927339E+04  0.25500000920E-02 0. -1.
    10030    2    1    2    0    0  0.00000000000E+00  0.00000000000E+00 -0.68617024499E+03  0.19644152228E+04  0.18406785603E+04 0.  0.
        1    1    3    3  502    0 -0.73317648346E+03 -0.10777633506E+03 -0.92553972737E+03  0.11856590072E+04  0.50400001928E-02 0.  1.
       -1    1    3    3    0  502  0.73317648346E+03  0.10777633506E+03  0.23936948238E+03  0.77875621565E+03  0.50400001928E-02 0. -1.
</event>
<event>
 5   0  0.3535876E-04  0.1903811E+04  0.7818609E-02  0.8652962E-01
       -2   -1    0    0    0  501  0.00000000000E+00  0.00000000000E+00  0.13451295513E+04  0.13451295513E+04  0.25500000920E-02 0.  1.
        2   -1    0    0  501    0  0.00000000000E+00  0.00000000000E+00 -0.67363324934E+03  0.67363324935E+03  0.25500000920E-02 0. -1.
    10030    2    1    2    0    0  0.00000000000E+00  0.00000000000E+00  0.67149630197E+03  0.20187628007E+04  0.19038109049E+04 0.  0.
        2    1    3    3  502    0 -0.59425824755E+03  0.35263736195E+03 -0.35847926521E+03  0.77846217468E+03  0.25500000920E-02 0. -1.
       -2    1    3    3    0  502  0.59425824755E+03 -0.35263736195E+03  0.10299755672E+04  0.12403006260E+04  0.25500000920E-02 0.  1.
</event>
<event>
 5   0  0.1694830E-04  0.2006846E+04  0.7818609E-02  0.8603427E-01
       -1   -1    0    0    0  501  0.00000000000E+00  0.00000000000E+00  0.62244661370E+03  0.62244661372E+03  0.50400001928E-02 0.  1.
        1   -1    0    0  501    0  0.00000000000E+00  0.00000000000E+00 -0.16175804737E+04  0.16175804737E+04  0.50400001928E-02 0. -1.
    10030    2    1    2    0    0  0.00000000000E+00  0.00000000000E+00 -0.99513385998E+03  0.22400270874E+04  0.20068457721E+04 0.  0.
        1    1    3    3  502    0  0.21992953117E+01  0.59367151651E+03  0.40538195887E+03  0.71887776361E+03  0.50400001928E-02 0.  1.
       -1    1    3    3    0  502 -0.21992953117E+01 -0.59367151651E+03 -0.14005158188E+04  0.15211493238E+04  0.50400001928E-02 0. -1.
</event>
<event>
 5   0  0.1758946E-04  0.1220061E+04  0.7818609E-02  0.9095476E-01
        1   -1    0    0  501    0  0.00000000000E+00  0.00000000000E+00  0.10240948634E+04  0.10240948634E+04  0.50400001928E-02 0.  1.
       -1   -1    0    0    0  501  0.00000000000E+00  0.00000000000E+00 -0.36338177712E+03  0.36338177715E+03  0.50400001928E-02 0. -1.
    10030    2    1    2    0    0  0.00000000000E+00  0.00000000000E+00  0.66071308631E+03  0.13874766406E+04  0.12200613287E+04 0.  0.
        2    1    3    3  502    0  0.33937527589E+03 -0.33597339386E+03 -0.10131305479E+03  0.48817828131E+03  0.25500000920E-02 0. -1.
       -2    1    3    3    0  502 -0.33937527589E+03  0.33597339386E+03  0.76202614110E+03  0.89929835928E+03  0.25500000920E-02 0.  1.
</event>
<event>
 5   0  0.1711979E-04  0.1889381E+04  0.7818609E-02  0.8660160E-01
       -1   -1    0    0    0  501  0.00000000000E+00  0.00000000000E+00  0.81322983849E+03  0.81322983851E+03  0.50400001928E-02 0. -1.
        1   -1    0    0  501    0  0.00000000000E+00  0.00000000000E+00 -0.10974020077E+04  0.10974020077E+04  0.50400001928E-02 0.  1.
    10030    2    1    2    0    0  0.00000000000E+00  0.00000000000E+00 -0.28417216922E+03  0.19106318462E+04  0.18893809118E+04 0.  0.
        4    1    3    3  502    0  0.35338821063E+03 -0.51366875681E+03 -0.85978667385E+03  0.10620609947E+04  0.12699999809E+01 0.  1.
       -4    1    3    3    0  502 -0.35338821063E+03  0.51366875681E+03  0.57561450463E+03  0.84857085148E+03  0.12699999809E+01 0. -1.
</event>
<event>
 5   0  0.1813834E-04  0.1901431E+04  0.7818609E-02  0.8654144E-01
       -1   -1    0    0    0  501  0.00000000000E+00  0.00000000000E+00  0.72761612379E+03  0.72761612381E+03  0.50400001928E-02 0.  1.
        1   -1    0    0  501    0  0.00000000000E+00  0.00000000000E+00 -0.12422210321E+04  0.12422210321E+04  0.50400001928E-02 0. -1.
    10030    2    1    2    0    0  0.00000000000E+00  0.00000000000E+00 -0.51460490828E+03  0.19698371559E+04  0.19014310950E+04 0.  0.
        5    1    3    3  502    0 -0.35606758106E+03  0.52772176874E+03  0.47419026202E+03  0.79382169413E+03  0.46999998093E+01 0. -1.
       -5    1    3    3    0  502  0.35606758106E+03 -0.52772176874E+03 -0.98879517030E+03  0.11760154618E+04  0.46999998093E+01 0.  1.
</event>
<event>
 5   0  0.3459485E-04  0.1885401E+04  0.7818609E-02  0.8662157E-01
       -2   -1    0    0    0  501  0.00000000000E+00  0.00000000000E+00  0.24106662856E+04  0.24106662856E+04  0.25500000920E-02 0. -1.
        2   -1    0    0  501    0  0.00000000000E+00  0.00000000000E+00 -0.36864682386E+03  0.36864682387E+03  0.25500000920E-02 0.  1.
    10030    2    1    2    0    0  0.00000000000E+00  0.00000000000E+00  0.20420194618E+04  0.27793131095E+04  0.18854012513E+04 0.  0.
        3    1    3    3  502    0  0.61588674761E+03 -0.40075460199E+03  0.18915709909E+04  0.20292761174E+04  0.10100000352E+00 0.  1.
       -3    1    3    3    0  502 -0.61588674761E+03  0.40075460199E+03  0.15044847088E+03  0.75003699209E+03  0.10100000352E+00 0. -1.
</event>
<event>
 5   0  0.3459485E-04  0.1916424E+04  0.7818609E-02  0.8646724E-01
        2   -1    0    0  501    0  0.00000000000E+00  0.00000000000E+00  0.87079767266E+03  0.87079767266E+03  0.25500000920E-02 0.  1.
       -2   -1    0    0    0  501  0.00000000000E+00  0.00000000000E+00 -0.10544013326E+04  0.10544013326E+04  0.25500000920E-02 0. -1.
    10030    2    1    2    0    0  0.00000000000E+00  0.00000000000E+00 -0.18360365990E+03  0.19251990052E+04  0.19164239890E+04 0.  0.
        3    1    3    3  502    0  0.27103194449E+02 -0.70954397715E+03 -0.73816302017E+03  0.10242421067E+04  0.10100000352E+00 0. -1.
       -3    1    3    3    0  502 -0.27103194449E+02  0.70954397715E+03  0.55455936027E+03  0.90095689848E+03  0.10100000352E+00 0.  1.
</event>
<event>
 5   0  0.1782613E-04  0.1976285E+04  0.7818609E-02  0.8617789E-01
       -1   -1    0    0    0  501  0.00000000000E+00  0.00000000000E+00  0.81126825448E+03  0.81126825450E+03  0.50400001928E-02 0. -1.
        1   -1    0    0  501    0  0.00000000000E+00  0.00000000000E+00 -0.12035792918E+04  0.12035792918E+04  0.50400001928E-02 0.  1.
    10030    2    1    2    0    0  0.00000000000E+00  0.00000000000E+00 -0.39231103734E+03  0.20148475463E+04  0.19762850718E+04 0.  0.
        3    1    3    3  502    0 -0.67933491891E+03 -0.20769621184E+03 -0.89642934231E+03  0.11437741142E+04  0.10100000352E+00 0.  1.
       -3    1    3    3    0  502  0.67933491891E+03  0.20769621184E+03  0.50411830497E+03  0.87107343208E+03  0.10100000352E+00 0. -1.
</event>
<event>
 5   0  0.1711979E-04  0.1903275E+04  0.7818609E-02  0.8653228E-01
        1   -1    0    0  501    0  0.00000000000E+00  0.00000000000E+00  0.18238777300E+04  0.18238777300E+04  0.50400001928E-02 0.  1.
       -1   -1    0    0    0  501  0.00000000000E+00  0.00000000000E+00 -0.49653238717E+03  0.49653238719E+03  0.50400001928E-02 0. -1.
    10030    2    1    2    0    0  0.00000000000E+00  0.00000000000E+00  0.13273453428E+04  0.23204101172E+04  0.19032754538E+04 0.  0.
        4    1    3    3  502    0  0.25262217113E+03  0.87925492831E+03  0.34410779060E+03  0.97740420235E+03  0.12699999809E+01 0. -1.
       -4    1    3    3    0  502 -0.25262217113E+03 -0.87925492831E+03  0.98323755223E+03  0.13430059148E+04  0.12699999809E+01 0.  1.
</event>
<event>
 5   0  0.1813834E-04  0.1962070E+04  0.7818609E-02  0.8624562E-01
       -1   -1    0    0    0  501  0.00000000000E+00  0.00000000000E+00  0.11376682511E+04  0.11376682511E+04  0.50400001928E-02 0. -1.
        1   -1    0    0  501    0  0.00000000000E+00  0.00000000000E+00 -0.84596729350E+03  0.84596729352E+03  0.50400001928E-02 0.  1.
    10030    2    1    2    0    0  0.00000000000E+00  0.00000000000E+00  0.29170095762E+03  0.19836355446E+04  0.19620704690E+04 0.  0.
        5    1    3    3  502    0 -0.92260243733E+03  0.22466580174E+03  0.39501014706E+03  0.10284576249E+04  0.46999998093E+01 0. -1.
       -5    1    3    3    0  502  0.92260243733E+03 -0.22466580174E+03 -0.10330918944E+03  0.95517791979E+03  0.46999998093E+01 0.  1.
</event>
<event>
 5   0  0.3516539E-04  0.1913298E+04  0.7818609E-02  0.8648265E-01
        2   -1    0    0  501    0  0.00000000000E+00  0.00000000000E+00  0.56693397075E+03  0.56693397076E+03  0.25500000920E-02 0. -1.
       -2   -1    0    0    0  501  0.00000000000E+00  0.00000000000E+00 -0.16142575628E+04  0.16142575628E+04  0.25500000920E-02 0.  1.
    10030    2    1    2    0    0  0.00000000000E+00  0.00000000000E+00 -0.10473235921E+04  0.21811915336E+04  0.19132981471E+04 0.  0.
        4    1    3    3  502    0 -0.37048252873E+03  0.62492325782E+03  0.18589154544E+03  0.74989576730E+03  0.12699999809E+01 0. -1.
       -4    1    3    3    0  502  0.37048252873E+03 -0.62492325782E+03 -0.12332151375E+04  0.14312957663E+04  0.12699999809E+01 0.  1.
</event>
<event>
 5   0  0.3516539E-04  0.1968683E+04  0.7818609E-02  0.8621404E-01
        2   -1    0    0  501    0  0.00000000000E+00  0.00000000000E+00  0.18588877535E+04  0.18588877535E+04  0.25500000920E-02 0.  1.
       -2   -1    0    0    0  501  0.00000000000E+00  0.00000000000E+00 -0.52124075871E+03  0.52124075872E+03  0.25500000920E-02 0. -1.
    10030    2    1    2    0    0  0.00000000000E+00  0.00000000000E+00  0.13376469948E+04  0.23801285123E+04  0.19686828724E+04 0.  0.
        4    1    3    3  502    0  0.84446611573E+01 -0.78239436562E+02 -0.51743063285E+03  0.52338207310E+03  0.12699999809E+01 0. -1.
       -4    1    3    3    0  502 -0.84446611573E+01  0.78239436562E+02  0.18550776277E+04  0.18567464392E+04  0.12699999809E+01 0.  1.
</event>
<event>
 5   0  0.3459485E-04  0.1898416E+04  0.7818609E-02  0.8655645E-01
       -2   -1    0    0    0  501  0.00000000000E+00  0.00000000000E+00  0.86548796888E+03  0.86548796888E+03  0.25500000920E-02 0. -1.
        2   -1    0    0  501    0  0.00000000000E+00  0.00000000000E+00 -0.10410264016E+04  0.10410264016E+04  0.25500000920E-02 0.  1.
    10030    2    1    2    0    0  0.00000000000E+00  0.00000000000E+00 -0.17553843273E+03  0.19065143705E+04  0.18984159985E+04 0.  0.
        3    1    3    3  502    0 -0.28193510518E+03 -0.96187330282E+02 -0.99286652094E+03  0.10365921786E+04  0.10100000352E+00 0.  1.
       -3    1    3    3    0  502  0.28193510518E+03  0.96187330282E+02  0.81732808821E+03  0.86992219193E+03  0.10100000352E+00 0. -1.
</event>
<event>
 5   0  0.1694830E-04  0.1815824E+04  0.7818609E-02  0.8697929E-01
       -1   -1    0    0    0  501  0.00000000000E+00  0.00000000000E+00  0.50214481398E+03  0.50214481400E+03  0.50400001928E-02 0.  1.
        1   -1    0    0  501    0  0.00000000000E+00  0.00000000000E+00 -0.16415673320E+04  0.16415673320E+04  0.50400001928E-02 0. -1.
    10030    2    1    2    0    0  0.00000000000E+00  0.00000000000E+00 -0.11394225180E+04  0.21437121460E+04  0.18158243556E+04 0.  0.
        1    1    3    3  502    0 -0.61267080113E+03 -0.22321253968E+03 -0.13155445275E+04  0.14682802022E+04  0.50400001928E-02 0. -1.
       -1    1    3    3    0  502  0.61267080113E+03  0.22321253968E+03  0.17612200947E+03  0.67543194378E+03  0.50400001928E-02 0.  1.
</event>
<event>
 5   0  0.3516539E-04  0.1898160E+04  0.7818609E-02  0.8655773E-01
       -2   -1    0    0    0  501  0.00000000000E+00  0.00000000000E+00  0.68760047817E+03  0.68760047818E+03  0.25500000920E-02 0.  1.
        2   -1    0    0  501    0  0.00000000000E+00  0.00000000000E+00 -0.13099942059E+04  0.13099942059E+04  0.25500000920E-02 0. -1.
    10030    2    1    2    0    0  0.00000000000E+00  0.00000000000E+00 -0.62239372768E+03  0.19975946840E+04  0.18981597850E+04 0.  0.
        4    1    3    3  502    0 -0.16013824443E+03 -0.32858628642E+03 -0.12329429535E+04  0.12859872256E+04  0.12699999809E+01 0. -1.
       -4    1    3    3    0  502  0.16013824443E+03  0.32858628642E+03  0.61054922577E+03  0.71160745847E+03  0.12699999809E+01 0.  1.
</event>
<event>
 5   0  0.1711979E-04  0.1839081E+04  0.7818609E-02  0.8685788E-01
        1   -1    0    0  501    0  0.00000000000E+00  0.00000000000E+00  0.89019649027E+03  0.89019649028E+03  0.50400001928E-02 0. -1.
       -1   -1    0    0    0  501  0.00000000000E+00  0.00000000000E+00 -0.94985228510E+03  0.94985228512E+03  0.50400001928E-02 0.  1.
    10030    2    1    2    0    0  0.00000000000E+00  0.00000000000E+00 -0.59655794835E+02  0.18400487754E+04  0.18390814778E+04 0.  0.
        4    1    3    3  502    0 -0.68496229507E+03  0.10851736881E+03  0.57431433217E+03  0.90043763251E+03  0.12699999809E+01 0. -1.
       -4    1    3    3    0  502  0.68496229507E+03 -0.10851736881E+03 -0.63397012701E+03  0.93961114289E+03  0.12699999809E+01 0.  1.
</event>
<event>
 5   0  0.3720978E-04  0.1930798E+04  0.7818609E-02  0.8639676E-01
        2   -1    0    0  501    0  0.00000000000E+00  0.00000000000E+00  0.15001757023E+04  0.15001757023E+04  0.25500000920E-02 0.  1.
       -2   -1    0    0    0  501  0.00000000000E+00  0.00000000000E+00 -0.62125766204E+03  0.62125766204E+03  0.25500000920E-02 0. -1.
    10030    2    1    2    0    0  0.00000000000E+00  0.00000000000E+00  0.87891804029E+03  0.21214333644E+04  0.19307984353E+04 0.  0.
        1    1    3    3  502    0 -0.36505484090E+03 -0.24037861170E+03 -0.50631316471E+03  0.66887961145E+03  0.50400001928E-02 0. -1.
       -1    1    3    3    0  502  0.36505484090E+03  0.24037861170E+03  0.13852312050E+04  0.14525537529E+04  0.50400001928E-02 0.  1.
</event>
<event>
 5   0  0.3623359E-04  0.1930277E+04  0.7818609E-02  0.8639930E-01
       -2   -1    0    0    0  501  0.00000000000E+00  0.00000000000E+00  0.69818821902E+03  0.69818821903E+03  0.25500000920E-02 0.  1.
        2   -1    0    0  501    0  0.00000000000E+00  0.00000000000E+00 -0.13341570872E+04  0.13341570872E+04  0.25500000920E-02 0. -1.
    10030    2    1    2    0    0  0.00000000000E+00  0.00000000000E+00 -0.63596886818E+03  0.20323453062E+04  0.19302774522E+04 0.  0.
        5    1    3    3  502    0  0.21781814741E+03  0.26543213282E+03 -0.12676609091E+04  0.13133488619E+04  0.46999998093E+01 0. -1.
       -5    1    3    3    0  502 -0.21781814741E+03 -0.26543213282E+03  0.63169204092E+03  0.71899644438E+03  0.46999998093E+01 0.  1.
</event>
<event>
 5   0  0.1694830E-04  0.1440280E+04  0.7818609E-02  0.8925167E-01
        1   -1    0    0  501    0  0.00000000000E+00  0.00000000000E+00  0.11284720125E+04  0.11284720125E+04  0.50400001928E-02 0.  1.
       -1   -1    0    0    0  501  0.00000000000E+00  0.00000000000E+00 -0.45956112082E+03  0.45956112084E+03  0.50400001928E-02 0. -1.
    10030    2    1    2    0    0  0.00000000000E+00  0.00000000000E+00  0.66891089165E+03  0.15880331333E+04  0.14402803378E+04 0.  0.
        1    1    3    3  502    0  0.64263315763E+03  0.50802042102E+02  0.68839012982E+03  0.94310083958E+03  0.50400001928E-02 0. -1.
       -1    1    3    3    0  502 -0.64263315763E+03 -0.50802042102E+02 -0.19479238161E+02  0.64493229374E+03  0.50400001928E-02 0.  1.
</event>
<event>
 5   0  0.1694830E-04  0.2050752E+04  0.7818609E-02  0.8583253E-01
        1   -1    0    0  501    0  0.00000000000E+00  0.00000000000E+00  0.64927539012E+03  0.64927539014E+03  0.50400001928E-02 0.  1.
       -1   -1    0    0    0  501  0.00000000000E+00  0.00000000000E+00 -0.16193367400E+04  0.16193367400E+04  0.50400001928E-02 0. -1.
    10030    2    1    2    0    0  0.00000000000E+00  0.00000000000E+00 -0.97006134992E+03  0.22686121302E+04  0.20507515634E+04 0.  0.
        1    1    3    3  502    0  0.35045474743E+03  0.36203421143E+03  0.50287339673E+03  0.71187706341E+03  0.50400001928E-02 0.  1.
       -1    1    3    3    0  502 -0.35045474743E+03 -0.36203421143E+03 -0.14729347466E+04  0.15567350668E+04  0.50400001928E-02 0. -1.
</event>
<event>
 5   0  0.1711979E-04  0.1875628E+04  0.7818609E-02  0.8667084E-01
       -1   -1    0    0    0  501  0.00000000000E+00  0.00000000000E+00  0.10514718904E+04  0.10514718904E+04  0.50400001928E-02 0. -1.
        1   -1    0    0  501    0  0.00000000000E+00  0.00000000000E+00 -0.83644200340E+03  0.83644200341E+03  0.50400001928E-02 0.  1.
    10030    2    1    2    0    0  0.00000000000E+00  0.00000000000E+00  0.21502988701E+03  0.18879138938E+04  0.18756281663E+04 0.  0.
        4    1    3    3  502    0 -0.54484028950E+03 -0.26176963758E+03  0.82923274039E+03  0.10261592639E+04  0.12699999809E+01 0. -1.
       -4    1    3    3    0  502  0.54484028950E+03  0.26176963758E+03 -0.61420285338E+03  0.86175462994E+03  0.12699999809E+01 0.  1.
</event>
<event>
 5   0  0.3516539E-04  0.1890993E+04  0.7818609E-02  0.8659353E-01
        2   -1    0    0  501    0  0.00000000000E+00  0.00000000000E+00  0.70357658475E+03  0.70357658476E+03  0.25500000920E-02 0. -1.
       -2   -1    0    0    0  501  0.00000000000E+00  0.00000000000E+00 -0.12705989702E+04  0.12705989702E+04  0.25500000920E-02 0.  1.
    10030    2    1    2    0    0  0.00000000000E+00  0.00000000000E+00 -0.56702238544E+03  0.19741755550E+04  0.18909930556E+04 0.  0.
        4    1    3    3  502    0 -0.72271438370E+03 -0.49744659884E+03 -0.65142337748E+03  0.10927594560E+04  0.12699999809E+01 0.  1.
       -4    1    3    3    0  502  0.72271438370E+03  0.49744659884E+03  0.84400992041E+02  0.88141609893E+03  0.12699999809E+01 0. -1.
</event>
<event>
 5   0  0.1694830E-04  0.1959693E+04  0.7818609E-02  0.8625701E-01
       -1   -1    0    0    0  501  0.00000000000E+00  0.00000000000E+00  0.10528052131E+04  0.10528052131E+04  0.50400001928E-02 0.  1.
        1   -1    0    0  501    0  0.00000000000E+00  0.00000000000E+00 -0.91194420631E+03  0.91194420633E+03  0.50400001928E-02 0. -1.
    10030    2    1    2    0    0  0.00000000000E+00  0.00000000000E+00  0.14086100675E+03  0.19647494194E+04  0.19596934602E+04 0.  0.
        1    1    3    3  502    0 -0.27036532372E+03 -0.20175322144E+03 -0.85188740861E+03  0.91624992639E+03  0.50400001928E-02 0. -1.
       -1    1    3    3    0  502  0.27036532372E+03  0.20175322144E+03  0.99274841536E+03  0.10484994930E+04  0.50400001928E-02 0.  1.
</event>
<event>
 5   0  0.3720978E-04  0.1789492E+04  0.7818609E-02  0.8711907E-01
       -2   -1    0    0    0  501  0.00000000000E+00  0.00000000000E+00  0.82168671485E+03  0.82168671485E+03  0.25500000920E-02 0. -1.
        2   -1    0    0  501    0  0.00000000000E+00  0.00000000000E+00 -0.97430137845E+03  0.97430137845E+03  0.25500000920E-02 0.  1.
    10030    2    1    2    0    0  0.00000000000E+00  0.00000000000E+00 -0.15261466361E+03  0.17959880933E+04  0.17894921055E+04 0.  0.
        1    1    3    3  502    0 -0.31266043468E+03  0.13353423109E+03  0.75433378261E+03  0.82741005184E+03  0.50400001928E-02 0. -1.
       -1    1    3    3    0  502  0.31266043468E+03 -0.13353423109E+03 -0.90694844621E+03  0.96857804146E+03  0.50400001928E-02 0.  1.
</event>
<event>
 5   0  0.1287000E-04  0.1930437E+04  0.7818609E-02  0.8639853E-01
        3   -1    0    0  501    0  0.00000000000E+00  0.00000000000E+00  0.63009094954E+03  0.63009095763E+03  0.10100000352E+00 0. -1.
       -3   -1    0    0    0  501  0.00000000000E+00  0.00000000000E+00 -0.14785906845E+04  0.14785906880E+04  0.10100000352E+00 0.  1.
    10030    2    1    2    0    0  0.00000000000E+00  0.00000000000E+00 -0.84849973499E+03  0.21086816456E+04  0.19304368631E+04 0.  0.
        3    1    3    3  502    0 -0.50087894124E+02  0.27233690035E+03  0.58577243106E+03  0.64792401994E+03  0.10100000352E+00 0. -1.
       -3    1    3    3    0  502  0.50087894124E+02 -0.27233690035E+03 -0.14342721660E+04  0.14607576257E+04  0.10100000352E+00 0.  1.
</event>
<event>
 5   0  0.1813834E-04  0.1916722E+04  0.7818609E-02  0.8646577E-01
       -1   -1    0    0    0  501  0.00000000000E+00  0.00000000000E+00  0.85853352811E+03  0.85853352813E+03  0.50400001928E-02 0.  1.
        1   -1    0    0  501    0  0.00000000000E+00  0.00000000000E+00 -0.10697964033E+04  0.10697964033E+04  0.50400001928E-02 0. -1.
    10030    2    1    2    0    0  0.00000000000E+00  0.00000000000E+00 -0.21126287515E+03  0.19283299314E+04  0.19167222861E+04 0.  0.
        5    1    3    3  502    0  0.24052904888E+03 -0.23682038184E+03  0.79673734065E+03  0.86530375973E+03  0.46999998093E+01 0.  1.
       -5    1    3    3    0  502 -0.24052904888E+03  0.23682038184E+03 -0.10080002158E+04  0.10630261717E+04  0.46999998093E+01 0. -1.
</event>
<event>
 5   0  0.3459485E-04  0.1906431E+04  0.7818609E-02  0.8651662E-01
       -2   -1    0    0    0  501  0.00000000000E+00  0.00000000000E+00  0.14230014952E+04  0.14230014952E+04  0.25500000920E-02 0. -1.
        2   -1    0    0  501    0  0.00000000000E+00  0.00000000000E+00 -0.63852349697E+03  0.63852349697E+03  0.25500000920E-02 0.  1.
    10030    2    1    2    0    0  0.00000000000E+00  0.00000000000E+00  0.78447799820E+03  0.20615249921E+04  0.19064311064E+04 0.  0.
        3    1    3    3  502    0  0.30432670154E+02 -0.93711783815E+03  0.57797972305E+03  0.11014429447E+04  0.10100000352E+00 0. -1.
       -3    1    3    3    0  502 -0.30432670154E+02  0.93711783815E+03  0.20649827516E+03  0.96008204744E+03  0.10100000352E+00 0.  1.
</event>
<event>
 5   0  0.1694830E-04  0.1616814E+04  0.7818609E-02  0.8810284E-01
        1   -1    0    0  501    0  0.00000000000E+00  0.00000000000E+00  0.15753467519E+04  0.15753467519E+04  0.50400001928E-02 0.  1.
       -1   -1    0    0    0  501  0.00000000000E+00  0.00000000000E+00 -0.41484335730E+03  0.41484335733E+03  0.50400001928E-02 0. -1.
    10030    2    1    2    0    0  0.00000000000E+00  0.00000000000E+00  0.11605033946E+04  0.19901901092E+04  0.16168143190E+04 0.  0.
        1    1    3    3  502    0 -0.42061920684E+03 -0.29576524314E+03 -0.18760243629E+03  0.54735022640E+03  0.50400001928E-02 0. -1.
       -1    1    3    3    0  502  0.42061920684E+03  0.29576524314E+03  0.13481058309E+04  0.14428398828E+04  0.50400001928E-02 0.  1.
</event>
<event>
 5   0  0.1813834E-04  0.1893154E+04  0.7818609E-02  0.8658272E-01
       -1   -1    0    0    0  501  0.00000000000E+00  0.00000000000E+00  0.40647267120E+03  0.40647267123E+03  0.50400001928E-02 0.  1.
        1   -1    0    0  501    0  0.00000000000E+00  0.00000000000E+00 -0.22043500595E+04  0.22043500595E+04  0.50400001928E-02 0. -1.
    10030    2    1    2    0    0  0.00000000000E+00  0.00000000000E+00 -0.17978773883E+04  0.26108227308E+04  0.18931540423E+04 0.  0.
        5    1    3    3  502    0  0.68821673353E+03  0.14014362776E+03 -0.23785440700E+02  0.70275909521E+03  0.46999998093E+01 0.  1.
       -5    1    3    3    0  502 -0.68821673353E+03 -0.14014362776E+03 -0.17740919476E+04  0.19080636355E+04  0.46999998093E+01 0. -1.
</event>
<event>
 5   0  0.3623359E-04  0.1916713E+04  0.7818609E-02  0.8646581E-01
        2   -1    0    0  501    0  0.00000000000E+00  0.00000000000E+00  0.87772855530E+03  0.87772855531E+03  0.25500000920E-02 0.  1.
       -2   -1    0    0    0  501  0.00000000000E+00  0.00000000000E+00 -0.10463913755E+04  0.10463913755E+04  0.25500000920E-02 0. -1.
    10030    2    1    2    0    0  0.00000000000E+00  0.00000000000E+00 -0.16866282018E+03  0.19241199308E+04  0.19167134270E+04 0.  0.
        5    1    3    3  502    0 -0.10664719577E+03  0.94588558733E+03  0.27239101385E+02  0.95228001519E+03  0.46999998093E+01 0. -1.
       -5    1    3    3    0  502  0.10664719577E+03 -0.94588558733E+03 -0.19590192156E+03  0.97183991560E+03  0.46999998093E+01 0.  1.
</event>
<event>
 5   0  0.1694830E-04  0.1922960E+04  0.7818609E-02  0.8643511E-01
       -1   -1    0    0    0  501  0.00000000000E+00  0.00000000000E+00  0.15895596773E+04  0.15895596773E+04  0.50400001928E-02 0.  1.
        1   -1    0    0  501    0  0.00000000000E+00  0.00000000000E+00 -0.58157235793E+03  0.58157235795E+03  0.50400001928E-02 0. -1.
    10030    2    1    2    0    0  0.00000000000E+00  0.00000000000E+00  0.10079873194E+04  0.21711320352E+04  0.19229601864E+04 0.  0.
        1    1    3    3  502    0 -0.55708197951E+03 -0.66248986614E+02 -0.37762196641E+03  0.67626001632E+03  0.50400001928E-02 0. -1.
       -1    1    3    3    0  502  0.55708197951E+03  0.66248986614E+02  0.13856092858E+04  0.14948720189E+04  0.50400001928E-02 0.  1.
</event>
<event>
 5   0  0.1813834E-04  0.1905463E+04  0.7818609E-02  0.8652142E-01
        1   -1    0    0  501    0  0.00000000000E+00  0.00000000000E+00  0.13032621823E+04  0.13032621823E+04  0.50400001928E-02 0. -1.
       -1   -1    0    0    0  501  0.00000000000E+00  0.00000000000E+00 -0.69648107644E+03  0.69648107645E+03  0.50400001928E-02 0.  1.
    10030    2    1    2    0    0  0.00000000000E+00  0.00000000000E+00  0.60678110588E+03  0.19997432588E+04  0.19054631433E+04 0.  0.
        5    1    3    3  502    0  0.43920504606E+03 -0.17267564954E+03 -0.56518073969E+03  0.73632147256E+03  0.46999998093E+01 0.  1.
       -5    1    3    3    0  502 -0.43920504606E+03  0.17267564954E+03  0.11719618456E+04  0.12634217862E+04  0.46999998093E+01 0. -1.
</event>
<event>
 5   0  0.1782613E-04  0.2030482E+04  0.7818609E-02  0.8592501E-01
        1   -1    0    0  501    0  0.00000000000E+00  0.00000000000E+00  0.76451182446E+03  0.76451182447E+03  0.50400001928E-02 0. -1.
       -1   -1    0    0    0  501  0.00000000000E+00  0.00000000000E+00 -0.13481986429E+04  0.13481986429E+04  0.50400001928E-02 0.  1.
    10030    2    1    2    0    0  0.00000000000E+00  0.00000000000E+00 -0.58368681845E+03  0.21127104674E+04  0.20304815234E+04 0.  0.
        3    1    3    3  502    0  0.25072802873E+03  0.69614767116E+03 -0.10151407012E+04  0.12561834173E+04  0.10100000352E+00 0.  1.
       -3    1    3    3    0  502 -0.25072802873E+03 -0.69614767116E+03  0.43145388272E+03  0.85652705011E+03  0.10100000352E+00 0. -1.
</event>
<event>
 5   0  0.3516539E-04  0.1803410E+04  0.7818609E-02  0.8704488E-01
       -2   -1    0    0    0  501  0.00000000000E+00  0.00000000000E+00  0.71092557677E+03  0.71092557677E+03  0.25500000920E-02 0.  1.
        2   -1    0    0  501    0  0.00000000000E+00  0.00000000000E+00 -0.11436807976E+04  0.11436807976E+04  0.25500000920E-02 0. -1.
    10030    2    1    2    0    0  0.00000000000E+00  0.00000000000E+00 -0.43275522087E+03  0.18546063744E+04  0.18034100263E+04 0.  0.
        4    1    3    3  502    0  0.15055539919E+03  0.35074328312E+03 -0.10565041189E+04  0.11233389271E+04  0.12699999809E+01 0. -1.
       -4    1    3    3    0  502 -0.15055539919E+03 -0.35074328312E+03  0.62374889803E+03  0.73126744736E+03  0.12699999809E+01 0.  1.
</event>
<event>
 5   0  0.1758946E-04  0.1903550E+04  0.7818609E-02  0.8653091E-01
        1   -1    0    0  501    0  0.00000000000E+00  0.00000000000E+00  0.21140992522E+04  0.21140992523E+04  0.50400001928E-02 0.  1.
       -1   -1    0    0    0  501  0.00000000000E+00  0.00000000000E+00 -0.42849270040E+03  0.42849270043E+03  0.50400001928E-02 0. -1.
    10030    2    1    2    0    0  0.00000000000E+00  0.00000000000E+00  0.16856065518E+04  0.25425919527E+04  0.19035504696E+04 0.  0.
        2    1    3    3  502    0 -0.83592704389E+03 -0.27053445944E+03  0.13315951030E+04  0.15953395986E+04  0.25500000920E-02 0.  1.
       -2    1    3    3    0  502  0.83592704389E+03  0.27053445944E+03  0.35401144888E+03  0.94725235413E+03  0.25500000920E-02 0. -1.
</event>
<event>
 5   0  0.1287000E-04  0.1913628E+04  0.7818609E-02  0.8648103E-01
        3   -1    0    0  501    0  0.00000000000E+00  0.00000000000E+00  0.80059270413E+03  0.80059271050E+03  0.10100000352E+00 0.  1.
       -3   -1    0    0    0  501  0.00000000000E+00  0.00000000000E+00 -0.11435185966E+04  0.11435186010E+04  0.10100000352E+00 0. -1.
    10030    2    1    2    0    0  0.00000000000E+00  0.00000000000E+00 -0.34292589242E+03  0.19441113115E+04  0.19136276085E+04 0.  0.
        1    1    3    3  502    0 -0.35247479274E+03  0.51955498690E+03  0.56206143917E+03  0.84266774315E+03  0.50400001928E-02 0.  1.
       -1    1    3    3    0  502  0.35247479274E+03 -0.51955498690E+03 -0.90498733159E+03  0.11014435684E+04  0.50400001928E-02 0. -1.
</event>
<event>
 5   0  0.3720978E-04  0.1906355E+04  0.7818609E-02  0.8651700E-01
       -2   -1    0    0    0  501  0.00000000000E+00  0.00000000000E+00  0.55849737303E+03  0.55849737304E+03  0.25500000920E-02 0. -1.
        2   -1    0    0  501    0  0.00000000000E+00  0.00000000000E+00 -0.16267703176E+04  0.16267703176E+04  0.25500000920E-02 0.  1.
    10030    2    1    2    0    0  0.00000000000E+00  0.00000000000E+00 -0.10682729446E+04  0.21852676906E+04  0.19063545829E+04 0.  0.
        1    1    3    3  502    0 -0.15535154533E+03 -0.23184498671E+03  0.51061455398E+03  0.58190499505E+03  0.50400001928E-02 0. -1.
       -1    1    3    3    0  502  0.15535154533E+03  0.23184498671E+03 -0.15788874986E+04  0.16033626956E+04  0.50400001928E-02 0.  1.
</event>
<event>
 5   0  0.3516539E-04  0.1455259E+04  0.7818609E-02  0.8914762E-01
       -2   -1    0    0    0  501  0.00000000000E+00  0.00000000000E+00  0.97959354404E+03  0.97959354404E+03  0.25500000920E-02 0.  1.
        2   -1    0    0  501    0  0.00000000000E+00  0.00000000000E+00 -0.54047403291E+03  0.54047403292E+03  0.25500000920E-02 0. -1.
    10030    2    1    2    0    0  0.00000000000E+00  0.00000000000E+00  0.43911951113E+03  0.15200675770E+04  0.14552592530E+04 0.  0.
        4    1    3    3  502    0 -0.31708481387E+03 -0.24985111020E+03 -0.41277149564E+03  0.57736494263E+03  0.12699999809E+01 0. -1.
       -4    1    3    3    0  502  0.31708481387E+03  0.24985111020E+03  0.85189100677E+03  0.94270263433E+03  0.12699999809E+01 0.  1.
</event>
<event>
 5   0  0.3516539E-04  0.1845812E+04  0.7818609E-02  0.8682309E-01
        2   -1    0    0  501    0  0.00000000000E+00  0.00000000000E+00  0.13577268251E+04  0.13577268251E+04  0.25500000920E-02 0. -1.
       -2   -1    0    0    0  501  0.00000000000E+00  0.00000000000E+00 -0.62733955156E+03  0.62733955156E+03  0.25500000920E-02 0.  1.
    10030    2    1    2    0    0  0.00000000000E+00  0.00000000000E+00  0.73038727352E+03  0.19850663766E+04  0.18458122739E+04 0.  0.
        4    1    3    3  502    0  0.21074985510E+03  0.89062796778E+03  0.23739926865E+03  0.94551240292E+03  0.12699999809E+01 0. -1.
       -4    1    3    3    0  502 -0.21074985510E+03 -0.89062796778E+03  0.49298800486E+03  0.10395539737E+04  0.12699999809E+01 0.  1.
</event>
<event>
 5   0  0.3535876E-04  0.1929701E+04  0.7818609E-02  0.8640212E-01
        2   -1    0    0  501    0  0.00000000000E+00  0.00000000000E+00  0.96531284467E+03  0.96531284468E+03  0.25500000920E-02 0. -1.
       -2   -1    0    0    0  501  0.00000000000E+00  0.00000000000E+00 -0.96438829477E+03  0.96438829477E+03  0.25500000920E-02 0.  1.
    10030    2    1    2    0    0  0.00000000000E+00  0.00000000000E+00  0.92454990835E+00  0.19297011394E+04  0.19297009180E+04 0.  0.
        2    1    3    3  502    0 -0.29555319390E+03  0.17597002657E+02 -0.91783792478E+03  0.96441059778E+03  0.25500000920E-02 0.  1.
       -2    1    3    3    0  502  0.29555319390E+03 -0.17597002657E+02  0.91876247469E+03  0.96529054167E+03  0.25500000920E-02 0. -1.
</event>
<event>
 5   0  0.3459485E-04  0.1891498E+04  0.7818609E-02  0.8659100E-01
       -2   -1    0    0    0  501  0.00000000000E+00  0.00000000000E+00  0.97387964757E+03  0.97387964757E+03  0.25500000920E-02 0.  1.
        2   -1    0    0  501    0  0.00000000000E+00  0.00000000000E+00 -0.91843109399E+03  0.91843109399E+03  0.25500000920E-02 0. -1.
    10030    2    1    2    0    0  0.00000000000E+00  0.00000000000E+00  0.55448553581E+02  0.18923107416E+04  0.18914981894E+04 0.  0.
        3    1    3    3  502    0  0.80278177171E+03 -0.21453555597E+03 -0.42408600667E+03  0.93291641052E+03  0.10100000352E+00 0. -1.
       -3    1    3    3    0  502 -0.80278177171E+03  0.21453555597E+03  0.47953456025E+03  0.95939433104E+03  0.10100000352E+00 0.  1.
</event>
<event>
 5   0  0.1782613E-04  0.1908685E+04  0.7818609E-02  0.8650545E-01
        1   -1    0    0  501    0  0.00000000000E+00  0.00000000000E+00  0.11314459759E+04  0.11314459759E+04  0.50400001928E-02 0.  1.
       -1   -1    0    0    0  501  0.00000000000E+00  0.00000000000E+00 -0.80496088292E+03  0.80496088293E+03  0.50400001928E-02 0. -1.
    10030    2    1    2    0    0  0.00000000000E+00  0.00000000000E+00  0.32648509301E+03  0.19364068589E+04  0.19086851514E+04 0.  0.
        3    1    3    3  502    0  0.26861084925E+03 -0.71220193912E+03 -0.42078001654E+03  0.86973514528E+03  0.10100000352E+00 0. -1.
       -3    1    3    3    0  502 -0.26861084925E+03  0.71220193912E+03  0.74726510955E+03  0.10666717136E+04  0.10100000352E+00 0.  1.
</event>
<event>
 5   0  0.1711979E-04  0.1886311E+04  0.7818609E-02  0.8661700E-01
       -1   -1    0    0    0  501  0.00000000000E+00  0.00000000000E+00  0.85731403736E+03  0.85731403737E+03  0.50400001928E-02 0. -1.
        1   -1    0    0  501    0  0.00000000000E+00  0.00000000000E+00 -0.10375925154E+04  0.10375925155E+04  0.50400001928E-02 0.  1.
    10030    2    1    2    0    0  0.00000000000E+00  0.00000000000E+00 -0.18027847809E+03  0.18949065528E+04  0.18863113514E+04 0.  0.
        4    1    3    3  502    0 -0.65552642540E+03  0.16618039963E+03 -0.75056183406E+03  0.10102848605E+04  0.12699999809E+01 0.  1.
       -4    1    3    3    0  502  0.65552642540E+03 -0.16618039963E+03  0.57028335597E+03  0.88462169237E+03  0.12699999809E+01 0. -1.
</event>
<event>
 5   0  0.3459485E-04  0.1738952E+04  0.7818609E-02  0.8739455E-01
        2   -1    0    0  501    0  0.00000000000E+00  0.00000000000E+00  0.19683836367E+04  0.19683836367E+04  0.25500000920E-02 0.  1.
       -2   -1    0    0    0  501  0.00000000000E+00  0.00000000000E+00 -0.38406561519E+03  0.38406561520E+03  0.25500000920E-02 0. -1.
    10030    2    1    2    0    0  0.00000000000E+00  0.00000000000E+00  0.15843180215E+04  0.23524492519E+04  0.17389519515E+04 0.  0.
        3    1    3    3  502    0  0.56461232534E+03 -0.40714006820E+03  0.14969628868E+04  0.16508930939E+04  0.10100000352E+00 0.  1.
       -3    1    3    3    0  502 -0.56461232534E+03  0.40714006820E+03  0.87355134794E+02  0.70155615801E+03  0.10100000352E+00 0. -1.
</event>
<event>
 5   0  0.3535876E-04  0.1920204E+04  0.7818609E-02  0.8644864E-01
        2   -1    0    0  501    0  0.00000000000E+00  0.00000000000E+00  0.85539356502E+03  0.85539356503E+03  0.25500000920E-02 0. -1.
       -2   -1    0    0    0  501  0.00000000000E+00  0.00000000000E+00 -0.10776280416E+04  0.10776280416E+04  0.25500000920E-02 0.  1.
    10030    2    1    2    0    0  0.00000000000E+00  0.00000000000E+00 -0.22223447659E+03  0.19330216066E+04  0.19202042519E+04 0.  0.
        2    1    3    3  502    0  0.39129541059E+03  0.86067455174E+03 -0.27933534076E+03  0.98585040192E+03  0.25500000920E-02 0. -1.
       -2    1    3    3    0  502 -0.39129541059E+03 -0.86067455174E+03  0.57100864169E+02  0.94717120472E+03  0.25500000920E-02 0.  1.
</event>
<event>
 5   0  0.1694830E-04  0.1861997E+04  0.7818609E-02  0.8674007E-01
        1   -1    0    0  501    0  0.00000000000E+00  0.00000000000E+00  0.81025556573E+03  0.81025556575E+03  0.50400001928E-02 0. -1.
       -1   -1    0    0    0  501  0.00000000000E+00  0.00000000000E+00 -0.10697347695E+04  0.10697347695E+04  0.50400001928E-02 0.  1.
    10030    2    1    2    0    0  0.00000000000E+00  0.00000000000E+00 -0.25947920380E+03  0.18799903353E+04  0.18619973694E+04 0.  0.
        1    1    3    3  502    0  0.20876383030E+03  0.52089007748E+03  0.62030480208E+03  0.83647286697E+03  0.50400001928E-02 0. -1.
       -1    1    3    3    0  502 -0.20876383030E+03 -0.52089007748E+03 -0.87978400589E+03  0.10435174683E+04  0.50400001928E-02 0.  1.
</event>
<event>
 5   0  0.3720978E-04  0.1775821E+04  0.7818609E-02  0.8719264E-01
       -2   -1    0    0    0  501  0.00000000000E+00  0.00000000000E+00  0.10109064076E+04  0.10109064076E+04  0.25500000920E-02 0. -1.
        2   -1    0    0  501    0  0.00000000000E+00  0.00000000000E+00 -0.77987964605E+03  0.77987964605E+03  0.25500000920E-02 0.  1.
    10030    2    1    2    0    0  0.00000000000E+00  0.00000000000E+00  0.23102676156E+03  0.17907860537E+04  0.17758213101E+04 0.  0.
        1    1    3    3  502    0 -0.39425523214E+03  0.55284347817E+03 -0.46141985451E+03  0.82096369078E+03  0.50400001928E-02 0.  1.
       -1    1    3    3    0  502  0.39425523214E+03 -0.55284347817E+03  0.69244661606E+03  0.96982236288E+03  0.50400001928E-02 0. -1.
</event>
<event>
 5   0  0.1758946E-04  0.1901093E+04  0.7818609E-02  0.8654312E-01
        1   -1    0    0  501    0  0.00000000000E+00  0.00000000000E+00  0.96348254094E+03  0.96348254095E+03  0.50400001928E-02 0. -1.
       -1   -1    0    0    0  501  0.00000000000E+00  0.00000000000E+00 -0.93778422564E+03  0.93778422565E+03  0.50400001928E-02 0.  1.
    10030    2    1    2    0    0  0.00000000000E+00  0.00000000000E+00  0.25698315295E+02  0.19012667666E+04  0.19010930841E+04 0.  0.
        2    1    3    3  502    0 -0.58191346767E+03  0.46428856049E+00  0.76452625214E+03  0.96079336470E+03  0.25500000920E-02 0. -1.
       -2    1    3    3    0  502  0.58191346767E+03 -0.46428856049E+00 -0.73882793685E+03  0.94047340191E+03  0.25500000920E-02 0.  1.
</event>
<event>
 5   0  0.3623359E-04  0.1830204E+04  0.7818609E-02  0.8690400E-01
       -2   -1    0    0    0  501  0.00000000000E+00  0.00000000000E+00  0.13177042286E+04  0.13177042286E+04  0.25500000920E-02 0. -1.
        2   -1    0    0  501    0  0.00000000000E+00  0.00000000000E+00 -0.63550839166E+03  0.63550839166E+03  0.25500000920E-02 0.  1.
    10030    2    1    2    0    0  0.00000000000E+00  0.00000000000E+00  0.68219583692E+03  0.19532126202E+04  0.18302044640E+04 0.  0.
        5    1    3    3  502    0 -0.80652609597E+03  0.12854860075E+03 -0.99416765221E+02  0.82274836337E+03  0.46999998093E+01 0.  1.
       -5    1    3    3    0  502  0.80652609597E+03 -0.12854860075E+03  0.78161260214E+03  0.11304642569E+04  0.46999998093E+01 0. -1.
</event>
<event>
 5   0  0.1758946E-04  0.1960172E+04  0.7818609E-02  0.8625471E-01
       -1   -1    0    0    0  501  0.00000000000E+00  0.00000000000E+00  0.58503587355E+03  0.58503587357E+03  0.50400001928E-02 0. -1.
        1   -1    0    0  501    0  0.00000000000E+00  0.00000000000E+00 -0.16418973609E+04  0.16418973609E+04  0.50400001928E-02 0.  1.
    10030    2    1    2    0    0  0.00000000000E+00  0.00000000000E+00 -0.10568614873E+04  0.22269332345E+04  0.19601722953E+04 0.  0.
        2    1    3    3  502    0  0.11070759210E+03  0.56132242834E+03 -0.14324831954E+04  0.15425132559E+04  0.25500000920E-02 0.  1.
       -2    1    3    3    0  502 -0.11070759210E+03 -0.56132242834E+03  0.37562170806E+03  0.68441997858E+03  0.25500000920E-02 0. -1.
</event>
<event>
 5   0  0.1782613E-04  0.2293629E+04  0.7818609E-02  0.8480437E-01
        1   -1    0    0  501    0  0.00000000000E+00  0.00000000000E+00  0.10376224676E+04  0.10376224676E+04  0.50400001928E-02 0.  1.
       -1   -1    0    0    0  501  0.00000000000E+00  0.00000000000E+00 -0.12674969943E+04  0.12674969943E+04  0.50400001928E-02 0. -1.
    10030    2    1    2    0    0  0.00000000000E+00  0.00000000000E+00 -0.22987452673E+03  0.23051194619E+04  0.22936288792E+04 0.  0.
        3    1    3    3  502    0  0.12452816360E+03  0.13611448355E+03  0.10226116994E+04  0.10391193936E+04  0.10100000352E+00 0.  1.
       -3    1    3    3    0  502 -0.12452816360E+03 -0.13611448355E+03 -0.12524862261E+04  0.12660000683E+04  0.10100000352E+00 0. -1.
</event>
<event>
 5   0  0.1813834E-04  0.1875057E+04  0.7818609E-02  0.8667372E-01
        1   -1    0    0  501    0  0.00000000000E+00  0.00000000000E+00  0.65108589049E+03  0.65108589051E+03  0.50400001928E-02 0. -1.
       -1   -1    0    0    0  501  0.00000000000E+00  0.00000000000E+00 -0.13499909088E+04  0.13499909088E+04  0.50400001928E-02 0.  1.
    10030    2    1    2    0    0  0.00000000000E+00  0.00000000000E+00 -0.69890501833E+03  0.20010767993E+04  0.18750573677E+04 0.  0.
        5    1    3    3  502    0 -0.49887395208E+03 -0.90241250305E+02  0.49216777373E+03  0.70659034158E+03  0.46999998093E+01 0. -1.
       -5    1    3    3    0  502  0.49887395208E+03  0.90241250305E+02 -0.11910727921E+04  0.12944864578E+04  0.46999998093E+01 0.  1.
</event>
<event>
 5   0  0.3720978E-04  0.1357109E+04  0.7818609E-02  0.8985464E-01
       -2   -1    0    0    0  501  0.00000000000E+00  0.00000000000E+00  0.38163932433E+03  0.38163932434E+03  0.25500000920E-02 0. -1.
        2   -1    0    0  501    0  0.00000000000E+00  0.00000000000E+00 -0.12064694650E+04  0.12064694650E+04  0.25500000920E-02 0.  1.
    10030    2    1    2    0    0  0.00000000000E+00  0.00000000000E+00 -0.82483014063E+03  0.15881087893E+04  0.13571089734E+04 0.  0.
        1    1    3    3  502    0  0.35012573489E+03  0.13915340370E+03  0.24798889433E+03  0.45105453299E+03  0.50400001928E-02 0. -1.
       -1    1    3    3    0  502 -0.35012573489E+03 -0.13915340370E+03 -0.10728190350E+04  0.11370542563E+04  0.50400001928E-02 0.  1.
</event>
<event>
 5   0  0.1782613E-04  0.1911731E+04  0.7818609E-02  0.8649039E-01
        1   -1    0    0  501    0  0.00000000000E+00  0.00000000000E+00  0.18370741358E+04  0.18370741358E+04  0.50400001928E-02 0. -1.
       -1   -1    0    0    0  501  0.00000000000E+00  0.00000000000E+00 -0.49735525295E+03  0.49735525298E+03  0.50400001928E-02 0.  1.
    10030    2    1    2    0    0  0.00000000000E+00  0.00000000000E+00  0.13397188828E+04  0.23344293888E+04  0.19117305998E+04 0.  0.
        3    1    3    3  502    0  0.16674905563E+03 -0.53287236228E+03 -0.27751907234E+03  0.62351828181E+03  0.10100000352E+00 0.  1.
       -3    1    3    3    0  502 -0.16674905563E+03  0.53287236228E+03  0.16172379552E+04  0.17109111069E+04  0.10100000352E+00 0. -1.
</event>
<event>
 5   0  0.3535876E-04  0.1903776E+04  0.7818609E-02  0.8652979E-01
        2   -1    0    0  501    0  0.00000000000E+00  0.00000000000E+00  0.13352458807E+04  0.13352458807E+04  0.25500000920E-02 0. -1.
       -2   -1    0    0    0  501  0.00000000000E+00  0.00000000000E+00 -0.67859500111E+03  0.67859500111E+03  0.25500000920E-02 0.  1.
    10030    2    1    2    0    0  0.00000000000E+00  0.00000000000E+00  0.65665087962E+03  0.20138408818E+04  0.19037764364E+04 0.  0.
        2    1    3    3  502    0  0.74758795101E+03 -0.98207542391E+02  0.94291314466E+03  0.12073183773E+04  0.25500000920E-02 0. -1.
       -2    1    3    3    0  502 -0.74758795101E+03  0.98207542391E+02 -0.28626226504E+03  0.80652250450E+03  0.25500000920E-02 0.  1.
</event>
<event>
 5   0  0.1711979E-04  0.1883579E+04  0.7818609E-02  0.8663073E-01
        1   -1    0    0  501    0  0.00000000000E+00  0.00000000000E+00  0.86556485285E+03  0.86556485286E+03  0.50400001928E-02 0.  1.
       -1   -1    0    0    0  501  0.00000000000E+00  0.00000000000E+00 -0.10247272018E+04  0.10247272018E+04  0.50400001928E-02 0. -1.
    10030    2    1    2    0    0  0.00000000000E+00  0.00000000000E+00 -0.15916234892E+03  0.18902920546E+04  0.18835794113E+04 0.  0.
        4    1    3    3  502    0 -0.47353351809E+03  0.75053177124E+03 -0.39603699939E+03  0.97179156725E+03  0.12699999809E+01 0. -1.
       -4    1    3    3    0  502  0.47353351809E+03 -0.75053177124E+03  0.23687465047E+03  0.91850048739E+03  0.12699999809E+01 0.  1.
</event>
<event>
 5   0  0.1813834E-04  0.1945273E+04  0.7818609E-02  0.8632644E-01
        1   -1    0    0  501    0  0.00000000000E+00  0.00000000000E+00  0.12312041995E+04  0.12312041995E+04  0.50400001928E-02 0. -1.
       -1   -1    0    0    0  501  0.00000000000E+00  0.00000000000E+00 -0.76837114472E+03  0.76837114474E+03  0.50400001928E-02 0.  1.
    10030    2    1    2    0    0  0.00000000000E+00  0.00000000000E+00  0.46283305480E+03  0.19995753443E+04  0.19452730196E+04 0.  0.
        5    1    3    3  502    0  0.18398567024E+03  0.23848156239E+03  0.11820437077E+04  0.12198252332E+04  0.46999998093E+01 0. -1.
       -5    1    3    3    0  502 -0.18398567024E+03 -0.23848156239E+03 -0.71921065295E+03  0.77975011110E+03  0.46999998093E+01 0.  1.
</event>
<event>
 5   0  0.3623359E-04  0.1932148E+04  0.7818609E-02  0.8639017E-01
       -2   -1    0    0    0  501  0.00000000000E+00  0.00000000000E+00  0.69338764661E+03  0.69338764661E+03  0.25500000920E-02 0.  1.
        2   -1    0    0  501    0  0.00000000000E+00  0.00000000000E+00 -0.13459994979E+04  0.13459994979E+04  0.25500000920E-02 0. -1.
    10030    2    1    2    0    0  0.00000000000E+00  0.00000000000E+00 -0.65261185130E+03  0.20393871445E+04  0.19321484666E+04 0.  0.
        5    1    3    3  502    0 -0.20184778487E+03  0.51219562527E+03  0.51159966982E+03  0.75156050918E+03  0.46999998093E+01 0.  1.
       -5    1    3    3    0  502  0.20184778487E+03 -0.51219562527E+03 -0.11642115211E+04  0.12878266353E+04  0.46999998093E+01 0. -1.
</event>
<event>
 5   0  0.1813834E-04  0.1922202E+04  0.7818609E-02  0.8643883E-01
        1   -1    0    0  501    0  0.00000000000E+00  0.00000000000E+00  0.12253969279E+04  0.12253969279E+04  0.50400001928E-02 0. -1.
       -1   -1    0    0    0  501  0.00000000000E+00  0.00000000000E+00 -0.75380918689E+03  0.75380918691E+03  0.50400001928E-02 0.  1.
    10030    2    1    2    0    0  0.00000000000E+00  0.00000000000E+00  0.47158774103E+03  0.19792061148E+04  0.19222023430E+04 0.  0.
        5    1    3    3  502    0 -0.54933458567E+03 -0.58558022553E+03 -0.30809493679E+03  0.86001003925E+03  0.46999998093E+01 0.  1.
       -5    1    3    3    0  502  0.54933458567E+03  0.58558022553E+03  0.77968267782E+03  0.11191960756E+04  0.46999998093E+01 0. -1.
</event>
<event>
 5   0  0.1758946E-04  0.1902048E+04  0.7818609E-02  0.8653838E-01
       -1   -1    0    0    0  501  0.00000000000E+00  0.00000000000E+00  0.99902156465E+03  0.99902156466E+03  0.50400001928E-02 0.  1.
        1   -1    0    0  501    0  0.00000000000E+00  0.00000000000E+00 -0.90533210489E+03  0.90533210490E+03  0.50400001928E-02 0. -1.
    10030    2    1    2    0    0  0.00000000000E+00  0.00000000000E+00  0.93689459759E+02  0.19043536696E+04  0.19020476292E+04 0.  0.
        2    1    3    3  502    0 -0.23533572654E+03 -0.77244037722E+03 -0.45615789789E+03  0.92743035769E+03  0.25500000920E-02 0. -1.
       -2    1    3    3    0  502  0.23533572654E+03  0.77244037722E+03  0.54984735765E+03  0.97692331187E+03  0.25500000920E-02 0.  1.
</event>
<event>
 5   0  0.3720978E-04  0.1924799E+04  0.7818609E-02  0.8642610E-01
        2   -1    0    0  501    0  0.00000000000E+00  0.00000000000E+00  0.22186002661E+04  0.22186002661E+04  0.25500000920E-02 0.  1.
       -2   -1    0    0    0  501  0.00000000000E+00  0.00000000000E+00 -0.41747614745E+03  0.41747614746E+03  0.25500000920E-02 0. -1.
    10030    2    1    2    0    0  0.00000000000E+00  0.00000000000E+00  0.18011241187E+04  0.26360764136E+04  0.19247988901E+04 0.  0.
        1    1    3    3  502    0 -0.23835421892E+03  0.93183195435E+03  0.85536399110E+03  0.12871561996E+04  0.50400001928E-02 0.  1.
       -1    1    3    3    0  502  0.23835421892E+03 -0.93183195435E+03  0.94576012758E+03  0.13489202140E+04  0.50400001928E-02 0. -1.
</event>
<event>
 5   0  0.1711979E-04  0.1886494E+04  0.7818609E-02  0.8661608E-01
       -1   -1    0    0    0  501  0.00000000000E+00  0.00000000000E+00  0.10175536522E+04  0.10175536522E+04  0.50400001928E-02 0. -1.
        1   -1    0    0  501    0  0.00000000000E+00  0.00000000000E+00 -0.87436664039E+03  0.87436664040E+03  0.50400001928E-02 0.  1.
    10030    2    1    2    0    0  0.00000000000E+00  0.00000000000E+00  0.14318701183E+03  0.18919202926E+04  0.18864940692E+04 0.  0.
        4    1    3    3  502    0 -0.46606838316E+03  0.33914432261E+03  0.82038342767E+03  0.10026311339E+04  0.12699999809E+01 0. -1.
       -4    1    3    3    0  502  0.46606838316E+03 -0.33914432261E+03 -0.67719641584E+03  0.88928915875E+03  0.12699999809E+01 0.  1.
</event>
<event>
 5   0  0.3720978E-04  0.1908699E+04  0.7818609E-02  0.8650539E-01
        2   -1    0    0  501    0  0.00000000000E+00  0.00000000000E+00  0.47832744554E+03  0.47832744554E+03  0.25500000920E-02 0.  1.
       -2   -1    0    0    0  501  0.00000000000E+00  0.00000000000E+00 -0.19040988676E+04  0.19040988676E+04  0.25500000920E-02 0. -1.
    10030    2    1    2    0    0  0.00000000000E+00  0.00000000000E+00 -0.14257714221E+04  0.23824263132E+04  0.19086987687E+04 0.  0.
        1    1    3    3  502    0  0.56182881379E+03 -0.20786978250E+03  0.21441513334E+03  0.63626669873E+03  0.50400001928E-02 0.  1.
       -1    1    3    3    0  502 -0.56182881379E+03  0.20786978250E+03 -0.16401865554E+04  0.17461596144E+04  0.50400001928E-02 0. -1.
</event>
<event>
 5   0  0.3720978E-04  0.2109112E+04  0.7818609E-02  0.8557240E-01
        2   -1    0    0  501    0  0.00000000000E+00  0.00000000000E+00  0.16792427395E+04  0.16792427395E+04  0.25500000920E-02 0.  1.
       -2   -1    0    0    0  501  0.00000000000E+00  0.00000000000E+00 -0.66225578545E+03  0.66225578546E+03  0.25500000920E-02 0. -1.
    10030    2    1    2    0    0  0.00000000000E+00  0.00000000000E+00  0.10169869540E+04  0.23414985249E+04  0.21091118694E+04 0.  0.
        1    1    3    3  502    0  0.23241198502E+03 -0.97229697288E+03  0.13577720044E+03  0.10088667813E+04  0.50400001928E-02 0. -1.
       -1    1    3    3    0  502 -0.23241198502E+03  0.97229697288E+03  0.88120975358E+03  0.13326317436E+04  0.50400001928E-02 0.  1.
</event>
<event>
 5   0  0.1711979E-04  0.1913841E+04  0.7818609E-02  0.8647997E-01
        1   -1    0    0  501    0  0.00000000000E+00  0.00000000000E+00  0.10954346316E+04  0.10954346316E+04  0.50400001928E-02 0.  1.
       -1   -1    0    0    0  501  0.00000000000E+00  0.00000000000E+00 -0.83592120287E+03  0.83592120289E+03  0.50400001928E-02 0. -1.
    10030    2    1    2    0    0  0.00000000000E+00  0.00000000000E+00  0.25951342874E+03  0.19313558345E+04  0.19138412003E+04 0.  0.
        4    1    3    3  502    0 -0.69637310642E+03 -0.62191461860E+03  0.34139513158E+03  0.99411545855E+03  0.12699999809E+01 0. -1.
       -4    1    3    3    0  502  0.69637310642E+03  0.62191461860E+03 -0.81881702833E+02  0.93724037596E+03  0.12699999809E+01 0.  1.
</event>
<event>
 5   0  0.1782613E-04  0.1843256E+04  0.7818609E-02  0.8683629E-01
        1   -1    0    0  501    0  0.00000000000E+00  0.00000000000E+00  0.95620928414E+03  0.95620928415E+03  0.50400001928E-02 0.  1.
       -1   -1    0    0    0  501  0.00000000000E+00  0.00000000000E+00 -0.88829756064E+03  0.88829756066E+03  0.50400001928E-02 0. -1.
    10030    2    1    2    0    0  0.00000000000E+00  0.00000000000E+00  0.67911723496E+02  0.18445068448E+04  0.18432562216E+04 0.  0.
        3    1    3    3  502    0 -0.30103048665E+02  0.84524318938E+03 -0.33242930953E+03  0.90876371999E+03  0.10100000352E+00 0. -1.
       -3    1    3    3    0  502  0.30103048665E+02 -0.84524318938E+03  0.40034103303E+03  0.93574312482E+03  0.10100000352E+00 0.  1.
</event>
<event>
 5   0  0.3516539E-04  0.1845691E+04  0.7818609E-02  0.8682372E-01
        2   -1    0    0  501    0  0.00000000000E+00  0.00000000000E+00  0.72466062127E+03  0.72466062128E+03  0.25500000920E-02 0. -1.
       -2   -1    0    0    0  501  0.00000000000E+00  0.00000000000E+00 -0.11752310064E+04  0.11752310064E+04  0.25500000920E-02 0.  1.
    10030    2    1    2    0    0  0.00000000000E+00  0.00000000000E+00 -0.45057038509E+03  0.18998916276E+04  0.18456907988E+04 0.  0.
        4    1    3    3  502    0  0.74722443596E+03 -0.27724177609E+03  0.25360206917E+03  0.83637490547E+03  0.12699999809E+01 0. -1.
       -4    1    3    3    0  502 -0.74722443596E+03  0.27724177609E+03 -0.70417245426E+03  0.10635167222E+04  0.12699999809E+01 0.  1.
</event>
<event>
 5   0  0.1711979E-04  0.1913262E+04  0.7818609E-02  0.8648283E-01
       -1   -1    0    0    0  501  0.00000000000E+00  0.00000000000E+00  0.12912797168E+04  0.12912797168E+04  0.50400001928E-02 0. -1.
        1   -1    0    0  501    0  0.00000000000E+00  0.00000000000E+00 -0.70871010792E+03  0.70871010794E+03  0.50400001928E-02 0.  1.
    10030    2    1    2    0    0  0.00000000000E+00  0.00000000000E+00  0.58256960887E+03  0.19999898247E+04  0.19132621226E+04 0.  0.
        4    1    3    3  502    0  0.44939466796E+03 -0.34808758526E+00  0.11740691463E+04  0.12571378850E+04  0.12699999809E+01 0. -1.
       -4    1    3    3    0  502 -0.44939466796E+03  0.34808758526E+00 -0.59149953739E+03  0.74285193975E+03  0.12699999809E+01 0.  1.
</event>
<event>
 5   0  0.1694830E-04  0.1890978E+04  0.7818609E-02  0.8659360E-01
       -1   -1    0    0    0  501  0.00000000000E+00  0.00000000000E+00  0.12748845936E+04  0.12748845936E+04  0.50400001928E-02 0. -1.
        1   -1    0    0  501    0  0.00000000000E+00  0.00000000000E+00 -0.70120061450E+03  0.70120061452E+03  0.50400001928E-02 0.  1.
    10030    2    1    2    0    0  0.00000000000E+00  0.00000000000E+00  0.57368397912E+03  0.19760852082E+04  0.18909784351E+04 0.  0.
        1    1    3    3  502    0  0.19888684881E+03 -0.78980645806E+03 -0.21497851671E+03  0.84235739594E+03  0.50400001928E-02 0.  1.
       -1    1    3    3    0  502 -0.19888684881E+03  0.78980645806E+03  0.78866249584E+03  0.11337278122E+04  0.50400001928E-02 0. -1.
</event>
<event>
 5   0  0.1813834E-04  0.1899483E+04  0.7818609E-02  0.8655114E-01
       -1   -1    0    0    0  501  0.00000000000E+00  0.00000000000E+00  0.28223879003E+04  0.28223879003E+04  0.50400001928E-02 0. -1.
        1   -1    0    0  501    0  0.00000000000E+00  0.00000000000E+00 -0.31959064509E+03  0.31959064513E+03  0.50400001928E-02 0.  1.
    10030    2    1    2    0    0  0.00000000000E+00  0.00000000000E+00  0.25027972552E+04  0.31419785454E+04  0.18994828452E+04 0.  0.
        5    1    3    3  502    0  0.70349782193E+03  0.41187892047E+03  0.20574052450E+04  0.22130277591E+04  0.46999998093E+01 0. -1.
       -5    1    3    3    0  502 -0.70349782193E+03 -0.41187892047E+03  0.44539201018E+03  0.92895078627E+03  0.46999998093E+01 0.  1.
</event>
<event>
 5   0  0.3516539E-04  0.1821344E+04  0.7818609E-02  0.8695031E-01
       -2   -1    0    0    0  501  0.00000000000E+00  0.00000000000E+00  0.79000709029E+03  0.79000709029E+03  0.25500000920E-02 0. -1.
        2   -1    0    0  501    0  0.00000000000E+00  0.00000000000E+00 -0.10497669003E+04  0.10497669003E+04  0.25500000920E-02 0.  1.
    10030    2    1    2    0    0  0.00000000000E+00  0.00000000000E+00 -0.25975980998E+03  0.18397739906E+04  0.18213437834E+04 0.  0.
        4    1    3    3  502    0 -0.88122947529E+02 -0.53424712610E+03  0.60974247947E+03  0.81545885844E+03  0.12699999809E+01 0. -1.
       -4    1    3    3    0  502  0.88122947529E+02  0.53424712610E+03 -0.86950228946E+03  0.10243151321E+04  0.12699999809E+01 0.  1.
</event>
<event>
 5   0  0.3535876E-04  0.1915881E+04  0.7818609E-02  0.8646991E-01
        2   -1    0    0  501    0  0.00000000000E+00  0.00000000000E+00  0.19838614090E+04  0.19838614090E+04  0.25500000920E-02 0. -1.
       -2   -1    0    0    0  501  0.00000000000E+00  0.00000000000E+00 -0.46255765495E+03  0.46255765496E+03  0.25500000920E-02 0.  1.
    10030    2    1    2    0    0  0.00000000000E+00  0.00000000000E+00  0.15213037541E+04  0.24464190640E+04  0.19158812919E+04 0.  0.
        2    1    3    3  502    0  0.19309813716E+03  0.40819333270E+03  0.18394315605E+04  0.18940478223E+04  0.25500000920E-02 0. -1.
       -2    1    3    3    0  502 -0.19309813716E+03 -0.40819333270E+03 -0.31812780641E+03  0.55237124169E+03  0.25500000920E-02 0.  1.
</event>
<event>
 5   0  0.1813834E-04  0.1893171E+04  0.7818609E-02  0.8658263E-01
       -1   -1    0    0    0  501  0.00000000000E+00  0.00000000000E+00  0.97627162580E+03  0.97627162581E+03  0.50400001928E-02 0. -1.
        1   -1    0    0  501    0  0.00000000000E+00  0.00000000000E+00 -0.91780237307E+03  0.91780237309E+03  0.50400001928E-02 0.  1.
    10030    2    1    2    0    0  0.00000000000E+00  0.00000000000E+00  0.58469252724E+02  0.18940739989E+04  0.18931713234E+04 0.  0.
        5    1    3    3  502    0  0.27555144526E+03 -0.51624513677E+03 -0.71513940363E+03  0.92405849211E+03  0.46999998093E+01 0.  1.
       -5    1    3    3    0  502 -0.27555144526E+03  0.51624513677E+03  0.77360865635E+03  0.97001550679E+03  0.46999998093E+01 0. -1.
</event>
<event>
 5   0  0.1694830E-04  0.1902521E+04  0.7818609E-02  0.8653603E-01
       -1   -1    0    0    0  501  0.00000000000E+00  0.00000000000E+00  0.54075179774E+03  0.54075179777E+03  0.50400001928E-02 0. -1.
        1   -1    0    0  501    0  0.00000000000E+00  0.00000000000E+00 -0.16734042096E+04  0.16734042096E+04  0.50400001928E-02 0.  1.
    10030    2    1    2    0    0  0.00000000000E+00  0.00000000000E+00 -0.11326524119E+04  0.22141560074E+04  0.19025207854E+04 0.  0.
        1    1    3    3  502    0  0.67578132676E+03  0.31703687379E+03  0.11992539741E+03  0.75602571511E+03  0.50400001928E-02 0. -1.
       -1    1    3    3    0  502 -0.67578132676E+03 -0.31703687379E+03 -0.12525778093E+04  0.14581302923E+04  0.50400001928E-02 0.  1.
</event>
<event>
 5   0  0.3459485E-04  0.1929083E+04  0.7818609E-02  0.8640514E-01
        2   -1    0    0  501    0  0.00000000000E+00  0.00000000000E+00  0.70593772909E+03  0.70593772909E+03  0.25500000920E-02 0. -1.
       -2   -1    0    0    0  501  0.00000000000E+00  0.00000000000E+00 -0.13178791745E+04  0.13178791745E+04  0.25500000920E-02 0.  1.
    10030    2    1    2    0    0  0.00000000000E+00  0.00000000000E+00 -0.61194144537E+03  0.20238169036E+04  0.19290833384E+04 0.  0.
        3    1    3    3  502    0  0.91180938203E+03  0.10131343942E+03  0.64448880609E+01  0.91744335463E+03  0.10100000352E+00 0.  1.
       -3    1    3    3    0  502 -0.91180938203E+03 -0.10131343942E+03 -0.61838633343E+03  0.11063735489E+04  0.10100000352E+00 0. -1.
</event>
<event>
 5   0  0.3516539E-04  0.1898209E+04  0.7818609E-02  0.8655748E-01
        2   -1    0    0  501    0  0.00000000000E+00  0.00000000000E+00  0.20916925102E+04  0.20916925102E+04  0.25500000920E-02 0.  1.
       -2   -1    0    0    0  501  0.00000000000E+00  0.00000000000E+00 -0.43065574177E+03  0.43065574178E+03  0.25500000920E-02 0. -1.
    10030    2    1    2    0    0  0.00000000000E+00  0.00000000000E+00  0.16610367684E+04  0.25223482519E+04  0.18982090396E+04 0.  0.
        4    1    3    3  502    0  0.35343536514E+03  0.73969299875E+02  0.19968495999E+04  0.20292358050E+04  0.12699999809E+01 0.  1.
       -4    1    3    3    0  502 -0.35343536514E+03 -0.73969299875E+02 -0.33581283150E+03  0.49311244697E+03  0.12699999809E+01 0. -1.
</event>
<event>
 5   0  0.3516539E-04  0.1925722E+04  0.7818609E-02  0.8642158E-01
       -2   -1    0    0    0  501  0.00000000000E+00  0.00000000000E+00  0.41952771862E+03  0.41952771863E+03  0.25500000920E-02 0. -1.
        2   -1    0    0  501    0  0.00000000000E+00  0.00000000000E+00 -0.22098697758E+04  0.22098697758E+04  0.25500000920E-02 0.  1.
    10030    2    1    2    0    0  0.00000000000E+00  0.00000000000E+00 -0.17903420572E+04  0.26293974944E+04  0.19257223325E+04 0.  0.
        4    1    3    3  502    0  0.83714432157E+03 -0.34813200094E+03 -0.13378108898E+04  0.16160897546E+04  0.12699999809E+01 0.  1.
       -4    1    3    3    0  502 -0.83714432157E+03  0.34813200094E+03 -0.45253116739E+03  0.10133077398E+04  0.12699999809E+01 0. -1.
</event>
<event>
 5   0  0.1782613E-04  0.1638736E+04  0.7818609E-02  0.8797098E-01
       -1   -1    0    0    0  501  0.00000000000E+00  0.00000000000E+00  0.72784268673E+03  0.72784268675E+03  0.50400001928E-02 0. -1.
        1   -1    0    0  501    0  0.00000000000E+00  0.00000000000E+00 -0.92240241017E+03  0.92240241018E+03  0.50400001928E-02 0.  1.
    10030    2    1    2    0    0  0.00000000000E+00  0.00000000000E+00 -0.19455972343E+03  0.16502450969E+04  0.16387359134E+04 0.  0.
        3    1    3    3  502    0 -0.72428159305E+03  0.17650911914E+03 -0.43970409689E+03  0.86549349980E+03  0.10100000352E+00 0. -1.
       -3    1    3    3    0  502  0.72428159305E+03 -0.17650911914E+03  0.24514437345E+03  0.78475159713E+03  0.10100000352E+00 0.  1.
</event>
<event>
 5   0  0.1782613E-04  0.1957251E+04  0.7818609E-02  0.8626872E-01
        1   -1    0    0  501    0  0.00000000000E+00  0.00000000000E+00  0.12280187152E+04  0.12280187153E+04  0.50400001928E-02 0.  1.
       -1   -1    0    0    0  501  0.00000000000E+00  0.00000000000E+00 -0.77988068500E+03  0.77988068502E+03  0.50400001928E-02 0. -1.
    10030    2    1    2    0    0  0.00000000000E+00  0.00000000000E+00  0.44813803025E+03  0.20078994003E+04  0.19572512122E+04 0.  0.
        3    1    3    3  502    0 -0.43542444821E+03 -0.47071660379E+03  0.98248268994E+03  0.11732181457E+04  0.10100000352E+00 0.  1.
       -3    1    3    3    0  502  0.43542444821E+03  0.47071660379E+03 -0.53434465969E+03  0.83468125457E+03  0.10100000352E+00 0. -1.
</event>
<event>
 5   0  0.1694830E-04  0.1860756E+04  0.7818609E-02  0.8674641E-01
        1   -1    0    0  501    0  0.00000000000E+00  0.00000000000E+00  0.11195938264E+04  0.11195938264E+04  0.50400001928E-02 0.  1.
       -1   -1    0    0    0  501  0.00000000000E+00  0.00000000000E+00 -0.77314041245E+03  0.77314041247E+03  0.50400001928E-02 0. -1.
    10030    2    1    2    0    0  0.00000000000E+00  0.00000000000E+00  0.34645341392E+03  0.18927342389E+04  0.18607560106E+04 0.  0.
        1    1    3    3  502    0  0.73858226858E+03 -0.11997903401E+03  0.73563422993E+03  0.10493123731E+04  0.50400001928E-02 0.  1.
       -1    1    3    3    0  502 -0.73858226858E+03  0.11997903401E+03 -0.38918081601E+03  0.84342186576E+03  0.50400001928E-02 0. -1.
</event>
<event>
 5   0  0.1758946E-04  0.1926041E+04  0.7818609E-02  0.8642002E-01
       -1   -1    0    0    0  501  0.00000000000E+00  0.00000000000E+00  0.10168918361E+04  0.10168918361E+04  0.50400001928E-02 0. -1.
        1   -1    0    0  501    0  0.00000000000E+00  0.00000000000E+00 -0.91200277274E+03  0.91200277276E+03  0.50400001928E-02 0.  1.
    10030    2    1    2    0    0  0.00000000000E+00  0.00000000000E+00  0.10488906333E+03  0.19288946088E+04  0.19260406788E+04 0.  0.
        2    1    3    3  502    0 -0.11232379774E+02 -0.12742370761E+03  0.10083457334E+04  0.10164271177E+04  0.25500000920E-02 0. -1.
       -2    1    3    3    0  502  0.11232379774E+02  0.12742370761E+03 -0.90345667007E+03  0.91246749110E+03  0.25500000920E-02 0.  1.
</event>
<event>
 5   0  0.3459485E-04  0.1896745E+04  0.7818609E-02  0.8656478E-01
        2   -1    0    0  501    0  0.00000000000E+00  0.00000000000E+00  0.11078712585E+04  0.11078712585E+04  0.25500000920E-02 0. -1.
       -2   -1    0    0    0  501  0.00000000000E+00  0.00000000000E+00 -0.81183629421E+03  0.81183629421E+03  0.25500000920E-02 0.  1.
    10030    2    1    2    0    0  0.00000000000E+00  0.00000000000E+00  0.29603496427E+03  0.19197075527E+04  0.18967446818E+04 0.  0.
        3    1    3    3  502    0  0.73338645323E+03  0.20427126899E+03 -0.42436218671E+03  0.87158804307E+03  0.10100000352E+00 0.  1.
       -3    1    3    3    0  502 -0.73338645323E+03 -0.20427126899E+03  0.72039715098E+03  0.10481195096E+04  0.10100000352E+00 0. -1.
</event>
<event>
 5   0  0.3459485E-04  0.1862341E+04  0.7818609E-02  0.8673832E-01
       -2   -1    0    0    0  501  0.00000000000E+00  0.00000000000E+00  0.95142199370E+03  0.95142199370E+03  0.25500000920E-02 0. -1.
        2   -1    0    0  501    0  0.00000000000E+00  0.00000000000E+00 -0.91134999739E+03  0.91134999739E+03  0.25500000920E-02 0.  1.
    10030    2    1    2    0    0  0.00000000000E+00  0.00000000000E+00  0.40071996311E+02  0.18627719911E+04  0.18623409263E+04 0.  0.
        3    1    3    3  502    0  0.41522531090E+03 -0.82614804317E+03 -0.90197374702E+02  0.92901465255E+03  0.10100000352E+00 0.  1.
       -3    1    3    3    0  502 -0.41522531090E+03  0.82614804317E+03  0.13026937101E+03  0.93375733854E+03  0.10100000352E+00 0. -1.
</event>
<event>
 5   0  0.1782613E-04  0.1875143E+04  0.7818609E-02  0.8667329E-01
       -1   -1    0    0    0  501  0.00000000000E+00  0.00000000000E+00  0.72820441820E+03  0.72820441822E+03  0.50400001928E-02 0.  1.
        1   -1    0    0  501    0  0.00000000000E+00  0.00000000000E+00 -0.12071334978E+04  0.12071334978E+04  0.50400001928E-02 0. -1.
    10030    2    1    2    0    0  0.00000000000E+00  0.00000000000E+00 -0.47892907959E+03  0.19353379160E+04  0.18751426042E+04 0.  0.
        3    1    3    3  502    0 -0.27770480645E+03  0.21729473729E+03  0.65715982154E+03  0.74578549438E+03  0.10100000352E+00 0.  1.
       -3    1    3    3    0  502  0.27770480645E+03 -0.21729473729E+03 -0.11360889011E+04  0.11895524217E+04  0.10100000352E+00 0. -1.
</event>
<event>
 5   0  0.3535876E-04  0.1308007E+04  0.7818609E-02  0.9023240E-01
       -2   -1    0    0    0  501  0.00000000000E+00  0.00000000000E+00  0.56193577906E+03  0.56193577907E+03  0.25500000920E-02 0. -1.
        2   -1    0    0  501    0  0.00000000000E+00  0.00000000000E+00 -0.76115524643E+03  0.76115524644E+03  0.25500000920E-02 0.  1.
    10030    2    1    2    0    0  0.00000000000E+00  0.00000000000E+00 -0.19921946737E+03  0.13230910255E+04  0.13080066764E+04 0.  0.
        2    1    3    3  502    0 -0.14101567929E+03  0.22239322996E+03  0.50593933489E+03  0.57036723357E+03  0.25500000920E-02 0. -1.
       -2    1    3    3    0  502  0.14101567929E+03 -0.22239322996E+03 -0.70515880226E+03  0.75272379194E+03  0.25500000920E-02 0.  1.
</event>
<event>
 5   0  0.3720978E-04  0.1910803E+04  0.7818609E-02  0.8649498E-01
        2   -1    0    0  501    0  0.00000000000E+00  0.00000000000E+00  0.18283236342E+04  0.18283236342E+04  0.25500000920E-02 0. -1.
       -2   -1    0    0    0  501  0.00000000000E+00  0.00000000000E+00 -0.49925074332E+03  0.49925074332E+03  0.25500000920E-02 0.  1.
    10030    2    1    2    0    0  0.00000000000E+00  0.00000000000E+00  0.13290728909E+04  0.23275743775E+04  0.19108029029E+04 0.  0.
        1    1    3    3  502    0  0.28010797655E+03  0.42472616575E+03 -0.32050916698E+03  0.60131432757E+03  0.50400001928E-02 0.  1.
       -1    1    3    3    0  502 -0.28010797655E+03 -0.42472616575E+03  0.16495820578E+04  0.17262600499E+04  0.50400001928E-02 0. -1.
</event>
<event>
 5   0  0.3516539E-04  0.1944027E+04  0.7818609E-02  0.8633247E-01
        2   -1    0    0  501    0  0.00000000000E+00  0.00000000000E+00  0.19988019222E+04  0.19988019222E+04  0.25500000920E-02 0. -1.
       -2   -1    0    0    0  501  0.00000000000E+00  0.00000000000E+00 -0.47268804846E+03  0.47268804847E+03  0.25500000920E-02 0.  1.
    10030    2    1    2    0    0  0.00000000000E+00  0.00000000000E+00  0.15261138737E+04  0.24714899707E+04  0.19440265223E+04 0.  0.
        4    1    3    3  502    0 -0.77178714310E+03 -0.27138727924E+03  0.14303533984E+04  0.16477921310E+04  0.12699999809E+01 0. -1.
       -4    1    3    3    0  502  0.77178714310E+03  0.27138727924E+03  0.95760475299E+02  0.82369783969E+03  0.12699999809E+01 0.  1.
</event>
<event>
 5   0  0.1813834E-04  0.1912465E+04  0.7818609E-02  0.8648677E-01
        1   -1    0    0  501    0  0.00000000000E+00  0.00000000000E+00  0.13031841621E+04  0.13031841621E+04  0.50400001928E-02 0. -1.
       -1   -1    0    0    0  501  0.00000000000E+00  0.00000000000E+00 -0.70165079821E+03  0.70165079822E+03  0.50400001928E-02 0.  1.
    10030    2    1    2    0    0  0.00000000000E+00  0.00000000000E+00  0.60153336386E+03  0.20048349603E+04  0.19124645958E+04 0.  0.
        5    1    3    3  502    0 -0.69733272274E+03 -0.54622737254E+03 -0.76796914079E+02  0.88913279364E+03  0.46999998093E+01 0.  1.
       -5    1    3    3    0  502  0.69733272274E+03  0.54622737254E+03  0.67833027794E+03  0.11157021667E+04  0.46999998093E+01 0. -1.
</event>
<event>
 5   0  0.3720978E-04  0.1913394E+04  0.7818609E-02  0.8648218E-01
        2   -1    0    0  501    0  0.00000000000E+00  0.00000000000E+00  0.19158812846E+04  0.19158812846E+04  0.25500000920E-02 0.  1.
       -2   -1    0    0    0  501  0.00000000000E+00  0.00000000000E+00 -0.47772725537E+03  0.47772725538E+03  0.25500000920E-02 0. -1.
    10030    2    1    2    0    0  0.00000000000E+00  0.00000000000E+00  0.14381540292E+04  0.23936085400E+04  0.19133935379E+04 0.  0.
        1    1    3    3  502    0 -0.79374817727E+03  0.45583675003E+03  0.10672111632E+04  0.14059740319E+04  0.50400001928E-02 0.  1.
       -1    1    3    3    0  502  0.79374817727E+03 -0.45583675003E+03  0.37094286606E+03  0.98763450806E+03  0.50400001928E-02 0. -1.
</event>
<event>
 5   0  0.3459485E-04  0.1889578E+04  0.7818609E-02  0.8660062E-01
        2   -1    0    0  501    0  0.00000000000E+00  0.00000000000E+00  0.21797085531E+04  0.21797085531E+04  0.25500000920E-02 0.  1.
       -2   -1    0    0    0  501  0.00000000000E+00  0.00000000000E+00 -0.40951627200E+03  0.40951627201E+03  0.25500000920E-02 0. -1.
    10030    2    1    2    0    0  0.00000000000E+00  0.00000000000E+00  0.17701922811E+04  0.25892248252E+04  0.18895778584E+04 0.  0.
        3    1    3    3  502    0  0.34536073834E+03 -0.87663449023E+03  0.78953009693E+03  0.12292761501E+04  0.10100000352E+00 0. -1.
       -3    1    3    3    0  502 -0.34536073834E+03  0.87663449023E+03  0.98066218421E+03  0.13599486751E+04  0.10100000352E+00 0.  1.
</event>
<event>
 5   0  0.1711979E-04  0.1889576E+04  0.7818609E-02  0.8660063E-01
        1   -1    0    0  501    0  0.00000000000E+00  0.00000000000E+00  0.11930756187E+04  0.11930756187E+04  0.50400001928E-02 0. -1.
       -1   -1    0    0    0  501  0.00000000000E+00  0.00000000000E+00 -0.74817044113E+03  0.74817044115E+03  0.50400001928E-02 0.  1.
    10030    2    1    2    0    0  0.00000000000E+00  0.00000000000E+00  0.44490517759E+03  0.19412460599E+04  0.18895755206E+04 0.  0.
        4    1    3    3  502    0 -0.70703855119E+03 -0.19186051237E+02  0.86595997922E+03  0.11181055030E+04  0.12699999809E+01 0. -1.
       -4    1    3    3    0  502  0.70703855119E+03  0.19186051237E+02 -0.42105480163E+03  0.82314055684E+03  0.12699999809E+01 0.  1.
</event>
<event>
 5   0  0.3623359E-04  0.1964805E+04  0.7818609E-02  0.8623255E-01
       -2   -1    0    0    0  501  0.00000000000E+00  0.00000000000E+00  0.47487917134E+03  0.47487917135E+03  0.25500000920E-02 0. -1.
        2   -1    0    0  501    0  0.00000000000E+00  0.00000000000E+00 -0.20323367755E+04  0.20323367755E+04  0.25500000920E-02 0.  1.
    10030    2    1    2    0    0  0.00000000000E+00  0.00000000000E+00 -0.15574576041E+04  0.25072159468E+04  0.19648047270E+04 0.  0.
        5    1    3    3  502    0 -0.58228932129E+03  0.17903089142E+03  0.20473422810E+03  0.64269052266E+03  0.46999998093E+01 0. -1.
       -5    1    3    3    0  502  0.58228932129E+03 -0.17903089142E+03 -0.17621918322E+04  0.18645254241E+04  0.46999998093E+01 0.  1.
</event>
<event>
 5   0  0.3535876E-04  0.1893590E+04  0.7818609E-02  0.8658054E-01
       -2   -1    0    0    0  501  0.00000000000E+00  0.00000000000E+00  0.10244591159E+04  0.10244591159E+04  0.25500000920E-02 0. -1.
        2   -1    0    0  501    0  0.00000000000E+00  0.00000000000E+00 -0.87501833227E+03  0.87501833228E+03  0.25500000920E-02 0.  1.
    10030    2    1    2    0    0  0.00000000000E+00  0.00000000000E+00  0.14944078364E+03  0.18994774482E+04  0.18935897202E+04 0.  0.
        2    1    3    3  502    0  0.90496488646E+03 -0.61670184544E+02  0.34696035442E+03  0.97115711650E+03  0.25500000920E-02 0. -1.
       -2    1    3    3    0  502 -0.90496488646E+03  0.61670184544E+02 -0.19751957078E+03  0.92832033169E+03  0.25500000920E-02 0.  1.
</event>
<event>
 5   0  0.3535876E-04  0.1905065E+04  0.7818609E-02  0.8652339E-01
        2   -1    0    0  501    0  0.00000000000E+00  0.00000000000E+00  0.14440913984E+04  0.14440913984E+04  0.25500000920E-02 0. -1.
       -2   -1    0    0    0  501  0.00000000000E+00  0.00000000000E+00 -0.62829666413E+03  0.62829666413E+03  0.25500000920E-02 0.  1.
    10030    2    1    2    0    0  0.00000000000E+00  0.00000000000E+00  0.81579473424E+03  0.20723880625E+04  0.19050646270E+04 0.  0.
        2    1    3    3  502    0  0.72850327007E+03  0.57553430253E+03  0.63958506165E+03  0.11273977998E+04  0.25500000920E-02 0. -1.
       -2    1    3    3    0  502 -0.72850327007E+03 -0.57553430253E+03  0.17620967259E+03  0.94499026271E+03  0.25500000920E-02 0.  1.
</event>
<event>
 5   0  0.1782613E-04  0.1933000E+04  0.7818609E-02  0.8638602E-01
        1   -1    0    0  501    0  0.00000000000E+00  0.00000000000E+00  0.12216417792E+04  0.12216417792E+04  0.50400001928E-02 0. -1.
       -1   -1    0    0    0  501  0.00000000000E+00  0.00000000000E+00 -0.76464524152E+03  0.76464524154E+03  0.50400001928E-02 0.  1.
    10030    2    1    2    0    0  0.00000000000E+00  0.00000000000E+00  0.45699653765E+03  0.19862870207E+04  0.19330003345E+04 0.  0.
        3    1    3    3  502    0 -0.18960445992E+03  0.71332812924E+03 -0.41267024200E+03  0.84562616446E+03  0.10100000352E+00 0.  1.
       -3    1    3    3    0  502  0.18960445992E+03 -0.71332812924E+03  0.86966677965E+03  0.11406608563E+04  0.10100000352E+00 0. -1.
</event>
<event>
 5   0  0.1758946E-04  0.1827458E+04  0.7818609E-02  0.8691833E-01
       -1   -1    0    0    0  501  0.00000000000E+00  0.00000000000E+00  0.30114819862E+03  0.30114819866E+03  0.50400001928E-02 0.  1.
        1   -1    0    0  501    0  0.00000000000E+00  0.00000000000E+00 -0.27723907712E+04  0.27723907712E+04  0.50400001928E-02 0. -1.
    10030    2    1    2    0    0  0.00000000000E+00  0.00000000000E+00 -0.24712425725E+04  0.30735389698E+04  0.18274577825E+04 0.  0.
        2    1    3    3  502    0 -0.91062121043E+03 -0.51904739867E+02 -0.11438802290E+04  0.14630061754E+04  0.25500000920E-02 0.  1.
       -2    1    3    3    0  502  0.91062121043E+03  0.51904739867E+02 -0.13273623435E+04  0.16105327944E+04  0.25500000920E-02 0. -1.
</event>
<event>
 5   0  0.3720978E-04  0.2047266E+04  0.7818609E-02  0.8584836E-01
        2   -1    0    0  501    0  0.00000000000E+00  0.00000000000E+00  0.74524098526E+03  0.74524098526E+03  0.25500000920E-02 0.  1.
       -2   -1    0    0    0  501  0.00000000000E+00  0.00000000000E+00 -0.14060214520E+04  0.14060214520E+04  0.25500000920E-02 0. -1.
    10030    2    1    2    0    0  0.00000000000E+00  0.00000000000E+00 -0.66078046677E+03  0.21512624373E+04  0.20472662867E+04 0.  0.
        1    1    3    3  502    0  0.53413691627E+03 -0.75016397078E+03  0.13927817680E+03  0.93136815435E+03  0.50400001928E-02 0.  1.
       -1    1    3    3    0  502 -0.53413691627E+03  0.75016397078E+03 -0.80005864356E+03  0.12198942829E+04  0.50400001928E-02 0. -1.
</event>
<event>
 5   0  0.1758946E-04  0.1908505E+04  0.7818609E-02  0.8650634E-01
       -1   -1    0    0    0  501  0.00000000000E+00  0.00000000000E+00  0.68658261689E+03  0.68658261691E+03  0.50400001928E-02 0. -1.
        1   -1    0    0  501    0  0.00000000000E+00  0.00000000000E+00 -0.13262763236E+04  0.13262763236E+04  0.50400001928E-02 0.  1.
    10030    2    1    2    0    0  0.00000000000E+00  0.00000000000E+00 -0.63969370672E+03  0.20128589405E+04  0.19085054561E+04 0.  0.
        2    1    3    3  502    0 -0.89061497285E+03 -0.34178098306E+03 -0.29425055712E+03  0.99829487658E+03  0.25500000920E-02 0. -1.
       -2    1    3    3    0  502  0.89061497285E+03  0.34178098306E+03 -0.34544314960E+03  0.10145640639E+04  0.25500000920E-02 0.  1.
</event>
<event>
 5   0  0.1813834E-04  0.1905920E+04  0.7818609E-02  0.8651915E-01
       -1   -1    0    0    0  501  0.00000000000E+00  0.00000000000E+00  0.43034556622E+03  0.43034556625E+03  0.50400001928E-02 0.  1.
        1   -1    0    0  501    0  0.00000000000E+00  0.00000000000E+00 -0.21102397434E+04  0.21102397434E+04  0.50400001928E-02 0. -1.
    10030    2    1    2    0    0  0.00000000000E+00  0.00000000000E+00 -0.16798941772E+04  0.25405853097E+04  0.19059195338E+04 0.  0.
        5    1    3    3  502    0  0.59697673394E+03  0.92284570903E+02  0.14251120837E+03  0.62066834735E+03  0.46999998093E+01 0.  1.
       -5    1    3    3    0  502 -0.59697673394E+03 -0.92284570903E+02 -0.18224053856E+04  0.19199169623E+04  0.46999998093E+01 0. -1.
</event>
<event>
 5   0  0.3623359E-04  0.1873716E+04  0.7818609E-02  0.8668051E-01
       -2   -1    0    0    0  501  0.00000000000E+00  0.00000000000E+00  0.43727029424E+03  0.43727029425E+03  0.25500000920E-02 0.  1.
        2   -1    0    0  501    0  0.00000000000E+00  0.00000000000E+00 -0.20072313469E+04  0.20072313469E+04  0.25500000920E-02 0. -1.
    10030    2    1    2    0    0  0.00000000000E+00  0.00000000000E+00 -0.15699610526E+04  0.24445016411E+04  0.18737157113E+04 0.  0.
        5    1    3    3  502    0 -0.51478124880E+03  0.43461011717E+03  0.64326034798E+02  0.67679067430E+03  0.46999998093E+01 0.  1.
       -5    1    3    3    0  502  0.51478124880E+03 -0.43461011717E+03 -0.16342870874E+04  0.17677109668E+04  0.46999998093E+01 0. -1.
</event>
<event>
 5   0  0.1758946E-04  0.1949336E+04  0.7818609E-02  0.8630681E-01
       -1   -1    0    0    0  501  0.00000000000E+00  0.00000000000E+00  0.63467072891E+03  0.63467072893E+03  0.50400001928E-02 0.  1.
        1   -1    0    0  501    0  0.00000000000E+00  0.00000000000E+00 -0.14968044896E+04  0.14968044896E+04  0.50400001928E-02 0. -1.
    10030    2    1    2    0    0  0.00000000000E+00  0.00000000000E+00 -0.86213376073E+03  0.21314752186E+04  0.19493362937E+04 0.  0.
        2    1    3    3  502    0 -0.70943450242E+03 -0.44380843170E+03 -0.97747308823E+03  0.12867466244E+04  0.25500000920E-02 0. -1.
       -2    1    3    3    0  502  0.70943450242E+03  0.44380843170E+03  0.11533932750E+03  0.84472859414E+03  0.25500000920E-02 0.  1.
</event>
<event>
 5   0  0.1782613E-04  0.1442003E+04  0.7818609E-02  0.8923963E-01
       -1   -1    0    0    0  501  0.00000000000E+00  0.00000000000E+00  0.94457472255E+03  0.94457472257E+03  0.50400001928E-02 0.  1.
        1   -1    0    0  501    0  0.00000000000E+00  0.00000000000E+00 -0.55034659520E+03  0.55034659522E+03  0.50400001928E-02 0. -1.
    10030    2    1    2    0    0  0.00000000000E+00  0.00000000000E+00  0.39422812735E+03  0.14949213178E+04  0.14420034431E+04 0.  0.
        3    1    3    3  502    0 -0.32403731626E+03  0.13743304904E+03 -0.45522772268E+03  0.57543054750E+03  0.10100000352E+00 0. -1.
       -3    1    3    3    0  502  0.32403731626E+03 -0.13743304904E+03  0.84945585003E+03  0.91949077029E+03  0.10100000352E+00 0.  1.
</event>
<event>
 5   0  0.1813834E-04  0.1813470E+04  0.7818609E-02  0.8699169E-01
        1   -1    0    0  501    0  0.00000000000E+00  0.00000000000E+00  0.11393292366E+04  0.11393292366E+04  0.50400001928E-02 0.  1.
       -1   -1    0    0    0  501  0.00000000000E+00  0.00000000000E+00 -0.72162509795E+03  0.72162509797E+03  0.50400001928E-02 0. -1.
    10030    2    1    2    0    0  0.00000000000E+00  0.00000000000E+00  0.41770413864E+03  0.18609543346E+04  0.18134702335E+04 0.  0.
        5    1    3    3  502    0  0.20001722052E+03  0.34178556782E+03  0.10458825987E+04  0.11183544890E+04  0.46999998093E+01 0.  1.
       -5    1    3    3    0  502 -0.20001722052E+03 -0.34178556782E+03 -0.62817846007E+03  0.74259984552E+03  0.46999998093E+01 0. -1.
</event>
<event>
 5   0  0.3535876E-04  0.1947689E+04  0.7818609E-02  0.8631476E-01
       -2   -1    0    0    0  501  0.00000000000E+00  0.00000000000E+00  0.82887877461E+03  0.82887877461E+03  0.25500000920E-02 0. -1.
        2   -1    0    0  501    0  0.00000000000E+00  0.00000000000E+00 -0.11441635302E+04  0.11441635302E+04  0.25500000920E-02 0.  1.
    10030    2    1    2    0    0  0.00000000000E+00  0.00000000000E+00 -0.31528475560E+03  0.19730423048E+04  0.19476887481E+04 0.  0.
        2    1    3    3  502    0 -0.40968365549E+03 -0.55243580236E+03 -0.85607119935E+03  0.10981274569E+04  0.25500000920E-02 0.  1.
       -2    1    3    3    0  502  0.40968365549E+03  0.55243580236E+03  0.54078644375E+03  0.87491484789E+03  0.25500000920E-02 0. -1.
</event>
<event>
 5   0  0.3720978E-04  0.1914908E+04  0.7818609E-02  0.8647471E-01
       -2   -1    0    0    0  501  0.00000000000E+00  0.00000000000E+00  0.75664060237E+03  0.75664060238E+03  0.25500000920E-02 0. -1.
        2   -1    0    0  501    0  0.00000000000E+00  0.00000000000E+00 -0.12115632924E+04  0.12115632924E+04  0.25500000920E-02 0.  1.
    10030    2    1    2    0    0  0.00000000000E+00  0.00000000000E+00 -0.45492269005E+03  0.19682038948E+04  0.19149078092E+04 0.  0.
        1    1    3    3  502    0 -0.57240021772E+03 -0.71125414935E+03 -0.52392190728E+03  0.10526246431E+04  0.50400001928E-02 0. -1.
       -1    1    3    3    0  502  0.57240021772E+03  0.71125414935E+03  0.68999217226E+02  0.91557925174E+03  0.50400001928E-02 0.  1.
</event>
<event>
 5   0  0.1782613E-04  0.1910099E+04  0.7818609E-02  0.8649846E-01
        1   -1    0    0  501    0  0.00000000000E+00  0.00000000000E+00  0.10881664503E+04  0.10881664503E+04  0.50400001928E-02 0.  1.
       -1   -1    0    0    0  501  0.00000000000E+00  0.00000000000E+00 -0.83821721937E+03  0.83821721938E+03  0.50400001928E-02 0. -1.
    10030    2    1    2    0    0  0.00000000000E+00  0.00000000000E+00  0.24994923088E+03  0.19263836696E+04  0.19100993232E+04 0.  0.
        3    1    3    3  502    0  0.68939137789E+03  0.44028619253E+03 -0.37218589457E+03  0.89868501354E+03  0.10100000352E+00 0. -1.
       -3    1    3    3    0  502 -0.68939137789E+03 -0.44028619253E+03  0.62213512545E+03  0.10276986561E+04  0.10100000352E+00 0.  1.
</event>
<event>
 5   0  0.3720978E-04  0.1770434E+04  0.7818609E-02  0.8722182E-01
        2   -1    0    0  501    0  0.00000000000E+00  0.00000000000E+00  0.14157007553E+04  0.14157007553E+04  0.25500000920E-02 0.  1.
       -2   -1    0    0    0  501  0.00000000000E+00  0.00000000000E+00 -0.55351321922E+03  0.55351321922E+03  0.25500000920E-02 0. -1.
    10030    2    1    2    0    0  0.00000000000E+00  0.00000000000E+00  0.86218753607E+03  0.19692139745E+04  0.17704339383E+04 0.  0.
        1    1    3    3  502    0 -0.15896560873E+03  0.67781764715E+03  0.10391976538E+04  0.12508551440E+04  0.50400001928E-02 0.  1.
       -1    1    3    3    0  502  0.15896560873E+03 -0.67781764715E+03 -0.17701011776E+03  0.71835883050E+03  0.50400001928E-02 0. -1.
</event>
<event>
 5   0  0.3720978E-04  0.1985374E+04  0.7818609E-02  0.8613489E-01
        2   -1    0    0  501    0  0.00000000000E+00  0.00000000000E+00  0.30597889069E+04  0.30597889069E+04  0.25500000920E-02 0.  1.
       -2   -1    0    0    0  501  0.00000000000E+00  0.00000000000E+00 -0.32205734267E+03  0.32205734268E+03  0.25500000920E-02 0. -1.
    10030    2    1    2    0    0  0.00000000000E+00  0.00000000000E+00  0.27377315643E+04  0.33818462496E+04  0.19853740046E+04 0.  0.
        1    1    3    3  502    0  0.96997229605E+03 -0.27162803490E+02  0.10121981506E+04  0.14021872804E+04  0.50400001928E-02 0.  1.
       -1    1    3    3    0  502 -0.96997229605E+03  0.27162803490E+02  0.17255334136E+04  0.19796589693E+04  0.50400001928E-02 0. -1.
</event>
<event>
 5   0  0.3623359E-04  0.1897522E+04  0.7818609E-02  0.8656091E-01
       -2   -1    0    0    0  501  0.00000000000E+00  0.00000000000E+00  0.14410585766E+04  0.14410585766E+04  0.25500000920E-02 0.  1.
        2   -1    0    0  501    0  0.00000000000E+00  0.00000000000E+00 -0.62464293373E+03  0.62464293373E+03  0.25500000920E-02 0. -1.
    10030    2    1    2    0    0  0.00000000000E+00  0.00000000000E+00  0.81641564292E+03  0.20657015104E+04  0.18975216015E+04 0.  0.
        5    1    3    3  502    0  0.43949110548E+03 -0.58757688284E+03 -0.24653488090E+03  0.77408046257E+03  0.46999998093E+01 0. -1.
       -5    1    3    3    0  502 -0.43949110548E+03  0.58757688284E+03  0.10629505238E+04  0.12916210478E+04  0.46999998093E+01 0.  1.
</event>
<event>
 5   0  0.3459485E-04  0.1902082E+04  0.7818609E-02  0.8653821E-01
        2   -1    0    0  501    0  0.00000000000E+00  0.00000000000E+00  0.84070983160E+03  0.84070983160E+03  0.25500000920E-02 0. -1.
       -2   -1    0    0    0  501  0.00000000000E+00  0.00000000000E+00 -0.10758510915E+04  0.10758510915E+04  0.25500000920E-02 0.  1.
    10030    2    1    2    0    0  0.00000000000E+00  0.00000000000E+00 -0.23514125993E+03  0.19165609231E+04  0.19020815860E+04 0.  0.
        3    1    3    3  502    0 -0.86417622084E+03  0.74285226419E+02 -0.51061662256E+03  0.10065029463E+04  0.10100000352E+00 0.  1.
       -3    1    3    3    0  502  0.86417622084E+03 -0.74285226419E+02  0.27547536263E+03  0.91005797681E+03  0.10100000352E+00 0. -1.
</event>
<event>
 5   0  0.1694830E-04  0.1926298E+04  0.7818609E-02  0.8641876E-01
       -1   -1    0    0    0  501  0.00000000000E+00  0.00000000000E+00  0.60309362755E+03  0.60309362757E+03  0.50400001928E-02 0. -1.
        1   -1    0    0  501    0  0.00000000000E+00  0.00000000000E+00 -0.15381621457E+04  0.15381621457E+04  0.50400001928E-02 0.  1.
    10030    2    1    2    0    0  0.00000000000E+00  0.00000000000E+00 -0.93506851813E+03  0.21412557733E+04  0.19262977841E+04 0.  0.
        1    1    3    3  502    0 -0.40275068625E+03 -0.38887532810E+02  0.50403429252E+03  0.64635201210E+03  0.50400001928E-02 0. -1.
       -1    1    3    3    0  502  0.40275068625E+03  0.38887532810E+02 -0.14391028107E+04  0.14949037612E+04  0.50400001928E-02 0.  1.
</event>
<event>
 5   0  0.1694830E-04  0.1886585E+04  0.7818609E-02  0.8661563E-01
       -1   -1    0    0    0  501  0.00000000000E+00  0.00000000000E+00  0.99553932280E+03  0.99553932281E+03  0.50400001928E-02 0. -1.
        1   -1    0    0  501    0  0.00000000000E+00  0.00000000000E+00 -0.89378750618E+03  0.89378750620E+03  0.50400001928E-02 0.  1.
    10030    2    1    2    0    0  0.00000000000E+00  0.00000000000E+00  0.10175181662E+03  0.18893268290E+04  0.18865848602E+04 0.  0.
        1    1    3    3  502    0  0.85105629896E+03  0.12092476975E+03  0.43987447551E+03  0.96561336888E+03  0.50400001928E-02 0. -1.
       -1    1    3    3    0  502 -0.85105629896E+03 -0.12092476975E+03 -0.33812265889E+03  0.92371346013E+03  0.50400001928E-02 0.  1.
</event>
<event>
 5   0  0.1694830E-04  0.1882238E+04  0.7818609E-02  0.8663748E-01
        1   -1    0    0  501    0  0.00000000000E+00  0.00000000000E+00  0.44914094146E+03  0.44914094149E+03  0.50400001928E-02 0. -1.
       -1   -1    0    0    0  501  0.00000000000E+00  0.00000000000E+00 -0.19719982381E+04  0.19719982381E+04  0.50400001928E-02 0.  1.
    10030    2    1    2    0    0  0.00000000000E+00  0.00000000000E+00 -0.15228572966E+04  0.24211391796E+04  0.18822381839E+04 0.  0.
        1    1    3    3  502    0 -0.23928888645E+03 -0.31732339959E+03  0.33590028525E+03  0.52036747858E+03  0.50400001928E-02 0. -1.
       -1    1    3    3    0  502  0.23928888645E+03  0.31732339959E+03 -0.18587575819E+04  0.19007717010E+04  0.50400001928E-02 0.  1.
</event>
<event>
 5   0  0.3623359E-04  0.2006067E+04  0.7818609E-02  0.8603789E-01
        2   -1    0    0  501    0  0.00000000000E+00  0.00000000000E+00  0.79125268262E+03  0.79125268263E+03  0.25500000920E-02 0.  1.
       -2   -1    0    0    0  501  0.00000000000E+00  0.00000000000E+00 -0.12714982409E+04  0.12714982409E+04  0.25500000920E-02 0. -1.
    10030    2    1    2    0    0  0.00000000000E+00  0.00000000000E+00 -0.48024555831E+03  0.20627509236E+04  0.20060671914E+04 0.  0.
        5    1    3    3  502    0  0.83943099726E+02  0.92856141505E+03 -0.62041293992E+03  0.11199138590E+04  0.46999998093E+01 0. -1.
       -5    1    3    3    0  502 -0.83943099726E+02 -0.92856141505E+03  0.14016738161E+03  0.94283706459E+03  0.46999998093E+01 0.  1.
</event>
<event>
 5   0  0.3720978E-04  0.1902094E+04  0.7818609E-02  0.8653815E-01
       -2   -1    0    0    0  501  0.00000000000E+00  0.00000000000E+00  0.98162431263E+03  0.98162431263E+03  0.25500000920E-02 0. -1.
        2   -1    0    0  501    0  0.00000000000E+00  0.00000000000E+00 -0.92142251834E+03  0.92142251834E+03  0.25500000920E-02 0.  1.
    10030    2    1    2    0    0  0.00000000000E+00  0.00000000000E+00  0.60201794288E+02  0.19030468310E+04  0.19020943680E+04 0.  0.
        1    1    3    3  502    0  0.45674376467E+03  0.78701057845E+03  0.30680805700E+03  0.96027688768E+03  0.50400001928E-02 0.  1.
       -1    1    3    3    0  502 -0.45674376467E+03 -0.78701057845E+03 -0.24660626271E+03  0.94276994330E+03  0.50400001928E-02 0. -1.
</event>
<event>
 5   0  0.1813834E-04  0.1874516E+04  0.7818609E-02  0.8667646E-01
        1   -1    0    0  501    0  0.00000000000E+00  0.00000000000E+00  0.50568846405E+03  0.50568846407E+03  0.50400001928E-02 0.  1.
       -1   -1    0    0    0  501  0.00000000000E+00  0.00000000000E+00 -0.17371424171E+04  0.17371424171E+04  0.50400001928E-02 0. -1.
    10030    2    1    2    0    0  0.00000000000E+00  0.00000000000E+00 -0.12314539531E+04  0.22428308812E+04  0.18745163438E+04 0.  0.
        5    1    3    3  502    0 -0.30188395572E+03 -0.14119901383E+02  0.44577684338E+03  0.53858367821E+03  0.46999998093E+01 0.  1.
       -5    1    3    3    0  502  0.30188395572E+03  0.14119901383E+02 -0.16772307964E+04  0.17042472030E+04  0.46999998093E+01 0. -1.
</event>
<event>
 5   0  0.1782613E-04  0.1876425E+04  0.7818609E-02  0.8666681E-01
        1   -1    0    0  501    0  0.00000000000E+00  0.00000000000E+00  0.86526064318E+03  0.86526064319E+03  0.50400001928E-02 0. -1.
       -1   -1    0    0    0  501  0.00000000000E+00  0.00000000000E+00 -0.10173156137E+04  0.10173156137E+04  0.50400001928E-02 0.  1.
    10030    2    1    2    0    0  0.00000000000E+00  0.00000000000E+00 -0.15205497053E+03  0.18825762569E+04  0.18764254979E+04 0.  0.
        3    1    3    3  502    0  0.87545743479E+03 -0.32094161311E+03 -0.18035832070E+03  0.94971489048E+03  0.10100000352E+00 0. -1.
       -3    1    3    3    0  502 -0.87545743479E+03  0.32094161311E+03  0.28303350169E+02  0.93286136643E+03  0.10100000352E+00 0.  1.
</event>
<event>
 5   0  0.3720978E-04  0.1956013E+04  0.7818609E-02  0.8627467E-01
       -2   -1    0    0    0  501  0.00000000000E+00  0.00000000000E+00  0.35025297419E+03  0.35025297420E+03  0.25500000920E-02 0.  1.
        2   -1    0    0  501    0  0.00000000000E+00  0.00000000000E+00 -0.27308741280E+04  0.27308741280E+04  0.25500000920E-02 0. -1.
    10030    2    1    2    0    0  0.00000000000E+00  0.00000000000E+00 -0.23806211538E+04  0.30811271022E+04  0.19560130731E+04 0.  0.
        1    1    3    3  502    0  0.96599012822E+03  0.15045092665E+03 -0.12327060992E+04  0.15733202904E+04  0.50400001928E-02 0.  1.
       -1    1    3    3    0  502 -0.96599012822E+03 -0.15045092665E+03 -0.11479150547E+04  0.15078068119E+04  0.50400001928E-02 0. -1.
</event>
<event>
 5   0  0.1694830E-04  0.1845087E+04  0.7818609E-02  0.8682684E-01
        1   -1    0    0  501    0  0.00000000000E+00  0.00000000000E+00  0.16139590330E+04  0.16139590330E+04  0.50400001928E-02 0. -1.
       -1   -1    0    0    0  501  0.00000000000E+00  0.00000000000E+00 -0.52732831151E+03  0.52732831153E+03  0.50400001928E-02 0.  1.
    10030    2    1    2    0    0  0.00000000000E+00  0.00000000000E+00  0.10866307215E+04  0.21412873445E+04  0.18450867641E+04 0.  0.
        1    1    3    3  502    0  0.95696793652E+02 -0.43091499011E+03 -0.39681858313E+03  0.59355757341E+03  0.50400001928E-02 0.  1.
       -1    1    3    3    0  502 -0.95696793652E+02  0.43091499011E+03  0.14834493046E+04  0.15477297711E+04  0.50400001928E-02 0. -1.
</event>
<event>
 5   0  0.1758946E-04  0.1893939E+04  0.7818609E-02  0.8657879E-01
        1   -1    0    0  501    0  0.00000000000E+00  0.00000000000E+00  0.84659750371E+03  0.84659750372E+03  0.50400001928E-02 0.  1.
       -1   -1    0    0    0  501  0.00000000000E+00  0.00000000000E+00 -0.10592417586E+04  0.10592417586E+04  0.50400001928E-02 0. -1.
    10030    2    1    2    0    0  0.00000000000E+00  0.00000000000E+00 -0.21264425490E+03  0.19058392623E+04  0.18939392057E+04 0.  0.
        2    1    3    3  502    0 -0.42759547898E+03 -0.16129763194E+03 -0.94092873682E+03  0.10460409684E+04  0.25500000920E-02 0. -1.
       -2    1    3    3    0  502  0.42759547898E+03  0.16129763194E+03  0.72828448192E+03  0.85979829398E+03  0.25500000920E-02 0.  1.
</event>
<event>
 5   0  0.1711979E-04  0.1880098E+04  0.7818609E-02  0.8664827E-01
       -1   -1    0    0    0  501  0.00000000000E+00  0.00000000000E+00  0.36400724918E+03  0.36400724921E+03  0.50400001928E-02 0.  1.
        1   -1    0    0  501    0  0.00000000000E+00  0.00000000000E+00 -0.24276784582E+04  0.24276784582E+04  0.50400001928E-02 0. -1.
    10030    2    1    2    0    0  0.00000000000E+00  0.00000000000E+00 -0.20636712090E+04  0.27916857074E+04  0.18800984629E+04 0.  0.
        4    1    3    3  502    0 -0.40138944757E+03  0.57724944289E+03 -0.19583707436E+04  0.20807565908E+04  0.12699999809E+01 0. -1.
       -4    1    3    3    0  502  0.40138944757E+03 -0.57724944289E+03 -0.10530046545E+03  0.71092911662E+03  0.12699999809E+01 0.  1.
</event>
<event>
 5   0  0.1711979E-04  0.1891125E+04  0.7818609E-02  0.8659287E-01
       -1   -1    0    0    0  501  0.00000000000E+00  0.00000000000E+00  0.10911679263E+04  0.10911679263E+04  0.50400001928E-02 0.  1.
        1   -1    0    0  501    0  0.00000000000E+00  0.00000000000E+00 -0.81938634475E+03  0.81938634477E+03  0.50400001928E-02 0. -1.
    10030    2    1    2    0    0  0.00000000000E+00  0.00000000000E+00  0.27178158152E+03  0.19105542711E+04  0.18911246375E+04 0.  0.
        4    1    3    3  502    0 -0.76412839661E+03 -0.77486361731E+02 -0.42131009047E+03  0.87601378299E+03  0.12699999809E+01 0. -1.
       -4    1    3    3    0  502  0.76412839661E+03  0.77486361731E+02  0.69309167199E+03  0.10345404881E+04  0.12699999809E+01 0.  1.
</event>
<event>
 5   0  0.1694830E-04  0.1893042E+04  0.7818609E-02  0.8658328E-01
       -1   -1    0    0    0  501  0.00000000000E+00  0.00000000000E+00  0.31077709851E+03  0.31077709855E+03  0.50400001928E-02 0. -1.
        1   -1    0    0  501    0  0.00000000000E+00  0.00000000000E+00 -0.28827798020E+04  0.28827798020E+04  0.50400001928E-02 0.  1.
    10030    2    1    2    0    0  0.00000000000E+00  0.00000000000E+00 -0.25720027035E+04  0.31935569005E+04  0.18930419357E+04 0.  0.
        1    1    3    3  502    0  0.77280210859E+03  0.95139254469E+02 -0.21938934177E+04  0.23279696959E+04  0.50400001928E-02 0.  1.
       -1    1    3    3    0  502 -0.77280210859E+03 -0.95139254469E+02 -0.37810928572E+03  0.86558720459E+03  0.50400001928E-02 0. -1.
</event>
<event>
 5   0  0.1782613E-04  0.1852628E+04  0.7818609E-02  0.8678803E-01
        1   -1    0    0  501    0  0.00000000000E+00  0.00000000000E+00  0.14611847505E+04  0.14611847505E+04  0.50400001928E-02 0.  1.
       -1   -1    0    0    0  501  0.00000000000E+00  0.00000000000E+00 -0.58723390590E+03  0.58723390592E+03  0.50400001928E-02 0. -1.
    10030    2    1    2    0    0  0.00000000000E+00  0.00000000000E+00  0.87395084460E+03  0.20484186564E+04  0.18526275700E+04 0.  0.
        3    1    3    3  502    0 -0.79422206297E+03  0.43455567219E+03  0.65372847876E+03  0.11166862817E+04  0.10100000352E+00 0. -1.
       -3    1    3    3    0  502  0.79422206297E+03 -0.43455567219E+03  0.22022236584E+03  0.93173237475E+03  0.10100000352E+00 0.  1.
</event>
<event>
 5   0  0.1711979E-04  0.1707071E+04  0.7818609E-02  0.8757342E-01
       -1   -1    0    0    0  501  0.00000000000E+00  0.00000000000E+00  0.37114226943E+03  0.37114226947E+03  0.50400001928E-02 0. -1.
        1   -1    0    0  501    0  0.00000000000E+00  0.00000000000E+00 -0.19629196264E+04  0.19629196264E+04  0.50400001928E-02 0.  1.
    10030    2    1    2    0    0  0.00000000000E+00  0.00000000000E+00 -0.15917773570E+04  0.23340618959E+04  0.17070705257E+04 0.  0.
        4    1    3    3  502    0  0.44633769244E+03  0.90448916678E+02  0.19114236701E+03  0.49389812673E+03  0.12699999809E+01 0. -1.
       -4    1    3    3    0  502 -0.44633769244E+03 -0.90448916678E+02 -0.17829197240E+04  0.18401637692E+04  0.12699999809E+01 0.  1.
</event>
<event>
 5   0  0.3459485E-04  0.1914091E+04  0.7818609E-02  0.8647874E-01
       -2   -1    0    0    0  501  0.00000000000E+00  0.00000000000E+00  0.86285350086E+03  0.86285350087E+03  0.25500000920E-02 0.  1.
        2   -1    0    0  501    0  0.00000000000E+00  0.00000000000E+00 -0.10615197400E+04  0.10615197400E+04  0.25500000920E-02 0. -1.
    10030    2    1    2    0    0  0.00000000000E+00  0.00000000000E+00 -0.19866623914E+03  0.19243732409E+04  0.19140909319E+04 0.  0.
        3    1    3    3  502    0 -0.73961442209E+02 -0.74974890227E+03 -0.69270894987E+03  0.10234448743E+04  0.10100000352E+00 0. -1.
       -3    1    3    3    0  502  0.73961442209E+02  0.74974890227E+03  0.49404271073E+03  0.90092836653E+03  0.10100000352E+00 0.  1.
</event>
<event>
 5   0  0.1758946E-04  0.1609232E+04  0.7818609E-02  0.8814896E-01
        1   -1    0    0  501    0  0.00000000000E+00  0.00000000000E+00  0.51110411831E+03  0.51110411833E+03  0.50400001928E-02 0. -1.
       -1   -1    0    0    0  501  0.00000000000E+00  0.00000000000E+00 -0.12666835154E+04  0.12666835154E+04  0.50400001928E-02 0.  1.
    10030    2    1    2    0    0  0.00000000000E+00  0.00000000000E+00 -0.75557939709E+03  0.17777876337E+04  0.16092323155E+04 0.  0.
        2    1    3    3  502    0 -0.18453564865E+03  0.77307199469E+03 -0.23930657054E+03  0.83003695659E+03  0.25500000920E-02 0. -1.
       -2    1    3    3    0  502  0.18453564865E+03 -0.77307199469E+03 -0.51627282655E+03  0.94775067715E+03  0.25500000920E-02 0.  1.
</event>
<event>
 5   0  0.1782613E-04  0.1842570E+04  0.7818609E-02  0.8683983E-01
        1   -1    0    0  501    0  0.00000000000E+00  0.00000000000E+00  0.10148370580E+04  0.10148370580E+04  0.50400001928E-02 0. -1.
       -1   -1    0    0    0  501  0.00000000000E+00  0.00000000000E+00 -0.83635679770E+03  0.83635679772E+03  0.50400001928E-02 0.  1.
    10030    2    1    2    0    0  0.00000000000E+00  0.00000000000E+00  0.17848026030E+03  0.18511938557E+04  0.18425698055E+04 0.  0.
        3    1    3    3  502    0  0.89952420323E+03  0.43570284916E+02 -0.10589483309E+03  0.90678326396E+03  0.10100000352E+00 0.  1.
       -3    1    3    3    0  502 -0.89952420323E+03 -0.43570284916E+02  0.28437509339E+03  0.94441059178E+03  0.10100000352E+00 0. -1.
</event>
<event>
 5   0  0.1758946E-04  0.1909287E+04  0.7818609E-02  0.8650247E-01
        1   -1    0    0  501    0  0.00000000000E+00  0.00000000000E+00  0.10926384351E+04  0.10926384351E+04  0.50400001928E-02 0.  1.
       -1   -1    0    0    0  501  0.00000000000E+00  0.00000000000E+00 -0.83407688525E+03  0.83407688526E+03  0.50400001928E-02 0. -1.
    10030    2    1    2    0    0  0.00000000000E+00  0.00000000000E+00  0.25856154986E+03  0.19267153204E+04  0.19092872625E+04 0.  0.
        2    1    3    3  502    0  0.39296892718E+03  0.81833200700E+03 -0.16880104701E+03  0.92335564378E+03  0.25500000920E-02 0. -1.
       -2    1    3    3    0  502 -0.39296892718E+03 -0.81833200700E+03  0.42736259687E+03  0.10033596766E+04  0.25500000920E-02 0.  1.
</event>
<event>
 5   0  0.3720978E-04  0.1880224E+04  0.7818609E-02  0.8664763E-01
       -2   -1    0    0    0  501  0.00000000000E+00  0.00000000000E+00  0.37151531277E+03  0.37151531278E+03  0.25500000920E-02 0.  1.
        2   -1    0    0  501    0  0.00000000000E+00  0.00000000000E+00 -0.23789351127E+04  0.23789351127E+04  0.25500000920E-02 0. -1.
    10030    2    1    2    0    0  0.00000000000E+00  0.00000000000E+00 -0.20074198000E+04  0.27504504255E+04  0.18802242658E+04 0.  0.
        1    1    3    3  502    0 -0.43573724069E+03  0.72278248981E+03 -0.39786230019E+03  0.93304655856E+03  0.50400001928E-02 0.  1.
       -1    1    3    3    0  502  0.43573724069E+03 -0.72278248981E+03 -0.16095574998E+04  0.18174038669E+04  0.50400001928E-02 0. -1.
</event>
<event>
 5   0  0.1694830E-04  0.1972076E+04  0.7818609E-02  0.8619789E-01
       -1   -1    0    0    0  501  0.00000000000E+00  0.00000000000E+00  0.13920247339E+04  0.13920247339E+04  0.50400001928E-02 0.  1.
        1   -1    0    0  501    0  0.00000000000E+00  0.00000000000E+00 -0.69845791340E+03  0.69845791341E+03  0.50400001928E-02 0. -1.
    10030    2    1    2    0    0  0.00000000000E+00  0.00000000000E+00  0.69356682047E+03  0.20904826473E+04  0.19720757501E+04 0.  0.
        1    1    3    3  502    0  0.30621123750E+03 -0.90557159389E+03  0.60305375608E+03  0.11302650425E+04  0.50400001928E-02 0.  1.
       -1    1    3    3    0  502 -0.30621123750E+03  0.90557159389E+03  0.90513064389E+02  0.96021760475E+03  0.50400001928E-02 0. -1.
</event>
<event>
 5   0  0.3535876E-04  0.1880749E+04  0.7818609E-02  0.8664499E-01
        2   -1    0    0  501    0  0.00000000000E+00  0.00000000000E+00  0.69372206970E+03  0.69372206970E+03  0.25500000920E-02 0.  1.
       -2   -1    0    0    0  501  0.00000000000E+00  0.00000000000E+00 -0.12747234246E+04  0.12747234246E+04  0.25500000920E-02 0. -1.
    10030    2    1    2    0    0  0.00000000000E+00  0.00000000000E+00 -0.58100135492E+03  0.19684454943E+04  0.18807485450E+04 0.  0.
        2    1    3    3  502    0  0.12552486706E+03 -0.66535066986E+03 -0.97350574412E+03  0.11858167818E+04  0.25500000920E-02 0. -1.
       -2    1    3    3    0  502 -0.12552486706E+03  0.66535066986E+03  0.39250438920E+03  0.78262871253E+03  0.25500000920E-02 0.  1.
</event>
<event>
 5   0  0.1287000E-04  0.1977472E+04  0.7818609E-02  0.8617226E-01
        3   -1    0    0  501    0  0.00000000000E+00  0.00000000000E+00  0.82734010930E+03  0.82734011547E+03  0.10100000352E+00 0. -1.
       -3   -1    0    0    0  501  0.00000000000E+00  0.00000000000E+00 -0.11816163024E+04  0.11816163067E+04  0.10100000352E+00 0.  1.
    10030    2    1    2    0    0  0.00000000000E+00  0.00000000000E+00 -0.35427619305E+03  0.20089564221E+04  0.19774716901E+04 0.  0.
        2    1    3    3  502    0 -0.58060913054E+03  0.60489837513E+03  0.35521802905E+03  0.91059807537E+03  0.25500000920E-02 0. -1.
       -2    1    3    3    0  502  0.58060913054E+03 -0.60489837513E+03 -0.70949422210E+03  0.10983583468E+04  0.25500000920E-02 0.  1.
</event>
<event>
 5   0  0.1694830E-04  0.1929194E+04  0.7818609E-02  0.8640459E-01
        1   -1    0    0  501    0  0.00000000000E+00  0.00000000000E+00  0.13871765523E+04  0.13871765523E+04  0.50400001928E-02 0.  1.
       -1   -1    0    0    0  501  0.00000000000E+00  0.00000000000E+00 -0.67074936718E+03  0.67074936720E+03  0.50400001928E-02 0. -1.
    10030    2    1    2    0    0  0.00000000000E+00  0.00000000000E+00  0.71642718516E+03  0.20579259195E+04  0.19291944378E+04 0.  0.
        1    1    3    3  502    0 -0.25052715297E+02  0.75931115162E+03  0.99223672855E+03  0.12496858761E+04  0.50400001928E-02 0.  1.
       -1    1    3    3    0  502  0.25052715297E+02 -0.75931115162E+03 -0.27580954339E+03  0.80824004341E+03  0.50400001928E-02 0. -1.
</event>
<event>
 5   0  0.1782613E-04  0.1864185E+04  0.7818609E-02  0.8672892E-01
       -1   -1    0    0    0  501  0.00000000000E+00  0.00000000000E+00  0.37753238066E+03  0.37753238069E+03  0.50400001928E-02 0. -1.
        1   -1    0    0  501    0  0.00000000000E+00  0.00000000000E+00 -0.23012511556E+04  0.23012511556E+04  0.50400001928E-02 0.  1.
    10030    2    1    2    0    0  0.00000000000E+00  0.00000000000E+00 -0.19237187749E+04  0.26787835363E+04  0.18641854278E+04 0.  0.
        3    1    3    3  502    0 -0.70851165738E+03  0.28260642776E+03 -0.17316016146E+04  0.18921678899E+04  0.10100000352E+00 0.  1.
       -3    1    3    3    0  502  0.70851165738E+03 -0.28260642776E+03 -0.19211716033E+03  0.78661564639E+03  0.10100000352E+00 0. -1.
</event>
<event>
 5   0  0.3459485E-04  0.1632588E+04  0.7818609E-02  0.8800775E-01
       -2   -1    0    0    0  501  0.00000000000E+00  0.00000000000E+00  0.42625899653E+03  0.42625899654E+03  0.25500000920E-02 0. -1.
        2   -1    0    0  501    0  0.00000000000E+00  0.00000000000E+00 -0.15632176876E+04  0.15632176876E+04  0.25500000920E-02 0.  1.
    10030    2    1    2    0    0  0.00000000000E+00  0.00000000000E+00 -0.11369586911E+04  0.19894766842E+04  0.16325876429E+04 0.  0.
        3    1    3    3  502    0  0.32018333771E+03 -0.75085478477E+03 -0.57572108479E+03  0.99887689693E+03  0.10100000352E+00 0. -1.
       -3    1    3    3    0  502 -0.32018333771E+03  0.75085478477E+03 -0.56123760632E+03  0.99059978725E+03  0.10100000352E+00 0.  1.
</event>
<event>
 5   0  0.3516539E-04  0.1878183E+04  0.7818609E-02  0.8665793E-01
       -2   -1    0    0    0  501  0.00000000000E+00  0.00000000000E+00  0.82374833922E+03  0.82374833922E+03  0.25500000920E-02 0. -1.
        2   -1    0    0  501    0  0.00000000000E+00  0.00000000000E+00 -0.10705855281E+04  0.10705855281E+04  0.25500000920E-02 0.  1.
    10030    2    1    2    0    0  0.00000000000E+00  0.00000000000E+00 -0.24683718893E+03  0.18943338674E+04  0.18781832188E+04 0.  0.
        4    1    3    3  502    0 -0.61577510264E+03 -0.59466742221E+03 -0.51285164021E+03  0.99791118735E+03  0.12699999809E+01 0.  1.
       -4    1    3    3    0  502  0.61577510264E+03  0.59466742221E+03  0.26601445128E+03  0.89642268002E+03  0.12699999809E+01 0. -1.
</event>
<event>
 5   0  0.1694830E-04  0.1907858E+04  0.7818609E-02  0.8650955E-01
        1   -1    0    0  501    0  0.00000000000E+00  0.00000000000E+00  0.11433243151E+04  0.11433243151E+04  0.50400001928E-02 0.  1.
       -1   -1    0    0    0  501  0.00000000000E+00  0.00000000000E+00 -0.79590772145E+03  0.79590772146E+03  0.50400001928E-02 0. -1.
    10030    2    1    2    0    0  0.00000000000E+00  0.00000000000E+00  0.34741659369E+03  0.19392320366E+04  0.19078581190E+04 0.  0.
        1    1    3    3  502    0  0.47535742236E+03  0.66696008260E+03  0.67081123829E+03  0.10586728240E+04  0.50400001928E-02 0.  1.
       -1    1    3    3    0  502 -0.47535742236E+03 -0.66696008260E+03 -0.32339464460E+03  0.88055921264E+03  0.50400001928E-02 0. -1.
</event>
<event>
 5   0  0.1813834E-04  0.1900055E+04  0.7818609E-02  0.8654829E-01
        1   -1    0    0  501    0  0.00000000000E+00  0.00000000000E+00  0.10681033503E+04  0.10681033503E+04  0.50400001928E-02 0.  1.
       -1   -1    0    0    0  501  0.00000000000E+00  0.00000000000E+00 -0.84500472949E+03  0.84500472950E+03  0.50400001928E-02 0. -1.
    10030    2    1    2    0    0  0.00000000000E+00  0.00000000000E+00  0.22309862085E+03  0.19131080799E+04  0.19000551388E+04 0.  0.
        5    1    3    3  502    0 -0.36019230941E+03 -0.53750198754E+03  0.81194532524E+03  0.10382312784E+04  0.46999998093E+01 0.  1.
       -5    1    3    3    0  502  0.36019230941E+03  0.53750198754E+03 -0.58884670440E+03  0.87487680141E+03  0.46999998093E+01 0. -1.
</event>
<event>
 5   0  0.3459485E-04  0.1694674E+04  0.7818609E-02  0.8764408E-01
        2   -1    0    0  501    0  0.00000000000E+00  0.00000000000E+00  0.16792836470E+04  0.16792836470E+04  0.25500000920E-02 0. -1.
       -2   -1    0    0    0  501  0.00000000000E+00  0.00000000000E+00 -0.42755111780E+03  0.42755111781E+03  0.25500000920E-02 0.  1.
    10030    2    1    2    0    0  0.00000000000E+00  0.00000000000E+00  0.12517325292E+04  0.21068347648E+04  0.16946735384E+04 0.  0.
        3    1    3    3  502    0  0.73216681829E+03 -0.10971743197E+03  0.11382639392E+04  0.13578479186E+04  0.10100000352E+00 0. -1.
       -3    1    3    3    0  502 -0.73216681829E+03  0.10971743197E+03  0.11346859006E+03  0.74898684622E+03  0.10100000352E+00 0.  1.
</event>
<event>
 5   0  0.1711979E-04  0.1889256E+04  0.7818609E-02  0.8660223E-01
        1   -1    0    0  501    0  0.00000000000E+00  0.00000000000E+00  0.13592863043E+04  0.13592863043E+04  0.50400001928E-02 0. -1.
       -1   -1    0    0    0  501  0.00000000000E+00  0.00000000000E+00 -0.65646341212E+03  0.65646341214E+03  0.50400001928E-02 0.  1.
    10030    2    1    2    0    0  0.00000000000E+00  0.00000000000E+00  0.70282289217E+03  0.20157497164E+04  0.18892556475E+04 0.  0.
        4    1    3    3  502    0 -0.73000971092E+03  0.14133450314E+03  0.97302618811E+03  0.12246106301E+04  0.12699999809E+01 0. -1.
       -4    1    3    3    0  502  0.73000971092E+03 -0.14133450314E+03 -0.27020329595E+03  0.79113908629E+03  0.12699999809E+01 0.  1.
</event>
<event>
 5   0  0.3459485E-04  0.1875139E+04  0.7818609E-02  0.8667331E-01
        2   -1    0    0  501    0  0.00000000000E+00  0.00000000000E+00  0.98884469300E+03  0.98884469300E+03  0.25500000920E-02 0.  1.
       -2   -1    0    0    0  501  0.00000000000E+00  0.00000000000E+00 -0.88895270236E+03  0.88895270236E+03  0.25500000920E-02 0. -1.
    10030    2    1    2    0    0  0.00000000000E+00  0.00000000000E+00  0.99891990640E+02  0.18777973954E+04  0.18751385677E+04 0.  0.
        3    1    3    3  502    0  0.25280333535E+03 -0.42918971872E+03  0.84537876837E+03  0.98121282769E+03  0.10100000352E+00 0.  1.
       -3    1    3    3    0  502 -0.25280333535E+03  0.42918971872E+03 -0.74548677773E+03  0.89658456767E+03  0.10100000352E+00 0. -1.
</event>
<event>
 5   0  0.1813834E-04  0.1836334E+04  0.7818609E-02  0.8687213E-01
       -1   -1    0    0    0  501  0.00000000000E+00  0.00000000000E+00  0.75219649506E+03  0.75219649507E+03  0.50400001928E-02 0.  1.
        1   -1    0    0  501    0  0.00000000000E+00  0.00000000000E+00 -0.11207580174E+04  0.11207580174E+04  0.50400001928E-02 0. -1.
    10030    2    1    2    0    0  0.00000000000E+00  0.00000000000E+00 -0.36856152234E+03  0.18729545125E+04  0.18363335781E+04 0.  0.
        5    1    3    3  502    0 -0.56168771169E+03  0.23654574595E+03  0.51611688945E+03  0.79865243314E+03  0.46999998093E+01 0.  1.
       -5    1    3    3    0  502  0.56168771169E+03 -0.23654574595E+03 -0.88467841179E+03  0.10743020793E+04  0.46999998093E+01 0. -1.
</event>
<event>
 5   0  0.1758946E-04  0.1419424E+04  0.7818609E-02  0.8939878E-01
        1   -1    0    0  501    0  0.00000000000E+00  0.00000000000E+00  0.76299325316E+03  0.76299325318E+03  0.50400001928E-02 0. -1.
       -1   -1    0    0    0  501  0.00000000000E+00  0.00000000000E+00 -0.66015114301E+03  0.66015114303E+03  0.50400001928E-02 0.  1.
    10030    2    1    2    0    0  0.00000000000E+00  0.00000000000E+00  0.10284211015E+03  0.14231443962E+04  0.14194236411E+04 0.  0.
        2    1    3    3  502    0 -0.22522395423E+03 -0.11660320082E+03 -0.61316543146E+03  0.66354651860E+03  0.25500000920E-02 0.  1.
       -2    1    3    3    0  502  0.22522395423E+03  0.11660320082E+03  0.71600754161E+03  0.75959787760E+03  0.25500000920E-02 0. -1.
</event>
<event>
 5   0  0.3623359E-04  0.1474769E+04  0.7818609E-02  0.8901407E-01
       -2   -1    0    0    0  501  0.00000000000E+00  0.00000000000E+00  0.37765376657E+03  0.37765376657E+03  0.25500000920E-02 0. -1.
        2   -1    0    0  501    0  0.00000000000E+00  0.00000000000E+00 -0.14397741683E+04  0.14397741683E+04  0.25500000920E-02 0.  1.
    10030    2    1    2    0    0  0.00000000000E+00  0.00000000000E+00 -0.10621204018E+04  0.18174279349E+04  0.14747693212E+04 0.  0.
        5    1    3    3  502    0 -0.37228449643E+03 -0.61449329626E+03 -0.32663800674E+03  0.78924789191E+03  0.46999998093E+01 0. -1.
       -5    1    3    3    0  502  0.37228449643E+03  0.61449329626E+03 -0.73548239504E+03  0.10281800430E+04  0.46999998093E+01 0.  1.
</event>
<event>
 5   0  0.1694830E-04  0.1766771E+04  0.7818609E-02  0.8724173E-01
       -1   -1    0    0    0  501  0.00000000000E+00  0.00000000000E+00  0.71730927990E+03  0.71730927991E+03  0.50400001928E-02 0. -1.
        1   -1    0    0  501    0  0.00000000000E+00  0.00000000000E+00 -0.10879126634E+04  0.10879126634E+04  0.50400001928E-02 0.  1.
    10030    2    1    2    0    0  0.00000000000E+00  0.00000000000E+00 -0.37060338350E+03  0.18052219433E+04  0.17667708954E+04 0.  0.
        1    1    3    3  502    0  0.21924998570E+03 -0.85541919640E+03 -0.16118090196E+03  0.89765908951E+03  0.50400001928E-02 0. -1.
       -1    1    3    3    0  502 -0.21924998570E+03  0.85541919640E+03 -0.20942248154E+03  0.90756285380E+03  0.50400001928E-02 0.  1.
</event>
<event>
 5   0  0.1694830E-04  0.1901147E+04  0.7818609E-02  0.8654285E-01
        1   -1    0    0  501    0  0.00000000000E+00  0.00000000000E+00  0.22569720688E+04  0.22569720688E+04  0.50400001928E-02 0.  1.
       -1   -1    0    0    0  501  0.00000000000E+00  0.00000000000E+00 -0.40035515399E+03  0.40035515402E+03  0.50400001928E-02 0. -1.
    10030    2    1    2    0    0  0.00000000000E+00  0.00000000000E+00  0.18566169148E+04  0.26573272229E+04  0.19011474432E+04 0.  0.
        1    1    3    3  502    0  0.15858422372E+03 -0.17862692215E+03 -0.35772244806E+03  0.43014170130E+03  0.50400001928E-02 0. -1.
       -1    1    3    3    0  502 -0.15858422372E+03  0.17862692215E+03  0.22143393629E+04  0.22271855216E+04  0.50400001928E-02 0.  1.
</event>
<event>
 5   0  0.3459485E-04  0.1908607E+04  0.7818609E-02  0.8650584E-01
       -2   -1    0    0    0  501  0.00000000000E+00  0.00000000000E+00  0.61009637886E+03  0.61009637887E+03  0.25500000920E-02 0. -1.
        2   -1    0    0  501    0  0.00000000000E+00  0.00000000000E+00 -0.14927073202E+04  0.14927073202E+04  0.25500000920E-02 0.  1.
    10030    2    1    2    0    0  0.00000000000E+00  0.00000000000E+00 -0.88261094137E+03  0.21028036991E+04  0.19086071684E+04 0.  0.
        3    1    3    3  502    0 -0.72761806683E+03 -0.38371341970E+02 -0.11202851104E+04  0.13363903433E+04  0.10100000352E+00 0.  1.
       -3    1    3    3    0  502  0.72761806683E+03  0.38371341970E+02  0.23767416901E+03  0.76641335575E+03  0.10100000352E+00 0. -1.
</event>
<event>
 5   0  0.1711979E-04  0.2083254E+04  0.7818609E-02  0.8568656E-01
       -1   -1    0    0    0  501  0.00000000000E+00  0.00000000000E+00  0.10301558509E+04  0.10301558509E+04  0.50400001928E-02 0.  1.
        1   -1    0    0  501    0  0.00000000000E+00  0.00000000000E+00 -0.10532255934E+04  0.10532255934E+04  0.50400001928E-02 0. -1.
    10030    2    1    2    0    0  0.00000000000E+00  0.00000000000E+00 -0.23069742510E+02  0.20833814443E+04  0.20832537122E+04 0.  0.
        4    1    3    3  502    0 -0.35904481950E+03  0.59822437259E+03  0.76194600767E+03  0.10331257977E+04  0.12699999809E+01 0.  1.
       -4    1    3    3    0  502  0.35904481950E+03 -0.59822437259E+03 -0.78501575018E+03  0.10502556466E+04  0.12699999809E+01 0. -1.
</event>
<event>
 5   0  0.1694830E-04  0.1883431E+04  0.7818609E-02  0.8663148E-01
       -1   -1    0    0    0  501  0.00000000000E+00  0.00000000000E+00  0.68491876012E+03  0.68491876014E+03  0.50400001928E-02 0.  1.
        1   -1    0    0  501    0  0.00000000000E+00  0.00000000000E+00 -0.12947934539E+04  0.12947934539E+04  0.50400001928E-02 0. -1.
    10030    2    1    2    0    0  0.00000000000E+00  0.00000000000E+00 -0.60987469378E+03  0.19797122140E+04  0.18834312593E+04 0.  0.
        1    1    3    3  502    0  0.43587057886E+03  0.12565554440E+02 -0.11822840061E+04  0.12601335349E+04  0.50400001928E-02 0. -1.
       -1    1    3    3    0  502 -0.43587057886E+03 -0.12565554440E+02  0.57240931231E+03  0.71957867917E+03  0.50400001928E-02 0.  1.
</event>
<event>
 5   0  0.3623359E-04  0.1899244E+04  0.7818609E-02  0.8655233E-01
       -2   -1    0    0    0  501  0.00000000000E+00  0.00000000000E+00  0.67089996156E+03  0.67089996156E+03  0.25500000920E-02 0. -1.
        2   -1    0    0  501    0  0.00000000000E+00  0.00000000000E+00 -0.13441377222E+04  0.13441377222E+04  0.25500000920E-02 0.  1.
    10030    2    1    2    0    0  0.00000000000E+00  0.00000000000E+00 -0.67323776066E+03  0.20150376838E+04  0.18992440035E+04 0.  0.
        5    1    3    3  502    0  0.21596238382E+03 -0.86944297614E+03 -0.24744704650E+01  0.89587892764E+03  0.46999998093E+01 0. -1.
       -5    1    3    3    0  502 -0.21596238382E+03  0.86944297614E+03 -0.67076329020E+03  0.11191587561E+04  0.46999998093E+01 0.  1.
</event>
<event>
 5   0  0.1813834E-04  0.1882084E+04  0.7818609E-02  0.8663826E-01
       -1   -1    0    0    0  501  0.00000000000E+00  0.00000000000E+00  0.47982354148E+03  0.47982354151E+03  0.50400001928E-02 0. -1.
        1   -1    0    0  501    0  0.00000000000E+00  0.00000000000E+00 -0.18455955385E+04  0.18455955385E+04  0.50400001928E-02 0.  1.
    10030    2    1    2    0    0  0.00000000000E+00  0.00000000000E+00 -0.13657719970E+04  0.23254190800E+04  0.18820841506E+04 0.  0.
        5    1    3    3  502    0  0.55268633525E+03  0.74385365236E+03 -0.88499526628E+03  0.12814129516E+04  0.46999998093E+01 0.  1.
       -5    1    3    3    0  502 -0.55268633525E+03 -0.74385365236E+03 -0.48077673076E+03  0.10440061284E+04  0.46999998093E+01 0. -1.
</event>
<event>
 5   0  0.3459485E-04  0.2024589E+04  0.7818609E-02  0.8595210E-01
       -2   -1    0    0    0  501  0.00000000000E+00  0.00000000000E+00  0.11268506812E+04  0.11268506812E+04  0.25500000920E-02 0.  1.
        2   -1    0    0  501    0  0.00000000000E+00  0.00000000000E+00 -0.90938429953E+03  0.90938429953E+03  0.25500000920E-02 0. -1.
    10030    2    1    2    0    0  0.00000000000E+00  0.00000000000E+00  0.21746638170E+03  0.20362349808E+04  0.20245891607E+04 0.  0.
        3    1    3    3  502    0 -0.25281308129E+03  0.53195227875E+03 -0.71932074946E+03  0.92968275866E+03  0.10100000352E+00 0. -1.
       -3    1    3    3    0  502  0.25281308129E+03 -0.53195227875E+03  0.93678713116E+03  0.11065522221E+04  0.10100000352E+00 0.  1.
</event>
<event>
 5   0  0.1758946E-04  0.1222005E+04  0.7818609E-02  0.9093811E-01
       -1   -1    0    0    0  501  0.00000000000E+00  0.00000000000E+00  0.64553493123E+03  0.64553493125E+03  0.50400001928E-02 0. -1.
        1   -1    0    0  501    0  0.00000000000E+00  0.00000000000E+00 -0.57831714439E+03  0.57831714441E+03  0.50400001928E-02 0.  1.
    10030    2    1    2    0    0  0.00000000000E+00  0.00000000000E+00  0.67217786845E+02  0.12238520757E+04  0.12220047759E+04 0.  0.
        2    1    3    3  502    0  0.25696752695E+03  0.53570224087E+03 -0.10913627482E+03  0.60408602638E+03  0.25500000920E-02 0.  1.
       -2    1    3    3    0  502 -0.25696752695E+03 -0.53570224087E+03  0.17635406167E+03  0.61976604929E+03  0.25500000920E-02 0. -1.
</event>
<event>
 5   0  0.1711979E-04  0.1870632E+04  0.7818609E-02  0.8669614E-01
        1   -1    0    0  501    0  0.00000000000E+00  0.00000000000E+00  0.16583622794E+04  0.16583622794E+04  0.50400001928E-02 0. -1.
       -1   -1    0    0    0  501  0.00000000000E+00  0.00000000000E+00 -0.52751821550E+03  0.52751821553E+03  0.50400001928E-02 0.  1.
    10030    2    1    2    0    0  0.00000000000E+00  0.00000000000E+00  0.11308440638E+04  0.21858804949E+04  0.18706323105E+04 0.  0.
        4    1    3    3  502    0 -0.93005161586E+03  0.11162556490E+02  0.68047330539E+03  0.11524609074E+04  0.12699999809E+01 0.  1.
       -4    1    3    3    0  502  0.93005161586E+03 -0.11162556490E+02  0.45037075846E+03  0.10334195875E+04  0.12699999809E+01 0. -1.
</event>
<event>
 5   0  0.1694830E-04  0.1876732E+04  0.7818609E-02  0.8666526E-01
       -1   -1    0    0    0  501  0.00000000000E+00  0.00000000000E+00  0.43745998718E+03  0.43745998721E+03  0.50400001928E-02 0. -1.
        1   -1    0    0  501    0  0.00000000000E+00  0.00000000000E+00 -0.20128262831E+04  0.20128262831E+04  0.50400001928E-02 0.  1.
    10030    2    1    2    0    0  0.00000000000E+00  0.00000000000E+00 -0.15753662959E+04  0.24502862703E+04  0.18767322239E+04 0.  0.
        1    1    3    3  502    0 -0.59901613640E+02  0.53280012521E+03  0.21778036650E+03  0.57869894141E+03  0.50400001928E-02 0. -1.
       -1    1    3    3    0  502  0.59901613640E+02 -0.53280012521E+03 -0.17931466624E+04  0.18715873289E+04  0.50400001928E-02 0.  1.
</event>
<event>
 5   0  0.1711979E-04  0.1943851E+04  0.7818609E-02  0.8633332E-01
        1   -1    0    0  501    0  0.00000000000E+00  0.00000000000E+00  0.68581293952E+03  0.68581293954E+03  0.50400001928E-02 0.  1.
       -1   -1    0    0    0  501  0.00000000000E+00  0.00000000000E+00 -0.13774005755E+04  0.13774005755E+04  0.50400001928E-02 0. -1.
    10030    2    1    2    0    0  0.00000000000E+00  0.00000000000E+00 -0.69158763601E+03  0.20632135151E+04  0.19438509589E+04 0.  0.
        4    1    3    3  502    0  0.40653917963E+03 -0.61947823498E+03 -0.10133916478E+04  0.12553850537E+04  0.12699999809E+01 0. -1.
       -4    1    3    3    0  502 -0.40653917963E+03  0.61947823498E+03  0.32180401180E+03  0.80782846143E+03  0.12699999809E+01 0.  1.
</event>
<event>
 5   0  0.3535876E-04  0.1912808E+04  0.7818609E-02  0.8648507E-01
       -2   -1    0    0    0  501  0.00000000000E+00  0.00000000000E+00  0.62011242624E+03  0.62011242625E+03  0.25500000920E-02 0. -1.
        2   -1    0    0  501    0  0.00000000000E+00  0.00000000000E+00 -0.14750695793E+04  0.14750695793E+04  0.25500000920E-02 0.  1.
    10030    2    1    2    0    0  0.00000000000E+00  0.00000000000E+00 -0.85495715302E+03  0.20951820055E+04  0.19128083811E+04 0.  0.
        2    1    3    3  502    0  0.24228767977E+03 -0.35393069375E+03 -0.13638137749E+04  0.14296706853E+04  0.25500000920E-02 0.  1.
       -2    1    3    3    0  502 -0.24228767977E+03  0.35393069375E+03  0.50885662187E+03  0.66551132024E+03  0.25500000920E-02 0. -1.
</event>
<event>
 5   0  0.3720978E-04  0.1928115E+04  0.7818609E-02  0.8640987E-01
        2   -1    0    0  501    0  0.00000000000E+00  0.00000000000E+00  0.16975302471E+04  0.16975302471E+04  0.25500000920E-02 0. -1.
       -2   -1    0    0    0  501  0.00000000000E+00  0.00000000000E+00 -0.54750524834E+03  0.54750524835E+03  0.25500000920E-02 0.  1.
    10030    2    1    2    0    0  0.00000000000E+00  0.00000000000E+00  0.11500249988E+04  0.22450354955E+04  0.19281148508E+04 0.  0.
        1    1    3    3  502    0 -0.27548244258E+03 -0.44350694639E+03  0.15186664155E+04  0.16059068059E+04  0.50400001928E-02 0. -1.
       -1    1    3    3    0  502  0.27548244258E+03  0.44350694639E+03 -0.36864141673E+03  0.63912868955E+03  0.50400001928E-02 0.  1.
</event>
<event>
 5   0  0.3459485E-04  0.1912599E+04  0.7818609E-02  0.8648610E-01
       -2   -1    0    0    0  501  0.00000000000E+00  0.00000000000E+00  0.86344784297E+03  0.86344784297E+03  0.25500000920E-02 0.  1.
        2   -1    0    0  501    0  0.00000000000E+00  0.00000000000E+00 -0.10591363660E+04  0.10591363660E+04  0.25500000920E-02 0. -1.
    10030    2    1    2    0    0  0.00000000000E+00  0.00000000000E+00 -0.19568852299E+03  0.19225842089E+04  0.19125992896E+04 0.  0.
        3    1    3    3  502    0  0.79189709867E+03 -0.43380648541E+03 -0.41448064337E+03  0.99352065685E+03  0.10100000352E+00 0. -1.
       -3    1    3    3    0  502 -0.79189709867E+03  0.43380648541E+03  0.21879212038E+03  0.92906355208E+03  0.10100000352E+00 0.  1.
</event>
<event>
 5   0  0.3720978E-04  0.1987130E+04  0.7818609E-02  0.8612661E-01
       -2   -1    0    0    0  501  0.00000000000E+00  0.00000000000E+00  0.44926697210E+03  0.44926697211E+03  0.25500000920E-02 0.  1.
        2   -1    0    0  501    0  0.00000000000E+00  0.00000000000E+00 -0.21972942425E+04  0.21972942426E+04  0.25500000920E-02 0. -1.
    10030    2    1    2    0    0  0.00000000000E+00  0.00000000000E+00 -0.17480272704E+04  0.26465612147E+04  0.19871303240E+04 0.  0.
        1    1    3    3  502    0 -0.44213434207E+03  0.47284639177E+03  0.12983906623E+03  0.66024591615E+03  0.50400001928E-02 0.  1.
       -1    1    3    3    0  502  0.44213434207E+03 -0.47284639177E+03 -0.18778663367E+04  0.19863152985E+04  0.50400001928E-02 0. -1.
</event>
<event>
 5   0  0.3516539E-04  0.1889913E+04  0.7818609E-02  0.8659893E-01
        2   -1    0    0  501    0  0.00000000000E+00  0.00000000000E+00  0.98032821392E+03  0.98032821392E+03  0.25500000920E-02 0. -1.
       -2   -1    0    0    0  501  0.00000000000E+00  0.00000000000E+00 -0.91086143109E+03  0.91086143110E+03  0.25500000920E-02 0.  1.
    10030    2    1    2    0    0  0.00000000000E+00  0.00000000000E+00  0.69466782824E+02  0.18911896450E+04  0.18899133947E+04 0.  0.
        4    1    3    3  502    0 -0.52310400815E+03  0.78893496969E+02 -0.74878933275E+03  0.91681462954E+03  0.12699999809E+01 0.  1.
       -4    1    3    3    0  502  0.52310400815E+03 -0.78893496969E+02  0.81825611557E+03  0.97437501547E+03  0.12699999809E+01 0. -1.
</event>
<event>
 5   0  0.1782613E-04  0.1902265E+04  0.7818609E-02  0.8653730E-01
       -1   -1    0    0    0  501  0.00000000000E+00  0.00000000000E+00  0.65632109077E+03  0.65632109079E+03  0.50400001928E-02 0.  1.
        1   -1    0    0  501    0  0.00000000000E+00  0.00000000000E+00 -0.13783692132E+04  0.13783692132E+04  0.50400001928E-02 0. -1.
    10030    2    1    2    0    0  0.00000000000E+00  0.00000000000E+00 -0.72204812240E+03  0.20346903040E+04  0.19022647403E+04 0.  0.
        3    1    3    3  502    0  0.61028926258E+03 -0.65466483341E+03 -0.16724834260E+02  0.89516409580E+03  0.10100000352E+00 0.  1.
       -3    1    3    3    0  502 -0.61028926258E+03  0.65466483341E+03 -0.70532328814E+03  0.11395262082E+04  0.10100000352E+00 0. -1.
</event>
<event>
 5   0  0.1694830E-04  0.2006567E+04  0.7818609E-02  0.8603557E-01
       -1   -1    0    0    0  501  0.00000000000E+00  0.00000000000E+00  0.58074319835E+03  0.58074319837E+03  0.50400001928E-02 0. -1.
        1   -1    0    0  501    0  0.00000000000E+00  0.00000000000E+00 -0.17332575056E+04  0.17332575056E+04  0.50400001928E-02 0.  1.
    10030    2    1    2    0    0  0.00000000000E+00  0.00000000000E+00 -0.11525143072E+04  0.23140007040E+04  0.20065667269E+04 0.  0.
        1    1    3    3  502    0 -0.51202052566E+03  0.34720078536E+03  0.33460965919E+03  0.70333280039E+03  0.50400001928E-02 0. -1.
       -1    1    3    3    0  502  0.51202052566E+03 -0.34720078536E+03 -0.14871239664E+04  0.16106679036E+04  0.50400001928E-02 0.  1.
</event>
<event>
 5   0  0.1287000E-04  0.1874454E+04  0.7818609E-02  0.8667678E-01
       -3   -1    0    0    0  501  0.00000000000E+00  0.00000000000E+00  0.62843053413E+03  0.62843054224E+03  0.10100000352E+00 0.  1.
        3   -1    0    0  501    0  0.00000000000E+00  0.00000000000E+00 -0.13977591794E+04  0.13977591830E+04  0.10100000352E+00 0. -1.
    10030    2    1    2    0    0  0.00000000000E+00  0.00000000000E+00 -0.76932864526E+03  0.20261897253E+04  0.18744541174E+04 0.  0.
        2    1    3    3  502    0  0.41092456560E+03  0.28299998576E+03  0.47293559327E+03  0.68747077461E+03  0.25500000920E-02 0.  1.
       -2    1    3    3    0  502 -0.41092456560E+03 -0.28299998576E+03 -0.12422642385E+04  0.13387189507E+04  0.25500000920E-02 0. -1.
</event>
<event>
 5   0  0.1694830E-04  0.1925169E+04  0.7818609E-02  0.8642429E-01
        1   -1    0    0  501    0  0.00000000000E+00  0.00000000000E+00  0.18261325654E+04  0.18261325654E+04  0.50400001928E-02 0. -1.
       -1   -1    0    0    0  501  0.00000000000E+00  0.00000000000E+00 -0.50739400996E+03  0.50739400998E+03  0.50400001928E-02 0.  1.
    10030    2    1    2    0    0  0.00000000000E+00  0.00000000000E+00  0.13187385554E+04  0.23335265754E+04  0.19251687979E+04 0.  0.
        1    1    3    3  502    0  0.67153232937E+03 -0.74685654562E+02  0.14903847047E+04  0.16363924298E+04  0.50400001928E-02 0. -1.
       -1    1    3    3    0  502 -0.67153232937E+03  0.74685654562E+02 -0.17164614922E+03  0.69713414559E+03  0.50400001928E-02 0.  1.
</event>
<event>
 5   0  0.1711979E-04  0.1886235E+04  0.7818609E-02  0.8661739E-01
       -1   -1    0    0    0  501  0.00000000000E+00  0.00000000000E+00  0.11316581693E+04  0.11316581693E+04  0.50400001928E-02 0.  1.
        1   -1    0    0  501    0  0.00000000000E+00  0.00000000000E+00 -0.78598877808E+03  0.78598877809E+03  0.50400001928E-02 0. -1.
    10030    2    1    2    0    0  0.00000000000E+00  0.00000000000E+00  0.34566939126E+03  0.19176469474E+04  0.18862350031E+04 0.  0.
        4    1    3    3  502    0 -0.75430998717E+03 -0.56339763621E+03  0.11651765135E+03  0.94867192917E+03  0.12699999809E+01 0. -1.
       -4    1    3    3    0  502  0.75430998717E+03  0.56339763621E+03  0.22915173991E+03  0.96897501827E+03  0.12699999809E+01 0.  1.
</event>
<event>
 5   0  0.1782613E-04  0.1871871E+04  0.7818609E-02  0.8668986E-01
        1   -1    0    0  501    0  0.00000000000E+00  0.00000000000E+00  0.73538428704E+03  0.73538428705E+03  0.50400001928E-02 0.  1.
       -1   -1    0    0    0  501  0.00000000000E+00  0.00000000000E+00 -0.11911803161E+04  0.11911803161E+04  0.50400001928E-02 0. -1.
    10030    2    1    2    0    0  0.00000000000E+00  0.00000000000E+00 -0.45579602905E+03  0.19265646032E+04  0.18718710292E+04 0.  0.
        3    1    3    3  502    0  0.74152528471E+02  0.21870910428E+03  0.70559991533E+03  0.74243081865E+03  0.10100000352E+00 0.  1.
       -3    1    3    3    0  502 -0.74152528471E+02 -0.21870910428E+03 -0.11613959444E+04  0.11841337845E+04  0.10100000352E+00 0. -1.
</event>
<event>
 5   0  0.3516539E-04  0.1906315E+04  0.7818609E-02  0.8651719E-01
        2   -1    0    0  501    0  0.00000000000E+00  0.00000000000E+00  0.13268524662E+04  0.13268524662E+04  0.25500000920E-02 0. -1.
       -2   -1    0    0    0  501  0.00000000000E+00  0.00000000000E+00 -0.68471026197E+03  0.68471026197E+03  0.25500000920E-02 0.  1.
    10030    2    1    2    0    0  0.00000000000E+00  0.00000000000E+00  0.64214220425E+03  0.20115627282E+04  0.19063152937E+04 0.  0.
        4    1    3    3  502    0  0.60879121607E+02  0.73311738717E+03 -0.31847707271E+03  0.80162125069E+03  0.12699999809E+01 0.  1.
       -4    1    3    3    0  502 -0.60879121607E+02 -0.73311738717E+03  0.96061927696E+03  0.12099414775E+04  0.12699999809E+01 0. -1.
</event>
<event>
 5   0  0.1758946E-04  0.1902137E+04  0.7818609E-02  0.8653793E-01
       -1   -1    0    0    0  501  0.00000000000E+00  0.00000000000E+00  0.13323473510E+04  0.13323473510E+04  0.50400001928E-02 0. -1.
        1   -1    0    0  501    0  0.00000000000E+00  0.00000000000E+00 -0.67890084579E+03  0.67890084581E+03  0.50400001928E-02 0.  1.
    10030    2    1    2    0    0  0.00000000000E+00  0.00000000000E+00  0.65344650520E+03  0.20112481968E+04  0.19021374751E+04 0.  0.
        2    1    3    3  502    0 -0.17676509966E+03 -0.36834166379E+03 -0.58138420212E+03  0.71058361381E+03  0.25500000920E-02 0.  1.
       -2    1    3    3    0  502  0.17676509966E+03  0.36834166379E+03  0.12348307073E+04  0.13006645830E+04  0.25500000920E-02 0. -1.
</event>
<event>
 5   0  0.1782613E-04  0.1827480E+04  0.7818609E-02  0.8691821E-01
       -1   -1    0    0    0  501  0.00000000000E+00  0.00000000000E+00  0.10205090980E+04  0.10205090980E+04  0.50400001928E-02 0.  1.
        1   -1    0    0  501    0  0.00000000000E+00  0.00000000000E+00 -0.81814170725E+03  0.81814170727E+03  0.50400001928E-02 0. -1.
    10030    2    1    2    0    0  0.00000000000E+00  0.00000000000E+00  0.20236739072E+03  0.18386508053E+04  0.18274802934E+04 0.  0.
        3    1    3    3  502    0 -0.41730482042E+03  0.29063720572E+02  0.91851190281E+03  0.10092829825E+04  0.10100000352E+00 0.  1.
       -3    1    3    3    0  502  0.41730482042E+03 -0.29063720572E+02 -0.71614451208E+03  0.82936782274E+03  0.10100000352E+00 0. -1.
</event>
<event>
 5   0  0.3623359E-04  0.1938197E+04  0.7818609E-02  0.8636074E-01
        2   -1    0    0  501    0  0.00000000000E+00  0.00000000000E+00  0.81943377394E+03  0.81943377394E+03  0.25500000920E-02 0. -1.
       -2   -1    0    0    0  501  0.00000000000E+00  0.00000000000E+00 -0.11460983045E+04  0.11460983045E+04  0.25500000920E-02 0.  1.
    10030    2    1    2    0    0  0.00000000000E+00  0.00000000000E+00 -0.32666453056E+03  0.19655320784E+04  0.19381967485E+04 0.  0.
        5    1    3    3  502    0  0.31846860232E+03  0.84229267764E+03  0.19983908252E+03  0.92240823629E+03  0.46999998093E+01 0. -1.
       -5    1    3    3    0  502 -0.31846860232E+03 -0.84229267764E+03 -0.52650361308E+03  0.10431238421E+04  0.46999998093E+01 0.  1.
</event>
<event>
 5   0  0.1758946E-04  0.1855506E+04  0.7818609E-02  0.8677326E-01
        1   -1    0    0  501    0  0.00000000000E+00  0.00000000000E+00  0.11509871133E+04  0.11509871133E+04  0.50400001928E-02 0.  1.
       -1   -1    0    0    0  501  0.00000000000E+00  0.00000000000E+00 -0.74781520167E+03  0.74781520168E+03  0.50400001928E-02 0. -1.
    10030    2    1    2    0    0  0.00000000000E+00  0.00000000000E+00  0.40317191163E+03  0.18988023150E+04  0.18555060337E+04 0.  0.
        2    1    3    3  502    0  0.30677567157E+03 -0.54725587136E+03  0.90099960576E+03  0.10979073690E+04  0.25500000920E-02 0.  1.
       -2    1    3    3    0  502 -0.30677567157E+03  0.54725587136E+03 -0.49782769413E+03  0.80089494595E+03  0.25500000920E-02 0. -1.
</event>
<event>
 5   0  0.1813834E-04  0.1902633E+04  0.7818609E-02  0.8653547E-01
       -1   -1    0    0    0  501  0.00000000000E+00  0.00000000000E+00  0.58542303459E+03  0.58542303461E+03  0.50400001928E-02 0.  1.
        1   -1    0    0  501    0  0.00000000000E+00  0.00000000000E+00 -0.15458955133E+04  0.15458955133E+04  0.50400001928E-02 0. -1.
    10030    2    1    2    0    0  0.00000000000E+00  0.00000000000E+00 -0.96047247870E+03  0.21313185479E+04  0.19026327471E+04 0.  0.
        5    1    3    3  502    0 -0.60094706290E+03  0.60806638827E+03 -0.94763880925E+03  0.12762928769E+04  0.46999998093E+01 0. -1.
       -5    1    3    3    0  502  0.60094706290E+03 -0.60806638827E+03 -0.12833669456E+02  0.85502567097E+03  0.46999998093E+01 0.  1.
</event>
<event>
 5   0  0.1813834E-04  0.1889624E+04  0.7818609E-02  0.8660038E-01
        1   -1    0    0  501    0  0.00000000000E+00  0.00000000000E+00  0.11444974088E+04  0.11444974089E+04  0.50400001928E-02 0. -1.
       -1   -1    0    0    0  501  0.00000000000E+00  0.00000000000E+00 -0.77996664806E+03  0.77996664808E+03  0.50400001928E-02 0.  1.
    10030    2    1    2    0    0  0.00000000000E+00  0.00000000000E+00  0.36453076079E+03  0.19244640569E+04  0.18896240978E+04 0.  0.
        5    1    3    3  502    0 -0.64598445264E+03 -0.48039492443E+03 -0.32139549482E+03  0.86682890501E+03  0.46999998093E+01 0.  1.
       -5    1    3    3    0  502  0.64598445264E+03  0.48039492443E+03  0.68592625561E+03  0.10576351519E+04  0.46999998093E+01 0. -1.
</event>
<event>
 5   0  0.3535876E-04  0.1938389E+04  0.7818609E-02  0.8635980E-01
       -2   -1    0    0    0  501  0.00000000000E+00  0.00000000000E+00  0.71305986891E+03  0.71305986891E+03  0.25500000920E-02 0. -1.
        2   -1    0    0  501    0  0.00000000000E+00  0.00000000000E+00 -0.13173340110E+04  0.13173340110E+04  0.25500000920E-02 0.  1.
    10030    2    1    2    0    0  0.00000000000E+00  0.00000000000E+00 -0.60427414204E+03  0.20303938799E+04  0.19383890396E+04 0.  0.
        2    1    3    3  502    0 -0.76160055400E+03  0.45197597265E+03  0.11027719863E+03  0.89245657836E+03  0.25500000920E-02 0.  1.
       -2    1    3    3    0  502  0.76160055400E+03 -0.45197597265E+03 -0.71455134067E+03  0.11379373015E+04  0.25500000920E-02 0. -1.
</event>
<event>
 5   0  0.3535876E-04  0.1953724E+04  0.7818609E-02  0.8628567E-01
       -2   -1    0    0    0  501  0.00000000000E+00  0.00000000000E+00  0.17497062564E+04  0.17497062564E+04  0.25500000920E-02 0. -1.
        2   -1    0    0  501    0  0.00000000000E+00  0.00000000000E+00 -0.54538280457E+03  0.54538280458E+03  0.25500000920E-02 0.  1.
    10030    2    1    2    0    0  0.00000000000E+00  0.00000000000E+00  0.12043234518E+04  0.22950890610E+04  0.19537243463E+04 0.  0.
        2    1    3    3  502    0  0.94290098232E+03 -0.19543228754E+03  0.40912159613E+03  0.10462487859E+04  0.25500000920E-02 0.  1.
       -2    1    3    3    0  502 -0.94290098232E+03  0.19543228754E+03  0.79520185571E+03  0.12488402751E+04  0.25500000920E-02 0. -1.
</event>
<event>
 5   0  0.3623359E-04  0.1938084E+04  0.7818609E-02  0.8636129E-01
        2   -1    0    0  501    0  0.00000000000E+00  0.00000000000E+00  0.78379557339E+03  0.78379557339E+03  0.25500000920E-02 0.  1.
       -2   -1    0    0    0  501  0.00000000000E+00  0.00000000000E+00 -0.11980700039E+04  0.11980700039E+04  0.25500000920E-02 0. -1.
    10030    2    1    2    0    0  0.00000000000E+00  0.00000000000E+00 -0.41427443048E+03  0.19818655773E+04  0.19380835541E+04 0.  0.
        5    1    3    3  502    0 -0.83810293355E+03 -0.30814730801E+03 -0.59200168420E+03  0.10713819929E+04  0.46999998093E+01 0. -1.
       -5    1    3    3    0  502  0.83810293355E+03  0.30814730801E+03  0.17772725372E+03  0.91048358435E+03  0.46999998093E+01 0.  1.
</event>
<event>
 5   0  0.3516539E-04  0.1894460E+04  0.7818609E-02  0.8657619E-01
       -2   -1    0    0    0  501  0.00000000000E+00  0.00000000000E+00  0.46128849042E+03  0.46128849043E+03  0.25500000920E-02 0.  1.
        2   -1    0    0  501    0  0.00000000000E+00  0.00000000000E+00 -0.19450836853E+04  0.19450836853E+04  0.25500000920E-02 0. -1.
    10030    2    1    2    0    0  0.00000000000E+00  0.00000000000E+00 -0.14837951948E+04  0.24063721757E+04  0.18944600465E+04 0.  0.
        4    1    3    3  502    0 -0.52802907262E+03  0.35961704917E+03  0.14643979961E+03  0.65542760958E+03  0.12699999809E+01 0.  1.
       -4    1    3    3    0  502  0.52802907262E+03 -0.35961704917E+03 -0.16302349944E+04  0.17509445661E+04  0.12699999809E+01 0. -1.
</event>
<event>
 5   0  0.1694830E-04  0.1869356E+04  0.7818609E-02  0.8670262E-01
        1   -1    0    0  501    0  0.00000000000E+00  0.00000000000E+00  0.92087128012E+03  0.92087128013E+03  0.50400001928E-02 0. -1.
       -1   -1    0    0    0  501  0.00000000000E+00  0.00000000000E+00 -0.94869187113E+03  0.94869187114E+03  0.50400001928E-02 0.  1.
    10030    2    1    2    0    0  0.00000000000E+00  0.00000000000E+00 -0.27820591009E+02  0.18695631513E+04  0.18693561435E+04 0.  0.
        1    1    3    3  502    0  0.65661012842E+02  0.26381713097E+03 -0.90827564402E+03  0.94809044544E+03  0.50400001928E-02 0.  1.
       -1    1    3    3    0  502 -0.65661012842E+02 -0.26381713097E+03  0.88045505301E+03  0.92147270583E+03  0.50400001928E-02 0. -1.
</event>
<event>
 5   0  0.3516539E-04  0.1877963E+04  0.7818609E-02  0.8665904E-01
       -2   -1    0    0    0  501  0.00000000000E+00  0.00000000000E+00  0.11256578110E+04  0.11256578110E+04  0.25500000920E-02 0.  1.
        2   -1    0    0  501    0  0.00000000000E+00  0.00000000000E+00 -0.78326304588E+03  0.78326304589E+03  0.25500000920E-02 0. -1.
    10030    2    1    2    0    0  0.00000000000E+00  0.00000000000E+00  0.34239476514E+03  0.19089208569E+04  0.18779629024E+04 0.  0.
        4    1    3    3  502    0 -0.40791326214E+03  0.66326179015E+02  0.10282407079E+04  0.11081845323E+04  0.12699999809E+01 0.  1.
       -4    1    3    3    0  502  0.40791326214E+03 -0.66326179015E+02 -0.68584594274E+03  0.80073632459E+03  0.12699999809E+01 0. -1.
</event>
<event>
 5   0  0.1711979E-04  0.1923942E+04  0.7818609E-02  0.8643030E-01
       -1   -1    0    0    0  501  0.00000000000E+00  0.00000000000E+00  0.12023681945E+04  0.12023681945E+04  0.50400001928E-02 0.  1.
        1   -1    0    0  501    0  0.00000000000E+00  0.00000000000E+00 -0.76963769121E+03  0.76963769122E+03  0.50400001928E-02 0. -1.
    10030    2    1    2    0    0  0.00000000000E+00  0.00000000000E+00  0.43273050333E+03  0.19720058858E+04  0.19239416636E+04 0.  0.
        4    1    3    3  502    0 -0.66357896913E+03  0.21538032727E+03 -0.46249532565E+03  0.83703600448E+03  0.12699999809E+01 0. -1.
       -4    1    3    3    0  502  0.66357896913E+03 -0.21538032727E+03  0.89522582898E+03  0.11349698813E+04  0.12699999809E+01 0.  1.
</event>
<event>
 5   0  0.3720978E-04  0.1620327E+04  0.7818609E-02  0.8808157E-01
        2   -1    0    0  501    0  0.00000000000E+00  0.00000000000E+00  0.23691189045E+04  0.23691189045E+04  0.25500000920E-02 0. -1.
       -2   -1    0    0    0  501  0.00000000000E+00  0.00000000000E+00 -0.27705022637E+03  0.27705022638E+03  0.25500000920E-02 0.  1.
    10030    2    1    2    0    0  0.00000000000E+00  0.00000000000E+00  0.20920686781E+04  0.26461691309E+04  0.16203270396E+04 0.  0.
        1    1    3    3  502    0 -0.23037855024E+03  0.34975183592E+03 -0.86552062014E+02  0.42765860520E+03  0.50400001928E-02 0.  1.
       -1    1    3    3    0  502  0.23037855024E+03 -0.34975183592E+03  0.21786207401E+04  0.22185105257E+04  0.50400001928E-02 0. -1.
</event>
<event>
 5   0  0.1782613E-04  0.1898811E+04  0.7818609E-02  0.8655449E-01
        1   -1    0    0  501    0  0.00000000000E+00  0.00000000000E+00  0.77488828829E+03  0.77488828831E+03  0.50400001928E-02 0.  1.
       -1   -1    0    0    0  501  0.00000000000E+00  0.00000000000E+00 -0.11632264157E+04  0.11632264157E+04  0.50400001928E-02 0. -1.
    10030    2    1    2    0    0  0.00000000000E+00  0.00000000000E+00 -0.38833812745E+03  0.19381147041E+04  0.18988107080E+04 0.  0.
        3    1    3    3  502    0  0.31500777637E+03 -0.26554219341E+03 -0.10672267728E+04  0.11439910622E+04  0.10100000352E+00 0. -1.
       -3    1    3    3    0  502 -0.31500777637E+03  0.26554219341E+03  0.67888864531E+03  0.79412364188E+03  0.10100000352E+00 0.  1.
</event>
<event>
 5   0  0.3459485E-04  0.1849105E+04  0.7818609E-02  0.8680613E-01
        2   -1    0    0  501    0  0.00000000000E+00  0.00000000000E+00  0.17460326858E+04  0.17460326858E+04  0.25500000920E-02 0.  1.
       -2   -1    0    0    0  501  0.00000000000E+00  0.00000000000E+00 -0.48956570178E+03  0.48956570178E+03  0.25500000920E-02 0. -1.
    10030    2    1    2    0    0  0.00000000000E+00  0.00000000000E+00  0.12564669840E+04  0.22355983875E+04  0.18491054239E+04 0.  0.
        3    1    3    3  502    0 -0.56957331588E+03  0.12018640322E+03  0.14966565915E+04  0.16058765510E+04  0.10100000352E+00 0.  1.
       -3    1    3    3    0  502  0.56957331588E+03 -0.12018640322E+03 -0.24018960757E+03  0.62972183658E+03  0.10100000352E+00 0. -1.
</event>
<event>
 5   0  0.1813834E-04  0.1792175E+04  0.7818609E-02  0.8710472E-01
       -1   -1    0    0    0  501  0.00000000000E+00  0.00000000000E+00  0.45800115296E+03  0.45800115299E+03  0.50400001928E-02 0.  1.
        1   -1    0    0  501    0  0.00000000000E+00  0.00000000000E+00 -0.17532122164E+04  0.17532122164E+04  0.50400001928E-02 0. -1.
    10030    2    1    2    0    0  0.00000000000E+00  0.00000000000E+00 -0.12952110635E+04  0.22112133694E+04  0.17921754563E+04 0.  0.
        5    1    3    3  502    0  0.43650182092E+03 -0.14177609743E+02 -0.16129950163E+04  0.16710804460E+04  0.46999998093E+01 0. -1.
       -5    1    3    3    0  502 -0.43650182092E+03  0.14177609743E+02  0.31778395286E+03  0.54013292343E+03  0.46999998093E+01 0.  1.
</event>
<event>
 5   0  0.3720978E-04  0.1932519E+04  0.7818609E-02  0.8638837E-01
       -2   -1    0    0    0  501  0.00000000000E+00  0.00000000000E+00  0.41779013654E+03  0.41779013655E+03  0.25500000920E-02 0. -1.
        2   -1    0    0  501    0  0.00000000000E+00  0.00000000000E+00 -0.22347510428E+04  0.22347510428E+04  0.25500000920E-02 0.  1.
    10030    2    1    2    0    0  0.00000000000E+00  0.00000000000E+00 -0.18169609062E+04  0.26525411793E+04  0.19325185053E+04 0.  0.
        1    1    3    3  502    0  0.16199622696E+03  0.76682398785E+02  0.39477491564E+03  0.43355530429E+03  0.50400001928E-02 0. -1.
       -1    1    3    3    0  502 -0.16199622696E+03 -0.76682398785E+02 -0.22117358219E+04  0.22189858750E+04  0.50400001928E-02 0.  1.
</event>
<event>
 5   0  0.3459485E-04  0.1865063E+04  0.7818609E-02  0.8672445E-01
       -2   -1    0    0    0  501  0.00000000000E+00  0.00000000000E+00  0.39652013407E+03  0.39652013408E+03  0.25500000920E-02 0. -1.
        2   -1    0    0  501    0  0.00000000000E+00  0.00000000000E+00 -0.21931178811E+04  0.21931178811E+04  0.25500000920E-02 0.  1.
    10030    2    1    2    0    0  0.00000000000E+00  0.00000000000E+00 -0.17965977470E+04  0.25896380152E+04  0.18650634265E+04 0.  0.
        3    1    3    3  502    0  0.67430950114E+02 -0.61579609664E+03 -0.18661368229E+04  0.19662701792E+04  0.10100000352E+00 0.  1.
       -3    1    3    3    0  502 -0.67430950114E+02  0.61579609664E+03  0.69539075856E+02  0.62336783599E+03  0.10100000352E+00 0. -1.
</event>
<event>
 5   0  0.1287000E-04  0.1873997E+04  0.7818609E-02  0.8667909E-01
        3   -1    0    0  501    0  0.00000000000E+00  0.00000000000E+00  0.68570860023E+03  0.68570860767E+03  0.10100000352E+00 0.  1.
       -3   -1    0    0    0  501  0.00000000000E+00  0.00000000000E+00 -0.12803785501E+04  0.12803785541E+04  0.10100000352E+00 0. -1.
    10030    2    1    2    0    0  0.00000000000E+00  0.00000000000E+00 -0.59466994990E+03  0.19660871618E+04  0.18739974329E+04 0.  0.
        2    1    3    3  502    0  0.73024177458E+03  0.58071120970E+03 -0.20654921302E+03  0.95558418563E+03  0.25500000920E-02 0. -1.
       -2    1    3    3    0  502 -0.73024177458E+03 -0.58071120970E+03 -0.38812073688E+03  0.10105029762E+04  0.25500000920E-02 0.  1.
</event>
<event>
 5   0  0.1711979E-04  0.2123283E+04  0.7818609E-02  0.8551056E-01
        1   -1    0    0  501    0  0.00000000000E+00  0.00000000000E+00  0.12865357815E+04  0.12865357815E+04  0.50400001928E-02 0. -1.
       -1   -1    0    0    0  501  0.00000000000E+00  0.00000000000E+00 -0.87606040234E+03  0.87606040235E+03  0.50400001928E-02 0.  1.
    10030    2    1    2    0    0  0.00000000000E+00  0.00000000000E+00  0.41047537917E+03  0.21625961839E+04  0.21232833578E+04 0.  0.
        4    1    3    3  502    0 -0.98776265918E+03 -0.11139545353E+03  0.58496414179E+03  0.11533727403E+04  0.12699999809E+01 0.  1.
       -4    1    3    3    0  502  0.98776265918E+03  0.11139545353E+03 -0.17448876261E+03  0.10092234436E+04  0.12699999809E+01 0. -1.
</event>
<event>
 5   0  0.1758946E-04  0.1889683E+04  0.7818609E-02  0.8660009E-01
       -1   -1    0    0    0  501  0.00000000000E+00  0.00000000000E+00  0.75336104038E+03  0.75336104039E+03  0.50400001928E-02 0.  1.
        1   -1    0    0  501    0  0.00000000000E+00  0.00000000000E+00 -0.11849898093E+04  0.11849898093E+04  0.50400001928E-02 0. -1.
    10030    2    1    2    0    0  0.00000000000E+00  0.00000000000E+00 -0.43162876895E+03  0.19383508497E+04  0.18896826777E+04 0.  0.
        2    1    3    3  502    0 -0.51701788928E+03  0.45376394300E+03 -0.88019620661E+03  0.11171188728E+04  0.25500000920E-02 0. -1.
       -2    1    3    3    0  502  0.51701788928E+03 -0.45376394300E+03  0.44856743766E+03  0.82123197694E+03  0.25500000920E-02 0.  1.
</event>
<event>
 5   0  0.3516539E-04  0.1925286E+04  0.7818609E-02  0.8642371E-01
       -2   -1    0    0    0  501  0.00000000000E+00  0.00000000000E+00  0.40355696892E+03  0.40355696893E+03  0.25500000920E-02 0.  1.
        2   -1    0    0  501    0  0.00000000000E+00  0.00000000000E+00 -0.22962843501E+04  0.22962843501E+04  0.25500000920E-02 0. -1.
    10030    2    1    2    0    0  0.00000000000E+00  0.00000000000E+00 -0.18927273812E+04  0.26998413190E+04  0.19252860069E+04 0.  0.
        4    1    3    3  502    0 -0.96218580051E+03  0.28578184740E+02 -0.93534760357E+03  0.13421978169E+04  0.12699999809E+01 0. -1.
       -4    1    3    3    0  502  0.96218580051E+03 -0.28578184740E+02 -0.95737977760E+03  0.13576435021E+04  0.12699999809E+01 0.  1.
</event>
<event>
 5   0  0.3720978E-04  0.1618878E+04  0.7818609E-02  0.8809034E-01
        2   -1    0    0  501    0  0.00000000000E+00  0.00000000000E+00  0.20997276694E+04  0.20997276694E+04  0.25500000920E-02 0.  1.
       -2   -1    0    0    0  501  0.00000000000E+00  0.00000000000E+00 -0.31203645721E+03  0.31203645722E+03  0.25500000920E-02 0. -1.
    10030    2    1    2    0    0  0.00000000000E+00  0.00000000000E+00  0.17876912122E+04  0.24117641266E+04  0.16188781091E+04 0.  0.
        1    1    3    3  502    0 -0.63824216339E+03 -0.47985453450E+03  0.10913638697E+04  0.13522901055E+04  0.50400001928E-02 0.  1.
       -1    1    3    3    0  502  0.63824216339E+03  0.47985453450E+03  0.69632734246E+03  0.10594740211E+04  0.50400001928E-02 0. -1.
</event>
<event>
 5   0  0.1694830E-04  0.1951566E+04  0.7818609E-02  0.8629606E-01
        1   -1    0    0  501    0  0.00000000000E+00  0.00000000000E+00  0.13821593229E+04  0.13821593229E+04  0.50400001928E-02 0. -1.
       -1   -1    0    0    0  501  0.00000000000E+00  0.00000000000E+00 -0.68888783675E+03  0.68888783677E+03  0.50400001928E-02 0.  1.
    10030    2    1    2    0    0  0.00000000000E+00  0.00000000000E+00  0.69327148615E+03  0.20710471597E+04  0.19515662900E+04 0.  0.
        1    1    3    3  502    0  0.26387924765E+03  0.33835972769E+03  0.12766651325E+04  0.13468457310E+04  0.50400001928E-02 0. -1.
       -1    1    3    3    0  502 -0.26387924765E+03 -0.33835972769E+03 -0.58339364633E+03  0.72420142866E+03  0.50400001928E-02 0.  1.
</event>
<event>
 5   0  0.3623359E-04  0.1897981E+04  0.7818609E-02  0.8655862E-01
        2   -1    0    0  501    0  0.00000000000E+00  0.00000000000E+00  0.99732175566E+03  0.99732175566E+03  0.25500000920E-02 0.  1.
       -2   -1    0    0    0  501  0.00000000000E+00  0.00000000000E+00 -0.90300099406E+03  0.90300099406E+03  0.25500000920E-02 0. -1.
    10030    2    1    2    0    0  0.00000000000E+00  0.00000000000E+00  0.94320761603E+02  0.19003227497E+04  0.18979805444E+04 0.  0.
        5    1    3    3  502    0 -0.53530536052E+03 -0.15830685600E+03  0.81553661479E+03  0.98829901837E+03  0.46999998093E+01 0.  1.
       -5    1    3    3    0  502  0.53530536052E+03  0.15830685600E+03 -0.72121585318E+03  0.91202373135E+03  0.46999998093E+01 0. -1.
</event>
<event>
 5   0  0.1711979E-04  0.1921914E+04  0.7818609E-02  0.8644025E-01
       -1   -1    0    0    0  501  0.00000000000E+00  0.00000000000E+00  0.17443147889E+04  0.17443147889E+04  0.50400001928E-02 0.  1.
        1   -1    0    0  501    0  0.00000000000E+00  0.00000000000E+00 -0.52939865668E+03  0.52939865670E+03  0.50400001928E-02 0. -1.
    10030    2    1    2    0    0  0.00000000000E+00  0.00000000000E+00  0.12149161323E+04  0.22737134456E+04  0.19219135320E+04 0.  0.
        4    1    3    3  502    0  0.56645422693E+03 -0.96416175301E+02  0.15186880770E+04  0.16237553875E+04  0.12699999809E+01 0.  1.
       -4    1    3    3    0  502 -0.56645422693E+03  0.96416175301E+02 -0.30377194478E+03  0.64995805819E+03  0.12699999809E+01 0. -1.
</event>
<event>
 5   0  0.1782613E-04  0.1903974E+04  0.7818609E-02  0.8652881E-01
        1   -1    0    0  501    0  0.00000000000E+00  0.00000000000E+00  0.93171792894E+03  0.93171792895E+03  0.50400001928E-02 0. -1.
       -1   -1    0    0    0  501  0.00000000000E+00  0.00000000000E+00 -0.97269670576E+03  0.97269670578E+03  0.50400001928E-02 0.  1.
    10030    2    1    2    0    0  0.00000000000E+00  0.00000000000E+00 -0.40978776827E+02  0.19044146347E+04  0.19039736975E+04 0.  0.
        3    1    3    3  502    0  0.14107172053E+03 -0.50298613244E+01  0.92119155790E+03  0.93194443310E+03  0.10100000352E+00 0. -1.
       -3    1    3    3    0  502 -0.14107172053E+03  0.50298613244E+01 -0.96217033472E+03  0.97247020163E+03  0.10100000352E+00 0.  1.
</event>
<event>
 5   0  0.1758946E-04  0.1617974E+04  0.7818609E-02  0.8809581E-01
       -1   -1    0    0    0  501  0.00000000000E+00  0.00000000000E+00  0.61618028628E+03  0.61618028630E+03  0.50400001928E-02 0.  1.
        1   -1    0    0  501    0  0.00000000000E+00  0.00000000000E+00 -0.10621242162E+04  0.10621242162E+04  0.50400001928E-02 0. -1.
    10030    2    1    2    0    0  0.00000000000E+00  0.00000000000E+00 -0.44594392995E+03  0.16783045025E+04  0.16179740463E+04 0.  0.
        2    1    3    3  502    0 -0.29118719817E+03 -0.37008601632E+03 -0.90530413576E+03  0.10204553994E+04  0.25500000920E-02 0. -1.
       -2    1    3    3    0  502  0.29118719817E+03  0.37008601632E+03  0.45936020581E+03  0.65784910317E+03  0.25500000920E-02 0.  1.
</event>
<event>
 5   0  0.3516539E-04  0.1919899E+04  0.7818609E-02  0.8645014E-01
        2   -1    0    0  501    0  0.00000000000E+00  0.00000000000E+00  0.14093567044E+04  0.14093567044E+04  0.25500000920E-02 0. -1.
       -2   -1    0    0    0  501  0.00000000000E+00  0.00000000000E+00 -0.65384641394E+03  0.65384641394E+03  0.25500000920E-02 0.  1.
    10030    2    1    2    0    0  0.00000000000E+00  0.00000000000E+00  0.75551029049E+03  0.20632031184E+04  0.19198987756E+04 0.  0.
        4    1    3    3  502    0 -0.80572250623E+03  0.14932250588E+03 -0.15958204583E+03  0.83483771480E+03  0.12699999809E+01 0.  1.
       -4    1    3    3    0  502  0.80572250623E+03 -0.14932250588E+03  0.91509233631E+03  0.12283654036E+04  0.12699999809E+01 0. -1.
</event>
<event>
 5   0  0.1694830E-04  0.1914443E+04  0.7818609E-02  0.8647700E-01
        1   -1    0    0  501    0  0.00000000000E+00  0.00000000000E+00  0.10966136831E+04  0.10966136831E+04  0.50400001928E-02 0. -1.
       -1   -1    0    0    0  501  0.00000000000E+00  0.00000000000E+00 -0.83554765507E+03  0.83554765509E+03  0.50400001928E-02 0.  1.
    10030    2    1    2    0    0  0.00000000000E+00  0.00000000000E+00  0.26106602806E+03  0.19321613382E+04  0.19144429910E+04 0.  0.
        1    1    3    3  502    0 -0.43713450679E+02  0.90404249333E+03 -0.18390995572E+03  0.92359437383E+03  0.50400001928E-02 0.  1.
       -1    1    3    3    0  502  0.43713450679E+02 -0.90404249333E+03  0.44497598379E+03  0.10085669644E+04  0.50400001928E-02 0. -1.
</event>
<event>
 5   0  0.1782613E-04  0.1901067E+04  0.7818609E-02  0.8654325E-01
       -1   -1    0    0    0  501  0.00000000000E+00  0.00000000000E+00  0.13634644342E+04  0.13634644342E+04  0.50400001928E-02 0. -1.
        1   -1    0    0  501    0  0.00000000000E+00  0.00000000000E+00 -0.66266069937E+03  0.66266069939E+03  0.50400001928E-02 0.  1.
    10030    2    1    2    0    0  0.00000000000E+00  0.00000000000E+00  0.70080373483E+03  0.20261251336E+04  0.19010673797E+04 0.  0.
        3    1    3    3  502    0  0.43522470097E+03 -0.57189409226E+03  0.10134446769E+04  0.12423982922E+04  0.10100000352E+00 0. -1.
       -3    1    3    3    0  502 -0.43522470097E+03  0.57189409226E+03 -0.31264094206E+03  0.78372684141E+03  0.10100000352E+00 0.  1.
</event>
<event>
 5   0  0.3535876E-04  0.1879810E+04  0.7818609E-02  0.8664972E-01
        2   -1    0    0  501    0  0.00000000000E+00  0.00000000000E+00  0.93769981191E+03  0.93769981192E+03  0.25500000920E-02 0.  1.
       -2   -1    0    0    0  501  0.00000000000E+00  0.00000000000E+00 -0.94211559752E+03  0.94211559753E+03  0.25500000920E-02 0. -1.
    10030    2    1    2    0    0  0.00000000000E+00  0.00000000000E+00 -0.44157856102E+01  0.18798154094E+04  0.18798102230E+04 0.  0.
        2    1    3    3  502    0  0.20193212213E+03 -0.54715634609E+03 -0.73927503178E+03  0.94163911433E+03  0.25500000920E-02 0. -1.
       -2    1    3    3    0  502 -0.20193212213E+03  0.54715634609E+03  0.73485924617E+03  0.93817629511E+03  0.25500000920E-02 0.  1.
</event>
<event>
 5   0  0.3516539E-04  0.1912290E+04  0.7818609E-02  0.8648763E-01
        2   -1    0    0  501    0  0.00000000000E+00  0.00000000000E+00  0.19028977155E+04  0.19028977155E+04  0.25500000920E-02 0. -1.
       -2   -1    0    0    0  501  0.00000000000E+00  0.00000000000E+00 -0.48043204558E+03  0.48043204559E+03  0.25500000920E-02 0.  1.
    10030    2    1    2    0    0  0.00000000000E+00  0.00000000000E+00  0.14224656699E+04  0.23833297611E+04  0.19122897709E+04 0.  0.
        4    1    3    3  502    0 -0.43817975926E+03  0.15143781598E+03 -0.33097637283E+03  0.56963311509E+03  0.12699999809E+01 0.  1.
       -4    1    3    3    0  502  0.43817975926E+03 -0.15143781598E+03  0.17534420428E+04  0.18136966460E+04  0.12699999809E+01 0. -1.
</event>
<event>
 5   0  0.1813834E-04  0.1254337E+04  0.7818609E-02  0.9066581E-01
       -1   -1    0    0    0  501  0.00000000000E+00  0.00000000000E+00  0.22155638901E+03  0.22155638907E+03  0.50400001928E-02 0. -1.
        1   -1    0    0  501    0  0.00000000000E+00  0.00000000000E+00 -0.17753511736E+04  0.17753511736E+04  0.50400001928E-02 0.  1.
    10030    2    1    2    0    0  0.00000000000E+00  0.00000000000E+00 -0.15537947846E+04  0.19969075627E+04  0.12543371083E+04 0.  0.
        5    1    3    3  502    0  0.38551397315E+03  0.65453449148E+02  0.36922431511E+01  0.39107659116E+03  0.46999998093E+01 0. -1.
       -5    1    3    3    0  502 -0.38551397315E+03 -0.65453449148E+02 -0.15574870277E+04  0.16058309715E+04  0.46999998093E+01 0.  1.
</event>
<event>
 5   0  0.3516539E-04  0.1878405E+04  0.7818609E-02  0.8665681E-01
       -2   -1    0    0    0  501  0.00000000000E+00  0.00000000000E+00  0.64408780686E+03  0.64408780686E+03  0.25500000920E-02 0.  1.
        2   -1    0    0  501    0  0.00000000000E+00  0.00000000000E+00 -0.13695360587E+04  0.13695360587E+04  0.25500000920E-02 0. -1.
    10030    2    1    2    0    0  0.00000000000E+00  0.00000000000E+00 -0.72544825186E+03  0.20136238656E+04  0.18784051496E+04 0.  0.
        4    1    3    3  502    0 -0.26292492650E+03  0.20774894265E+03 -0.13032723288E+04  0.13456632253E+04  0.12699999809E+01 0. -1.
       -4    1    3    3    0  502  0.26292492650E+03 -0.20774894265E+03  0.57782407692E+03  0.66796064025E+03  0.12699999809E+01 0.  1.
</event>
<event>
 5   0  0.1758946E-04  0.1569655E+04  0.7818609E-02  0.8839410E-01
        1   -1    0    0  501    0  0.00000000000E+00  0.00000000000E+00  0.10290719067E+04  0.10290719067E+04  0.50400001928E-02 0.  1.
       -1   -1    0    0    0  501  0.00000000000E+00  0.00000000000E+00 -0.59855296960E+03  0.59855296962E+03  0.50400001928E-02 0. -1.
    10030    2    1    2    0    0  0.00000000000E+00  0.00000000000E+00  0.43051893705E+03  0.16276248763E+04  0.15696547973E+04 0.  0.
        2    1    3    3  502    0  0.39147103981E+02  0.82349278005E+02 -0.59304205434E+03  0.60001064787E+03  0.25500000920E-02 0. -1.
       -2    1    3    3    0  502 -0.39147103981E+02 -0.82349278005E+02  0.10235609914E+04  0.10276142284E+04  0.25500000920E-02 0.  1.
</event>
<event>
 5   0  0.3623359E-04  0.1824205E+04  0.7818609E-02  0.8693532E-01
       -2   -1    0    0    0  501  0.00000000000E+00  0.00000000000E+00  0.11863565182E+04  0.11863565182E+04  0.25500000920E-02 0.  1.
        2   -1    0    0  501    0  0.00000000000E+00  0.00000000000E+00 -0.70124905140E+03  0.70124905141E+03  0.25500000920E-02 0. -1.
    10030    2    1    2    0    0  0.00000000000E+00  0.00000000000E+00  0.48510746676E+03  0.18876055696E+04  0.18242054522E+04 0.  0.
        5    1    3    3  502    0  0.60699239176E+03  0.41301466505E+03 -0.31744700310E+03  0.79988472106E+03  0.46999998093E+01 0.  1.
       -5    1    3    3    0  502 -0.60699239176E+03 -0.41301466505E+03  0.80255446986E+03  0.10877208485E+04  0.46999998093E+01 0. -1.
</event>
<event>
 5   0  0.1711979E-04  0.1892294E+04  0.7818609E-02  0.8658702E-01
        1   -1    0    0  501    0  0.00000000000E+00  0.00000000000E+00  0.25553521210E+04  0.25553521210E+04  0.50400001928E-02 0.  1.
       -1   -1    0    0    0  501  0.00000000000E+00  0.00000000000E+00 -0.35032131053E+03  0.35032131057E+03  0.50400001928E-02 0. -1.
    10030    2    1    2    0    0  0.00000000000E+00  0.00000000000E+00  0.22050308105E+04  0.29056734316E+04  0.18922941674E+04 0.  0.
        4    1    3    3  502    0  0.23029258435E+02 -0.91213002590E+03  0.14869537200E+04  0.17445757390E+04  0.12699999809E+01 0.  1.
       -4    1    3    3    0  502 -0.23029258435E+02  0.91213002590E+03  0.71807709047E+03  0.11610976926E+04  0.12699999809E+01 0. -1.
</event>
<event>
 5   0  0.3459485E-04  0.1905946E+04  0.7818609E-02  0.8651902E-01
       -2   -1    0    0    0  501  0.00000000000E+00  0.00000000000E+00  0.12016833022E+04  0.12016833022E+04  0.25500000920E-02 0.  1.
        2   -1    0    0  501    0  0.00000000000E+00  0.00000000000E+00 -0.75573779285E+03  0.75573779285E+03  0.25500000920E-02 0. -1.
    10030    2    1    2    0    0  0.00000000000E+00  0.00000000000E+00  0.44594550932E+03  0.19574210950E+04  0.19059459452E+04 0.  0.
        3    1    3    3  502    0 -0.39081078459E+03  0.72751441559E+02  0.11124655310E+04  0.11813574436E+04  0.10100000352E+00 0.  1.
       -3    1    3    3    0  502  0.39081078459E+03 -0.72751441559E+02 -0.66652002169E+03  0.77606365145E+03  0.10100000352E+00 0. -1.
</event>
<event>
 5   0  0.1287000E-04  0.1899525E+04  0.7818609E-02  0.8655093E-01
        4   -1    0    0  501    0  0.00000000000E+00  0.00000000000E+00  0.16669023855E+04  0.16669028693E+04  0.12699999809E+01 0.  1.
       -4   -1    0    0    0  501  0.00000000000E+00  0.00000000000E+00 -0.54115156039E+03  0.54115305064E+03  0.12699999809E+01 0. -1.
    10030    2    1    2    0    0  0.00000000000E+00  0.00000000000E+00  0.11257508251E+04  0.22080559200E+04  0.18995252105E+04 0.  0.
        3    1    3    3  502    0 -0.51833693808E+02 -0.75971211016E+02  0.16617150360E+04  0.16642581614E+04  0.10100000352E+00 0.  1.
       -3    1    3    3    0  502  0.51833693808E+02  0.75971211016E+02 -0.53596421085E+03  0.54379775858E+03  0.10100000352E+00 0. -1.
</event>
<event>
 5   0  0.3535876E-04  0.1887033E+04  0.7818609E-02  0.8661338E-01
        2   -1    0    0  501    0  0.00000000000E+00  0.00000000000E+00  0.10622736443E+04  0.10622736443E+04  0.25500000920E-02 0.  1.
       -2   -1    0    0    0  501  0.00000000000E+00  0.00000000000E+00 -0.83803617709E+03  0.83803617710E+03  0.25500000920E-02 0. -1.
    10030    2    1    2    0    0  0.00000000000E+00  0.00000000000E+00  0.22423746717E+03  0.19003098214E+04  0.18870333795E+04 0.  0.
        2    1    3    3  502    0 -0.57993346301E+03  0.74184589965E+03  0.17225135511E+03  0.95725058876E+03  0.25500000920E-02 0. -1.
       -2    1    3    3    0  502  0.57993346301E+03 -0.74184589965E+03  0.51986112068E+02  0.94305923260E+03  0.25500000920E-02 0.  1.
</event>
<event>
 5   0  0.1287000E-04  0.1815558E+04  0.7818609E-02  0.8698069E-01
        3   -1    0    0  501    0  0.00000000000E+00  0.00000000000E+00  0.54384872228E+03  0.54384873165E+03  0.10100000352E+00 0. -1.
       -3   -1    0    0    0  501  0.00000000000E+00  0.00000000000E+00 -0.15152423519E+04  0.15152423552E+04  0.10100000352E+00 0.  1.
    10030    2    1    2    0    0  0.00000000000E+00  0.00000000000E+00 -0.97139362959E+03  0.20590910869E+04  0.18155579089E+04 0.  0.
        1    1    3    3  502    0  0.54622815384E+02 -0.62537133378E+03 -0.12293911367E+04  0.13803896276E+04  0.50400001928E-02 0.  1.
       -1    1    3    3    0  502 -0.54622815384E+02  0.62537133378E+03  0.25799750712E+03  0.67870145924E+03  0.50400001928E-02 0. -1.
</event>
<event>
 5   0  0.3516539E-04  0.1889738E+04  0.7818609E-02  0.8659981E-01
       -2   -1    0    0    0  501  0.00000000000E+00  0.00000000000E+00  0.34525635622E+03  0.34525635623E+03  0.25500000920E-02 0.  1.
        2   -1    0    0  501    0  0.00000000000E+00  0.00000000000E+00 -0.25858398737E+04  0.25858398737E+04  0.25500000920E-02 0. -1.
    10030    2    1    2    0    0  0.00000000000E+00  0.00000000000E+00 -0.22405835175E+04  0.29310962299E+04  0.18897382386E+04 0.  0.
        4    1    3    3  502    0 -0.54606901271E+03 -0.42757358093E+03 -0.21155903905E+04  0.22263725760E+04  0.12699999809E+01 0. -1.
       -4    1    3    3    0  502  0.54606901271E+03  0.42757358093E+03 -0.12499312696E+03  0.70472365395E+03  0.12699999809E+01 0.  1.
</event>
<event>
 5   0  0.3623359E-04  0.1865747E+04  0.7818609E-02  0.8672097E-01
        2   -1    0    0  501    0  0.00000000000E+00  0.00000000000E+00  0.81050108102E+03  0.81050108103E+03  0.25500000920E-02 0.  1.
       -2   -1    0    0    0  501  0.00000000000E+00  0.00000000000E+00 -0.10737216949E+04  0.10737216949E+04  0.25500000920E-02 0. -1.
    10030    2    1    2    0    0  0.00000000000E+00  0.00000000000E+00 -0.26322061384E+03  0.18842227759E+04  0.18657466006E+04 0.  0.
        5    1    3    3  502    0 -0.77968639450E+03  0.50336434063E+03 -0.22711941446E+03  0.95545374122E+03  0.46999998093E+01 0. -1.
       -5    1    3    3    0  502  0.77968639450E+03 -0.50336434063E+03 -0.36101199382E+02  0.92876903468E+03  0.46999998093E+01 0.  1.
</event>
<event>
 5   0  0.1711979E-04  0.1883735E+04  0.7818609E-02  0.8662995E-01
       -1   -1    0    0    0  501  0.00000000000E+00  0.00000000000E+00  0.10991332968E+04  0.10991332968E+04  0.50400001928E-02 0. -1.
        1   -1    0    0  501    0  0.00000000000E+00  0.00000000000E+00 -0.80710341512E+03  0.80710341513E+03  0.50400001928E-02 0.  1.
    10030    2    1    2    0    0  0.00000000000E+00  0.00000000000E+00  0.29202988167E+03  0.19062367119E+04  0.18837348407E+04 0.  0.
        4    1    3    3  502    0 -0.88667626951E+03  0.30521076753E+03  0.23518222898E+03  0.96677852338E+03  0.12699999809E+01 0. -1.
       -4    1    3    3    0  502  0.88667626951E+03 -0.30521076753E+03  0.56847652685E+02  0.93945818856E+03  0.12699999809E+01 0.  1.
</event>
<event>
 5   0  0.1758946E-04  0.1955509E+04  0.7818609E-02  0.8627709E-01
       -1   -1    0    0    0  501  0.00000000000E+00  0.00000000000E+00  0.79645580411E+03  0.79645580412E+03  0.50400001928E-02 0. -1.
        1   -1    0    0  501    0  0.00000000000E+00  0.00000000000E+00 -0.12003224840E+04  0.12003224840E+04  0.50400001928E-02 0.  1.
    10030    2    1    2    0    0  0.00000000000E+00  0.00000000000E+00 -0.40386667991E+03  0.19967782882E+04  0.19555089457E+04 0.  0.
        2    1    3    3  502    0 -0.80175797324E+03  0.44106814496E+03 -0.55365421954E+03  0.10695279103E+04  0.25500000920E-02 0.  1.
       -2    1    3    3    0  502  0.80175797324E+03 -0.44106814496E+03  0.14978753963E+03  0.92725037783E+03  0.25500000920E-02 0. -1.
</event>
<event>
 5   0  0.3623359E-04  0.1916294E+04  0.7818609E-02  0.8646788E-01
       -2   -1    0    0    0  501  0.00000000000E+00  0.00000000000E+00  0.95048937924E+03  0.95048937924E+03  0.25500000920E-02 0. -1.
        2   -1    0    0  501    0  0.00000000000E+00  0.00000000000E+00 -0.96586638831E+03  0.96586638831E+03  0.25500000920E-02 0.  1.
    10030    2    1    2    0    0  0.00000000000E+00  0.00000000000E+00 -0.15377009070E+02  0.19163557676E+04  0.19162940733E+04 0.  0.
        5    1    3    3  502    0 -0.44976391555E+03 -0.41681285955E+02  0.83732316344E+03  0.95139743502E+03  0.46999998093E+01 0. -1.
       -5    1    3    3    0  502  0.44976391555E+03  0.41681285955E+02 -0.85270017251E+03  0.96495833253E+03  0.46999998093E+01 0.  1.
</event>
<event>
 5   0  0.1782613E-04  0.1906543E+04  0.7818609E-02  0.8651607E-01
       -1   -1    0    0    0  501  0.00000000000E+00  0.00000000000E+00  0.60233157947E+03  0.60233157949E+03  0.50400001928E-02 0.  1.
        1   -1    0    0  501    0  0.00000000000E+00  0.00000000000E+00 -0.15086809093E+04  0.15086809094E+04  0.50400001928E-02 0. -1.
    10030    2    1    2    0    0  0.00000000000E+00  0.00000000000E+00 -0.90634932988E+03  0.21110124888E+04  0.19065425829E+04 0.  0.
        3    1    3    3  502    0  0.78586845923E+03  0.11568387225E+03 -0.10367199605E+04  0.13060475796E+04  0.10100000352E+00 0. -1.
       -3    1    3    3    0  502 -0.78586845923E+03 -0.11568387225E+03  0.13037063066E+03  0.80496490921E+03  0.10100000352E+00 0.  1.
</event>
<event>
 5   0  0.3720978E-04  0.1329545E+04  0.7818609E-02  0.9006459E-01
        2   -1    0    0  501    0  0.00000000000E+00  0.00000000000E+00  0.50958857430E+03  0.50958857431E+03  0.25500000920E-02 0.  1.
       -2   -1    0    0    0  501  0.00000000000E+00  0.00000000000E+00 -0.86721374235E+03  0.86721374235E+03  0.25500000920E-02 0. -1.
    10030    2    1    2    0    0  0.00000000000E+00  0.00000000000E+00 -0.35762516804E+03  0.13768023167E+04  0.13295446056E+04 0.  0.
        1    1    3    3  502    0 -0.26583865854E+03  0.57143594716E+03  0.40157853339E+02  0.63152346535E+03  0.50400001928E-02 0.  1.
       -1    1    3    3    0  502  0.26583865854E+03 -0.57143594716E+03 -0.39778302138E+03  0.74527885131E+03  0.50400001928E-02 0. -1.
</event>
<event>
 5   0  0.1694830E-04  0.1717100E+04  0.7818609E-02  0.8751671E-01
       -1   -1    0    0    0  501  0.00000000000E+00  0.00000000000E+00  0.13143957613E+04  0.13143957613E+04  0.50400001928E-02 0.  1.
        1   -1    0    0  501    0  0.00000000000E+00  0.00000000000E+00 -0.56079590624E+03  0.56079590626E+03  0.50400001928E-02 0. -1.
    10030    2    1    2    0    0  0.00000000000E+00  0.00000000000E+00  0.75359985505E+03  0.18751916676E+04  0.17170996036E+04 0.  0.
        1    1    3    3  502    0  0.28392697180E+03 -0.34584323687E+03 -0.42338633611E+03  0.61601790512E+03  0.50400001928E-02 0. -1.
       -1    1    3    3    0  502 -0.28392697180E+03  0.34584323687E+03  0.11769861912E+04  0.12591737624E+04  0.50400001928E-02 0.  1.
</event>
<event>
 5   0  0.3720978E-04  0.1938621E+04  0.7818609E-02  0.8635868E-01
        2   -1    0    0  501    0  0.00000000000E+00  0.00000000000E+00  0.14725284465E+04  0.14725284465E+04  0.25500000920E-02 0. -1.
       -2   -1    0    0    0  501  0.00000000000E+00  0.00000000000E+00 -0.63806088351E+03  0.63806088352E+03  0.25500000920E-02 0.  1.
    10030    2    1    2    0    0  0.00000000000E+00  0.00000000000E+00  0.83446756294E+03  0.21105893300E+04  0.19386209547E+04 0.  0.
        1    1    3    3  502    0  0.32428900872E+03 -0.64641090003E+03  0.11198944590E+04  0.13331069020E+04  0.50400001928E-02 0. -1.
       -1    1    3    3    0  502 -0.32428900872E+03  0.64641090003E+03 -0.28542689602E+03  0.77748242800E+03  0.50400001928E-02 0.  1.
</event>
<event>
 5   0  0.3720978E-04  0.1874036E+04  0.7818609E-02  0.8667889E-01
       -2   -1    0    0    0  501  0.00000000000E+00  0.00000000000E+00  0.71157781781E+03  0.71157781781E+03  0.25500000920E-02 0. -1.
        2   -1    0    0  501    0  0.00000000000E+00  0.00000000000E+00 -0.12338813432E+04  0.12338813432E+04  0.25500000920E-02 0.  1.
    10030    2    1    2    0    0  0.00000000000E+00  0.00000000000E+00 -0.52230352535E+03  0.19454591610E+04  0.18740358520E+04 0.  0.
        1    1    3    3  502    0  0.41987022726E+03 -0.51977324992E+03 -0.94311105713E+03  0.11558173321E+04  0.50400001928E-02 0.  1.
       -1    1    3    3    0  502 -0.41987022726E+03  0.51977324992E+03  0.42080753178E+03  0.78964182887E+03  0.50400001928E-02 0. -1.
</event>
<event>
 5   0  0.3623359E-04  0.1791636E+04  0.7818609E-02  0.8710760E-01
       -2   -1    0    0    0  501  0.00000000000E+00  0.00000000000E+00  0.72134884577E+03  0.72134884577E+03  0.25500000920E-02 0.  1.
        2   -1    0    0  501    0  0.00000000000E+00  0.00000000000E+00 -0.11124848444E+04  0.11124848444E+04  0.25500000920E-02 0. -1.
    10030    2    1    2    0    0  0.00000000000E+00  0.00000000000E+00 -0.39113599864E+03  0.18338336902E+04  0.17916357425E+04 0.  0.
        5    1    3    3  502    0  0.46827045493E+03 -0.28326036722E+03 -0.92146386891E+03  0.10717422294E+04  0.46999998093E+01 0. -1.
       -5    1    3    3    0  502 -0.46827045493E+03  0.28326036722E+03  0.53032787027E+03  0.76209146077E+03  0.46999998093E+01 0.  1.
</event>
<event>
 5   0  0.3459485E-04  0.1884313E+04  0.7818609E-02  0.8662704E-01
       -2   -1    0    0    0  501  0.00000000000E+00  0.00000000000E+00  0.89536468094E+03  0.89536468094E+03  0.25500000920E-02 0.  1.
        2   -1    0    0  501    0  0.00000000000E+00  0.00000000000E+00 -0.99139408153E+03  0.99139408153E+03  0.25500000920E-02 0. -1.
    10030    2    1    2    0    0  0.00000000000E+00  0.00000000000E+00 -0.96029400591E+02  0.18867587625E+04  0.18843133980E+04 0.  0.
        3    1    3    3  502    0 -0.20327691168E+03 -0.90610708936E+03  0.11127561230E+03  0.93527206326E+03  0.10100000352E+00 0.  1.
       -3    1    3    3    0  502  0.20327691168E+03  0.90610708936E+03 -0.20730501289E+03  0.95148669922E+03  0.10100000352E+00 0. -1.
</event>
<event>
 5   0  0.1758946E-04  0.1927176E+04  0.7818609E-02  0.8641446E-01
       -1   -1    0    0    0  501  0.00000000000E+00  0.00000000000E+00  0.75016071543E+03  0.75016071544E+03  0.50400001928E-02 0. -1.
        1   -1    0    0  501    0  0.00000000000E+00  0.00000000000E+00 -0.12377375513E+04  0.12377375513E+04  0.50400001928E-02 0.  1.
    10030    2    1    2    0    0  0.00000000000E+00  0.00000000000E+00 -0.48757683583E+03  0.19878982667E+04  0.19271762628E+04 0.  0.
        2    1    3    3  502    0  0.32640120752E+03 -0.82513843728E+03 -0.63127172272E+03  0.10889881436E+04  0.25500000920E-02 0.  1.
       -2    1    3    3    0  502 -0.32640120752E+03  0.82513843728E+03  0.14369488689E+03  0.89891012313E+03  0.25500000920E-02 0. -1.
</event>
<event>
 5   0  0.1782613E-04  0.1823143E+04  0.7818609E-02  0.8694088E-01
       -1   -1    0    0    0  501  0.00000000000E+00  0.00000000000E+00  0.62567885147E+03  0.62567885149E+03  0.50400001928E-02 0. -1.
        1   -1    0    0  501    0  0.00000000000E+00  0.00000000000E+00 -0.13280978756E+04  0.13280978756E+04  0.50400001928E-02 0.  1.
    10030    2    1    2    0    0  0.00000000000E+00  0.00000000000E+00 -0.70241902413E+03  0.19537767271E+04  0.18231431688E+04 0.  0.
        3    1    3    3  502    0 -0.14151434226E+03  0.56017324579E+03 -0.11068140305E+04  0.12485422230E+04  0.10100000352E+00 0.  1.
       -3    1    3    3    0  502  0.14151434226E+03 -0.56017324579E+03  0.40439500637E+03  0.70523450407E+03  0.10100000352E+00 0. -1.
</event>
<event>
 5   0  0.1287000E-04  0.1808073E+04  0.7818609E-02  0.8702018E-01
        3   -1    0    0  501    0  0.00000000000E+00  0.00000000000E+00  0.41357716789E+03  0.41357718022E+03  0.10100000352E+00 0.  1.
       -3   -1    0    0    0  501  0.00000000000E+00  0.00000000000E+00 -0.19761289347E+04  0.19761289373E+04  0.10100000352E+00 0. -1.
    10030    2    1    2    0    0  0.00000000000E+00  0.00000000000E+00 -0.15625517668E+04  0.23897061175E+04  0.18080728149E+04 0.  0.
        3    1    3    3  502    0 -0.35867890651E+03 -0.81721965087E+03 -0.59073602730E+03  0.10702651914E+04  0.10100000352E+00 0.  1.
       -3    1    3    3    0  502  0.35867890651E+03  0.81721965087E+03 -0.97181573949E+03  0.13194409261E+04  0.10100000352E+00 0. -1.
</event>
<event>
 5   0  0.1758946E-04  0.1857938E+04  0.7818609E-02  0.8676082E-01
        1   -1    0    0  501    0  0.00000000000E+00  0.00000000000E+00  0.14144311099E+04  0.14144311099E+04  0.50400001928E-02 0. -1.
       -1   -1    0    0    0  501  0.00000000000E+00  0.00000000000E+00 -0.61012728922E+03  0.61012728924E+03  0.50400001928E-02 0.  1.
    10030    2    1    2    0    0  0.00000000000E+00  0.00000000000E+00  0.80430382068E+03  0.20245583992E+04  0.18579375866E+04 0.  0.
        2    1    3    3  502    0  0.91710892802E+03  0.38295484958E+01  0.56333465823E+03  0.10763128674E+04  0.25500000920E-02 0. -1.
       -2    1    3    3    0  502 -0.91710892802E+03 -0.38295484958E+01  0.24096916245E+03  0.94824553179E+03  0.25500000920E-02 0.  1.
</event>
<event>
 5   0  0.1694830E-04  0.1914310E+04  0.7818609E-02  0.8647766E-01
       -1   -1    0    0    0  501  0.00000000000E+00  0.00000000000E+00  0.46847216962E+03  0.46847216965E+03  0.50400001928E-02 0. -1.
        1   -1    0    0  501    0  0.00000000000E+00  0.00000000000E+00 -0.19556036683E+04  0.19556036683E+04  0.50400001928E-02 0.  1.
    10030    2    1    2    0    0  0.00000000000E+00  0.00000000000E+00 -0.14871314987E+04  0.24240758379E+04  0.19143102083E+04 0.  0.
        1    1    3    3  502    0  0.53269332840E+02  0.52764751624E+03 -0.17525521425E+04  0.18310348264E+04  0.50400001928E-02 0.  1.
       -1    1    3    3    0  502 -0.53269332840E+02 -0.52764751624E+03  0.26542064382E+03  0.59304101157E+03  0.50400001928E-02 0. -1.
</event>
<event>
 5   0  0.3516539E-04  0.2012071E+04  0.7818609E-02  0.8600998E-01
        2   -1    0    0  501    0  0.00000000000E+00  0.00000000000E+00  0.91627226517E+03  0.91627226517E+03  0.25500000920E-02 0.  1.
       -2   -1    0    0    0  501  0.00000000000E+00  0.00000000000E+00 -0.11045920879E+04  0.11045920879E+04  0.25500000920E-02 0. -1.
    10030    2    1    2    0    0  0.00000000000E+00  0.00000000000E+00 -0.18831982272E+03  0.20208643531E+04  0.20120706692E+04 0.  0.
        4    1    3    3  502    0 -0.97629508374E+03 -0.78928162452E+02 -0.32477994024E+03  0.10319231405E+04  0.12699999809E+01 0.  1.
       -4    1    3    3    0  502  0.97629508374E+03  0.78928162452E+02  0.13646011752E+03  0.98894121258E+03  0.12699999809E+01 0. -1.
</event>
<event>
 5   0  0.1782613E-04  0.1921370E+04  0.7818609E-02  0.8644292E-01
        1   -1    0    0  501    0  0.00000000000E+00  0.00000000000E+00  0.94953650571E+03  0.94953650572E+03  0.50400001928E-02 0. -1.
       -1   -1    0    0    0  501  0.00000000000E+00  0.00000000000E+00 -0.97196475935E+03  0.97196475936E+03  0.50400001928E-02 0.  1.
    10030    2    1    2    0    0  0.00000000000E+00  0.00000000000E+00 -0.22428253640E+02  0.19215012651E+04  0.19213703665E+04 0.  0.
        3    1    3    3  502    0 -0.75880909675E+03  0.27552018763E+03 -0.53203112688E+03  0.96682974162E+03  0.10100000352E+00 0.  1.
       -3    1    3    3    0  502  0.75880909675E+03 -0.27552018763E+03  0.50960287324E+03  0.95467152347E+03  0.10100000352E+00 0. -1.
</event>
<event>
 5   0  0.3535876E-04  0.1895061E+04  0.7818609E-02  0.8657319E-01
        2   -1    0    0  501    0  0.00000000000E+00  0.00000000000E+00  0.10506426589E+04  0.10506426589E+04  0.25500000920E-02 0. -1.
       -2   -1    0    0    0  501  0.00000000000E+00  0.00000000000E+00 -0.85453831409E+03  0.85453831409E+03  0.25500000920E-02 0.  1.
    10030    2    1    2    0    0  0.00000000000E+00  0.00000000000E+00  0.19610434485E+03  0.19051809730E+04  0.18950613779E+04 0.  0.
        2    1    3    3  502    0 -0.74991132832E+03 -0.14612879818E+03  0.66148561815E+03  0.10105858939E+04  0.25500000920E-02 0. -1.
       -2    1    3    3    0  502  0.74991132832E+03  0.14612879818E+03 -0.46538127331E+03  0.89459507910E+03  0.25500000920E-02 0.  1.
</event>
<event>
 5   0  0.1813834E-04  0.1873944E+04  0.7818609E-02  0.8667936E-01
       -1   -1    0    0    0  501  0.00000000000E+00  0.00000000000E+00  0.41255699899E+03  0.41255699902E+03  0.50400001928E-02 0. -1.
        1   -1    0    0  501    0  0.00000000000E+00  0.00000000000E+00 -0.21279888729E+04  0.21279888729E+04  0.50400001928E-02 0.  1.
    10030    2    1    2    0    0  0.00000000000E+00  0.00000000000E+00 -0.17154318739E+04  0.25405458719E+04  0.18739441863E+04 0.  0.
        5    1    3    3  502    0 -0.32052574474E+02 -0.82434826529E+03 -0.25549917015E+03  0.86364306630E+03  0.46999998093E+01 0. -1.
       -5    1    3    3    0  502  0.32052574474E+02  0.82434826529E+03 -0.14599327038E+04  0.16769028056E+04  0.46999998093E+01 0.  1.
</event>
<event>
 5   0  0.3516539E-04  0.1925018E+04  0.7818609E-02  0.8642503E-01
        2   -1    0    0  501    0  0.00000000000E+00  0.00000000000E+00  0.18189026665E+04  0.18189026665E+04  0.25500000920E-02 0. -1.
       -2   -1    0    0    0  501  0.00000000000E+00  0.00000000000E+00 -0.50933080286E+03  0.50933080286E+03  0.25500000920E-02 0.  1.
    10030    2    1    2    0    0  0.00000000000E+00  0.00000000000E+00  0.13095718637E+04  0.23282334694E+04  0.19250175640E+04 0.  0.
        4    1    3    3  502    0 -0.17122639828E+03  0.16749849664E+03 -0.47270626062E+03  0.52993117249E+03  0.12699999809E+01 0.  1.
       -4    1    3    3    0  502  0.17122639828E+03 -0.16749849664E+03  0.17822781243E+04  0.17983022969E+04  0.12699999809E+01 0. -1.
</event>
<event>
 5   0  0.3720978E-04  0.1926554E+04  0.7818609E-02  0.8641750E-01
       -2   -1    0    0    0  501  0.00000000000E+00  0.00000000000E+00  0.10803127580E+04  0.10803127580E+04  0.25500000920E-02 0. -1.
        2   -1    0    0  501    0  0.00000000000E+00  0.00000000000E+00 -0.85892033568E+03  0.85892033568E+03  0.25500000920E-02 0.  1.
    10030    2    1    2    0    0  0.00000000000E+00  0.00000000000E+00  0.22139242235E+03  0.19392330937E+04  0.19265540187E+04 0.  0.
        1    1    3    3  502    0 -0.34952544604E+03  0.81031104320E+03  0.49941198636E+03  0.10139942585E+04  0.50400001928E-02 0. -1.
       -1    1    3    3    0  502  0.34952544604E+03 -0.81031104320E+03 -0.27801956401E+03  0.92523883519E+03  0.50400001928E-02 0.  1.
</event>
<event>
 5   0  0.3720978E-04  0.1948565E+04  0.7818609E-02  0.8631053E-01
        2   -1    0    0  501    0  0.00000000000E+00  0.00000000000E+00  0.90901961492E+03  0.90901961493E+03  0.25500000920E-02 0.  1.
       -2   -1    0    0    0  501  0.00000000000E+00  0.00000000000E+00 -0.10442308842E+04  0.10442308842E+04  0.25500000920E-02 0. -1.
    10030    2    1    2    0    0  0.00000000000E+00  0.00000000000E+00 -0.13521126927E+03  0.19532504991E+04  0.19485649656E+04 0.  0.
        1    1    3    3  502    0  0.29957062877E+03 -0.97579197762E+02  0.85654514284E+03  0.91265209319E+03  0.50400001928E-02 0.  1.
       -1    1    3    3    0  502 -0.29957062877E+03  0.97579197762E+02 -0.99175641211E+03  0.10405984059E+04  0.50400001928E-02 0. -1.
</event>
<event>
 5   0  0.1711979E-04  0.1880698E+04  0.7818609E-02  0.8664524E-01
       -1   -1    0    0    0  501  0.00000000000E+00  0.00000000000E+00  0.10016710278E+04  0.10016710278E+04  0.50400001928E-02 0. -1.
        1   -1    0    0  501    0  0.00000000000E+00  0.00000000000E+00 -0.88278114268E+03  0.88278114269E+03  0.50400001928E-02 0.  1.
    10030    2    1    2    0    0  0.00000000000E+00  0.00000000000E+00  0.11888988514E+03  0.18844521705E+04  0.18806980561E+04 0.  0.
        4    1    3    3  502    0 -0.80783572083E+03 -0.24520538141E+03  0.47443401199E+03  0.96840770111E+03  0.12699999809E+01 0. -1.
       -4    1    3    3    0  502  0.80783572083E+03  0.24520538141E+03 -0.35554412685E+03  0.91604446942E+03  0.12699999809E+01 0.  1.
</event>
<event>
 5   0  0.3516539E-04  0.1843893E+04  0.7818609E-02  0.8683300E-01
        2   -1    0    0  501    0  0.00000000000E+00  0.00000000000E+00  0.21423455621E+04  0.21423455621E+04  0.25500000920E-02 0. -1.
       -2   -1    0    0    0  501  0.00000000000E+00  0.00000000000E+00 -0.39675439054E+03  0.39675439055E+03  0.25500000920E-02 0.  1.
    10030    2    1    2    0    0  0.00000000000E+00  0.00000000000E+00  0.17455911716E+04  0.25390999527E+04  0.18438926301E+04 0.  0.
        4    1    3    3  502    0 -0.51299830038E+03 -0.66004008731E+03  0.14081818673E+04  0.16376196009E+04  0.12699999809E+01 0. -1.
       -4    1    3    3    0  502  0.51299830038E+03  0.66004008731E+03  0.33740930427E+03  0.90148035173E+03  0.12699999809E+01 0.  1.
</event>
<event>
 5   0  0.3516539E-04  0.1903007E+04  0.7818609E-02  0.8653361E-01
       -2   -1    0    0    0  501  0.00000000000E+00  0.00000000000E+00  0.54536278222E+03  0.54536278222E+03  0.25500000920E-02 0.  1.
        2   -1    0    0  501    0  0.00000000000E+00  0.00000000000E+00 -0.16601046670E+04  0.16601046670E+04  0.25500000920E-02 0. -1.
    10030    2    1    2    0    0  0.00000000000E+00  0.00000000000E+00 -0.11147418848E+04  0.22054674493E+04  0.19030074093E+04 0.  0.
        4    1    3    3  502    0 -0.31430231683E+03 -0.86759673827E+03 -0.28843830431E+03  0.96680314176E+03  0.12699999809E+01 0.  1.
       -4    1    3    3    0  502  0.31430231683E+03  0.86759673827E+03 -0.82630358049E+03  0.12386643075E+04  0.12699999809E+01 0. -1.
</event>
<event>
 5   0  0.1758946E-04  0.1900524E+04  0.7818609E-02  0.8654596E-01
        1   -1    0    0  501    0  0.00000000000E+00  0.00000000000E+00  0.73028979795E+03  0.73028979796E+03  0.50400001928E-02 0. -1.
       -1   -1    0    0    0  501  0.00000000000E+00  0.00000000000E+00 -0.12364921598E+04  0.12364921598E+04  0.50400001928E-02 0.  1.
    10030    2    1    2    0    0  0.00000000000E+00  0.00000000000E+00 -0.50620236182E+03  0.19667819577E+04  0.19005237273E+04 0.  0.
        2    1    3    3  502    0  0.74882806740E+03  0.55204910177E+03 -0.52711685704E+02  0.93181554349E+03  0.25500000920E-02 0. -1.
       -2    1    3    3    0  502 -0.74882806740E+03 -0.55204910177E+03 -0.45349067611E+03  0.10349664142E+04  0.25500000920E-02 0.  1.
</event>
<event>
 5   0  0.3516539E-04  0.1910194E+04  0.7818609E-02  0.8649799E-01
        2   -1    0    0  501    0  0.00000000000E+00  0.00000000000E+00  0.88211259844E+03  0.88211259844E+03  0.25500000920E-02 0.  1.
       -2   -1    0    0    0  501  0.00000000000E+00  0.00000000000E+00 -0.10341203406E+04  0.10341203406E+04  0.25500000920E-02 0. -1.
    10030    2    1    2    0    0  0.00000000000E+00  0.00000000000E+00 -0.15200774218E+03  0.19162329391E+04  0.19101943155E+04 0.  0.
        4    1    3    3  502    0 -0.46135713340E+03 -0.58551305228E+02  0.76085770530E+03  0.89173130510E+03  0.12699999809E+01 0.  1.
       -4    1    3    3    0  502  0.46135713340E+03  0.58551305228E+02 -0.91286544749E+03  0.10245016340E+04  0.12699999809E+01 0. -1.
</event>
<event>
 5   0  0.1813834E-04  0.1893833E+04  0.7818609E-02  0.8657932E-01
       -1   -1    0    0    0  501  0.00000000000E+00  0.00000000000E+00  0.97398326588E+03  0.97398326589E+03  0.50400001928E-02 0. -1.
        1   -1    0    0  501    0  0.00000000000E+00  0.00000000000E+00 -0.92060230622E+03  0.92060230623E+03  0.50400001928E-02 0.  1.
    10030    2    1    2    0    0  0.00000000000E+00  0.00000000000E+00  0.53380959661E+02  0.18945855721E+04  0.18938334043E+04 0.  0.
        5    1    3    3  502    0  0.89465257040E+03  0.30984434010E+03  0.11771006204E+02  0.94687242193E+03  0.46999998093E+01 0.  1.
       -5    1    3    3    0  502 -0.89465257040E+03 -0.30984434010E+03  0.41609953457E+02  0.94771315019E+03  0.46999998093E+01 0. -1.
</event>
<event>
 5   0  0.1813834E-04  0.1236512E+04  0.7818609E-02  0.9081485E-01
       -1   -1    0    0    0  501  0.00000000000E+00  0.00000000000E+00  0.49531359928E+03  0.49531359930E+03  0.50400001928E-02 0. -1.
        1   -1    0    0  501    0  0.00000000000E+00  0.00000000000E+00 -0.77171358563E+03  0.77171358564E+03  0.50400001928E-02 0.  1.
    10030    2    1    2    0    0  0.00000000000E+00  0.00000000000E+00 -0.27639998635E+03  0.12670271849E+04  0.12365115992E+04 0.  0.
        5    1    3    3  502    0 -0.37544920659E+02 -0.60037835334E+03 -0.28438957245E+03  0.66540461912E+03  0.46999998093E+01 0. -1.
       -5    1    3    3    0  502  0.37544920659E+02  0.60037835334E+03  0.79895861025E+01  0.60162256583E+03  0.46999998093E+01 0.  1.
</event>
<event>
 5   0  0.1813834E-04  0.2049608E+04  0.7818609E-02  0.8583772E-01
        1   -1    0    0  501    0  0.00000000000E+00  0.00000000000E+00  0.79563321501E+03  0.79563321503E+03  0.50400001928E-02 0.  1.
       -1   -1    0    0    0  501  0.00000000000E+00  0.00000000000E+00 -0.13199839904E+04  0.13199839904E+04  0.50400001928E-02 0. -1.
    10030    2    1    2    0    0  0.00000000000E+00  0.00000000000E+00 -0.52435077540E+03  0.21156172055E+04  0.20496078709E+04 0.  0.
        5    1    3    3  502    0  0.16064984889E+03  0.71397411517E+02 -0.13042918778E+04  0.13160947370E+04  0.46999998093E+01 0. -1.
       -5    1    3    3    0  502 -0.16064984889E+03 -0.71397411517E+02  0.77994110240E+03  0.79952246843E+03  0.46999998093E+01 0.  1.
</event>
<event>
 5   0  0.1758946E-04  0.1906789E+04  0.7818609E-02  0.8651484E-01
       -1   -1    0    0    0  501  0.00000000000E+00  0.00000000000E+00  0.64414402355E+03  0.64414402357E+03  0.50400001928E-02 0.  1.
        1   -1    0    0  501    0  0.00000000000E+00  0.00000000000E+00 -0.14111145250E+04  0.14111145250E+04  0.50400001928E-02 0. -1.
    10030    2    1    2    0    0  0.00000000000E+00  0.00000000000E+00 -0.76697050144E+03  0.20552585486E+04  0.19067889111E+04 0.  0.
        2    1    3    3  502    0 -0.47492679467E+03  0.40416759301E+03 -0.11607842372E+04  0.13176975938E+04  0.25500000920E-02 0. -1.
       -2    1    3    3    0  502  0.47492679467E+03 -0.40416759301E+03  0.39381373571E+03  0.73756095476E+03  0.25500000920E-02 0.  1.
</event>
<event>
 5   0  0.3459485E-04  0.1915307E+04  0.7818609E-02  0.8647274E-01
       -2   -1    0    0    0  501  0.00000000000E+00  0.00000000000E+00  0.61086640854E+03  0.61086640855E+03  0.25500000920E-02 0. -1.
        2   -1    0    0  501    0  0.00000000000E+00  0.00000000000E+00 -0.15013107323E+04  0.15013107323E+04  0.25500000920E-02 0.  1.
    10030    2    1    2    0    0  0.00000000000E+00  0.00000000000E+00 -0.89044432373E+03  0.21121771408E+04  0.19153070721E+04 0.  0.
        3    1    3    3  502    0 -0.22088874129E+03 -0.92634302416E+03 -0.33386216477E+03  0.10091418085E+04  0.10100000352E+00 0. -1.
       -3    1    3    3    0  502  0.22088874129E+03  0.92634302416E+03 -0.55658215897E+03  0.11030353323E+04  0.10100000352E+00 0.  1.
</event>
<event>
 5   0  0.3623359E-04  0.1887843E+04  0.7818609E-02  0.8660932E-01
        2   -1    0    0  501    0  0.00000000000E+00  0.00000000000E+00  0.98964269818E+03  0.98964269818E+03  0.25500000920E-02 0.  1.
       -2   -1    0    0    0  501  0.00000000000E+00  0.00000000000E+00 -0.90031249123E+03  0.90031249123E+03  0.25500000920E-02 0. -1.
    10030    2    1    2    0    0  0.00000000000E+00  0.00000000000E+00  0.89330206952E+02  0.18899551894E+04  0.18878428780E+04 0.  0.
        5    1    3    3  502    0  0.90818338605E+03 -0.24205570190E+03  0.13181172768E+03  0.94909664791E+03  0.46999998093E+01 0. -1.
       -5    1    3    3    0  502 -0.90818338605E+03  0.24205570190E+03 -0.42481520732E+02  0.94085854150E+03  0.46999998093E+01 0.  1.
</event>
<event>
 5   0  0.3535876E-04  0.1880201E+04  0.7818609E-02  0.8664775E-01
        2   -1    0    0  501    0  0.00000000000E+00  0.00000000000E+00  0.82327653630E+03  0.82327653631E+03  0.25500000920E-02 0.  1.
       -2   -1    0    0    0  501  0.00000000000E+00  0.00000000000E+00 -0.10735021509E+04  0.10735021509E+04  0.25500000920E-02 0. -1.
    10030    2    1    2    0    0  0.00000000000E+00  0.00000000000E+00 -0.25022561458E+03  0.18967786872E+04  0.18802011940E+04 0.  0.
        2    1    3    3  502    0 -0.59003018367E+02  0.93808510463E+03 -0.14270539307E+03  0.95071018135E+03  0.25500000920E-02 0.  1.
       -2    1    3    3    0  502  0.59003018367E+02 -0.93808510463E+03 -0.10752022151E+03  0.94606850584E+03  0.25500000920E-02 0. -1.
</event>
<event>
 5   0  0.1758946E-04  0.1922892E+04  0.7818609E-02  0.8643545E-01
        1   -1    0    0  501    0  0.00000000000E+00  0.00000000000E+00  0.15451911103E+04  0.15451911103E+04  0.50400001928E-02 0. -1.
       -1   -1    0    0    0  501  0.00000000000E+00  0.00000000000E+00 -0.59822899042E+03  0.59822899045E+03  0.50400001928E-02 0.  1.
    10030    2    1    2    0    0  0.00000000000E+00  0.00000000000E+00  0.94696211986E+03  0.21434201007E+04  0.19228916953E+04 0.  0.
        2    1    3    3  502    0  0.81697047389E+03  0.19898672324E+03  0.99314663953E+03  0.13012980899E+04  0.25500000920E-02 0.  1.
       -2    1    3    3    0  502 -0.81697047389E+03 -0.19898672324E+03 -0.46184519668E+02  0.84212201081E+03  0.25500000920E-02 0. -1.
</event>
<event>
 5   0  0.3720978E-04  0.1726587E+04  0.7818609E-02  0.8746345E-01
       -2   -1    0    0    0  501  0.00000000000E+00  0.00000000000E+00  0.34612350629E+03  0.34612350630E+03  0.25500000920E-02 0. -1.
        2   -1    0    0  501    0  0.00000000000E+00  0.00000000000E+00 -0.21532063909E+04  0.21532063909E+04  0.25500000920E-02 0.  1.
    10030    2    1    2    0    0  0.00000000000E+00  0.00000000000E+00 -0.18070828846E+04  0.24993298972E+04  0.17265866278E+04 0.  0.
        1    1    3    3  502    0 -0.79172817362E+03  0.26753979152E+03 -0.12169106364E+04  0.14762393228E+04  0.50400001928E-02 0.  1.
       -1    1    3    3    0  502  0.79172817362E+03 -0.26753979152E+03 -0.59017224815E+03  0.10230905744E+04  0.50400001928E-02 0. -1.
</event>
<event>
 5   0  0.1287000E-04  0.1675212E+04  0.7818609E-02  0.8775629E-01
       -3   -1    0    0    0  501  0.00000000000E+00  0.00000000000E+00  0.82737138303E+03  0.82737138920E+03  0.10100000352E+00 0.  1.
        3   -1    0    0  501    0  0.00000000000E+00  0.00000000000E+00 -0.84796763834E+03  0.84796764435E+03  0.10100000352E+00 0. -1.
    10030    2    1    2    0    0  0.00000000000E+00  0.00000000000E+00 -0.20596255307E+02  0.16753390335E+04  0.16752124258E+04 0.  0.
        5    1    3    3  502    0  0.29980666857E+03 -0.74642097629E+02 -0.78888544818E+03  0.84724130070E+03  0.46999998093E+01 0. -1.
       -5    1    3    3    0  502 -0.29980666857E+03  0.74642097629E+02  0.76828919288E+03  0.82809773285E+03  0.46999998093E+01 0.  1.
</event>
<event>
 5   0  0.1758946E-04  0.1605604E+04  0.7818609E-02  0.8817113E-01
        1   -1    0    0  501    0  0.00000000000E+00  0.00000000000E+00  0.61959608426E+03  0.61959608428E+03  0.50400001928E-02 0.  1.
       -1   -1    0    0    0  501  0.00000000000E+00  0.00000000000E+00 -0.10401793772E+04  0.10401793772E+04  0.50400001928E-02 0. -1.
    10030    2    1    2    0    0  0.00000000000E+00  0.00000000000E+00 -0.42058329292E+03  0.16597754615E+04  0.16056040222E+04 0.  0.
        2    1    3    3  502    0 -0.17438779468E+03  0.75412945221E+03 -0.43047740679E+03  0.88568229709E+03  0.25500000920E-02 0.  1.
       -2    1    3    3    0  502  0.17438779468E+03 -0.75412945221E+03  0.98941138730E+01  0.77409316437E+03  0.25500000920E-02 0. -1.
</event>
<event>
 5   0  0.1694830E-04  0.1783845E+04  0.7818609E-02  0.8714938E-01
       -1   -1    0    0    0  501  0.00000000000E+00  0.00000000000E+00  0.93049766116E+03  0.93049766118E+03  0.50400001928E-02 0. -1.
        1   -1    0    0  501    0  0.00000000000E+00  0.00000000000E+00 -0.85494670475E+03  0.85494670476E+03  0.50400001928E-02 0.  1.
    10030    2    1    2    0    0  0.00000000000E+00  0.00000000000E+00  0.75550956416E+02  0.17854443659E+04  0.17838451830E+04 0.  0.
        1    1    3    3  502    0  0.49830853593E+03  0.48980741392E+03 -0.51707084224E+03  0.86924389881E+03  0.50400001928E-02 0.  1.
       -1    1    3    3    0  502 -0.49830853593E+03 -0.48980741392E+03  0.59262179865E+03  0.91620046713E+03  0.50400001928E-02 0. -1.
</event>
<event>
 5   0  0.1782613E-04  0.1757653E+04  0.7818609E-02  0.8729149E-01
       -1   -1    0    0    0  501  0.00000000000E+00  0.00000000000E+00  0.69905074556E+03  0.69905074557E+03  0.50400001928E-02 0. -1.
        1   -1    0    0  501    0  0.00000000000E+00  0.00000000000E+00 -0.11048351274E+04  0.11048351274E+04  0.50400001928E-02 0.  1.
    10030    2    1    2    0    0  0.00000000000E+00  0.00000000000E+00 -0.40578438186E+03  0.18038858730E+04  0.17576527752E+04 0.  0.
        3    1    3    3  502    0  0.19224885200E+03  0.63213470241E+03  0.39181695622E+03  0.76816302987E+03  0.10100000352E+00 0. -1.
       -3    1    3    3    0  502 -0.19224885200E+03 -0.63213470241E+03 -0.79760133808E+03  0.10357228431E+04  0.10100000352E+00 0.  1.
</event>
<event>
 5   0  0.1758946E-04  0.1919650E+04  0.7818609E-02  0.8645137E-01
       -1   -1    0    0    0  501  0.00000000000E+00  0.00000000000E+00  0.66929570378E+03  0.66929570380E+03  0.50400001928E-02 0. -1.
        1   -1    0    0  501    0  0.00000000000E+00  0.00000000000E+00 -0.13764675335E+04  0.13764675335E+04  0.50400001928E-02 0.  1.
    10030    2    1    2    0    0  0.00000000000E+00  0.00000000000E+00 -0.70717182975E+03  0.20457632373E+04  0.19196497666E+04 0.  0.
        2    1    3    3  502    0 -0.63653967071E+03  0.71837225947E+03 -0.35862419311E+03  0.10246232320E+04  0.25500000920E-02 0. -1.
       -2    1    3    3    0  502  0.63653967071E+03 -0.71837225947E+03 -0.34854763664E+03  0.10211400054E+04  0.25500000920E-02 0.  1.
</event>
<event>
 5   0  0.1782613E-04  0.1942498E+04  0.7818609E-02  0.8633987E-01
       -1   -1    0    0    0  501  0.00000000000E+00  0.00000000000E+00  0.11296148991E+04  0.11296148991E+04  0.50400001928E-02 0.  1.
        1   -1    0    0  501    0  0.00000000000E+00  0.00000000000E+00 -0.83508527360E+03  0.83508527361E+03  0.50400001928E-02 0. -1.
    10030    2    1    2    0    0  0.00000000000E+00  0.00000000000E+00  0.29452962549E+03  0.19647001727E+04  0.19424981514E+04 0.  0.
        3    1    3    3  502    0 -0.30544970096E+02 -0.95843215029E+03  0.30329918202E+03  0.10057413116E+04  0.10100000352E+00 0.  1.
       -3    1    3    3    0  502  0.30544970096E+02  0.95843215029E+03 -0.87695565366E+01  0.95895886107E+03  0.10100000352E+00 0. -1.
</event>
<event>
 5   0  0.1711979E-04  0.1893092E+04  0.7818609E-02  0.8658303E-01
        1   -1    0    0  501    0  0.00000000000E+00  0.00000000000E+00  0.47266756925E+03  0.47266756927E+03  0.50400001928E-02 0. -1.
       -1   -1    0    0    0  501  0.00000000000E+00  0.00000000000E+00 -0.18955164229E+04  0.18955164229E+04  0.50400001928E-02 0.  1.
    10030    2    1    2    0    0  0.00000000000E+00  0.00000000000E+00 -0.14228488537E+04  0.23681839922E+04  0.18930917993E+04 0.  0.
        4    1    3    3  502    0 -0.72948637664E+03  0.42425952722E+03 -0.17511218491E+03  0.86186565678E+03  0.12699999809E+01 0. -1.
       -4    1    3    3    0  502  0.72948637664E+03 -0.42425952722E+03 -0.12477366688E+04  0.15063183354E+04  0.12699999809E+01 0.  1.
</event>
<event>
 5   0  0.1758946E-04  0.1968459E+04  0.7818609E-02  0.8621511E-01
       -1   -1    0    0    0  501  0.00000000000E+00  0.00000000000E+00  0.67185127273E+03  0.67185127275E+03  0.50400001928E-02 0. -1.
        1   -1    0    0  501    0  0.00000000000E+00  0.00000000000E+00 -0.14418490268E+04  0.14418490268E+04  0.50400001928E-02 0.  1.
    10030    2    1    2    0    0  0.00000000000E+00  0.00000000000E+00 -0.76999775410E+03  0.21137002996E+04  0.19684594014E+04 0.  0.
        2    1    3    3  502    0  0.27293952413E+02  0.27886805747E+03 -0.13981161159E+04  0.14259176088E+04  0.25500000920E-02 0.  1.
       -2    1    3    3    0  502 -0.27293952413E+02 -0.27886805747E+03  0.62811836184E+03  0.68778269082E+03  0.25500000920E-02 0. -1.
</event>
<event>
 5   0  0.3535876E-04  0.1624838E+04  0.7818609E-02  0.8805433E-01
        2   -1    0    0  501    0  0.00000000000E+00  0.00000000000E+00  0.10133881792E+04  0.10133881792E+04  0.25500000920E-02 0. -1.
       -2   -1    0    0    0  501  0.00000000000E+00  0.00000000000E+00 -0.65130512906E+03  0.65130512907E+03  0.25500000920E-02 0.  1.
    10030    2    1    2    0    0  0.00000000000E+00  0.00000000000E+00  0.36208305014E+03  0.16646933083E+04  0.16248383536E+04 0.  0.
        2    1    3    3  502    0  0.20349199644E+02  0.10090725321E+03 -0.64459664414E+03  0.65276427393E+03  0.25500000920E-02 0.  1.
       -2    1    3    3    0  502 -0.20349199644E+02 -0.10090725321E+03  0.10066796943E+04  0.10119290343E+04  0.25500000920E-02 0. -1.
</event>
<event>
 5   0  0.1758946E-04  0.1853746E+04  0.7818609E-02  0.8678229E-01
        1   -1    0    0  501    0  0.00000000000E+00  0.00000000000E+00  0.46175999980E+03  0.46175999983E+03  0.50400001928E-02 0. -1.
       -1   -1    0    0    0  501  0.00000000000E+00  0.00000000000E+00 -0.18604753905E+04  0.18604753905E+04  0.50400001928E-02 0.  1.
    10030    2    1    2    0    0  0.00000000000E+00  0.00000000000E+00 -0.13987153907E+04  0.23222353904E+04  0.18537455230E+04 0.  0.
        2    1    3    3  502    0 -0.36893276984E+03  0.76645482668E+02  0.36147809831E+03  0.52216121480E+03  0.25500000920E-02 0. -1.
       -2    1    3    3    0  502  0.36893276984E+03 -0.76645482668E+02 -0.17601934890E+04  0.18000741756E+04  0.25500000920E-02 0.  1.
</event>
<event>
 5   0  0.1813834E-04  0.1906403E+04  0.7818609E-02  0.8651676E-01
        1   -1    0    0  501    0  0.00000000000E+00  0.00000000000E+00  0.62120961760E+03  0.62120961762E+03  0.50400001928E-02 0.  1.
       -1   -1    0    0    0  501  0.00000000000E+00  0.00000000000E+00 -0.14626186084E+04  0.14626186084E+04  0.50400001928E-02 0. -1.
    10030    2    1    2    0    0  0.00000000000E+00  0.00000000000E+00 -0.84140899078E+03  0.20838282260E+04  0.19064026295E+04 0.  0.
        5    1    3    3  502    0 -0.51172899938E+03  0.15079248998E+03 -0.12841355224E+04  0.13905506369E+04  0.46999998093E+01 0. -1.
       -5    1    3    3    0  502  0.51172899938E+03 -0.15079248998E+03  0.44272653159E+03  0.69327758915E+03  0.46999998093E+01 0.  1.
</event>
<event>
 5   0  0.1287000E-04  0.1539717E+04  0.7818609E-02  0.8858463E-01
        3   -1    0    0  501    0  0.00000000000E+00  0.00000000000E+00  0.83540429364E+03  0.83540429974E+03  0.10100000352E+00 0.  1.
       -3   -1    0    0    0  501  0.00000000000E+00  0.00000000000E+00 -0.70945513842E+03  0.70945514561E+03  0.10100000352E+00 0. -1.
    10030    2    1    2    0    0  0.00000000000E+00  0.00000000000E+00  0.12594915522E+03  0.15448594453E+04  0.15397167000E+04 0.  0.
        3    1    3    3  502    0  0.13025724046E+03 -0.12328308625E+03  0.81415150006E+03  0.83367160399E+03  0.10100000352E+00 0.  1.
       -3    1    3    3    0  502 -0.13025724046E+03  0.12328308625E+03 -0.68820234484E+03  0.71118784136E+03  0.10100000352E+00 0. -1.
</event>
<event>
 5   0  0.3459485E-04  0.1974311E+04  0.7818609E-02  0.8618726E-01
        2   -1    0    0  501    0  0.00000000000E+00  0.00000000000E+00  0.13217633509E+04  0.13217633509E+04  0.25500000920E-02 0. -1.
       -2   -1    0    0    0  501  0.00000000000E+00  0.00000000000E+00 -0.73725486181E+03  0.73725486182E+03  0.25500000920E-02 0.  1.
    10030    2    1    2    0    0  0.00000000000E+00  0.00000000000E+00  0.58450848910E+03  0.20590182127E+04  0.19743114816E+04 0.  0.
        3    1    3    3  502    0 -0.96165726243E+03  0.53011162236E+02  0.51806550926E+03  0.10936117939E+04  0.10100000352E+00 0.  1.
       -3    1    3    3    0  502  0.96165726243E+03 -0.53011162236E+02  0.66442979837E+02  0.96540641881E+03  0.10100000352E+00 0. -1.
</event>
<event>
 5   0  0.3459485E-04  0.1882781E+04  0.7818609E-02  0.8663475E-01
       -2   -1    0    0    0  501  0.00000000000E+00  0.00000000000E+00  0.10512591560E+04  0.10512591560E+04  0.25500000920E-02 0.  1.
        2   -1    0    0  501    0  0.00000000000E+00  0.00000000000E+00 -0.84300431931E+03  0.84300431931E+03  0.25500000920E-02 0. -1.
    10030    2    1    2    0    0  0.00000000000E+00  0.00000000000E+00  0.20825483672E+03  0.18942634753E+04  0.18827809318E+04 0.  0.
        3    1    3    3  502    0 -0.72518177861E+03 -0.59799865298E+03  0.15664729450E+03  0.95290575928E+03  0.10100000352E+00 0.  1.
       -3    1    3    3    0  502  0.72518177861E+03  0.59799865298E+03  0.51607542223E+02  0.94135771607E+03  0.10100000352E+00 0. -1.
</event>
<event>
 5   0  0.3516539E-04  0.1869471E+04  0.7818609E-02  0.8670203E-01
        2   -1    0    0  501    0  0.00000000000E+00  0.00000000000E+00  0.18138898132E+04  0.18138898132E+04  0.25500000920E-02 0.  1.
       -2   -1    0    0    0  501  0.00000000000E+00  0.00000000000E+00 -0.48168904265E+03  0.48168904266E+03  0.25500000920E-02 0. -1.
    10030    2    1    2    0    0  0.00000000000E+00  0.00000000000E+00  0.13322007705E+04  0.22955788558E+04  0.18694714200E+04 0.  0.
        4    1    3    3  502    0  0.16609073940E+02 -0.91685755247E+02  0.18081718008E+04  0.18105714604E+04  0.12699999809E+01 0.  1.
       -4    1    3    3    0  502 -0.16609073940E+02  0.91685755247E+02 -0.47597103029E+03  0.48500739544E+03  0.12699999809E+01 0. -1.
</event>
<event>
 5   0  0.3459485E-04  0.1676318E+04  0.7818609E-02  0.8774988E-01
        2   -1    0    0  501    0  0.00000000000E+00  0.00000000000E+00  0.15264355410E+04  0.15264355410E+04  0.25500000920E-02 0. -1.
       -2   -1    0    0    0  501  0.00000000000E+00  0.00000000000E+00 -0.46022926595E+03  0.46022926595E+03  0.25500000920E-02 0.  1.
    10030    2    1    2    0    0  0.00000000000E+00  0.00000000000E+00  0.10662062751E+04  0.19866648070E+04  0.16763177605E+04 0.  0.
        3    1    3    3  502    0  0.59087517073E+03  0.54468482092E+03  0.25091309028E+03  0.84188622189E+03  0.10100000352E+00 0.  1.
       -3    1    3    3    0  502 -0.59087517073E+03 -0.54468482092E+03  0.81529318481E+03  0.11447785851E+04  0.10100000352E+00 0. -1.
</event>
<event>
 5   0  0.3720978E-04  0.1952021E+04  0.7818609E-02  0.8629387E-01
        2   -1    0    0  501    0  0.00000000000E+00  0.00000000000E+00  0.10659491488E+04  0.10659491488E+04  0.25500000920E-02 0.  1.
       -2   -1    0    0    0  501  0.00000000000E+00  0.00000000000E+00 -0.89366036602E+03  0.89366036602E+03  0.25500000920E-02 0. -1.
    10030    2    1    2    0    0  0.00000000000E+00  0.00000000000E+00  0.17228878280E+03  0.19596095148E+04  0.19520210106E+04 0.  0.
        1    1    3    3  502    0 -0.52474765593E+03  0.29703440905E+03  0.85659582280E+03  0.10475428136E+04  0.50400001928E-02 0.  1.
       -1    1    3    3    0  502  0.52474765593E+03 -0.29703440905E+03 -0.68430704000E+03  0.91206670128E+03  0.50400001928E-02 0. -1.
</event>
<event>
 5   0  0.3459485E-04  0.1907442E+04  0.7818609E-02  0.8651161E-01
       -2   -1    0    0    0  501  0.00000000000E+00  0.00000000000E+00  0.99646547969E+03  0.99646547969E+03  0.25500000920E-02 0. -1.
        2   -1    0    0  501    0  0.00000000000E+00  0.00000000000E+00 -0.91281028405E+03  0.91281028405E+03  0.25500000920E-02 0.  1.
    10030    2    1    2    0    0  0.00000000000E+00  0.00000000000E+00  0.83655195641E+02  0.19092757637E+04  0.19074422010E+04 0.  0.
        3    1    3    3  502    0 -0.84695180472E+03 -0.37101891487E+03 -0.19206672981E+03  0.94438976784E+03  0.10100000352E+00 0.  1.
       -3    1    3    3    0  502  0.84695180472E+03  0.37101891487E+03  0.27572192545E+03  0.96488599590E+03  0.10100000352E+00 0. -1.
</event>
<event>
 5   0  0.3623359E-04  0.1287852E+04  0.7818609E-02  0.9039254E-01
       -2   -1    0    0    0  501  0.00000000000E+00  0.00000000000E+00  0.18991970011E+03  0.18991970012E+03  0.25500000920E-02 0.  1.
        2   -1    0    0  501    0  0.00000000000E+00  0.00000000000E+00 -0.21832422139E+04  0.21832422139E+04  0.25500000920E-02 0. -1.
    10030    2    1    2    0    0  0.00000000000E+00  0.00000000000E+00 -0.19933225138E+04  0.23731619141E+04  0.12878520203E+04 0.  0.
        5    1    3    3  502    0  0.51808477366E+03  0.28954762067E+03 -0.53646227377E+03  0.80003969808E+03  0.46999998093E+01 0.  1.
       -5    1    3    3    0  502 -0.51808477366E+03 -0.28954762067E+03 -0.14568602401E+04  0.15731222160E+04  0.46999998093E+01 0. -1.
</event>
<event>
 5   0  0.1782613E-04  0.1891215E+04  0.7818609E-02  0.8659242E-01
        1   -1    0    0  501    0  0.00000000000E+00  0.00000000000E+00  0.18876022285E+04  0.18876022285E+04  0.50400001928E-02 0.  1.
       -1   -1    0    0    0  501  0.00000000000E+00  0.00000000000E+00 -0.47370846987E+03  0.47370846989E+03  0.50400001928E-02 0. -1.
    10030    2    1    2    0    0  0.00000000000E+00  0.00000000000E+00  0.14138937586E+04  0.23613106984E+04  0.18912145975E+04 0.  0.
        3    1    3    3  502    0  0.36141547150E+03 -0.72080275811E+03  0.90205429264E+02  0.81136600176E+03  0.10100000352E+00 0. -1.
       -3    1    3    3    0  502 -0.36141547150E+03  0.72080275811E+03  0.13236883294E+04  0.15499446966E+04  0.10100000352E+00 0.  1.
</event>
<event>
 5   0  0.1694830E-04  0.1898485E+04  0.7818609E-02  0.8655611E-01
       -1   -1    0    0    0  501  0.00000000000E+00  0.00000000000E+00  0.49119405832E+03  0.49119405835E+03  0.50400001928E-02 0.  1.
        1   -1    0    0  501    0  0.00000000000E+00  0.00000000000E+00 -0.18344304447E+04  0.18344304447E+04  0.50400001928E-02 0. -1.
    10030    2    1    2    0    0  0.00000000000E+00  0.00000000000E+00 -0.13432363864E+04  0.23256245030E+04  0.18984850116E+04 0.  0.
        1    1    3    3  502    0  0.82727140575E+03  0.28786144642E+03 -0.11197353224E+04  0.14216361642E+04  0.50400001928E-02 0. -1.
       -1    1    3    3    0  502 -0.82727140575E+03 -0.28786144642E+03 -0.22350106394E+03  0.90398833882E+03  0.50400001928E-02 0.  1.
</event>
<event>
 5   0  0.1782613E-04  0.1447685E+04  0.7818609E-02  0.8920007E-01
        1   -1    0    0  501    0  0.00000000000E+00  0.00000000000E+00  0.19627377117E+04  0.19627377117E+04  0.50400001928E-02 0.  1.
       -1   -1    0    0    0  501  0.00000000000E+00  0.00000000000E+00 -0.26694750287E+03  0.26694750291E+03  0.50400001928E-02 0. -1.
    10030    2    1    2    0    0  0.00000000000E+00  0.00000000000E+00  0.16957902088E+04  0.22296852146E+04  0.14476849533E+04 0.  0.
        3    1    3    3  502    0 -0.35616000349E+03  0.10002564677E+03  0.18061412127E+04  0.18436380253E+04  0.10100000352E+00 0.  1.
       -3    1    3    3    0  502  0.35616000349E+03 -0.10002564677E+03 -0.11035100386E+03  0.38604718928E+03  0.10100000352E+00 0. -1.
</event>
<event>
 5   0  0.1694830E-04  0.1904986E+04  0.7818609E-02  0.8652379E-01
        1   -1    0    0  501    0  0.00000000000E+00  0.00000000000E+00  0.23628538560E+04  0.23628538560E+04  0.50400001928E-02 0.  1.
       -1   -1    0    0    0  501  0.00000000000E+00  0.00000000000E+00 -0.38396063700E+03  0.38396063703E+03  0.50400001928E-02 0. -1.
    10030    2    1    2    0    0  0.00000000000E+00  0.00000000000E+00  0.19788932190E+04  0.27468144930E+04  0.19049859545E+04 0.  0.
        1    1    3    3  502    0  0.22877468930E+03 -0.35461552424E+03 -0.24180507885E+03  0.48637405839E+03  0.50400001928E-02 0. -1.
       -1    1    3    3    0  502 -0.22877468930E+03  0.35461552424E+03  0.22206982978E+04  0.22604404346E+04  0.50400001928E-02 0.  1.
</event>
<event>
 5   0  0.1711979E-04  0.1918555E+04  0.7818609E-02  0.8645675E-01
       -1   -1    0    0    0  501  0.00000000000E+00  0.00000000000E+00  0.10028708820E+04  0.10028708820E+04  0.50400001928E-02 0.  1.
        1   -1    0    0  501    0  0.00000000000E+00  0.00000000000E+00 -0.91757873064E+03  0.91757873065E+03  0.50400001928E-02 0. -1.
    10030    2    1    2    0    0  0.00000000000E+00  0.00000000000E+00  0.85292151349E+02  0.19204496126E+04  0.19185546548E+04 0.  0.
        4    1    3    3  502    0 -0.86343968171E+03  0.10085485093E+03  0.44864697472E+03  0.97825635992E+03  0.12699999809E+01 0.  1.
       -4    1    3    3    0  502  0.86343968171E+03 -0.10085485093E+03 -0.36335482338E+03  0.94219325272E+03  0.12699999809E+01 0. -1.
</event>
<event>
 5   0  0.3516539E-04  0.1895562E+04  0.7818609E-02  0.8657069E-01
       -2   -1    0    0    0  501  0.00000000000E+00  0.00000000000E+00  0.85135387055E+03  0.85135387056E+03  0.25500000920E-02 0.  1.
        2   -1    0    0  501    0  0.00000000000E+00  0.00000000000E+00 -0.10551296278E+04  0.10551296278E+04  0.25500000920E-02 0. -1.
    10030    2    1    2    0    0  0.00000000000E+00  0.00000000000E+00 -0.20377575726E+03  0.19064834984E+04  0.18955618614E+04 0.  0.
        4    1    3    3  502    0  0.59607732055E+03 -0.19522760203E+02  0.63896861271E+03  0.87405481016E+03  0.12699999809E+01 0.  1.
       -4    1    3    3    0  502 -0.59607732055E+03  0.19522760203E+02 -0.84274436996E+03  0.10324286882E+04  0.12699999809E+01 0. -1.
</event>
<event>
 5   0  0.3623359E-04  0.1939859E+04  0.7818609E-02  0.8635266E-01
       -2   -1    0    0    0  501  0.00000000000E+00  0.00000000000E+00  0.45318043561E+03  0.45318043562E+03  0.25500000920E-02 0.  1.
        2   -1    0    0  501    0  0.00000000000E+00  0.00000000000E+00 -0.20759136148E+04  0.20759136148E+04  0.25500000920E-02 0. -1.
    10030    2    1    2    0    0  0.00000000000E+00  0.00000000000E+00 -0.16227331792E+04  0.25290940504E+04  0.19398592075E+04 0.  0.
        5    1    3    3  502    0 -0.48015550503E+03 -0.70775192996E+03 -0.21493883210E+03  0.88186330852E+03  0.46999998093E+01 0.  1.
       -5    1    3    3    0  502  0.48015550503E+03  0.70775192996E+03 -0.14077943471E+04  0.16472307419E+04  0.46999998093E+01 0. -1.
</event>
<event>
 5   0  0.1694830E-04  0.1757964E+04  0.7818609E-02  0.8728979E-01
       -1   -1    0    0    0  501  0.00000000000E+00  0.00000000000E+00  0.67195840604E+03  0.67195840606E+03  0.50400001928E-02 0.  1.
        1   -1    0    0  501    0  0.00000000000E+00  0.00000000000E+00 -0.11497869827E+04  0.11497869827E+04  0.50400001928E-02 0. -1.
    10030    2    1    2    0    0  0.00000000000E+00  0.00000000000E+00 -0.47782857669E+03  0.18217453888E+04  0.17579636267E+04 0.  0.
        1    1    3    3  502    0 -0.52910138927E+03 -0.91188598713E+02  0.48228514699E+03  0.72170811530E+03  0.50400001928E-02 0.  1.
       -1    1    3    3    0  502  0.52910138927E+03  0.91188598713E+02 -0.96011372368E+03  0.11000372735E+04  0.50400001928E-02 0. -1.
</event>
<event>
 5   0  0.3459485E-04  0.1856213E+04  0.7818609E-02  0.8676964E-01
       -2   -1    0    0    0  501  0.00000000000E+00  0.00000000000E+00  0.34866502828E+03  0.34866502829E+03  0.25500000920E-02 0. -1.
        2   -1    0    0  501    0  0.00000000000E+00  0.00000000000E+00 -0.24705142504E+04  0.24705142504E+04  0.25500000920E-02 0.  1.
    10030    2    1    2    0    0  0.00000000000E+00  0.00000000000E+00 -0.21218492221E+04  0.28191792787E+04  0.18562132647E+04 0.  0.
        3    1    3    3  502    0 -0.61718031239E+03 -0.59118571248E+03 -0.16105672907E+04  0.18232770203E+04  0.10100000352E+00 0. -1.
       -3    1    3    3    0  502  0.61718031239E+03  0.59118571248E+03 -0.51128193138E+03  0.99590225836E+03  0.10100000352E+00 0.  1.
</event>
<event>
 5   0  0.3720978E-04  0.1892383E+04  0.7818609E-02  0.8658657E-01
       -2   -1    0    0    0  501  0.00000000000E+00  0.00000000000E+00  0.14550822029E+04  0.14550822029E+04  0.25500000920E-02 0.  1.
        2   -1    0    0  501    0  0.00000000000E+00  0.00000000000E+00 -0.61527703493E+03  0.61527703494E+03  0.25500000920E-02 0. -1.
    10030    2    1    2    0    0  0.00000000000E+00  0.00000000000E+00  0.83980516799E+03  0.20703592379E+04  0.18923833263E+04 0.  0.
        1    1    3    3  502    0  0.42468286613E+03  0.24032059630E+02  0.13445811240E+04  0.14102593647E+04  0.50400001928E-02 0.  1.
       -1    1    3    3    0  502 -0.42468286613E+03 -0.24032059630E+02 -0.50477595605E+03  0.66009987313E+03  0.50400001928E-02 0. -1.
</event>
<event>
 5   0  0.3535876E-04  0.1942252E+04  0.7818609E-02  0.8634106E-01
        2   -1    0    0  501    0  0.00000000000E+00  0.00000000000E+00  0.16400385288E+04  0.16400385288E+04  0.25500000920E-02 0. -1.
       -2   -1    0    0    0  501  0.00000000000E+00  0.00000000000E+00 -0.57503879989E+03  0.57503879989E+03  0.25500000920E-02 0.  1.
    10030    2    1    2    0    0  0.00000000000E+00  0.00000000000E+00  0.10649997290E+04  0.22150773287E+04  0.19422520819E+04 0.  0.
        2    1    3    3  502    0  0.27141579504E+02 -0.20270826217E+03 -0.55019974245E+03  0.58698131273E+03  0.25500000920E-02 0.  1.
       -2    1    3    3    0  502 -0.27141579504E+02  0.20270826217E+03  0.16151994714E+04  0.16280960160E+04  0.25500000920E-02 0. -1.
</event>
<event>
 5   0  0.1758946E-04  0.1820725E+04  0.7818609E-02  0.8695355E-01
        1   -1    0    0  501    0  0.00000000000E+00  0.00000000000E+00  0.17978425784E+04  0.17978425784E+04  0.50400001928E-02 0. -1.
       -1   -1    0    0    0  501  0.00000000000E+00  0.00000000000E+00 -0.46097491714E+03  0.46097491717E+03  0.50400001928E-02 0.  1.
    10030    2    1    2    0    0  0.00000000000E+00  0.00000000000E+00  0.13368676612E+04  0.22588174956E+04  0.18207254968E+04 0.  0.
        2    1    3    3  502    0 -0.34174999257E+03 -0.74891307278E+03  0.11506745189E+04  0.14148200227E+04  0.25500000920E-02 0. -1.
       -2    1    3    3    0  502  0.34174999257E+03  0.74891307278E+03  0.18619314229E+03  0.84399747289E+03  0.25500000920E-02 0.  1.
</event>
<event>
 5   0  0.1711979E-04  0.1862400E+04  0.7818609E-02  0.8673802E-01
       -1   -1    0    0    0  501  0.00000000000E+00  0.00000000000E+00  0.10797707150E+04  0.10797707151E+04  0.50400001928E-02 0. -1.
        1   -1    0    0  501    0  0.00000000000E+00  0.00000000000E+00 -0.80307217547E+03  0.80307217549E+03  0.50400001928E-02 0.  1.
    10030    2    1    2    0    0  0.00000000000E+00  0.00000000000E+00  0.27669853958E+03  0.18828428906E+04  0.18624004050E+04 0.  0.
        4    1    3    3  502    0 -0.65476018517E+02 -0.12006861337E+02 -0.80066276554E+03  0.80342625719E+03  0.12699999809E+01 0.  1.
       -4    1    3    3    0  502  0.65476018517E+02  0.12006861337E+02  0.10773613051E+04  0.10794166334E+04  0.12699999809E+01 0. -1.
</event>
<event>
 5   0  0.3623359E-04  0.1894222E+04  0.7818609E-02  0.8657738E-01
       -2   -1    0    0    0  501  0.00000000000E+00  0.00000000000E+00  0.76867111628E+03  0.76867111628E+03  0.25500000920E-02 0.  1.
        2   -1    0    0  501    0  0.00000000000E+00  0.00000000000E+00 -0.11669740473E+04  0.11669740473E+04  0.25500000920E-02 0. -1.
    10030    2    1    2    0    0  0.00000000000E+00  0.00000000000E+00 -0.39830293106E+03  0.19356451636E+04  0.18942219972E+04 0.  0.
        5    1    3    3  502    0 -0.43999301409E+02 -0.52831841071E+03 -0.10011330260E+04  0.11328484926E+04  0.46999998093E+01 0. -1.
       -5    1    3    3    0  502  0.43999301409E+02  0.52831841071E+03  0.60283009490E+03  0.80279667098E+03  0.46999998093E+01 0.  1.
</event>
<event>
 5   0  0.1287000E-04  0.1904550E+04  0.7818609E-02  0.8652595E-01
       -4   -1    0    0    0  501  0.00000000000E+00  0.00000000000E+00  0.10422087047E+04  0.10422094785E+04  0.12699999809E+01 0.  1.
        4   -1    0    0  501    0  0.00000000000E+00  0.00000000000E+00 -0.87010053623E+03  0.87010146308E+03  0.12699999809E+01 0. -1.
    10030    2    1    2    0    0  0.00000000000E+00  0.00000000000E+00  0.17210816846E+03  0.19123109416E+04  0.19045503185E+04 0.  0.
        3    1    3    3  502    0  0.60658740782E+03 -0.63072509634E+03 -0.29106327475E+03  0.92221487224E+03  0.10100000352E+00 0. -1.
       -3    1    3    3    0  502 -0.60658740782E+03  0.63072509634E+03  0.46317144320E+03  0.99009606931E+03  0.10100000352E+00 0.  1.
</event>
<event>
 5   0  0.1813834E-04  0.2064166E+04  0.7818609E-02  0.8577195E-01
        1   -1    0    0  501    0  0.00000000000E+00  0.00000000000E+00  0.18540483740E+04  0.18540483740E+04  0.50400001928E-02 0.  1.
       -1   -1    0    0    0  501  0.00000000000E+00  0.00000000000E+00 -0.57452420696E+03  0.57452420698E+03  0.50400001928E-02 0. -1.
    10030    2    1    2    0    0  0.00000000000E+00  0.00000000000E+00  0.12795241670E+04  0.24285725810E+04  0.20641663419E+04 0.  0.
        5    1    3    3  502    0  0.52703113069E+03 -0.68303679439E+03  0.13062198735E+04  0.15654180027E+04  0.46999998093E+01 0.  1.
       -5    1    3    3    0  502 -0.52703113069E+03  0.68303679439E+03 -0.26695706515E+02  0.86315457825E+03  0.46999998093E+01 0. -1.
</event>
<event>
 5   0  0.1711979E-04  0.1882044E+04  0.7818609E-02  0.8663846E-01
        1   -1    0    0  501    0  0.00000000000E+00  0.00000000000E+00  0.97436038297E+03  0.97436038298E+03  0.50400001928E-02 0.  1.
       -1   -1    0    0    0  501  0.00000000000E+00  0.00000000000E+00 -0.90882447868E+03  0.90882447869E+03  0.50400001928E-02 0. -1.
    10030    2    1    2    0    0  0.00000000000E+00  0.00000000000E+00  0.65535904293E+02  0.18831848617E+04  0.18820441728E+04 0.  0.
        4    1    3    3  502    0  0.24119713947E+03  0.36506286666E+03  0.86638392825E+03  0.97060274094E+03  0.12699999809E+01 0.  1.
       -4    1    3    3    0  502 -0.24119713947E+03 -0.36506286666E+03 -0.80084802396E+03  0.91258212073E+03  0.12699999809E+01 0. -1.
</event>
<event>
 5   0  0.1782613E-04  0.1263942E+04  0.7818609E-02  0.9058659E-01
       -1   -1    0    0    0  501  0.00000000000E+00  0.00000000000E+00  0.37511786897E+03  0.37511786901E+03  0.50400001928E-02 0.  1.
        1   -1    0    0  501    0  0.00000000000E+00  0.00000000000E+00 -0.10646982587E+04  0.10646982588E+04  0.50400001928E-02 0. -1.
    10030    2    1    2    0    0  0.00000000000E+00  0.00000000000E+00 -0.68958038977E+03  0.14398161278E+04  0.12639419954E+04 0.  0.
        3    1    3    3  502    0  0.17607415085E+03  0.56028391068E+03 -0.61064668934E+03  0.84723642307E+03  0.10100000352E+00 0. -1.
       -3    1    3    3    0  502 -0.17607415085E+03 -0.56028391068E+03 -0.78933700431E+02  0.59257970470E+03  0.10100000352E+00 0.  1.
</event>
<event>
 5   0  0.1813834E-04  0.1930589E+04  0.7818609E-02  0.8639778E-01
       -1   -1    0    0    0  501  0.00000000000E+00  0.00000000000E+00  0.10050233764E+04  0.10050233764E+04  0.50400001928E-02 0.  1.
        1   -1    0    0  501    0  0.00000000000E+00  0.00000000000E+00 -0.92713583464E+03  0.92713583466E+03  0.50400001928E-02 0. -1.
    10030    2    1    2    0    0  0.00000000000E+00  0.00000000000E+00  0.77887541794E+02  0.19321592111E+04  0.19305887050E+04 0.  0.
        5    1    3    3  502    0 -0.52226050795E+03 -0.13532928994E+03  0.84003294709E+03  0.99837242404E+03  0.46999998093E+01 0.  1.
       -5    1    3    3    0  502  0.52226050795E+03  0.13532928994E+03 -0.76214540530E+03  0.93378678707E+03  0.46999998093E+01 0. -1.
</event>
<event>
 5   0  0.1694830E-04  0.1887617E+04  0.7818609E-02  0.8661045E-01
        1   -1    0    0  501    0  0.00000000000E+00  0.00000000000E+00  0.12411865730E+04  0.12411865730E+04  0.50400001928E-02 0. -1.
       -1   -1    0    0    0  501  0.00000000000E+00  0.00000000000E+00 -0.71767980618E+03  0.71767980619E+03  0.50400001928E-02 0.  1.
    10030    2    1    2    0    0  0.00000000000E+00  0.00000000000E+00  0.52350676683E+03  0.19588663792E+04  0.18876170577E+04 0.  0.
        1    1    3    3  502    0  0.13644813295E+03 -0.75717944640E+03  0.82904606603E+03  0.11310420800E+04  0.50400001928E-02 0. -1.
       -1    1    3    3    0  502 -0.13644813295E+03  0.75717944640E+03 -0.30553929920E+03  0.82782429924E+03  0.50400001928E-02 0.  1.
</event>
<event>
 5   0  0.1287000E-04  0.1940487E+04  0.7818609E-02  0.8634962E-01
       -3   -1    0    0    0  501  0.00000000000E+00  0.00000000000E+00  0.10947787251E+04  0.10947787297E+04  0.10100000352E+00 0.  1.
        3   -1    0    0  501    0  0.00000000000E+00  0.00000000000E+00 -0.85987490792E+03  0.85987491385E+03  0.10100000352E+00 0. -1.
    10030    2    1    2    0    0  0.00000000000E+00  0.00000000000E+00  0.23490381713E+03  0.19546536436E+04  0.19404873262E+04 0.  0.
        3    1    3    3  502    0 -0.58545952147E+03  0.61817204359E+03 -0.35121155766E+03  0.92100439477E+03  0.10100000352E+00 0. -1.
       -3    1    3    3    0  502  0.58545952147E+03 -0.61817204359E+03  0.58611537479E+03  0.10336492488E+04  0.10100000352E+00 0.  1.
</event>
<event>
 5   0  0.3720978E-04  0.1907688E+04  0.7818609E-02  0.8651039E-01
       -2   -1    0    0    0  501  0.00000000000E+00  0.00000000000E+00  0.79177238346E+03  0.79177238347E+03  0.25500000920E-02 0. -1.
        2   -1    0    0  501    0  0.00000000000E+00  0.00000000000E+00 -0.11490904857E+04  0.11490904858E+04  0.25500000920E-02 0.  1.
    10030    2    1    2    0    0  0.00000000000E+00  0.00000000000E+00 -0.35731810229E+03  0.19408628692E+04  0.19076877236E+04 0.  0.
        1    1    3    3  502    0 -0.81956016795E+03 -0.47534864198E+03 -0.29095475119E+03  0.99110537663E+03  0.50400001928E-02 0.  1.
       -1    1    3    3    0  502  0.81956016795E+03  0.47534864198E+03 -0.66363351097E+02  0.94975749259E+03  0.50400001928E-02 0. -1.
</event>
<event>
 5   0  0.1694830E-04  0.1795663E+04  0.7818609E-02  0.8708609E-01
       -1   -1    0    0    0  501  0.00000000000E+00  0.00000000000E+00  0.71805934532E+03  0.71805934534E+03  0.50400001928E-02 0. -1.
        1   -1    0    0  501    0  0.00000000000E+00  0.00000000000E+00 -0.11226109921E+04  0.11226109921E+04  0.50400001928E-02 0.  1.
    10030    2    1    2    0    0  0.00000000000E+00  0.00000000000E+00 -0.40455164676E+03  0.18406703374E+04  0.17956629016E+04 0.  0.
        1    1    3    3  502    0 -0.91972670079E+02 -0.82143635500E+03 -0.56161124800E+03  0.99931168874E+03  0.50400001928E-02 0.  1.
       -1    1    3    3    0  502  0.91972670079E+02  0.82143635500E+03  0.15705960124E+03  0.84135864869E+03  0.50400001928E-02 0. -1.
</event>
<event>
 5   0  0.3516539E-04  0.1677400E+04  0.7818609E-02  0.8774360E-01
       -2   -1    0    0    0  501  0.00000000000E+00  0.00000000000E+00  0.49957802629E+03  0.49957802630E+03  0.25500000920E-02 0. -1.
        2   -1    0    0  501    0  0.00000000000E+00  0.00000000000E+00 -0.14080235221E+04  0.14080235221E+04  0.25500000920E-02 0.  1.
    10030    2    1    2    0    0  0.00000000000E+00  0.00000000000E+00 -0.90844549585E+03  0.19076015484E+04  0.16773999072E+04 0.  0.
        4    1    3    3  502    0 -0.27178369104E+03 -0.50484097548E+03 -0.11503430969E+04  0.12853099387E+04  0.12699999809E+01 0.  1.
       -4    1    3    3    0  502  0.27178369104E+03  0.50484097548E+03  0.24189760100E+03  0.62229160971E+03  0.12699999809E+01 0. -1.
</event>
<event>
 5   0  0.3623359E-04  0.1901885E+04  0.7818609E-02  0.8653919E-01
       -2   -1    0    0    0  501  0.00000000000E+00  0.00000000000E+00  0.10511802828E+04  0.10511802828E+04  0.25500000920E-02 0.  1.
        2   -1    0    0  501    0  0.00000000000E+00  0.00000000000E+00 -0.86026331592E+03  0.86026331592E+03  0.25500000920E-02 0. -1.
    10030    2    1    2    0    0  0.00000000000E+00  0.00000000000E+00  0.19091696690E+03  0.19114435987E+04  0.19018852076E+04 0.  0.
        5    1    3    3  502    0  0.20291604347E+03  0.67966592503E+03  0.73200489482E+03  0.10193007144E+04  0.46999998093E+01 0.  1.
       -5    1    3    3    0  502 -0.20291604347E+03 -0.67966592503E+03 -0.54108792792E+03  0.89214288434E+03  0.46999998093E+01 0. -1.
</event>
<event>
 5   0  0.1758946E-04  0.1857621E+04  0.7818609E-02  0.8676244E-01
        1   -1    0    0  501    0  0.00000000000E+00  0.00000000000E+00  0.91238829195E+03  0.91238829197E+03  0.50400001928E-02 0.  1.
       -1   -1    0    0    0  501  0.00000000000E+00  0.00000000000E+00 -0.94552817934E+03  0.94552817935E+03  0.50400001928E-02 0. -1.
    10030    2    1    2    0    0  0.00000000000E+00  0.00000000000E+00 -0.33139887388E+02  0.18579164713E+04  0.18576208877E+04 0.  0.
        2    1    3    3  502    0 -0.40498739378E+03 -0.51660082195E+03 -0.67378761537E+03  0.94068110909E+03  0.25500000920E-02 0. -1.
       -2    1    3    3    0  502  0.40498739378E+03  0.51660082195E+03  0.64064772798E+03  0.91723536223E+03  0.25500000920E-02 0.  1.
</event>
<event>
 5   0  0.1694830E-04  0.1812825E+04  0.7818609E-02  0.8699509E-01
        1   -1    0    0  501    0  0.00000000000E+00  0.00000000000E+00  0.71451642384E+03  0.71451642386E+03  0.50400001928E-02 0. -1.
       -1   -1    0    0    0  501  0.00000000000E+00  0.00000000000E+00 -0.11498460099E+04  0.11498460099E+04  0.50400001928E-02 0.  1.
    10030    2    1    2    0    0  0.00000000000E+00  0.00000000000E+00 -0.43532958603E+03  0.18643624337E+04  0.18128252635E+04 0.  0.
        1    1    3    3  502    0  0.35738266422E+03 -0.81289034297E+03 -0.40468848296E+03  0.97585134454E+03  0.50400001928E-02 0. -1.
       -1    1    3    3    0  502 -0.35738266422E+03  0.81289034297E+03 -0.30641103072E+02  0.88851108919E+03  0.50400001928E-02 0.  1.
</event>
<event>
 5   0  0.3535876E-04  0.1908357E+04  0.7818609E-02  0.8650708E-01
       -2   -1    0    0    0  501  0.00000000000E+00  0.00000000000E+00  0.90958230851E+03  0.90958230851E+03  0.25500000920E-02 0.  1.
        2   -1    0    0  501    0  0.00000000000E+00  0.00000000000E+00 -0.10009613920E+04  0.10009613920E+04  0.25500000920E-02 0. -1.
    10030    2    1    2    0    0  0.00000000000E+00  0.00000000000E+00 -0.91379083481E+02  0.19105437005E+04  0.19083571717E+04 0.  0.
        2    1    3    3  502    0  0.26814769874E+03  0.91489615618E+03 -0.66755616653E+01  0.95340585695E+03  0.25500000920E-02 0.  1.
       -2    1    3    3    0  502 -0.26814769874E+03 -0.91489615618E+03 -0.84703521816E+02  0.95713784355E+03  0.25500000920E-02 0. -1.
</event>
<event>
 5   0  0.1782613E-04  0.1886051E+04  0.7818609E-02  0.8661831E-01
        1   -1    0    0  501    0  0.00000000000E+00  0.00000000000E+00  0.22138569607E+04  0.22138569607E+04  0.50400001928E-02 0.  1.
       -1   -1    0    0    0  501  0.00000000000E+00  0.00000000000E+00 -0.40169590497E+03  0.40169590500E+03  0.50400001928E-02 0. -1.
    10030    2    1    2    0    0  0.00000000000E+00  0.00000000000E+00  0.18121610557E+04  0.26155528657E+04  0.18860511927E+04 0.  0.
        3    1    3    3  502    0 -0.51539186789E+02  0.43194423874E+03 -0.25424342023E+03  0.50385696392E+03  0.10100000352E+00 0. -1.
       -3    1    3    3    0  502  0.51539186789E+02 -0.43194423874E+03  0.20664044759E+04  0.21116959018E+04  0.10100000352E+00 0.  1.
</event>
<event>
 5   0  0.1782613E-04  0.1918062E+04  0.7818609E-02  0.8645918E-01
        1   -1    0    0  501    0  0.00000000000E+00  0.00000000000E+00  0.83935755201E+03  0.83935755202E+03  0.50400001928E-02 0. -1.
       -1   -1    0    0    0  501  0.00000000000E+00  0.00000000000E+00 -0.10957667869E+04  0.10957667869E+04  0.50400001928E-02 0.  1.
    10030    2    1    2    0    0  0.00000000000E+00  0.00000000000E+00 -0.25640923492E+03  0.19351243390E+04  0.19180616548E+04 0.  0.
        3    1    3    3  502    0  0.27262680285E+03  0.28821464330E+03 -0.10090966421E+04  0.10842827572E+04  0.10100000352E+00 0.  1.
       -3    1    3    3    0  502 -0.27262680285E+03 -0.28821464330E+03  0.75268740715E+03  0.85084158180E+03  0.10100000352E+00 0. -1.
</event>
<event>
 5   0  0.3535876E-04  0.2116392E+04  0.7818609E-02  0.8554057E-01
        2   -1    0    0  501    0  0.00000000000E+00  0.00000000000E+00  0.10762933794E+04  0.10762933795E+04  0.25500000920E-02 0.  1.
       -2   -1    0    0    0  501  0.00000000000E+00  0.00000000000E+00 -0.10404024952E+04  0.10404024952E+04  0.25500000920E-02 0. -1.
    10030    2    1    2    0    0  0.00000000000E+00  0.00000000000E+00  0.35890884204E+02  0.21166958747E+04  0.21163915683E+04 0.  0.
        2    1    3    3  502    0 -0.26928117599E+03 -0.79279532922E+03  0.66514089819E+03  0.10693218413E+04  0.25500000920E-02 0.  1.
       -2    1    3    3    0  502  0.26928117599E+03  0.79279532922E+03 -0.62925001399E+03  0.10473740334E+04  0.25500000920E-02 0. -1.
</event>
<event>
 5   0  0.1813834E-04  0.1925749E+04  0.7818609E-02  0.8642144E-01
        1   -1    0    0  501    0  0.00000000000E+00  0.00000000000E+00  0.30691473226E+04  0.30691473226E+04  0.50400001928E-02 0.  1.
       -1   -1    0    0    0  501  0.00000000000E+00  0.00000000000E+00 -0.30207990984E+03  0.30207990988E+03  0.50400001928E-02 0. -1.
    10030    2    1    2    0    0  0.00000000000E+00  0.00000000000E+00  0.27670674127E+04  0.33712272325E+04  0.19257494609E+04 0.  0.
        5    1    3    3  502    0  0.62010459941E+03 -0.69448938725E+03  0.95379510428E+03  0.13328887479E+04  0.46999998093E+01 0.  1.
       -5    1    3    3    0  502 -0.62010459941E+03  0.69448938725E+03  0.18132723085E+04  0.20383384846E+04  0.46999998093E+01 0. -1.
</event>
<event>
 5   0  0.3459485E-04  0.1907303E+04  0.7818609E-02  0.8651230E-01
       -2   -1    0    0    0  501  0.00000000000E+00  0.00000000000E+00  0.61362566794E+03  0.61362566794E+03  0.25500000920E-02 0. -1.
        2   -1    0    0  501    0  0.00000000000E+00  0.00000000000E+00 -0.14820949918E+04  0.14820949918E+04  0.25500000920E-02 0.  1.
    10030    2    1    2    0    0  0.00000000000E+00  0.00000000000E+00 -0.86846932388E+03  0.20957206598E+04  0.19073033627E+04 0.  0.
        3    1    3    3  502    0  0.68195595783E+03  0.52067319136E+03 -0.89163516190E+03  0.12374076825E+04  0.10100000352E+00 0. -1.
       -3    1    3    3    0  502 -0.68195595783E+03 -0.52067319136E+03  0.23165838027E+02  0.85831297723E+03  0.10100000352E+00 0.  1.
</event>
<event>
 5   0  0.3459485E-04  0.1883028E+04  0.7818609E-02  0.8663351E-01
        2   -1    0    0  501    0  0.00000000000E+00  0.00000000000E+00  0.22221034852E+04  0.22221034852E+04  0.25500000920E-02 0.  1.
       -2   -1    0    0    0  501  0.00000000000E+00  0.00000000000E+00 -0.39892324673E+03  0.39892324673E+03  0.25500000920E-02 0. -1.
    10030    2    1    2    0    0  0.00000000000E+00  0.00000000000E+00  0.18231802385E+04  0.26210267319E+04  0.18830281324E+04 0.  0.
        3    1    3    3  502    0  0.44007063765E+03  0.55121087661E+03  0.43503069635E+02  0.70667398698E+03  0.10100000352E+00 0. -1.
       -3    1    3    3    0  502 -0.44007063765E+03 -0.55121087661E+03  0.17796771688E+04  0.19143527449E+04  0.10100000352E+00 0.  1.
</event>
<event>
 5   0  0.3535876E-04  0.1905655E+04  0.7818609E-02  0.8652047E-01
        2   -1    0    0  501    0  0.00000000000E+00  0.00000000000E+00  0.16114401325E+04  0.16114401325E+04  0.25500000920E-02 0.  1.
       -2   -1    0    0    0  501  0.00000000000E+00  0.00000000000E+00 -0.56339659721E+03  0.56339659722E+03  0.25500000920E-02 0. -1.
    10030    2    1    2    0    0  0.00000000000E+00  0.00000000000E+00  0.10480435353E+04  0.21748367297E+04  0.19056546248E+04 0.  0.
        2    1    3    3  502    0  0.46323943895E+03  0.64186327246E+03 -0.81274272556E+02  0.79572906552E+03  0.25500000920E-02 0. -1.
       -2    1    3    3    0  502 -0.46323943895E+03 -0.64186327246E+03  0.11293178078E+04  0.13791076642E+04  0.25500000920E-02 0.  1.
</event>
<event>
 5   0  0.1711979E-04  0.1904578E+04  0.7818609E-02  0.8652581E-01
        1   -1    0    0  501    0  0.00000000000E+00  0.00000000000E+00  0.12763988103E+04  0.12763988103E+04  0.50400001928E-02 0.  1.
       -1   -1    0    0    0  501  0.00000000000E+00  0.00000000000E+00 -0.71047857544E+03  0.71047857545E+03  0.50400001928E-02 0. -1.
    10030    2    1    2    0    0  0.00000000000E+00  0.00000000000E+00  0.56592023486E+03  0.19868773858E+04  0.19045776524E+04 0.  0.
        4    1    3    3  502    0  0.19306697273E+03  0.77917324132E+03 -0.25149274199E+03  0.84121103661E+03  0.12699999809E+01 0. -1.
       -4    1    3    3    0  502 -0.19306697273E+03 -0.77917324132E+03  0.81741297685E+03  0.11456663491E+04  0.12699999809E+01 0.  1.
</event>
<event>
 5   0  0.3720978E-04  0.1878218E+04  0.7818609E-02  0.8665775E-01
       -2   -1    0    0    0  501  0.00000000000E+00  0.00000000000E+00  0.79254178508E+03  0.79254178509E+03  0.25500000920E-02 0. -1.
        2   -1    0    0  501    0  0.00000000000E+00  0.00000000000E+00 -0.11127815987E+04  0.11127815987E+04  0.25500000920E-02 0.  1.
    10030    2    1    2    0    0  0.00000000000E+00  0.00000000000E+00 -0.32023981358E+03  0.19053233838E+04  0.18782182138E+04 0.  0.
        1    1    3    3  502    0 -0.41841618264E+03  0.68825268046E+03  0.32971709943E+03  0.87033167226E+03  0.50400001928E-02 0. -1.
       -1    1    3    3    0  502  0.41841618264E+03 -0.68825268046E+03 -0.64995691302E+03  0.10349917115E+04  0.50400001928E-02 0.  1.
</event>
<event>
 5   0  0.3535876E-04  0.1884358E+04  0.7818609E-02  0.8662682E-01
        2   -1    0    0  501    0  0.00000000000E+00  0.00000000000E+00  0.25533903311E+04  0.25533903311E+04  0.25500000920E-02 0. -1.
       -2   -1    0    0    0  501  0.00000000000E+00  0.00000000000E+00 -0.34765592627E+03  0.34765592627E+03  0.25500000920E-02 0.  1.
    10030    2    1    2    0    0  0.00000000000E+00  0.00000000000E+00  0.22057344048E+04  0.29010462573E+04  0.18843580134E+04 0.  0.
        2    1    3    3  502    0  0.30939521059E+03  0.76376487386E+03  0.39965064619E+03  0.91585087099E+03  0.25500000920E-02 0.  1.
       -2    1    3    3    0  502 -0.30939521059E+03 -0.76376487386E+03  0.18060837586E+04  0.19851953864E+04  0.25500000920E-02 0. -1.
</event>
<event>
 5   0  0.3720978E-04  0.1989792E+04  0.7818609E-02  0.8611408E-01
       -2   -1    0    0    0  501  0.00000000000E+00  0.00000000000E+00  0.86205691485E+03  0.86205691486E+03  0.25500000920E-02 0. -1.
        2   -1    0    0  501    0  0.00000000000E+00  0.00000000000E+00 -0.11482052200E+04  0.11482052200E+04  0.25500000920E-02 0.  1.
    10030    2    1    2    0    0  0.00000000000E+00  0.00000000000E+00 -0.28614830511E+03  0.20102621348E+04  0.19897921997E+04 0.  0.
        1    1    3    3  502    0  0.51470710142E+03  0.70981293005E+03 -0.61808168528E+03  0.10727454337E+04  0.50400001928E-02 0.  1.
       -1    1    3    3    0  502 -0.51470710142E+03 -0.70981293005E+03  0.33193338017E+03  0.93751670108E+03  0.50400001928E-02 0. -1.
</event>
<event>
 5   0  0.3459485E-04  0.1878826E+04  0.7818609E-02  0.8665468E-01
       -2   -1    0    0    0  501  0.00000000000E+00  0.00000000000E+00  0.85200767687E+03  0.85200767687E+03  0.25500000920E-02 0.  1.
        2   -1    0    0  501    0  0.00000000000E+00  0.00000000000E+00 -0.10357850490E+04  0.10357850490E+04  0.25500000920E-02 0. -1.
    10030    2    1    2    0    0  0.00000000000E+00  0.00000000000E+00 -0.18377737217E+03  0.18877927259E+04  0.18788260307E+04 0.  0.
        3    1    3    3  502    0 -0.31116231822E+03 -0.33812913716E+03 -0.91515459989E+03  0.10240416269E+04  0.10100000352E+00 0. -1.
       -3    1    3    3    0  502  0.31116231822E+03  0.33812913716E+03  0.73137722772E+03  0.86375109904E+03  0.10100000352E+00 0.  1.
</event>
<event>
 5   0  0.1758946E-04  0.1863670E+04  0.7818609E-02  0.8673154E-01
        1   -1    0    0  501    0  0.00000000000E+00  0.00000000000E+00  0.96207225060E+03  0.96207225061E+03  0.50400001928E-02 0. -1.
       -1   -1    0    0    0  501  0.00000000000E+00  0.00000000000E+00 -0.90254817325E+03  0.90254817327E+03  0.50400001928E-02 0.  1.
    10030    2    1    2    0    0  0.00000000000E+00  0.00000000000E+00  0.59524077345E+02  0.18646204239E+04  0.18636700913E+04 0.  0.
        2    1    3    3  502    0 -0.69676518523E+03 -0.59586591419E+03 -0.13699220739E+03  0.92698693407E+03  0.25500000920E-02 0.  1.
       -2    1    3    3    0  502  0.69676518523E+03  0.59586591419E+03  0.19651628473E+03  0.93763348981E+03  0.25500000920E-02 0. -1.
</event>
<event>
 5   0  0.3720978E-04  0.1945377E+04  0.7818609E-02  0.8632593E-01
        2   -1    0    0  501    0  0.00000000000E+00  0.00000000000E+00  0.12031185730E+04  0.12031185730E+04  0.25500000920E-02 0. -1.
       -2   -1    0    0    0  501  0.00000000000E+00  0.00000000000E+00 -0.78639194438E+03  0.78639194439E+03  0.25500000920E-02 0.  1.
    10030    2    1    2    0    0  0.00000000000E+00  0.00000000000E+00  0.41672662859E+03  0.19895105174E+04  0.19453768313E+04 0.  0.
        1    1    3    3  502    0  0.52467962069E+03  0.20705805671E+03 -0.60205424061E+03  0.82500366779E+03  0.50400001928E-02 0.  1.
       -1    1    3    3    0  502 -0.52467962069E+03 -0.20705805671E+03  0.10187808692E+04  0.11645068496E+04  0.50400001928E-02 0. -1.
</event>
<event>
 5   0  0.3516539E-04  0.1905638E+04  0.7818609E-02  0.8652055E-01
       -2   -1    0    0    0  501  0.00000000000E+00  0.00000000000E+00  0.13959052553E+04  0.13959052553E+04  0.25500000920E-02 0.  1.
        2   -1    0    0  501    0  0.00000000000E+00  0.00000000000E+00 -0.65037632417E+03  0.65037632417E+03  0.25500000920E-02 0. -1.
    10030    2    1    2    0    0  0.00000000000E+00  0.00000000000E+00  0.74552893112E+03  0.20462815795E+04  0.19056376663E+04 0.  0.
        4    1    3    3  502    0 -0.32101599426E+02 -0.75599825108E+03  0.99455013467E+03  0.12496781392E+04  0.12699999809E+01 0.  1.
       -4    1    3    3    0  502  0.32101599426E+02  0.75599825108E+03 -0.24902120355E+03  0.79660344027E+03  0.12699999809E+01 0. -1.
</event>
<event>
 5   0  0.1694830E-04  0.1912546E+04  0.7818609E-02  0.8648637E-01
       -1   -1    0    0    0  501  0.00000000000E+00  0.00000000000E+00  0.11650908720E+04  0.11650908720E+04  0.50400001928E-02 0.  1.
        1   -1    0    0  501    0  0.00000000000E+00  0.00000000000E+00 -0.78488097368E+03  0.78488097370E+03  0.50400001928E-02 0. -1.
    10030    2    1    2    0    0  0.00000000000E+00  0.00000000000E+00  0.38020989831E+03  0.19499718457E+04  0.19125455896E+04 0.  0.
        1    1    3    3  502    0 -0.63511703129E+03 -0.71373165229E+03  0.14842536593E+03  0.96685914393E+03  0.50400001928E-02 0.  1.
       -1    1    3    3    0  502  0.63511703129E+03  0.71373165229E+03  0.23178453238E+03  0.98311270178E+03  0.50400001928E-02 0. -1.
</event>
<event>
 5   0  0.1758946E-04  0.1896710E+04  0.7818609E-02  0.8656496E-01
       -1   -1    0    0    0  501  0.00000000000E+00  0.00000000000E+00  0.57377533751E+03  0.57377533753E+03  0.50400001928E-02 0. -1.
        1   -1    0    0  501    0  0.00000000000E+00  0.00000000000E+00 -0.15674733059E+04  0.15674733059E+04  0.50400001928E-02 0.  1.
    10030    2    1    2    0    0  0.00000000000E+00  0.00000000000E+00 -0.99369796838E+03  0.21412486434E+04  0.18967103365E+04 0.  0.
        2    1    3    3  502    0 -0.31308744744E+03  0.80167053092E+03 -0.47147175883E+02  0.86192937419E+03  0.25500000920E-02 0. -1.
       -2    1    3    3    0  502  0.31308744744E+03 -0.80167053092E+03 -0.94655079250E+03  0.12793192692E+04  0.25500000920E-02 0.  1.
</event>
<event>
 5   0  0.1813834E-04  0.1991626E+04  0.7818609E-02  0.8610546E-01
       -1   -1    0    0    0  501  0.00000000000E+00  0.00000000000E+00  0.20611796980E+04  0.20611796980E+04  0.50400001928E-02 0. -1.
        1   -1    0    0  501    0  0.00000000000E+00  0.00000000000E+00 -0.48110480136E+03  0.48110480138E+03  0.50400001928E-02 0.  1.
    10030    2    1    2    0    0  0.00000000000E+00  0.00000000000E+00  0.15800748967E+04  0.25422844994E+04  0.19916259179E+04 0.  0.
        5    1    3    3  502    0  0.39802515278E+03 -0.76185572499E+03  0.14318111045E+04  0.16700159571E+04  0.46999998093E+01 0. -1.
       -5    1    3    3    0  502 -0.39802515278E+03  0.76185572499E+03  0.14826379222E+03  0.87226854238E+03  0.46999998093E+01 0.  1.
</event>
<event>
 5   0  0.1287000E-04  0.1894065E+04  0.7818609E-02  0.8657816E-01
       -3   -1    0    0    0  501  0.00000000000E+00  0.00000000000E+00  0.73716739130E+03  0.73716739822E+03  0.10100000352E+00 0.  1.
        3   -1    0    0  501    0  0.00000000000E+00  0.00000000000E+00 -0.12166446997E+04  0.12166447039E+04  0.10100000352E+00 0. -1.
    10030    2    1    2    0    0  0.00000000000E+00  0.00000000000E+00 -0.47947730842E+03  0.19538121021E+04  0.18940652685E+04 0.  0.
        1    1    3    3  502    0  0.32245843431E+03  0.39292733998E+03 -0.10640060600E+04  0.11791862584E+04  0.50400001928E-02 0. -1.
       -1    1    3    3    0  502 -0.32245843431E+03 -0.39292733998E+03  0.58452875154E+03  0.77462584373E+03  0.50400001928E-02 0.  1.
</event>
<event>
 5   0  0.1782613E-04  0.1827692E+04  0.7818609E-02  0.8691710E-01
        1   -1    0    0  501    0  0.00000000000E+00  0.00000000000E+00  0.15840617101E+04  0.15840617101E+04  0.50400001928E-02 0. -1.
       -1   -1    0    0    0  501  0.00000000000E+00  0.00000000000E+00 -0.52719816144E+03  0.52719816147E+03  0.50400001928E-02 0.  1.
    10030    2    1    2    0    0  0.00000000000E+00  0.00000000000E+00  0.10568635487E+04  0.21112598716E+04  0.18276919010E+04 0.  0.
        3    1    3    3  502    0  0.45405204837E+03 -0.78276506814E+03  0.38126901618E+03  0.98196256926E+03  0.10100000352E+00 0.  1.
       -3    1    3    3    0  502 -0.45405204837E+03  0.78276506814E+03  0.67559453251E+03  0.11292973023E+04  0.10100000352E+00 0. -1.
</event>
<event>
 5   0  0.3516539E-04  0.1912360E+04  0.7818609E-02  0.8648729E-01
        2   -1    0    0  501    0  0.00000000000E+00  0.00000000000E+00  0.24388521937E+04  0.24388521937E+04  0.25500000920E-02 0.  1.
       -2   -1    0    0    0  501  0.00000000000E+00  0.00000000000E+00 -0.37488120069E+03  0.37488120070E+03  0.25500000920E-02 0. -1.
    10030    2    1    2    0    0  0.00000000000E+00  0.00000000000E+00  0.20639709930E+04  0.28137333944E+04  0.19123596301E+04 0.  0.
        4    1    3    3  502    0  0.85976866106E+02  0.53627238759E+03  0.21898647231E+04  0.22562112519E+04  0.12699999809E+01 0.  1.
       -4    1    3    3    0  502 -0.85976866106E+02 -0.53627238759E+03 -0.12589373003E+03  0.55752214248E+03  0.12699999809E+01 0. -1.
</event>
<event>
 5   0  0.1694830E-04  0.1911244E+04  0.7818609E-02  0.8649280E-01
        1   -1    0    0  501    0  0.00000000000E+00  0.00000000000E+00  0.12018636406E+04  0.12018636406E+04  0.50400001928E-02 0. -1.
       -1   -1    0    0    0  501  0.00000000000E+00  0.00000000000E+00 -0.75983095440E+03  0.75983095442E+03  0.50400001928E-02 0.  1.
    10030    2    1    2    0    0  0.00000000000E+00  0.00000000000E+00  0.44203268616E+03  0.19616945950E+04  0.19112437805E+04 0.  0.
        1    1    3    3  502    0  0.20771871935E+03  0.57121337765E+03  0.97789714172E+03  0.11513968078E+04  0.50400001928E-02 0. -1.
       -1    1    3    3    0  502 -0.20771871935E+03 -0.57121337765E+03 -0.53586445557E+03  0.81029778720E+03  0.50400001928E-02 0.  1.
</event>
<event>
 5   0  0.3623359E-04  0.1958865E+04  0.7818609E-02  0.8626098E-01
       -2   -1    0    0    0  501  0.00000000000E+00  0.00000000000E+00  0.93840394416E+03  0.93840394417E+03  0.25500000920E-02 0.  1.
        2   -1    0    0  501    0  0.00000000000E+00  0.00000000000E+00 -0.10222551910E+04  0.10222551911E+04  0.25500000920E-02 0. -1.
    10030    2    1    2    0    0  0.00000000000E+00  0.00000000000E+00 -0.83851246885E+02  0.19606591352E+04  0.19588652871E+04 0.  0.
        5    1    3    3  502    0 -0.67200555595E+03  0.34495392844E+03  0.58208858816E+03  0.95364243532E+03  0.46999998093E+01 0.  1.
       -5    1    3    3    0  502  0.67200555595E+03 -0.34495392844E+03 -0.66593983505E+03  0.10070166999E+04  0.46999998093E+01 0. -1.
</event>
<event>
 5   0  0.3623359E-04  0.1896581E+04  0.7818609E-02  0.8656560E-01
       -2   -1    0    0    0  501  0.00000000000E+00  0.00000000000E+00  0.63232246577E+03  0.63232246578E+03  0.25500000920E-02 0.  1.
        2   -1    0    0  501    0  0.00000000000E+00  0.00000000000E+00 -0.14221462879E+04  0.14221462879E+04  0.25500000920E-02 0. -1.
    10030    2    1    2    0    0  0.00000000000E+00  0.00000000000E+00 -0.78982382214E+03  0.20544687537E+04  0.18965811846E+04 0.  0.
        5    1    3    3  502    0  0.93421620999E+03  0.15417806086E+03 -0.45122162383E+03  0.10488821885E+04  0.46999998093E+01 0.  1.
       -5    1    3    3    0  502 -0.93421620999E+03 -0.15417806086E+03 -0.33860219830E+03  0.10055865652E+04  0.46999998093E+01 0. -1.
</event>
<event>
 5   0  0.3623359E-04  0.1910495E+04  0.7818609E-02  0.8649650E-01
        2   -1    0    0  501    0  0.00000000000E+00  0.00000000000E+00  0.11717503275E+04  0.11717503276E+04  0.25500000920E-02 0.  1.
       -2   -1    0    0    0  501  0.00000000000E+00  0.00000000000E+00 -0.77874750004E+03  0.77874750004E+03  0.25500000920E-02 0. -1.
    10030    2    1    2    0    0  0.00000000000E+00  0.00000000000E+00  0.39300282751E+03  0.19504978276E+04  0.19104948451E+04 0.  0.
        5    1    3    3  502    0 -0.15839334366E+03 -0.83302511448E+03 -0.25254474899E+03  0.88477128847E+03  0.46999998093E+01 0. -1.
       -5    1    3    3    0  502  0.15839334366E+03  0.83302511448E+03  0.64554757650E+03  0.10657265391E+04  0.46999998093E+01 0.  1.
</event>
<event>
 5   0  0.3535876E-04  0.1874276E+04  0.7818609E-02  0.8667768E-01
       -2   -1    0    0    0  501  0.00000000000E+00  0.00000000000E+00  0.59053614741E+03  0.59053614741E+03  0.25500000920E-02 0.  1.
        2   -1    0    0  501    0  0.00000000000E+00  0.00000000000E+00 -0.14871693951E+04  0.14871693951E+04  0.25500000920E-02 0. -1.
    10030    2    1    2    0    0  0.00000000000E+00  0.00000000000E+00 -0.89663324765E+03  0.20777055425E+04  0.18742756309E+04 0.  0.
        2    1    3    3  502    0 -0.22355923614E+03 -0.58525641010E+03  0.32426627721E+03  0.70544483567E+03  0.25500000920E-02 0.  1.
       -2    1    3    3    0  502  0.22355923614E+03  0.58525641010E+03 -0.12208995249E+04  0.13722607068E+04  0.25500000920E-02 0. -1.
</event>
<event>
 5   0  0.1711979E-04  0.1784647E+04  0.7818609E-02  0.8714507E-01
        1   -1    0    0  501    0  0.00000000000E+00  0.00000000000E+00  0.13668106880E+04  0.13668106880E+04  0.50400001928E-02 0. -1.
       -1   -1    0    0    0  501  0.00000000000E+00  0.00000000000E+00 -0.58255406576E+03  0.58255406579E+03  0.50400001928E-02 0.  1.
    10030    2    1    2    0    0  0.00000000000E+00  0.00000000000E+00  0.78425662220E+03  0.19493647538E+04  0.17846468821E+04 0.  0.
        4    1    3    3  502    0  0.26677563695E+03 -0.74960311741E+03 -0.49091389170E+02  0.79717353914E+03  0.12699999809E+01 0.  1.
       -4    1    3    3    0  502 -0.26677563695E+03  0.74960311741E+03  0.83334801137E+03  0.11521912146E+04  0.12699999809E+01 0. -1.
</event>
<event>
 5   0  0.3720978E-04  0.1911646E+04  0.7818609E-02  0.8649081E-01
       -2   -1    0    0    0  501  0.00000000000E+00  0.00000000000E+00  0.10098596612E+04  0.10098596612E+04  0.25500000920E-02 0. -1.
        2   -1    0    0  501    0  0.00000000000E+00  0.00000000000E+00 -0.90467781565E+03  0.90467781566E+03  0.25500000920E-02 0.  1.
    10030    2    1    2    0    0  0.00000000000E+00  0.00000000000E+00  0.10518184557E+03  0.19145374769E+04  0.19116460263E+04 0.  0.
        1    1    3    3  502    0  0.12540262718E+03 -0.29852968272E+03  0.95325747562E+03  0.10067500212E+04  0.50400001928E-02 0. -1.
       -1    1    3    3    0  502 -0.12540262718E+03  0.29852968272E+03 -0.84807563005E+03  0.90778745567E+03  0.50400001928E-02 0.  1.
</event>
<event>
 5   0  0.3623359E-04  0.1913068E+04  0.7818609E-02  0.8648379E-01
       -2   -1    0    0    0  501  0.00000000000E+00  0.00000000000E+00  0.68450477118E+03  0.68450477119E+03  0.25500000920E-02 0.  1.
        2   -1    0    0  501    0  0.00000000000E+00  0.00000000000E+00 -0.13366703406E+04  0.13366703406E+04  0.25500000920E-02 0. -1.
    10030    2    1    2    0    0  0.00000000000E+00  0.00000000000E+00 -0.65216556942E+03  0.20211751118E+04  0.19130679294E+04 0.  0.
        5    1    3    3  502    0 -0.42700823746E+03 -0.85585070541E+03 -0.31457357356E+03  0.10068739186E+04  0.46999998093E+01 0.  1.
       -5    1    3    3    0  502  0.42700823746E+03  0.85585070541E+03 -0.33759199586E+03  0.10143011932E+04  0.46999998093E+01 0. -1.
</event>
<event>
 5   0  0.3516539E-04  0.1904960E+04  0.7818609E-02  0.8652392E-01
       -2   -1    0    0    0  501  0.00000000000E+00  0.00000000000E+00  0.12318527239E+04  0.12318527239E+04  0.25500000920E-02 0. -1.
        2   -1    0    0  501    0  0.00000000000E+00  0.00000000000E+00 -0.73646614011E+03  0.73646614011E+03  0.25500000920E-02 0.  1.
    10030    2    1    2    0    0  0.00000000000E+00  0.00000000000E+00  0.49538658377E+03  0.19683188640E+04  0.19049596539E+04 0.  0.
        4    1    3    3  502    0  0.61244042089E+02 -0.92697617836E+03  0.30510614769E+02  0.92949888566E+03  0.12699999809E+01 0.  1.
       -4    1    3    3    0  502 -0.61244042089E+02  0.92697617836E+03  0.46487596900E+03  0.10388199783E+04  0.12699999809E+01 0. -1.
</event>
<event>
 5   0  0.3459485E-04  0.1917683E+04  0.7818609E-02  0.8646104E-01
        2   -1    0    0  501    0  0.00000000000E+00  0.00000000000E+00  0.12177159582E+04  0.12177159582E+04  0.25500000920E-02 0. -1.
       -2   -1    0    0    0  501  0.00000000000E+00  0.00000000000E+00 -0.75500086902E+03  0.75500086902E+03  0.25500000920E-02 0.  1.
    10030    2    1    2    0    0  0.00000000000E+00  0.00000000000E+00  0.46271508920E+03  0.19727168272E+04  0.19176825667E+04 0.  0.
        3    1    3    3  502    0 -0.19916939007E+02  0.39591846452E+03  0.11294697846E+04  0.11970171759E+04  0.10100000352E+00 0. -1.
       -3    1    3    3    0  502  0.19916939007E+02 -0.39591846452E+03 -0.66675469539E+03  0.77569965130E+03  0.10100000352E+00 0.  1.
</event>
<event>
 5   0  0.3623359E-04  0.1902820E+04  0.7818609E-02  0.8653454E-01
       -2   -1    0    0    0  501  0.00000000000E+00  0.00000000000E+00  0.71742705219E+03  0.71742705220E+03  0.25500000920E-02 0. -1.
        2   -1    0    0  501    0  0.00000000000E+00  0.00000000000E+00 -0.12617041965E+04  0.12617041965E+04  0.25500000920E-02 0.  1.
    10030    2    1    2    0    0  0.00000000000E+00  0.00000000000E+00 -0.54427714427E+03  0.19791312487E+04  0.19028197207E+04 0.  0.
        5    1    3    3  502    0  0.37615634911E+03  0.74820595619E+03  0.19746931086E+03  0.86041964796E+03  0.46999998093E+01 0. -1.
       -5    1    3    3    0  502 -0.37615634911E+03 -0.74820595619E+03 -0.74174645513E+03  0.11187116007E+04  0.46999998093E+01 0.  1.
</event>
<event>
 5   0  0.1711979E-04  0.1847281E+04  0.7818609E-02  0.8681552E-01
       -1   -1    0    0    0  501  0.00000000000E+00  0.00000000000E+00  0.36878045553E+03  0.36878045556E+03  0.50400001928E-02 0. -1.
        1   -1    0    0  501    0  0.00000000000E+00  0.00000000000E+00 -0.23133319310E+04  0.23133319310E+04  0.50400001928E-02 0.  1.
    10030    2    1    2    0    0  0.00000000000E+00  0.00000000000E+00 -0.19445514755E+04  0.26821123866E+04  0.18472808161E+04 0.  0.
        4    1    3    3  502    0  0.44366915586E+03 -0.11977012324E+03 -0.21355589170E+04  0.21844451706E+04  0.12699999809E+01 0.  1.
       -4    1    3    3    0  502 -0.44366915586E+03  0.11977012324E+03  0.19100744152E+03  0.49766721601E+03  0.12699999809E+01 0. -1.
</event>
<event>
 5   0  0.1782613E-04  0.1900494E+04  0.7818609E-02  0.8654610E-01
        1   -1    0    0  501    0  0.00000000000E+00  0.00000000000E+00  0.11828128396E+04  0.11828128396E+04  0.50400001928E-02 0.  1.
       -1   -1    0    0    0  501  0.00000000000E+00  0.00000000000E+00 -0.76340886764E+03  0.76340886765E+03  0.50400001928E-02 0. -1.
    10030    2    1    2    0    0  0.00000000000E+00  0.00000000000E+00  0.41940397196E+03  0.19462217073E+04  0.19004944731E+04 0.  0.
        3    1    3    3  502    0  0.44826737808E+03  0.51632606991E+03 -0.46604893170E+03  0.82748889398E+03  0.10100000352E+00 0. -1.
       -3    1    3    3    0  502 -0.44826737808E+03 -0.51632606991E+03  0.88545290366E+03  0.11187328133E+04  0.10100000352E+00 0.  1.
</event>
<event>
 5   0  0.1813834E-04  0.1643601E+04  0.7818609E-02  0.8794201E-01
       -1   -1    0    0    0  501  0.00000000000E+00  0.00000000000E+00  0.43961151022E+03  0.43961151025E+03  0.50400001928E-02 0.  1.
        1   -1    0    0  501    0  0.00000000000E+00  0.00000000000E+00 -0.15362560026E+04  0.15362560026E+04  0.50400001928E-02 0. -1.
    10030    2    1    2    0    0  0.00000000000E+00  0.00000000000E+00 -0.10966444924E+04  0.19758675129E+04  0.16436007075E+04 0.  0.
        5    1    3    3  502    0 -0.80365976138E+03 -0.50214173761E+01 -0.34205667160E+03  0.87345239325E+03  0.46999998093E+01 0. -1.
       -5    1    3    3    0  502  0.80365976138E+03  0.50214173761E+01 -0.75458782082E+03  0.11024151196E+04  0.46999998093E+01 0.  1.
</event>
<event>
 5   0  0.3720978E-04  0.1888672E+04  0.7818609E-02  0.8660516E-01
       -2   -1    0    0    0  501  0.00000000000E+00  0.00000000000E+00  0.57430412644E+03  0.57430412644E+03  0.25500000920E-02 0.  1.
        2   -1    0    0  501    0  0.00000000000E+00  0.00000000000E+00 -0.15527836958E+04  0.15527836958E+04  0.25500000920E-02 0. -1.
    10030    2    1    2    0    0  0.00000000000E+00  0.00000000000E+00 -0.97847956938E+03  0.21270878223E+04  0.18886715797E+04 0.  0.
        1    1    3    3  502    0 -0.19862805363E+03  0.69440586336E+02 -0.15260458868E+04  0.15404840627E+04  0.50400001928E-02 0. -1.
       -1    1    3    3    0  502  0.19862805363E+03 -0.69440586336E+02  0.54756631744E+03  0.58660375957E+03  0.50400001928E-02 0.  1.
</event>
<event>
 5   0  0.3623359E-04  0.1875918E+04  0.7818609E-02  0.8666937E-01
        2   -1    0    0  501    0  0.00000000000E+00  0.00000000000E+00  0.70560004559E+03  0.70560004560E+03  0.25500000920E-02 0. -1.
       -2   -1    0    0    0  501  0.00000000000E+00  0.00000000000E+00 -0.12468348857E+04  0.12468348857E+04  0.25500000920E-02 0.  1.
    10030    2    1    2    0    0  0.00000000000E+00  0.00000000000E+00 -0.54123484010E+03  0.19524349313E+04  0.18759176445E+04 0.  0.
        5    1    3    3  502    0 -0.14456089158E+02  0.31264132548E+03  0.64963752054E+03  0.72111342728E+03  0.46999998093E+01 0. -1.
       -5    1    3    3    0  502  0.14456089158E+02 -0.31264132548E+03 -0.11908723606E+04  0.12313215040E+04  0.46999998093E+01 0.  1.
</event>
<event>
 5   0  0.1813834E-04  0.1656251E+04  0.7818609E-02  0.8786717E-01
       -1   -1    0    0    0  501  0.00000000000E+00  0.00000000000E+00  0.61885724523E+03  0.61885724525E+03  0.50400001928E-02 0.  1.
        1   -1    0    0  501    0  0.00000000000E+00  0.00000000000E+00 -0.11081582385E+04  0.11081582386E+04  0.50400001928E-02 0. -1.
    10030    2    1    2    0    0  0.00000000000E+00  0.00000000000E+00 -0.48930099332E+03  0.17270154838E+04  0.16562508926E+04 0.  0.
        5    1    3    3  502    0 -0.65019348826E+03 -0.29532421326E+03 -0.68185199661E+03  0.98737642184E+03  0.46999998093E+01 0. -1.
       -5    1    3    3    0  502  0.65019348826E+03  0.29532421326E+03  0.19255100330E+03  0.73963906197E+03  0.46999998093E+01 0.  1.
</event>
<event>
 5   0  0.1694830E-04  0.1878748E+04  0.7818609E-02  0.8665508E-01
       -1   -1    0    0    0  501  0.00000000000E+00  0.00000000000E+00  0.47021069023E+03  0.47021069026E+03  0.50400001928E-02 0.  1.
        1   -1    0    0  501    0  0.00000000000E+00  0.00000000000E+00 -0.18766562872E+04  0.18766562872E+04  0.50400001928E-02 0. -1.
    10030    2    1    2    0    0  0.00000000000E+00  0.00000000000E+00 -0.14064455970E+04  0.23468669775E+04  0.18787483580E+04 0.  0.
        1    1    3    3  502    0  0.26163978964E+03 -0.39429871163E+03 -0.17168931839E+04  0.17809124230E+04  0.50400001928E-02 0. -1.
       -1    1    3    3    0  502 -0.26163978964E+03  0.39429871163E+03  0.31044758689E+03  0.56595455449E+03  0.50400001928E-02 0.  1.
</event>
<event>
 5   0  0.3516539E-04  0.1932863E+04  0.7818609E-02  0.8638669E-01
        2   -1    0    0  501    0  0.00000000000E+00  0.00000000000E+00  0.10994433809E+04  0.10994433809E+04  0.25500000920E-02 0. -1.
       -2   -1    0    0    0  501  0.00000000000E+00  0.00000000000E+00 -0.84951172485E+03  0.84951172485E+03  0.25500000920E-02 0.  1.
    10030    2    1    2    0    0  0.00000000000E+00  0.00000000000E+00  0.24993165605E+03  0.19489551057E+04  0.19328632056E+04 0.  0.
        4    1    3    3  502    0 -0.47240286388E+03 -0.63088331410E+03 -0.43898491743E+03  0.90215718832E+03  0.12699999809E+01 0.  1.
       -4    1    3    3    0  502  0.47240286388E+03  0.63088331410E+03  0.68891657348E+03  0.10467979174E+04  0.12699999809E+01 0. -1.
</event>
<event>
 5   0  0.1694830E-04  0.2001296E+04  0.7818609E-02  0.8606015E-01
        1   -1    0    0  501    0  0.00000000000E+00  0.00000000000E+00  0.13122842353E+04  0.13122842353E+04  0.50400001928E-02 0. -1.
       -1   -1    0    0    0  501  0.00000000000E+00  0.00000000000E+00 -0.76301814479E+03  0.76301814481E+03  0.50400001928E-02 0.  1.
    10030    2    1    2    0    0  0.00000000000E+00  0.00000000000E+00  0.54926609049E+03  0.20753023801E+04  0.20012962626E+04 0.  0.
        1    1    3    3  502    0 -0.14972546161E+03  0.29006786895E+03  0.12555185787E+04  0.12972601836E+04  0.50400001928E-02 0. -1.
       -1    1    3    3    0  502  0.14972546161E+03 -0.29006786895E+03 -0.70625248820E+03  0.77804219652E+03  0.50400001928E-02 0.  1.
</event>
<event>
 5   0  0.3516539E-04  0.1908352E+04  0.7818609E-02  0.8650710E-01
       -2   -1    0    0    0  501  0.00000000000E+00  0.00000000000E+00  0.32862154639E+03  0.32862154640E+03  0.25500000920E-02 0. -1.
        2   -1    0    0  501    0  0.00000000000E+00  0.00000000000E+00 -0.27705167604E+04  0.27705167604E+04  0.25500000920E-02 0.  1.
    10030    2    1    2    0    0  0.00000000000E+00  0.00000000000E+00 -0.24418952140E+04  0.30991383068E+04  0.19083516470E+04 0.  0.
        4    1    3    3  502    0 -0.78144675772E+03  0.49484013372E+03 -0.84035178777E+03  0.12496873742E+04  0.12699999809E+01 0. -1.
       -4    1    3    3    0  502  0.78144675772E+03 -0.49484013372E+03 -0.16015434262E+04  0.18494509326E+04  0.12699999809E+01 0.  1.
</event>
<event>
 5   0  0.3720978E-04  0.1680217E+04  0.7818609E-02  0.8772728E-01
        2   -1    0    0  501    0  0.00000000000E+00  0.00000000000E+00  0.11257574866E+04  0.11257574866E+04  0.25500000920E-02 0. -1.
       -2   -1    0    0    0  501  0.00000000000E+00  0.00000000000E+00 -0.62693995562E+03  0.62693995563E+03  0.25500000920E-02 0.  1.
    10030    2    1    2    0    0  0.00000000000E+00  0.00000000000E+00  0.49881753095E+03  0.17526974422E+04  0.16802170677E+04 0.  0.
        1    1    3    3  502    0 -0.71130106518E+03  0.36398954609E+03 -0.21294469171E+02  0.79930660540E+03  0.50400001928E-02 0.  1.
       -1    1    3    3    0  502  0.71130106518E+03 -0.36398954609E+03  0.52011200012E+03  0.95339083680E+03  0.50400001928E-02 0. -1.
</event>
<event>
 5   0  0.1287000E-04  0.1910027E+04  0.7818609E-02  0.8649881E-01
       -4   -1    0    0    0  501  0.00000000000E+00  0.00000000000E+00  0.69754010477E+03  0.69754126090E+03  0.12699999809E+01 0.  1.
        4   -1    0    0  501    0  0.00000000000E+00  0.00000000000E+00 -0.13075217353E+04  0.13075223521E+04  0.12699999809E+01 0. -1.
    10030    2    1    2    0    0  0.00000000000E+00  0.00000000000E+00 -0.60998163051E+03  0.20050636130E+04  0.19100268329E+04 0.  0.
        1    1    3    3  502    0 -0.68394213400E+03  0.13846354169E+03 -0.98943032668E+03  0.12107523968E+04  0.50400001928E-02 0. -1.
       -1    1    3    3    0  502  0.68394213400E+03 -0.13846354169E+03  0.37944869617E+03  0.79431121614E+03  0.50400001928E-02 0.  1.
</event>
<event>
 5   0  0.1694830E-04  0.1830200E+04  0.7818609E-02  0.8690402E-01
       -1   -1    0    0    0  501  0.00000000000E+00  0.00000000000E+00  0.68812457812E+03  0.68812457814E+03  0.50400001928E-02 0.  1.
        1   -1    0    0  501    0  0.00000000000E+00  0.00000000000E+00 -0.12169428559E+04  0.12169428559E+04  0.50400001928E-02 0. -1.
    10030    2    1    2    0    0  0.00000000000E+00  0.00000000000E+00 -0.52881827778E+03  0.19050674341E+04  0.18302003053E+04 0.  0.
        1    1    3    3  502    0 -0.86370514297E+03 -0.85777679929E+02  0.37388966934E+02  0.86875906858E+03  0.50400001928E-02 0. -1.
       -1    1    3    3    0  502  0.86370514297E+03  0.85777679929E+02 -0.56620724471E+03  0.10363083655E+04  0.50400001928E-02 0.  1.
</event>
<event>
 5   0  0.1287000E-04  0.1530597E+04  0.7818609E-02  0.8864358E-01
        3   -1    0    0  501    0  0.00000000000E+00  0.00000000000E+00  0.98479501052E+03  0.98479501570E+03  0.10100000352E+00 0.  1.
       -3   -1    0    0    0  501  0.00000000000E+00  0.00000000000E+00 -0.59472424087E+03  0.59472424945E+03  0.10100000352E+00 0. -1.
    10030    2    1    2    0    0  0.00000000000E+00  0.00000000000E+00  0.39007076965E+03  0.15795192651E+04  0.15305965842E+04 0.  0.
        4    1    3    3  502    0 -0.57883540428E+02 -0.30755317042E+02  0.98189186724E+03  0.98407806887E+03  0.12699999809E+01 0.  1.
       -4    1    3    3    0  502  0.57883540428E+02  0.30755317042E+02 -0.59182109759E+03  0.59544119628E+03  0.12699999809E+01 0. -1.
</event>
<event>
 5   0  0.3516539E-04  0.1954187E+04  0.7818609E-02  0.8628344E-01
       -2   -1    0    0    0  501  0.00000000000E+00  0.00000000000E+00  0.72917178011E+03  0.72917178012E+03  0.25500000920E-02 0. -1.
        2   -1    0    0  501    0  0.00000000000E+00  0.00000000000E+00 -0.13093094934E+04  0.13093094934E+04  0.25500000920E-02 0.  1.
    10030    2    1    2    0    0  0.00000000000E+00  0.00000000000E+00 -0.58013771329E+03  0.20384812735E+04  0.19541868222E+04 0.  0.
        4    1    3    3  502    0 -0.19805795787E+03  0.84272358626E+03  0.18257611261E+03  0.88472913782E+03  0.12699999809E+01 0. -1.
       -4    1    3    3    0  502  0.19805795787E+03 -0.84272358626E+03 -0.76271382589E+03  0.11537521357E+04  0.12699999809E+01 0.  1.
</event>
<event>
 5   0  0.1711979E-04  0.1859886E+04  0.7818609E-02  0.8675085E-01
       -1   -1    0    0    0  501  0.00000000000E+00  0.00000000000E+00  0.16737982045E+04  0.16737982045E+04  0.50400001928E-02 0.  1.
        1   -1    0    0  501    0  0.00000000000E+00  0.00000000000E+00 -0.51666568453E+03  0.51666568456E+03  0.50400001928E-02 0. -1.
    10030    2    1    2    0    0  0.00000000000E+00  0.00000000000E+00  0.11571325200E+04  0.21904638891E+04  0.18598861203E+04 0.  0.
        4    1    3    3  502    0 -0.14129196870E+03  0.27271257899E+03 -0.45520373373E+03  0.54913352042E+03  0.12699999809E+01 0. -1.
       -4    1    3    3    0  502  0.14129196870E+03 -0.27271257899E+03  0.16123362537E+04  0.16413303687E+04  0.12699999809E+01 0.  1.
</event>
<event>
 5   0  0.3516539E-04  0.1897051E+04  0.7818609E-02  0.8656326E-01
       -2   -1    0    0    0  501  0.00000000000E+00  0.00000000000E+00  0.45554656263E+03  0.45554656264E+03  0.25500000920E-02 0. -1.
        2   -1    0    0  501    0  0.00000000000E+00  0.00000000000E+00 -0.19749911401E+04  0.19749911401E+04  0.25500000920E-02 0.  1.
    10030    2    1    2    0    0  0.00000000000E+00  0.00000000000E+00 -0.15194445775E+04  0.24305377027E+04  0.18970507902E+04 0.  0.
        4    1    3    3  502    0 -0.61959336596E+03  0.68221855180E+03 -0.47214433344E+03  0.10354902105E+04  0.12699999809E+01 0. -1.
       -4    1    3    3    0  502  0.61959336596E+03 -0.68221855180E+03 -0.10473002440E+04  0.13950474922E+04  0.12699999809E+01 0.  1.
</event>
<event>
 5   0  0.1758946E-04  0.1813137E+04  0.7818609E-02  0.8699344E-01
        1   -1    0    0  501    0  0.00000000000E+00  0.00000000000E+00  0.12476862247E+04  0.12476862247E+04  0.50400001928E-02 0. -1.
       -1   -1    0    0    0  501  0.00000000000E+00  0.00000000000E+00 -0.65871258661E+03  0.65871258663E+03  0.50400001928E-02 0.  1.
    10030    2    1    2    0    0  0.00000000000E+00  0.00000000000E+00  0.58897363808E+03  0.19063988113E+04  0.18131371932E+04 0.  0.
        2    1    3    3  502    0 -0.36317479922E+03 -0.50274748486E+03  0.98972072207E+03  0.11679889024E+04  0.25500000920E-02 0. -1.
       -2    1    3    3    0  502  0.36317479922E+03  0.50274748486E+03 -0.40074708399E+03  0.73840990897E+03  0.25500000920E-02 0.  1.
</event>
<event>
 5   0  0.3720978E-04  0.1460678E+04  0.7818609E-02  0.8911031E-01
        2   -1    0    0  501    0  0.00000000000E+00  0.00000000000E+00  0.92212686940E+03  0.92212686940E+03  0.25500000920E-02 0. -1.
       -2   -1    0    0    0  501  0.00000000000E+00  0.00000000000E+00 -0.57843973141E+03  0.57843973141E+03  0.25500000920E-02 0.  1.
    10030    2    1    2    0    0  0.00000000000E+00  0.00000000000E+00  0.34368713799E+03  0.15005666008E+04  0.14606776765E+04 0.  0.
        1    1    3    3  502    0  0.56174112928E+03  0.10634049205E+03  0.63871366169E+03  0.85721440622E+03  0.50400001928E-02 0. -1.
       -1    1    3    3    0  502 -0.56174112928E+03 -0.10634049205E+03 -0.29502652370E+03  0.64335219459E+03  0.50400001928E-02 0.  1.
</event>
<event>
 5   0  0.1782613E-04  0.1820475E+04  0.7818609E-02  0.8695486E-01
        1   -1    0    0  501    0  0.00000000000E+00  0.00000000000E+00  0.13849407171E+04  0.13849407171E+04  0.50400001928E-02 0. -1.
       -1   -1    0    0    0  501  0.00000000000E+00  0.00000000000E+00 -0.59824395363E+03  0.59824395365E+03  0.50400001928E-02 0.  1.
    10030    2    1    2    0    0  0.00000000000E+00  0.00000000000E+00  0.78669676346E+03  0.19831846708E+04  0.18204751140E+04 0.  0.
        3    1    3    3  502    0 -0.74773684107E+03 -0.72034669561E+02  0.95332766062E+03  0.12137269116E+04  0.10100000352E+00 0. -1.
       -3    1    3    3    0  502  0.74773684107E+03  0.72034669561E+02 -0.16663089716E+03  0.76945775921E+03  0.10100000352E+00 0.  1.
</event>
<event>
 5   0  0.1694830E-04  0.1923310E+04  0.7818609E-02  0.8643340E-01
       -1   -1    0    0    0  501  0.00000000000E+00  0.00000000000E+00  0.95747008001E+03  0.95747008002E+03  0.50400001928E-02 0. -1.
        1   -1    0    0  501    0  0.00000000000E+00  0.00000000000E+00 -0.96585789886E+03  0.96585789887E+03  0.50400001928E-02 0.  1.
    10030    2    1    2    0    0  0.00000000000E+00  0.00000000000E+00 -0.83878188552E+01  0.19233279789E+04  0.19233096888E+04 0.  0.
        1    1    3    3  502    0  0.72170314239E+03 -0.42506910882E+03 -0.47668212370E+03  0.96372455613E+03  0.50400001928E-02 0.  1.
       -1    1    3    3    0  502 -0.72170314239E+03  0.42506910882E+03  0.46829430485E+03  0.95960342276E+03  0.50400001928E-02 0. -1.
</event>
<event>
 5   0  0.1782613E-04  0.1914274E+04  0.7818609E-02  0.8647784E-01
        1   -1    0    0  501    0  0.00000000000E+00  0.00000000000E+00  0.13426594670E+04  0.13426594671E+04  0.50400001928E-02 0. -1.
       -1   -1    0    0    0  501  0.00000000000E+00  0.00000000000E+00 -0.68231095002E+03  0.68231095004E+03  0.50400001928E-02 0.  1.
    10030    2    1    2    0    0  0.00000000000E+00  0.00000000000E+00  0.66034851703E+03  0.20249704171E+04  0.19142740207E+04 0.  0.
        3    1    3    3  502    0 -0.17682774697E+03  0.78429927948E+03  0.87954991275E+03  0.11916381460E+04  0.10100000352E+00 0. -1.
       -3    1    3    3    0  502  0.17682774697E+03 -0.78429927948E+03 -0.21920139573E+03  0.83333227105E+03  0.10100000352E+00 0.  1.
</event>
<event>
 5   0  0.3459485E-04  0.1906605E+04  0.7818609E-02  0.8651575E-01
       -2   -1    0    0    0  501  0.00000000000E+00  0.00000000000E+00  0.94144081727E+03  0.94144081728E+03  0.25500000920E-02 0.  1.
        2   -1    0    0  501    0  0.00000000000E+00  0.00000000000E+00 -0.96531405254E+03  0.96531405254E+03  0.25500000920E-02 0. -1.
    10030    2    1    2    0    0  0.00000000000E+00  0.00000000000E+00 -0.23873235263E+02  0.19067548698E+04  0.19066054133E+04 0.  0.
        3    1    3    3  502    0 -0.12834752918E+02  0.84919019541E+03 -0.44498016973E+03  0.95879929105E+03  0.10100000352E+00 0. -1.
       -3    1    3    3    0  502  0.12834752918E+02 -0.84919019541E+03  0.42110693447E+03  0.94795557877E+03  0.10100000352E+00 0.  1.
</event>
<event>
 5   0  0.3535876E-04  0.1908932E+04  0.7818609E-02  0.8650423E-01
        2   -1    0    0  501    0  0.00000000000E+00  0.00000000000E+00  0.87352361585E+03  0.87352361586E+03  0.25500000920E-02 0. -1.
       -2   -1    0    0    0  501  0.00000000000E+00  0.00000000000E+00 -0.10429091465E+04  0.10429091465E+04  0.25500000920E-02 0.  1.
    10030    2    1    2    0    0  0.00000000000E+00  0.00000000000E+00 -0.16938553067E+03  0.19164327624E+04  0.19089324437E+04 0.  0.
        2    1    3    3  502    0  0.56356500603E+03  0.47194282744E+03  0.52652627634E+03  0.90419326921E+03  0.25500000920E-02 0. -1.
       -2    1    3    3    0  502 -0.56356500603E+03 -0.47194282744E+03 -0.69591180700E+03  0.10122394932E+04  0.25500000920E-02 0.  1.
</event>
<event>
 5   0  0.1711979E-04  0.1982873E+04  0.7818609E-02  0.8614670E-01
        1   -1    0    0  501    0  0.00000000000E+00  0.00000000000E+00  0.15246879320E+04  0.15246879320E+04  0.50400001928E-02 0. -1.
       -1   -1    0    0    0  501  0.00000000000E+00  0.00000000000E+00 -0.64468697786E+03  0.64468697788E+03  0.50400001928E-02 0.  1.
    10030    2    1    2    0    0  0.00000000000E+00  0.00000000000E+00  0.88000095416E+03  0.21693749099E+04  0.19828731226E+04 0.  0.
        4    1    3    3  502    0 -0.36589963741E+03  0.68471369948E+03  0.11146256790E+04  0.13583473091E+04  0.12699999809E+01 0. -1.
       -4    1    3    3    0  502  0.36589963741E+03 -0.68471369948E+03 -0.23462472482E+03  0.81102760083E+03  0.12699999809E+01 0.  1.
</event>
<event>
 5   0  0.3720978E-04  0.1907836E+04  0.7818609E-02  0.8650966E-01
       -2   -1    0    0    0  501  0.00000000000E+00  0.00000000000E+00  0.87185109796E+03  0.87185109797E+03  0.25500000920E-02 0. -1.
        2   -1    0    0  501    0  0.00000000000E+00  0.00000000000E+00 -0.10437093948E+04  0.10437093948E+04  0.25500000920E-02 0.  1.
    10030    2    1    2    0    0  0.00000000000E+00  0.00000000000E+00 -0.17185829679E+03  0.19155604927E+04  0.19078356132E+04 0.  0.
        1    1    3    3  502    0  0.69205121629E+03 -0.10130530648E+03 -0.73721693362E+03  0.10162118177E+04  0.50400001928E-02 0.  1.
       -1    1    3    3    0  502 -0.69205121629E+03  0.10130530648E+03  0.56535863683E+03  0.89934867507E+03  0.50400001928E-02 0. -1.
</event>
<event>
 5   0  0.3623359E-04  0.1929280E+04  0.7818609E-02  0.8640418E-01
        2   -1    0    0  501    0  0.00000000000E+00  0.00000000000E+00  0.18473127740E+04  0.18473127740E+04  0.25500000920E-02 0.  1.
       -2   -1    0    0    0  501  0.00000000000E+00  0.00000000000E+00 -0.50372109075E+03  0.50372109075E+03  0.25500000920E-02 0. -1.
    10030    2    1    2    0    0  0.00000000000E+00  0.00000000000E+00  0.13435916832E+04  0.23510338647E+04  0.19292800787E+04 0.  0.
        5    1    3    3  502    0  0.34520024732E+03  0.11109116370E+03  0.17610721130E+04  0.17980271228E+04  0.46999998093E+01 0.  1.
       -5    1    3    3    0  502 -0.34520024732E+03 -0.11109116370E+03 -0.41748042972E+03  0.55300674191E+03  0.46999998093E+01 0. -1.
</event>
<event>
 5   0  0.1711979E-04  0.1925237E+04  0.7818609E-02  0.8642395E-01
        1   -1    0    0  501    0  0.00000000000E+00  0.00000000000E+00  0.12231450966E+04  0.12231450966E+04  0.50400001928E-02 0.  1.
       -1   -1    0    0    0  501  0.00000000000E+00  0.00000000000E+00 -0.75758364160E+03  0.75758364162E+03  0.50400001928E-02 0. -1.
    10030    2    1    2    0    0  0.00000000000E+00  0.00000000000E+00  0.46556145502E+03  0.19807287383E+04  0.19252373532E+04 0.  0.
        4    1    3    3  502    0  0.21295738005E+03  0.65120137257E+03  0.92845008258E+03  0.11538783480E+04  0.12699999809E+01 0.  1.
       -4    1    3    3    0  502 -0.21295738005E+03 -0.65120137257E+03 -0.46288862756E+03  0.82685039020E+03  0.12699999809E+01 0. -1.
</event>
<event>
 5   0  0.3720978E-04  0.1867215E+04  0.7818609E-02  0.8671350E-01
       -2   -1    0    0    0  501  0.00000000000E+00  0.00000000000E+00  0.12147559508E+04  0.12147559508E+04  0.25500000920E-02 0. -1.
        2   -1    0    0  501    0  0.00000000000E+00  0.00000000000E+00 -0.71752939506E+03  0.71752939506E+03  0.25500000920E-02 0.  1.
    10030    2    1    2    0    0  0.00000000000E+00  0.00000000000E+00  0.49722655577E+03  0.19322853459E+04  0.18672151483E+04 0.  0.
        1    1    3    3  502    0  0.26497675637E+03 -0.31314050764E+03 -0.61927476947E+03  0.74281282909E+03  0.50400001928E-02 0.  1.
       -1    1    3    3    0  502 -0.26497675637E+03  0.31314050764E+03  0.11165013252E+04  0.11894725168E+04  0.50400001928E-02 0. -1.
</event>
<event>
 5   0  0.1694830E-04  0.1898440E+04  0.7818609E-02  0.8655633E-01
       -1   -1    0    0    0  501  0.00000000000E+00  0.00000000000E+00  0.61448897670E+03  0.61448897672E+03  0.50400001928E-02 0. -1.
        1   -1    0    0  501    0  0.00000000000E+00  0.00000000000E+00 -0.14662893304E+04  0.14662893304E+04  0.50400001928E-02 0.  1.
    10030    2    1    2    0    0  0.00000000000E+00  0.00000000000E+00 -0.85180035366E+03  0.20807783071E+04  0.18984400230E+04 0.  0.
        1    1    3    3  502    0 -0.72100064149E+03  0.10759694540E+03  0.24043797226E+03  0.76761282312E+03  0.50400001928E-02 0. -1.
       -1    1    3    3    0  502  0.72100064149E+03 -0.10759694540E+03 -0.10922383259E+04  0.13131654840E+04  0.50400001928E-02 0.  1.
</event>
<event>
 5   0  0.3720978E-04  0.1908020E+04  0.7818609E-02  0.8650875E-01
       -2   -1    0    0    0  501  0.00000000000E+00  0.00000000000E+00  0.17301105952E+04  0.17301105952E+04  0.25500000920E-02 0. -1.
        2   -1    0    0  501    0  0.00000000000E+00  0.00000000000E+00 -0.52605589204E+03  0.52605589205E+03  0.25500000920E-02 0.  1.
    10030    2    1    2    0    0  0.00000000000E+00  0.00000000000E+00  0.12040547031E+04  0.22561664872E+04  0.19080197824E+04 0.  0.
        1    1    3    3  502    0 -0.20153151035E+03  0.84183191585E+03  0.12780296536E+03  0.87500258410E+03  0.50400001928E-02 0.  1.
       -1    1    3    3    0  502  0.20153151035E+03 -0.84183191585E+03  0.10762517378E+04  0.13811639031E+04  0.50400001928E-02 0. -1.
</event>
<event>
 5   0  0.1711979E-04  0.1910176E+04  0.7818609E-02  0.8649808E-01
        1   -1    0    0  501    0  0.00000000000E+00  0.00000000000E+00  0.12169141083E+04  0.12169141083E+04  0.50400001928E-02 0.  1.
       -1   -1    0    0    0  501  0.00000000000E+00  0.00000000000E+00 -0.74959504640E+03  0.74959504641E+03  0.50400001928E-02 0. -1.
    10030    2    1    2    0    0  0.00000000000E+00  0.00000000000E+00  0.46731906187E+03  0.19665091547E+04  0.19101756856E+04 0.  0.
        4    1    3    3  502    0 -0.85019960389E+02  0.38061532613E+03  0.11312051419E+04  0.11965463242E+04  0.12699999809E+01 0.  1.
       -4    1    3    3    0  502  0.85019960389E+02 -0.38061532613E+03 -0.66388608000E+03  0.76996283045E+03  0.12699999809E+01 0. -1.
</event>
<event>
 5   0  0.3535876E-04  0.1899755E+04  0.7818609E-02  0.8654978E-01
       -2   -1    0    0    0  501  0.00000000000E+00  0.00000000000E+00  0.14305602252E+04  0.14305602252E+04  0.25500000920E-02 0. -1.
        2   -1    0    0  501    0  0.00000000000E+00  0.00000000000E+00 -0.63070885532E+03  0.63070885532E+03  0.25500000920E-02 0.  1.
    10030    2    1    2    0    0  0.00000000000E+00  0.00000000000E+00  0.79985136985E+03  0.20612690805E+04  0.18997547232E+04 0.  0.
        2    1    3    3  502    0 -0.55670486944E+03  0.46811905569E+03  0.10627745444E+04  0.12878452913E+04  0.25500000920E-02 0. -1.
       -2    1    3    3    0  502  0.55670486944E+03 -0.46811905569E+03 -0.26292317460E+03  0.77342378920E+03  0.25500000920E-02 0.  1.
</event>
<event>
 5   0  0.3535876E-04  0.1883945E+04  0.7818609E-02  0.8662890E-01
        2   -1    0    0  501    0  0.00000000000E+00  0.00000000000E+00  0.12051348144E+04  0.12051348144E+04  0.25500000920E-02 0. -1.
       -2   -1    0    0    0  501  0.00000000000E+00  0.00000000000E+00 -0.73627610581E+03  0.73627610582E+03  0.25500000920E-02 0.  1.
    10030    2    1    2    0    0  0.00000000000E+00  0.00000000000E+00  0.46885870863E+03  0.19414109203E+04  0.18839447637E+04 0.  0.
        2    1    3    3  502    0  0.38368590870E+03  0.16353558636E+03  0.11047947399E+04  0.11809022744E+04  0.25500000920E-02 0. -1.
       -2    1    3    3    0  502 -0.38368590870E+03 -0.16353558636E+03 -0.63593603123E+03  0.76050864582E+03  0.25500000920E-02 0.  1.
</event>
<event>
 5   0  0.1711979E-04  0.1894910E+04  0.7818609E-02  0.8657394E-01
       -1   -1    0    0    0  501  0.00000000000E+00  0.00000000000E+00  0.62804451474E+03  0.62804451476E+03  0.50400001928E-02 0. -1.
        1   -1    0    0  501    0  0.00000000000E+00  0.00000000000E+00 -0.14293105148E+04  0.14293105148E+04  0.50400001928E-02 0.  1.
    10030    2    1    2    0    0  0.00000000000E+00  0.00000000000E+00 -0.80126600006E+03  0.20573550296E+04  0.18949096324E+04 0.  0.
        4    1    3    3  502    0 -0.87355069418E+02 -0.60320753622E+03  0.38693380402E+03  0.72194848951E+03  0.12699999809E+01 0. -1.
       -4    1    3    3    0  502  0.87355069418E+02  0.60320753622E+03 -0.11881998041E+04  0.13354065401E+04  0.12699999809E+01 0.  1.
</event>
<event>
 5   0  0.1813834E-04  0.1219339E+04  0.7818609E-02  0.9096096E-01
        1   -1    0    0  501    0  0.00000000000E+00  0.00000000000E+00  0.16055829739E+04  0.16055829739E+04  0.50400001928E-02 0. -1.
       -1   -1    0    0    0  501  0.00000000000E+00  0.00000000000E+00 -0.23150266876E+03  0.23150266881E+03  0.50400001928E-02 0.  1.
    10030    2    1    2    0    0  0.00000000000E+00  0.00000000000E+00  0.13740803051E+04  0.18370856427E+04  0.12193387444E+04 0.  0.
        5    1    3    3  502    0  0.55968382299E+03 -0.22722141549E+03  0.56280893398E+03  0.82562191077E+03  0.46999998093E+01 0. -1.
       -5    1    3    3    0  502 -0.55968382299E+03  0.22722141549E+03  0.81127137111E+03  0.10114637319E+04  0.46999998093E+01 0.  1.
</event>
<event>
 5   0  0.1758946E-04  0.1918403E+04  0.7818609E-02  0.8645750E-01
       -1   -1    0    0    0  501  0.00000000000E+00  0.00000000000E+00  0.35351521975E+03  0.35351521978E+03  0.50400001928E-02 0. -1.
        1   -1    0    0  501    0  0.00000000000E+00  0.00000000000E+00 -0.26026243218E+04  0.26026243218E+04  0.50400001928E-02 0.  1.
    10030    2    1    2    0    0  0.00000000000E+00  0.00000000000E+00 -0.22491091021E+04  0.29561395416E+04  0.19184027826E+04 0.  0.
        2    1    3    3  502    0 -0.79200709335E+03  0.35826283706E+03 -0.17494230360E+04  0.19534862311E+04  0.25500000920E-02 0.  1.
       -2    1    3    3    0  502  0.79200709335E+03 -0.35826283706E+03 -0.49968606604E+03  0.10026533104E+04  0.25500000920E-02 0. -1.
</event>
<event>
 5   0  0.3459485E-04  0.1987577E+04  0.7818609E-02  0.8612451E-01
       -2   -1    0    0    0  501  0.00000000000E+00  0.00000000000E+00  0.10049097792E+04  0.10049097792E+04  0.25500000920E-02 0. -1.
        2   -1    0    0  501    0  0.00000000000E+00  0.00000000000E+00 -0.98279065490E+03  0.98279065490E+03  0.25500000920E-02 0.  1.
    10030    2    1    2    0    0  0.00000000000E+00  0.00000000000E+00  0.22119124322E+02  0.19877004341E+04  0.19875773595E+04 0.  0.
        3    1    3    3  502    0 -0.79355353409E+02 -0.72725254936E+02 -0.97694376476E+03  0.98285571908E+03  0.10100000352E+00 0.  1.
       -3    1    3    3    0  502  0.79355353409E+02  0.72725254936E+02  0.99906288908E+03  0.10048447151E+04  0.10100000352E+00 0. -1.
</event>
<event>
 5   0  0.1758946E-04  0.1502047E+04  0.7818609E-02  0.8883093E-01
        1   -1    0    0  501    0  0.00000000000E+00  0.00000000000E+00  0.12101602125E+04  0.12101602125E+04  0.50400001928E-02 0. -1.
       -1   -1    0    0    0  501  0.00000000000E+00  0.00000000000E+00 -0.46608388964E+03  0.46608388966E+03  0.50400001928E-02 0.  1.
    10030    2    1    2    0    0  0.00000000000E+00  0.00000000000E+00  0.74407632287E+03  0.16762441022E+04  0.15020468421E+04 0.  0.
        2    1    3    3  502    0  0.21825776455E+02  0.12989846244E+03  0.11971690466E+04  0.12043934994E+04  0.25500000920E-02 0. -1.
       -2    1    3    3    0  502 -0.21825776455E+02 -0.12989846244E+03 -0.45309272376E+03  0.47185060283E+03  0.25500000920E-02 0.  1.
</event>
<event>
 5   0  0.1694830E-04  0.1906423E+04  0.7818609E-02  0.8651666E-01
        1   -1    0    0  501    0  0.00000000000E+00  0.00000000000E+00  0.14734569469E+04  0.14734569469E+04  0.50400001928E-02 0. -1.
       -1   -1    0    0    0  501  0.00000000000E+00  0.00000000000E+00 -0.61665339875E+03  0.61665339877E+03  0.50400001928E-02 0.  1.
    10030    2    1    2    0    0  0.00000000000E+00  0.00000000000E+00  0.85680354817E+03  0.20901103457E+04  0.19064230740E+04 0.  0.
        1    1    3    3  502    0 -0.91781102424E+03  0.23205422710E+03  0.55041737319E+03  0.10950732968E+04  0.50400001928E-02 0. -1.
       -1    1    3    3    0  502  0.91781102424E+03 -0.23205422710E+03  0.30638617499E+03  0.99503704895E+03  0.50400001928E-02 0.  1.
</event>
<event>
 5   0  0.3720978E-04  0.1849520E+04  0.7818609E-02  0.8680400E-01
        2   -1    0    0  501    0  0.00000000000E+00  0.00000000000E+00  0.11652761051E+04  0.11652761051E+04  0.25500000920E-02 0.  1.
       -2   -1    0    0    0  501  0.00000000000E+00  0.00000000000E+00 -0.73388686463E+03  0.73388686464E+03  0.25500000920E-02 0. -1.
    10030    2    1    2    0    0  0.00000000000E+00  0.00000000000E+00  0.43138924048E+03  0.18991629697E+04  0.18495197509E+04 0.  0.
        1    1    3    3  502    0 -0.77449571409E+02  0.80665055308E+03 -0.24179425334E+03  0.84566424299E+03  0.50400001928E-02 0. -1.
       -1    1    3    3    0  502  0.77449571409E+02 -0.80665055308E+03  0.67318349382E+03  0.10534987268E+04  0.50400001928E-02 0.  1.
</event>
<event>
 5   0  0.1813834E-04  0.1902909E+04  0.7818609E-02  0.8653410E-01
        1   -1    0    0  501    0  0.00000000000E+00  0.00000000000E+00  0.95000789235E+03  0.95000789236E+03  0.50400001928E-02 0.  1.
       -1   -1    0    0    0  501  0.00000000000E+00  0.00000000000E+00 -0.95290370722E+03  0.95290370723E+03  0.50400001928E-02 0. -1.
    10030    2    1    2    0    0  0.00000000000E+00  0.00000000000E+00 -0.28958148667E+01  0.19029115996E+04  0.19029093962E+04 0.  0.
        5    1    3    3  502    0 -0.22292982834E+03 -0.88823027092E+03  0.25660903241E+03  0.95106309363E+03  0.46999998093E+01 0.  1.
       -5    1    3    3    0  502  0.22292982834E+03  0.88823027092E+03 -0.25950484728E+03  0.95184850597E+03  0.46999998093E+01 0. -1.
</event>
<event>
 5   0  0.1813834E-04  0.1902870E+04  0.7818609E-02  0.8653429E-01
       -1   -1    0    0    0  501  0.00000000000E+00  0.00000000000E+00  0.63406365294E+03  0.63406365296E+03  0.50400001928E-02 0.  1.
        1   -1    0    0  501    0  0.00000000000E+00  0.00000000000E+00 -0.14276625919E+04  0.14276625919E+04  0.50400001928E-02 0. -1.
    10030    2    1    2    0    0  0.00000000000E+00  0.00000000000E+00 -0.79359893895E+03  0.20617262449E+04  0.19028704193E+04 0.  0.
        5    1    3    3  502    0  0.71094712493E+03 -0.13442982958E+03 -0.10661860325E+04  0.12885231622E+04  0.46999998093E+01 0. -1.
       -5    1    3    3    0  502 -0.71094712493E+03  0.13442982958E+03  0.27258709354E+03  0.77320308270E+03  0.46999998093E+01 0.  1.
</event>
<event>
 5   0  0.3535876E-04  0.1874039E+04  0.7818609E-02  0.8667888E-01
        2   -1    0    0  501    0  0.00000000000E+00  0.00000000000E+00  0.10791340499E+04  0.10791340499E+04  0.25500000920E-02 0.  1.
       -2   -1    0    0    0  501  0.00000000000E+00  0.00000000000E+00 -0.81362085705E+03  0.81362085706E+03  0.25500000920E-02 0. -1.
    10030    2    1    2    0    0  0.00000000000E+00  0.00000000000E+00  0.26551319283E+03  0.18927549069E+04  0.18740394559E+04 0.  0.
        2    1    3    3  502    0  0.27340349574E+02 -0.61124287628E+03 -0.58400714263E+03  0.84583076982E+03  0.25500000920E-02 0. -1.
       -2    1    3    3    0  502 -0.27340349574E+02  0.61124287628E+03  0.84952033546E+03  0.10469241371E+04  0.25500000920E-02 0.  1.
</event>
<event>
 5   0  0.3535876E-04  0.1887769E+04  0.7818609E-02  0.8660969E-01
        2   -1    0    0  501    0  0.00000000000E+00  0.00000000000E+00  0.11378997190E+04  0.11378997190E+04  0.25500000920E-02 0. -1.
       -2   -1    0    0    0  501  0.00000000000E+00  0.00000000000E+00 -0.78294926583E+03  0.78294926583E+03  0.25500000920E-02 0.  1.
    10030    2    1    2    0    0  0.00000000000E+00  0.00000000000E+00  0.35495045315E+03  0.19208489848E+04  0.18877687883E+04 0.  0.
        2    1    3    3  502    0 -0.15676624321E+03 -0.36289300270E+03  0.10496125810E+04  0.11215852872E+04  0.25500000920E-02 0. -1.
       -2    1    3    3    0  502  0.15676624321E+03  0.36289300270E+03 -0.69466212782E+03  0.79926369757E+03  0.25500000920E-02 0.  1.
</event>
<event>
 5   0  0.1782613E-04  0.1884609E+04  0.7818609E-02  0.8662555E-01
       -1   -1    0    0    0  501  0.00000000000E+00  0.00000000000E+00  0.53512898144E+03  0.53512898147E+03  0.50400001928E-02 0. -1.
        1   -1    0    0  501    0  0.00000000000E+00  0.00000000000E+00 -0.16592974323E+04  0.16592974323E+04  0.50400001928E-02 0.  1.
    10030    2    1    2    0    0  0.00000000000E+00  0.00000000000E+00 -0.11241684508E+04  0.21944264138E+04  0.18846093971E+04 0.  0.
        3    1    3    3  502    0 -0.35411933709E+02  0.78162913115E+03  0.49349767541E+02  0.78398565897E+03  0.10100000352E+00 0. -1.
       -3    1    3    3    0  502  0.35411933709E+02 -0.78162913115E+03 -0.11735182184E+04  0.14104407548E+04  0.10100000352E+00 0.  1.
</event>
<event>
 5   0  0.3623359E-04  0.1838686E+04  0.7818609E-02  0.8685993E-01
        2   -1    0    0  501    0  0.00000000000E+00  0.00000000000E+00  0.13620123264E+04  0.13620123264E+04  0.25500000920E-02 0.  1.
       -2   -1    0    0    0  501  0.00000000000E+00  0.00000000000E+00 -0.62054651833E+03  0.62054651833E+03  0.25500000920E-02 0. -1.
    10030    2    1    2    0    0  0.00000000000E+00  0.00000000000E+00  0.74146580808E+03  0.19825588447E+04  0.18386864954E+04 0.  0.
        5    1    3    3  502    0 -0.54134451036E+03  0.74110474509E+03  0.42859566954E+03  0.10129197698E+04  0.46999998093E+01 0.  1.
       -5    1    3    3    0  502  0.54134451036E+03 -0.74110474509E+03  0.31287013854E+03  0.96963907495E+03  0.46999998093E+01 0. -1.
</event>
<event>
 5   0  0.1711979E-04  0.1911832E+04  0.7818609E-02  0.8648989E-01
       -1   -1    0    0    0  501  0.00000000000E+00  0.00000000000E+00  0.62585470960E+03  0.62585470962E+03  0.50400001928E-02 0. -1.
        1   -1    0    0  501    0  0.00000000000E+00  0.00000000000E+00 -0.14600441728E+04  0.14600441728E+04  0.50400001928E-02 0.  1.
    10030    2    1    2    0    0  0.00000000000E+00  0.00000000000E+00 -0.83418946323E+03  0.20858988825E+04  0.19118321284E+04 0.  0.
        4    1    3    3  502    0  0.81175147612E+03  0.25993560018E+03 -0.88923826458E+03  0.12317683546E+04  0.12699999809E+01 0.  1.
       -4    1    3    3    0  502 -0.81175147612E+03 -0.25993560018E+03  0.55048801349E+02  0.85413052788E+03  0.12699999809E+01 0. -1.
</event>
<event>
 5   0  0.3535876E-04  0.1863117E+04  0.7818609E-02  0.8673436E-01
       -2   -1    0    0    0  501  0.00000000000E+00  0.00000000000E+00  0.48237426073E+03  0.48237426074E+03  0.25500000920E-02 0.  1.
        2   -1    0    0  501    0  0.00000000000E+00  0.00000000000E+00 -0.17990206931E+04  0.17990206931E+04  0.25500000920E-02 0. -1.
    10030    2    1    2    0    0  0.00000000000E+00  0.00000000000E+00 -0.13166464323E+04  0.22813949538E+04  0.18631170407E+04 0.  0.
        2    1    3    3  502    0  0.90920116093E+03  0.16506097672E+03 -0.80273895736E+03  0.12240431817E+04  0.25500000920E-02 0. -1.
       -2    1    3    3    0  502 -0.90920116093E+03 -0.16506097672E+03 -0.51390747498E+03  0.10573517721E+04  0.25500000920E-02 0.  1.
</event>
<event>
 5   0  0.1782613E-04  0.1932907E+04  0.7818609E-02  0.8638647E-01
       -1   -1    0    0    0  501  0.00000000000E+00  0.00000000000E+00  0.19029039424E+04  0.19029039424E+04  0.50400001928E-02 0. -1.
        1   -1    0    0  501    0  0.00000000000E+00  0.00000000000E+00 -0.49084594406E+03  0.49084594409E+03  0.50400001928E-02 0.  1.
    10030    2    1    2    0    0  0.00000000000E+00  0.00000000000E+00  0.14120579983E+04  0.23937498865E+04  0.19329073253E+04 0.  0.
        3    1    3    3  502    0  0.53850547540E+02  0.81993982669E+03  0.75977166648E+02  0.82521133106E+03  0.10100000352E+00 0.  1.
       -3    1    3    3    0  502 -0.53850547540E+02 -0.81993982669E+03  0.13360808316E+04  0.15685385554E+04  0.10100000352E+00 0. -1.
</event>
<event>
 5   0  0.1813834E-04  0.1833660E+04  0.7818609E-02  0.8688602E-01
        1   -1    0    0  501    0  0.00000000000E+00  0.00000000000E+00  0.40813895375E+03  0.40813895378E+03  0.50400001928E-02 0.  1.
       -1   -1    0    0    0  501  0.00000000000E+00  0.00000000000E+00 -0.20595365407E+04  0.20595365407E+04  0.50400001928E-02 0. -1.
    10030    2    1    2    0    0  0.00000000000E+00  0.00000000000E+00 -0.16513975869E+04  0.24676754945E+04  0.18336598256E+04 0.  0.
        5    1    3    3  502    0  0.14964933131E+02  0.45072778206E+03 -0.18999326060E+04  0.19527277025E+04  0.46999998093E+01 0. -1.
       -5    1    3    3    0  502 -0.14964933131E+02 -0.45072778206E+03  0.24853501908E+03  0.51494779197E+03  0.46999998093E+01 0.  1.
</event>
<event>
 5   0  0.1758946E-04  0.1787754E+04  0.7818609E-02  0.8712839E-01
        1   -1    0    0  501    0  0.00000000000E+00  0.00000000000E+00  0.15468022097E+04  0.15468022098E+04  0.50400001928E-02 0.  1.
       -1   -1    0    0    0  501  0.00000000000E+00  0.00000000000E+00 -0.51655993133E+03  0.51655993136E+03  0.50400001928E-02 0. -1.
    10030    2    1    2    0    0  0.00000000000E+00  0.00000000000E+00  0.10302422784E+04  0.20633621411E+04  0.17877539465E+04 0.  0.
        2    1    3    3  502    0  0.39267888353E+03 -0.74952001055E+02  0.14378765853E+04  0.14924153519E+04  0.25500000920E-02 0.  1.
       -2    1    3    3    0  502 -0.39267888353E+03  0.74952001055E+02 -0.40763430684E+03  0.57094678925E+03  0.25500000920E-02 0. -1.
</event>
<event>
 5   0  0.1813834E-04  0.1852592E+04  0.7818609E-02  0.8678821E-01
       -1   -1    0    0    0  501  0.00000000000E+00  0.00000000000E+00  0.92772443845E+03  0.92772443847E+03  0.50400001928E-02 0. -1.
        1   -1    0    0  501    0  0.00000000000E+00  0.00000000000E+00 -0.92486927667E+03  0.92486927668E+03  0.50400001928E-02 0.  1.
    10030    2    1    2    0    0  0.00000000000E+00  0.00000000000E+00  0.28551617845E+01  0.18525937151E+04  0.18525915150E+04 0.  0.
        5    1    3    3  502    0 -0.27023487083E+03  0.88422051458E+03 -0.54509383445E+02  0.92621064920E+03  0.46999998093E+01 0.  1.
       -5    1    3    3    0  502  0.27023487083E+03 -0.88422051458E+03  0.57364545230E+02  0.92638306594E+03  0.46999998093E+01 0. -1.
</event>
<event>
 5   0  0.3535876E-04  0.1910336E+04  0.7818609E-02  0.8649728E-01
        2   -1    0    0  501    0  0.00000000000E+00  0.00000000000E+00  0.18025769644E+04  0.18025769644E+04  0.25500000920E-02 0.  1.
       -2   -1    0    0    0  501  0.00000000000E+00  0.00000000000E+00 -0.50613437648E+03  0.50613437649E+03  0.25500000920E-02 0. -1.
    10030    2    1    2    0    0  0.00000000000E+00  0.00000000000E+00  0.12964425879E+04  0.23087113409E+04  0.19103362719E+04 0.  0.
        2    1    3    3  502    0  0.50728186063E+03 -0.27424506760E+03  0.15684573942E+04  0.16711085664E+04  0.25500000920E-02 0.  1.
       -2    1    3    3    0  502 -0.50728186063E+03  0.27424506760E+03 -0.27201480627E+03  0.63760277451E+03  0.25500000920E-02 0. -1.
</event>
<event>
 5   0  0.3535876E-04  0.1876309E+04  0.7818609E-02  0.8666740E-01
       -2   -1    0    0    0  501  0.00000000000E+00  0.00000000000E+00  0.76582634644E+03  0.76582634644E+03  0.25500000920E-02 0.  1.
        2   -1    0    0  501    0  0.00000000000E+00  0.00000000000E+00 -0.11492603713E+04  0.11492603713E+04  0.25500000920E-02 0. -1.
    10030    2    1    2    0    0  0.00000000000E+00  0.00000000000E+00 -0.38343402483E+03  0.19150867177E+04  0.18763090057E+04 0.  0.
        2    1    3    3  502    0 -0.54675398677E+03  0.70048452068E+03  0.11535856966E+03  0.89606142946E+03  0.25500000920E-02 0. -1.
       -2    1    3    3    0  502  0.54675398677E+03 -0.70048452068E+03 -0.49879259448E+03  0.10190252882E+04  0.25500000920E-02 0.  1.
</event>
<event>
 5   0  0.1711979E-04  0.1887958E+04  0.7818609E-02  0.8660874E-01
        1   -1    0    0  501    0  0.00000000000E+00  0.00000000000E+00  0.21578032285E+04  0.21578032285E+04  0.50400001928E-02 0. -1.
       -1   -1    0    0    0  501  0.00000000000E+00  0.00000000000E+00 -0.41296463799E+03  0.41296463802E+03  0.50400001928E-02 0.  1.
    10030    2    1    2    0    0  0.00000000000E+00  0.00000000000E+00  0.17448385905E+04  0.25707678665E+04  0.18879580812E+04 0.  0.
        4    1    3    3  502    0  0.56075060934E+03 -0.35805808570E+03  0.17842759046E+04  0.19042817426E+04  0.12699999809E+01 0. -1.
       -4    1    3    3    0  502 -0.56075060934E+03  0.35805808570E+03 -0.39437314165E+02  0.66648612383E+03  0.12699999809E+01 0.  1.
</event>
<event>
 5   0  0.3516539E-04  0.1728865E+04  0.7818609E-02  0.8745071E-01
       -2   -1    0    0    0  501  0.00000000000E+00  0.00000000000E+00  0.71579146653E+03  0.71579146654E+03  0.25500000920E-02 0.  1.
        2   -1    0    0  501    0  0.00000000000E+00  0.00000000000E+00 -0.10439403777E+04  0.10439403777E+04  0.25500000920E-02 0. -1.
    10030    2    1    2    0    0  0.00000000000E+00  0.00000000000E+00 -0.32814891119E+03  0.17597318443E+04  0.17288650774E+04 0.  0.
        4    1    3    3  502    0  0.29240564259E+03  0.25181631744E+03  0.62325335699E+03  0.73304766383E+03  0.12699999809E+01 0.  1.
       -4    1    3    3    0  502 -0.29240564259E+03 -0.25181631744E+03 -0.95140226818E+03  0.10266841804E+04  0.12699999809E+01 0. -1.
</event>
<event>
 5   0  0.1287000E-04  0.1917072E+04  0.7818609E-02  0.8646405E-01
       -3   -1    0    0    0  501  0.00000000000E+00  0.00000000000E+00  0.88562178238E+03  0.88562178814E+03  0.10100000352E+00 0. -1.
        3   -1    0    0  501    0  0.00000000000E+00  0.00000000000E+00 -0.10374536224E+04  0.10374536273E+04  0.10100000352E+00 0.  1.
    10030    2    1    2    0    0  0.00000000000E+00  0.00000000000E+00 -0.15183183998E+03  0.19230754154E+04  0.19170722850E+04 0.  0.
        1    1    3    3  502    0  0.54286564232E+03  0.77284723964E+03 -0.24012205066E+03  0.97450221173E+03  0.50400001928E-02 0. -1.
       -1    1    3    3    0  502 -0.54286564232E+03 -0.77284723964E+03  0.88290210672E+02  0.94857320369E+03  0.50400001928E-02 0.  1.
</event>
<event>
 5   0  0.1813834E-04  0.1935166E+04  0.7818609E-02  0.8637547E-01
        1   -1    0    0  501    0  0.00000000000E+00  0.00000000000E+00  0.18404886560E+04  0.18404886560E+04  0.50400001928E-02 0.  1.
       -1   -1    0    0    0  501  0.00000000000E+00  0.00000000000E+00 -0.50867837062E+03  0.50867837065E+03  0.50400001928E-02 0. -1.
    10030    2    1    2    0    0  0.00000000000E+00  0.00000000000E+00  0.13318102854E+04  0.23491670267E+04  0.19351659058E+04 0.  0.
        5    1    3    3  502    0  0.90059993589E+03  0.22826638632E+03  0.99391249193E+03  0.13605403042E+04  0.46999998093E+01 0.  1.
       -5    1    3    3    0  502 -0.90059993589E+03 -0.22826638632E+03  0.33789779349E+03  0.98862672253E+03  0.46999998093E+01 0. -1.
</event>
<event>
 5   0  0.1782613E-04  0.1901921E+04  0.7818609E-02  0.8653901E-01
       -1   -1    0    0    0  501  0.00000000000E+00  0.00000000000E+00  0.20467493905E+04  0.20467493905E+04  0.50400001928E-02 0.  1.
        1   -1    0    0  501    0  0.00000000000E+00  0.00000000000E+00 -0.44183499869E+03  0.44183499871E+03  0.50400001928E-02 0. -1.
    10030    2    1    2    0    0  0.00000000000E+00  0.00000000000E+00  0.16049143918E+04  0.24885843892E+04  0.19019206233E+04 0.  0.
        3    1    3    3  502    0  0.13154651379E+03  0.59887818592E+03  0.17535598436E+04  0.18576683509E+04  0.10100000352E+00 0.  1.
       -3    1    3    3    0  502 -0.13154651379E+03 -0.59887818592E+03 -0.14864545174E+03  0.63091603830E+03  0.10100000352E+00 0. -1.
</event>
<event>
 5   0  0.3535876E-04  0.1868421E+04  0.7818609E-02  0.8670737E-01
       -2   -1    0    0    0  501  0.00000000000E+00  0.00000000000E+00  0.48154643656E+03  0.48154643657E+03  0.25500000920E-02 0.  1.
        2   -1    0    0  501    0  0.00000000000E+00  0.00000000000E+00 -0.18123879411E+04  0.18123879411E+04  0.25500000920E-02 0. -1.
    10030    2    1    2    0    0  0.00000000000E+00  0.00000000000E+00 -0.13308415045E+04  0.22939343777E+04  0.18684206750E+04 0.  0.
        2    1    3    3  502    0  0.41671642929E+03  0.83256678125E+03 -0.75995613298E+03  0.12018125277E+04  0.25500000920E-02 0. -1.
       -2    1    3    3    0  502 -0.41671642929E+03 -0.83256678125E+03 -0.57088537154E+03  0.10921218499E+04  0.25500000920E-02 0.  1.
</event>
<event>
 5   0  0.1694830E-04  0.1602094E+04  0.7818609E-02  0.8819262E-01
        1   -1    0    0  501    0  0.00000000000E+00  0.00000000000E+00  0.11827770308E+04  0.11827770308E+04  0.50400001928E-02 0. -1.
       -1   -1    0    0    0  501  0.00000000000E+00  0.00000000000E+00 -0.54251696386E+03  0.54251696388E+03  0.50400001928E-02 0.  1.
    10030    2    1    2    0    0  0.00000000000E+00  0.00000000000E+00  0.64026006698E+03  0.17252939947E+04  0.16020943839E+04 0.  0.
        1    1    3    3  502    0 -0.18556420530E+03 -0.75488258958E+03  0.52837794332E+03  0.93992821500E+03  0.50400001928E-02 0. -1.
       -1    1    3    3    0  502  0.18556420530E+03  0.75488258958E+03  0.11188212366E+03  0.78536577973E+03  0.50400001928E-02 0.  1.
</event>
<event>
 5   0  0.3535876E-04  0.1791700E+04  0.7818609E-02  0.8710726E-01
        2   -1    0    0  501    0  0.00000000000E+00  0.00000000000E+00  0.26704490359E+04  0.26704490359E+04  0.25500000920E-02 0.  1.
       -2   -1    0    0    0  501  0.00000000000E+00  0.00000000000E+00 -0.30052894862E+03  0.30052894863E+03  0.25500000920E-02 0. -1.
    10030    2    1    2    0    0  0.00000000000E+00  0.00000000000E+00  0.23699200873E+04  0.29709779845E+04  0.17917000208E+04 0.  0.
        2    1    3    3  502    0  0.48692943293E+03  0.39125489652E+03  0.12014087062E+03  0.63609315003E+03  0.25500000920E-02 0. -1.
       -2    1    3    3    0  502 -0.48692943293E+03 -0.39125489652E+03  0.22497792166E+04  0.23348848345E+04  0.25500000920E-02 0.  1.
</event>
<event>
 5   0  0.3535876E-04  0.1890580E+04  0.7818609E-02  0.8659559E-01
       -2   -1    0    0    0  501  0.00000000000E+00  0.00000000000E+00  0.42000894118E+03  0.42000894119E+03  0.25500000920E-02 0. -1.
        2   -1    0    0  501    0  0.00000000000E+00  0.00000000000E+00 -0.21275110265E+04  0.21275110265E+04  0.25500000920E-02 0.  1.
    10030    2    1    2    0    0  0.00000000000E+00  0.00000000000E+00 -0.17075020853E+04  0.25475199677E+04  0.18905804967E+04 0.  0.
        2    1    3    3  502    0 -0.45885767384E+03  0.80771004663E+03 -0.61793132929E+03  0.11156993376E+04  0.25500000920E-02 0. -1.
       -2    1    3    3    0  502  0.45885767384E+03 -0.80771004663E+03 -0.10895707561E+04  0.14318206301E+04  0.25500000920E-02 0.  1.
</event>
<event>
 5   0  0.1782613E-04  0.1846113E+04  0.7818609E-02  0.8682154E-01
        1   -1    0    0  501    0  0.00000000000E+00  0.00000000000E+00  0.22101768875E+04  0.22101768875E+04  0.50400001928E-02 0. -1.
       -1   -1    0    0    0  501  0.00000000000E+00  0.00000000000E+00 -0.38550450752E+03  0.38550450755E+03  0.50400001928E-02 0.  1.
    10030    2    1    2    0    0  0.00000000000E+00  0.00000000000E+00  0.18246723800E+04  0.25956813951E+04  0.18461128379E+04 0.  0.
        3    1    3    3  502    0 -0.53419723552E+03 -0.27689726176E+03 -0.71875872628E+02  0.60597436519E+03  0.10100000352E+00 0.  1.
       -3    1    3    3    0  502  0.53419723552E+03  0.27689726176E+03  0.18965482526E+04  0.19897070299E+04  0.10100000352E+00 0. -1.
</event>
<event>
 5   0  0.1694830E-04  0.1876316E+04  0.7818609E-02  0.8666736E-01
       -1   -1    0    0    0  501  0.00000000000E+00  0.00000000000E+00  0.46908338466E+03  0.46908338469E+03  0.50400001928E-02 0. -1.
        1   -1    0    0  501    0  0.00000000000E+00  0.00000000000E+00 -0.18762986114E+04  0.18762986114E+04  0.50400001928E-02 0.  1.
    10030    2    1    2    0    0  0.00000000000E+00  0.00000000000E+00 -0.14072152267E+04  0.23453819961E+04  0.18763160750E+04 0.  0.
        1    1    3    3  502    0 -0.46292464408E+03  0.41064528576E+02  0.31508300137E+03  0.56148269731E+03  0.50400001928E-02 0. -1.
       -1    1    3    3    0  502  0.46292464408E+03 -0.41064528576E+02 -0.17222982281E+04  0.17838992988E+04  0.50400001928E-02 0.  1.
</event>
<event>
 5   0  0.1782613E-04  0.1911820E+04  0.7818609E-02  0.8648995E-01
        1   -1    0    0  501    0  0.00000000000E+00  0.00000000000E+00  0.13517969381E+04  0.13517969381E+04  0.50400001928E-02 0.  1.
       -1   -1    0    0    0  501  0.00000000000E+00  0.00000000000E+00 -0.67596266650E+03  0.67596266651E+03  0.50400001928E-02 0. -1.
    10030    2    1    2    0    0  0.00000000000E+00  0.00000000000E+00  0.67583427160E+03  0.20277596046E+04  0.19118203502E+04 0.  0.
        3    1    3    3  502    0 -0.60828798985E+03 -0.64169559619E+03 -0.47399782775E+02  0.88545709460E+03  0.10100000352E+00 0. -1.
       -3    1    3    3    0  502  0.60828798985E+03  0.64169559619E+03  0.72323405437E+03  0.11423025100E+04  0.10100000352E+00 0.  1.
</event>
<event>
 5   0  0.1287000E-04  0.1924695E+04  0.7818609E-02  0.8642661E-01
       -3   -1    0    0    0  501  0.00000000000E+00  0.00000000000E+00  0.11776274347E+04  0.11776274390E+04  0.10100000352E+00 0.  1.
        3   -1    0    0  501    0  0.00000000000E+00  0.00000000000E+00 -0.78642271596E+03  0.78642272245E+03  0.10100000352E+00 0. -1.
    10030    2    1    2    0    0  0.00000000000E+00  0.00000000000E+00  0.39120471871E+03  0.19640501615E+04  0.19246952758E+04 0.  0.
        4    1    3    3  502    0  0.42297247122E+03 -0.15432573303E+03  0.10635161944E+04  0.11548984596E+04  0.12699999809E+01 0.  1.
       -4    1    3    3    0  502 -0.42297247122E+03  0.15432573303E+03 -0.67231147573E+03  0.80915170184E+03  0.12699999809E+01 0. -1.
</event>
<event>
 5   0  0.1711979E-04  0.1909891E+04  0.7818609E-02  0.8649949E-01
        1   -1    0    0  501    0  0.00000000000E+00  0.00000000000E+00  0.93207967954E+03  0.93207967955E+03  0.50400001928E-02 0.  1.
       -1   -1    0    0    0  501  0.00000000000E+00  0.00000000000E+00 -0.97837178756E+03  0.97837178757E+03  0.50400001928E-02 0. -1.
    10030    2    1    2    0    0  0.00000000000E+00  0.00000000000E+00 -0.46292108021E+02  0.19104514671E+04  0.19098905332E+04 0.  0.
        4    1    3    3  502    0 -0.92505034301E+02 -0.67528611709E+03  0.64589291328E+03  0.93901426487E+03  0.12699999809E+01 0.  1.
       -4    1    3    3    0  502  0.92505034301E+02  0.67528611709E+03 -0.69218502130E+03  0.97143720225E+03  0.12699999809E+01 0. -1.
</event>
<event>
 5   0  0.1711979E-04  0.1402989E+04  0.7818609E-02  0.8951658E-01
       -1   -1    0    0    0  501  0.00000000000E+00  0.00000000000E+00  0.36841744706E+03  0.36841744709E+03  0.50400001928E-02 0.  1.
        1   -1    0    0  501    0  0.00000000000E+00  0.00000000000E+00 -0.13356984861E+04  0.13356984861E+04  0.50400001928E-02 0. -1.
    10030    2    1    2    0    0  0.00000000000E+00  0.00000000000E+00 -0.96728103902E+03  0.17041159332E+04  0.14029891323E+04 0.  0.
        4    1    3    3  502    0 -0.12389628834E+03  0.26296682204E+03  0.29181557850E+03  0.41189778406E+03  0.12699999809E+01 0.  1.
       -4    1    3    3    0  502  0.12389628834E+03 -0.26296682204E+03 -0.12590966175E+04  0.12922181491E+04  0.12699999809E+01 0. -1.
</event>
<event>
 5   0  0.3720978E-04  0.1897187E+04  0.7818609E-02  0.8656258E-01
       -2   -1    0    0    0  501  0.00000000000E+00  0.00000000000E+00  0.13173035619E+04  0.13173035619E+04  0.25500000920E-02 0.  1.
        2   -1    0    0  501    0  0.00000000000E+00  0.00000000000E+00 -0.68308422129E+03  0.68308422129E+03  0.25500000920E-02 0. -1.
    10030    2    1    2    0    0  0.00000000000E+00  0.00000000000E+00  0.63421934060E+03  0.20003877832E+04  0.18971866305E+04 0.  0.
        1    1    3    3  502    0 -0.26984229136E+03 -0.89036247280E+03  0.12192065327E+03  0.93830956560E+03  0.50400001928E-02 0. -1.
       -1    1    3    3    0  502  0.26984229136E+03  0.89036247280E+03  0.51229868733E+03  0.10620782176E+04  0.50400001928E-02 0.  1.
</event>
<event>
 5   0  0.3459485E-04  0.1892475E+04  0.7818609E-02  0.8658611E-01
        2   -1    0    0  501    0  0.00000000000E+00  0.00000000000E+00  0.14010488138E+04  0.14010488138E+04  0.25500000920E-02 0. -1.
       -2   -1    0    0    0  501  0.00000000000E+00  0.00000000000E+00 -0.63906800760E+03  0.63906800760E+03  0.25500000920E-02 0.  1.
    10030    2    1    2    0    0  0.00000000000E+00  0.00000000000E+00  0.76198080623E+03  0.20401168214E+04  0.18924750714E+04 0.  0.
        3    1    3    3  502    0  0.32064665768E+03  0.85530776499E+03  0.64724009697E+03  0.11195023025E+04  0.10100000352E+00 0. -1.
       -3    1    3    3    0  502 -0.32064665768E+03 -0.85530776499E+03  0.11474070926E+03  0.92061451895E+03  0.10100000352E+00 0.  1.
</event>
<event>
 5   0  0.1813834E-04  0.1911683E+04  0.7818609E-02  0.8649063E-01
       -1   -1    0    0    0  501  0.00000000000E+00  0.00000000000E+00  0.63100710160E+03  0.63100710162E+03  0.50400001928E-02 0.  1.
        1   -1    0    0  501    0  0.00000000000E+00  0.00000000000E+00 -0.14478971771E+04  0.14478971771E+04  0.50400001928E-02 0. -1.
    10030    2    1    2    0    0  0.00000000000E+00  0.00000000000E+00 -0.81689007553E+03  0.20789042788E+04  0.19116834478E+04 0.  0.
        5    1    3    3  502    0  0.48110825572E+03 -0.14035531414E+02 -0.13064826222E+04  0.13923293727E+04  0.46999998093E+01 0. -1.
       -5    1    3    3    0  502 -0.48110825572E+03  0.14035531414E+02  0.48959254670E+03  0.68657490607E+03  0.46999998093E+01 0.  1.
</event>
<event>
 5   0  0.3535876E-04  0.1783644E+04  0.7818609E-02  0.8715046E-01
       -2   -1    0    0    0  501  0.00000000000E+00  0.00000000000E+00  0.68692547337E+03  0.68692547338E+03  0.25500000920E-02 0. -1.
        2   -1    0    0  501    0  0.00000000000E+00  0.00000000000E+00 -0.11578345676E+04  0.11578345676E+04  0.25500000920E-02 0.  1.
    10030    2    1    2    0    0  0.00000000000E+00  0.00000000000E+00 -0.47090909422E+03  0.18447600410E+04  0.17836435277E+04 0.  0.
        2    1    3    3  502    0 -0.28980851407E+03  0.63727942152E+03  0.33595417838E+03  0.77651738287E+03  0.25500000920E-02 0. -1.
       -2    1    3    3    0  502  0.28980851407E+03 -0.63727942152E+03 -0.80686327260E+03  0.10682426581E+04  0.25500000920E-02 0.  1.
</event>
<event>
 5   0  0.3516539E-04  0.1904614E+04  0.7818609E-02  0.8652563E-01
        2   -1    0    0  501    0  0.00000000000E+00  0.00000000000E+00  0.13315597686E+04  0.13315597686E+04  0.25500000920E-02 0. -1.
       -2   -1    0    0    0  501  0.00000000000E+00  0.00000000000E+00 -0.68107214674E+03  0.68107214675E+03  0.25500000920E-02 0.  1.
    10030    2    1    2    0    0  0.00000000000E+00  0.00000000000E+00  0.65048762187E+03  0.20126319154E+04  0.19046136302E+04 0.  0.
        4    1    3    3  502    0 -0.44640173074E+03 -0.70847114686E+03 -0.15399758992E+03  0.85142394948E+03  0.12699999809E+01 0.  1.
       -4    1    3    3    0  502  0.44640173074E+03  0.70847114686E+03  0.80448521178E+03  0.11612079659E+04  0.12699999809E+01 0. -1.
</event>
<event>
 5   0  0.1711979E-04  0.1956202E+04  0.7818609E-02  0.8627376E-01
        1   -1    0    0  501    0  0.00000000000E+00  0.00000000000E+00  0.12018365701E+04  0.12018365701E+04  0.50400001928E-02 0. -1.
       -1   -1    0    0    0  501  0.00000000000E+00  0.00000000000E+00 -0.79601660382E+03  0.79601660384E+03  0.50400001928E-02 0.  1.
    10030    2    1    2    0    0  0.00000000000E+00  0.00000000000E+00  0.40581996626E+03  0.19978531739E+04  0.19562023054E+04 0.  0.
        4    1    3    3  502    0 -0.96820850142E+03 -0.12986338408E+03  0.15300181569E+03  0.98878883956E+03  0.12699999809E+01 0.  1.
       -4    1    3    3    0  502  0.96820850142E+03  0.12986338408E+03  0.25281815056E+03  0.10090643344E+04  0.12699999809E+01 0. -1.
</event>
<event>
 5   0  0.3623359E-04  0.1885496E+04  0.7818609E-02  0.8662110E-01
       -2   -1    0    0    0  501  0.00000000000E+00  0.00000000000E+00  0.87703263726E+03  0.87703263726E+03  0.25500000920E-02 0. -1.
        2   -1    0    0  501    0  0.00000000000E+00  0.00000000000E+00 -0.10133876309E+04  0.10133876310E+04  0.25500000920E-02 0.  1.
    10030    2    1    2    0    0  0.00000000000E+00  0.00000000000E+00 -0.13635499369E+03  0.18904202682E+04  0.18854962493E+04 0.  0.
        5    1    3    3  502    0 -0.75897887530E+03  0.53379686197E+03  0.98882717344E+02  0.93316017102E+03  0.46999998093E+01 0. -1.
       -5    1    3    3    0  502  0.75897887530E+03 -0.53379686197E+03 -0.23523771103E+03  0.95726009719E+03  0.46999998093E+01 0.  1.
</event>
<event>
 5   0  0.3459485E-04  0.1907578E+04  0.7818609E-02  0.8651093E-01
       -2   -1    0    0    0  501  0.00000000000E+00  0.00000000000E+00  0.14090388746E+04  0.14090388746E+04  0.25500000920E-02 0.  1.
        2   -1    0    0  501    0  0.00000000000E+00  0.00000000000E+00 -0.64562703771E+03  0.64562703771E+03  0.25500000920E-02 0. -1.
    10030    2    1    2    0    0  0.00000000000E+00  0.00000000000E+00  0.76341183694E+03  0.20546659124E+04  0.19075781448E+04 0.  0.
        3    1    3    3  502    0  0.53475638352E+03  0.69899858987E+03  0.77768037345E+03  0.11744574031E+04  0.10100000352E+00 0.  1.
       -3    1    3    3    0  502 -0.53475638352E+03 -0.69899858987E+03 -0.14268536515E+02  0.88020850921E+03  0.10100000352E+00 0. -1.
</event>
<event>
 5   0  0.1711979E-04  0.1893849E+04  0.7818609E-02  0.8657924E-01
        1   -1    0    0  501    0  0.00000000000E+00  0.00000000000E+00  0.24426915708E+04  0.24426915708E+04  0.50400001928E-02 0. -1.
       -1   -1    0    0    0  501  0.00000000000E+00  0.00000000000E+00 -0.36708119364E+03  0.36708119368E+03  0.50400001928E-02 0.  1.
    10030    2    1    2    0    0  0.00000000000E+00  0.00000000000E+00  0.20756103771E+04  0.28097727644E+04  0.18938491361E+04 0.  0.
        4    1    3    3  502    0  0.50838735729E+03  0.78458951092E+03  0.81463773839E+03  0.12400301058E+04  0.12699999809E+01 0. -1.
       -4    1    3    3    0  502 -0.50838735729E+03 -0.78458951092E+03  0.12609726387E+04  0.15697426586E+04  0.12699999809E+01 0.  1.
</event>
<event>
 5   0  0.1782613E-04  0.1902515E+04  0.7818609E-02  0.8653606E-01
        1   -1    0    0  501    0  0.00000000000E+00  0.00000000000E+00  0.13026943718E+04  0.13026943718E+04  0.50400001928E-02 0.  1.
       -1   -1    0    0    0  501  0.00000000000E+00  0.00000000000E+00 -0.69463006338E+03  0.69463006340E+03  0.50400001928E-02 0. -1.
    10030    2    1    2    0    0  0.00000000000E+00  0.00000000000E+00  0.60806430841E+03  0.19973244352E+04  0.19025148347E+04 0.  0.
        3    1    3    3  502    0 -0.50297154682E+03 -0.54626334296E+03  0.92822581760E+03  0.11886913794E+04  0.10100000352E+00 0.  1.
       -3    1    3    3    0  502  0.50297154682E+03  0.54626334296E+03 -0.32016150919E+03  0.80863305581E+03  0.10100000352E+00 0. -1.
</event>
<event>
 5   0  0.3516539E-04  0.1916211E+04  0.7818609E-02  0.8646829E-01
       -2   -1    0    0    0  501  0.00000000000E+00  0.00000000000E+00  0.59211313923E+03  0.59211313924E+03  0.25500000920E-02 0.  1.
        2   -1    0    0  501    0  0.00000000000E+00  0.00000000000E+00 -0.15503224411E+04  0.15503224411E+04  0.25500000920E-02 0. -1.
    10030    2    1    2    0    0  0.00000000000E+00  0.00000000000E+00 -0.95820930183E+03  0.21424355803E+04  0.19162111443E+04 0.  0.
        4    1    3    3  502    0  0.93440033695E+03 -0.95746851809E+02 -0.69033548145E+03  0.11656912709E+04  0.12699999809E+01 0. -1.
       -4    1    3    3    0  502 -0.93440033695E+03  0.95746851809E+02 -0.26787382038E+03  0.97674430936E+03  0.12699999809E+01 0.  1.
</event>
<event>
 5   0  0.3459485E-04  0.1797702E+04  0.7818609E-02  0.8707523E-01
       -2   -1    0    0    0  501  0.00000000000E+00  0.00000000000E+00  0.87662509215E+03  0.87662509215E+03  0.25500000920E-02 0.  1.
        2   -1    0    0  501    0  0.00000000000E+00  0.00000000000E+00 -0.92164016406E+03  0.92164016407E+03  0.25500000920E-02 0. -1.
    10030    2    1    2    0    0  0.00000000000E+00  0.00000000000E+00 -0.45015071918E+02  0.17982652562E+04  0.17977017481E+04 0.  0.
        3    1    3    3  502    0 -0.68901169639E+03 -0.28704104312E+03 -0.52346707893E+03  0.91167289700E+03  0.10100000352E+00 0. -1.
       -3    1    3    3    0  502  0.68901169639E+03  0.28704104312E+03  0.47845200701E+03  0.88659235921E+03  0.10100000352E+00 0.  1.
</event>
<event>
 5   0  0.3535876E-04  0.1897541E+04  0.7818609E-02  0.8656082E-01
        2   -1    0    0  501    0  0.00000000000E+00  0.00000000000E+00  0.81305334260E+03  0.81305334260E+03  0.25500000920E-02 0. -1.
       -2   -1    0    0    0  501  0.00000000000E+00  0.00000000000E+00 -0.11071414225E+04  0.11071414225E+04  0.25500000920E-02 0.  1.
    10030    2    1    2    0    0  0.00000000000E+00  0.00000000000E+00 -0.29408807987E+03  0.19201947651E+04  0.18975405495E+04 0.  0.
        2    1    3    3  502    0  0.88733360239E+03 -0.12366311464E+03  0.16895243503E+03  0.91170083534E+03  0.25500000920E-02 0.  1.
       -2    1    3    3    0  502 -0.88733360239E+03  0.12366311464E+03 -0.46304051489E+03  0.10084939297E+04  0.25500000920E-02 0. -1.
</event>
<event>
 5   0  0.3535876E-04  0.1885442E+04  0.7818609E-02  0.8662137E-01
       -2   -1    0    0    0  501  0.00000000000E+00  0.00000000000E+00  0.81304338315E+03  0.81304338316E+03  0.25500000920E-02 0.  1.
        2   -1    0    0  501    0  0.00000000000E+00  0.00000000000E+00 -0.10930811732E+04  0.10930811732E+04  0.25500000920E-02 0. -1.
    10030    2    1    2    0    0  0.00000000000E+00  0.00000000000E+00 -0.28003779008E+03  0.19061245564E+04  0.18854415028E+04 0.  0.
        2    1    3    3  502    0 -0.23816758777E+03  0.49315961144E+03 -0.91576435490E+03  0.10670307193E+04  0.25500000920E-02 0. -1.
       -2    1    3    3    0  502  0.23816758777E+03 -0.49315961144E+03  0.63572656482E+03  0.83909383709E+03  0.25500000920E-02 0.  1.
</event>
<event>
 5   0  0.3516539E-04  0.1905054E+04  0.7818609E-02  0.8652345E-01
       -2   -1    0    0    0  501  0.00000000000E+00  0.00000000000E+00  0.41923920200E+03  0.41923920201E+03  0.25500000920E-02 0.  1.
        2   -1    0    0  501    0  0.00000000000E+00  0.00000000000E+00 -0.21641767160E+04  0.21641767160E+04  0.25500000920E-02 0. -1.
    10030    2    1    2    0    0  0.00000000000E+00  0.00000000000E+00 -0.17449375140E+04  0.25834159180E+04  0.19050540354E+04 0.  0.
        4    1    3    3  502    0  0.94500385157E+03  0.74557519898E+02 -0.74587251612E+03  0.12062000358E+04  0.12699999809E+01 0. -1.
       -4    1    3    3    0  502 -0.94500385157E+03 -0.74557519898E+02 -0.99906499792E+03  0.13772158822E+04  0.12699999809E+01 0.  1.
</event>
<event>
 5   0  0.3623359E-04  0.1893518E+04  0.7818609E-02  0.8658090E-01
       -2   -1    0    0    0  501  0.00000000000E+00  0.00000000000E+00  0.43490145151E+03  0.43490145152E+03  0.25500000920E-02 0. -1.
        2   -1    0    0  501    0  0.00000000000E+00  0.00000000000E+00 -0.20610479275E+04  0.20610479275E+04  0.25500000920E-02 0.  1.
    10030    2    1    2    0    0  0.00000000000E+00  0.00000000000E+00 -0.16261464759E+04  0.24959493790E+04  0.18935181386E+04 0.  0.
        5    1    3    3  502    0  0.49077041906E+03 -0.27700758749E+03  0.18971387191E+03  0.59464464258E+03  0.46999998093E+01 0. -1.
       -5    1    3    3    0  502 -0.49077041906E+03  0.27700758749E+03 -0.18158603479E+04  0.19013047364E+04  0.46999998093E+01 0.  1.
</event>
<event>
 5   0  0.3623359E-04  0.1888799E+04  0.7818609E-02  0.8660452E-01
        2   -1    0    0  501    0  0.00000000000E+00  0.00000000000E+00  0.15195821125E+04  0.15195821125E+04  0.25500000920E-02 0.  1.
       -2   -1    0    0    0  501  0.00000000000E+00  0.00000000000E+00 -0.58693126861E+03  0.58693126862E+03  0.25500000920E-02 0. -1.
    10030    2    1    2    0    0  0.00000000000E+00  0.00000000000E+00  0.93265084385E+03  0.21065133811E+04  0.18887988321E+04 0.  0.
        5    1    3    3  502    0 -0.48484576906E+03  0.64012773065E+03 -0.87984553193E+02  0.80783804251E+03  0.46999998093E+01 0. -1.
       -5    1    3    3    0  502  0.48484576906E+03 -0.64012773065E+03  0.10206353970E+04  0.12986753386E+04  0.46999998093E+01 0.  1.
</event>
<event>
 5   0  0.3459485E-04  0.1965668E+04  0.7818609E-02  0.8622842E-01
        2   -1    0    0  501    0  0.00000000000E+00  0.00000000000E+00  0.11497036946E+04  0.11497036946E+04  0.25500000920E-02 0. -1.
       -2   -1    0    0    0  501  0.00000000000E+00  0.00000000000E+00 -0.84018444416E+03  0.84018444417E+03  0.25500000920E-02 0.  1.
    10030    2    1    2    0    0  0.00000000000E+00  0.00000000000E+00  0.30951925047E+03  0.19898881388E+04  0.19656684966E+04 0.  0.
        3    1    3    3  502    0 -0.70664981245E+03 -0.52753628738E+03 -0.28453961111E+03  0.92661280610E+03  0.10100000352E+00 0.  1.
       -3    1    3    3    0  502  0.70664981245E+03  0.52753628738E+03  0.59405886158E+03  0.10632753327E+04  0.10100000352E+00 0. -1.
</event>
<event>
 5   0  0.1694830E-04  0.1912340E+04  0.7818609E-02  0.8648738E-01
        1   -1    0    0  501    0  0.00000000000E+00  0.00000000000E+00  0.10820720890E+04  0.10820720890E+04  0.50400001928E-02 0.  1.
       -1   -1    0    0    0  501  0.00000000000E+00  0.00000000000E+00 -0.84491736745E+03  0.84491736747E+03  0.50400001928E-02 0. -1.
    10030    2    1    2    0    0  0.00000000000E+00  0.00000000000E+00  0.23715472151E+03  0.19269894564E+04  0.19123404517E+04 0.  0.
        1    1    3    3  502    0  0.92823501605E+03 -0.21622870780E+03  0.41266755271E+02  0.95398010682E+03  0.50400001928E-02 0. -1.
       -1    1    3    3    0  502 -0.92823501605E+03  0.21622870780E+03  0.19588796624E+03  0.97300934961E+03  0.50400001928E-02 0.  1.
</event>
<event>
 5   0  0.1694830E-04  0.1853684E+04  0.7818609E-02  0.8678260E-01
       -1   -1    0    0    0  501  0.00000000000E+00  0.00000000000E+00  0.53743580158E+03  0.53743580160E+03  0.50400001928E-02 0. -1.
        1   -1    0    0  501    0  0.00000000000E+00  0.00000000000E+00 -0.15983981950E+04  0.15983981950E+04  0.50400001928E-02 0.  1.
    10030    2    1    2    0    0  0.00000000000E+00  0.00000000000E+00 -0.10609623934E+04  0.21358339966E+04  0.18536843477E+04 0.  0.
        1    1    3    3  502    0  0.69370230386E+03  0.32454502238E+03  0.70972586259E+02  0.76914853310E+03  0.50400001928E-02 0. -1.
       -1    1    3    3    0  502 -0.69370230386E+03 -0.32454502238E+03 -0.11319349797E+04  0.13666854635E+04  0.50400001928E-02 0.  1.
</event>
<event>
 5   0  0.3535876E-04  0.1799550E+04  0.7818609E-02  0.8706539E-01
       -2   -1    0    0    0  501  0.00000000000E+00  0.00000000000E+00  0.10548767775E+04  0.10548767775E+04  0.25500000920E-02 0. -1.
        2   -1    0    0  501    0  0.00000000000E+00  0.00000000000E+00 -0.76747804162E+03  0.76747804162E+03  0.25500000920E-02 0.  1.
    10030    2    1    2    0    0  0.00000000000E+00  0.00000000000E+00  0.28739873585E+03  0.18223548191E+04  0.17995496807E+04 0.  0.
        2    1    3    3  502    0  0.79675013998E+03  0.30344275899E+03  0.43493119893E+03  0.95710680771E+03  0.25500000920E-02 0. -1.
       -2    1    3    3    0  502 -0.79675013998E+03 -0.30344275899E+03 -0.14753246308E+03  0.86524801139E+03  0.25500000920E-02 0.  1.
</event>
<event>
 5   0  0.3516539E-04  0.1884860E+04  0.7818609E-02  0.8662430E-01
       -2   -1    0    0    0  501  0.00000000000E+00  0.00000000000E+00  0.17966709696E+04  0.17966709696E+04  0.25500000920E-02 0.  1.
        2   -1    0    0  501    0  0.00000000000E+00  0.00000000000E+00 -0.49434428922E+03  0.49434428923E+03  0.25500000920E-02 0. -1.
    10030    2    1    2    0    0  0.00000000000E+00  0.00000000000E+00  0.13023266803E+04  0.22910152588E+04  0.18848597119E+04 0.  0.
        4    1    3    3  502    0 -0.71813998728E+02 -0.24811423706E+03 -0.45047921883E+03  0.51927937042E+03  0.12699999809E+01 0. -1.
       -4    1    3    3    0  502  0.71813998728E+02  0.24811423706E+03  0.17528058992E+04  0.17717358884E+04  0.12699999809E+01 0.  1.
</event>
<event>
 5   0  0.1813834E-04  0.1926912E+04  0.7818609E-02  0.8641575E-01
        1   -1    0    0  501    0  0.00000000000E+00  0.00000000000E+00  0.17902803820E+04  0.17902803820E+04  0.50400001928E-02 0.  1.
       -1   -1    0    0    0  501  0.00000000000E+00  0.00000000000E+00 -0.51849294372E+03  0.51849294374E+03  0.50400001928E-02 0. -1.
    10030    2    1    2    0    0  0.00000000000E+00  0.00000000000E+00  0.12717874383E+04  0.23087733257E+04  0.19269122921E+04 0.  0.
        5    1    3    3  502    0 -0.40429988196E+03  0.57902887445E+03  0.14211244804E+04  0.15869309093E+04  0.46999998093E+01 0.  1.
       -5    1    3    3    0  502  0.40429988196E+03 -0.57902887445E+03 -0.14933704217E+03  0.72184241643E+03  0.46999998093E+01 0. -1.
</event>
<event>
 5   0  0.3720978E-04  0.1908600E+04  0.7818609E-02  0.8650588E-01
        2   -1    0    0  501    0  0.00000000000E+00  0.00000000000E+00  0.10577092591E+04  0.10577092591E+04  0.25500000920E-02 0.  1.
       -2   -1    0    0    0  501  0.00000000000E+00  0.00000000000E+00 -0.86100046669E+03  0.86100046669E+03  0.25500000920E-02 0. -1.
    10030    2    1    2    0    0  0.00000000000E+00  0.00000000000E+00  0.19670879239E+03  0.19187097258E+04  0.19085996602E+04 0.  0.
        1    1    3    3  502    0  0.48045504250E+03  0.46598817888E+03 -0.58547389393E+03  0.88924783453E+03  0.50400001928E-02 0. -1.
       -1    1    3    3    0  502 -0.48045504250E+03 -0.46598817888E+03  0.78218268632E+03  0.10294618912E+04  0.50400001928E-02 0.  1.
</event>
<event>
 5   0  0.1813834E-04  0.2069563E+04  0.7818609E-02  0.8574771E-01
        1   -1    0    0  501    0  0.00000000000E+00  0.00000000000E+00  0.17841780647E+04  0.17841780647E+04  0.50400001928E-02 0. -1.
       -1   -1    0    0    0  501  0.00000000000E+00  0.00000000000E+00 -0.60014915990E+03  0.60014915992E+03  0.50400001928E-02 0.  1.
    10030    2    1    2    0    0  0.00000000000E+00  0.00000000000E+00  0.11840289047E+04  0.23843272246E+04  0.20695632067E+04 0.  0.
        5    1    3    3  502    0  0.37901827129E+03 -0.75141294264E+03 -0.10161250326E+03  0.84771661017E+03  0.46999998093E+01 0.  1.
       -5    1    3    3    0  502 -0.37901827129E+03  0.75141294264E+03  0.12856414080E+04  0.15366106144E+04  0.46999998093E+01 0. -1.
</event>
<event>
 5   0  0.1711979E-04  0.1195828E+04  0.7818609E-02  0.9116516E-01
       -1   -1    0    0    0  501  0.00000000000E+00  0.00000000000E+00  0.17429268983E+03  0.17429268991E+03  0.50400001928E-02 0.  1.
        1   -1    0    0  501    0  0.00000000000E+00  0.00000000000E+00 -0.20511540048E+04  0.20511540048E+04  0.50400001928E-02 0. -1.
    10030    2    1    2    0    0  0.00000000000E+00  0.00000000000E+00 -0.18768613150E+04  0.22254466947E+04  0.11958279957E+04 0.  0.
        4    1    3    3  502    0  0.23268986280E+03 -0.52194651829E+03 -0.61115331296E+03  0.83670946274E+03  0.12699999809E+01 0.  1.
       -4    1    3    3    0  502 -0.23268986280E+03  0.52194651829E+03 -0.12657080020E+04  0.13887372320E+04  0.12699999809E+01 0. -1.
</event>
<event>
 5   0  0.1694830E-04  0.1899245E+04  0.7818609E-02  0.8655232E-01
        1   -1    0    0  501    0  0.00000000000E+00  0.00000000000E+00  0.93121311182E+03  0.93121311183E+03  0.50400001928E-02 0. -1.
       -1   -1    0    0    0  501  0.00000000000E+00  0.00000000000E+00 -0.96839537948E+03  0.96839537950E+03  0.50400001928E-02 0.  1.
    10030    2    1    2    0    0  0.00000000000E+00  0.00000000000E+00 -0.37182267667E+02  0.18996084913E+04  0.18992445602E+04 0.  0.
        1    1    3    3  502    0  0.41472631035E+02 -0.87537360721E+02 -0.96344124905E+03  0.96829840909E+03  0.50400001928E-02 0.  1.
       -1    1    3    3    0  502 -0.41472631035E+02  0.87537360721E+02  0.92625898139E+03  0.93131008223E+03  0.50400001928E-02 0. -1.
</event>
<event>
 5   0  0.1694830E-04  0.1881113E+04  0.7818609E-02  0.8664315E-01
       -1   -1    0    0    0  501  0.00000000000E+00  0.00000000000E+00  0.57872538150E+03  0.57872538152E+03  0.50400001928E-02 0.  1.
        1   -1    0    0  501    0  0.00000000000E+00  0.00000000000E+00 -0.15286116556E+04  0.15286116556E+04  0.50400001928E-02 0. -1.
    10030    2    1    2    0    0  0.00000000000E+00  0.00000000000E+00 -0.94988627410E+03  0.21073370371E+04  0.18811128234E+04 0.  0.
        1    1    3    3  502    0 -0.82513200807E+03 -0.28646632145E+03 -0.84069087302E+02  0.87748127931E+03  0.50400001928E-02 0.  1.
       -1    1    3    3    0  502  0.82513200807E+03  0.28646632145E+03 -0.86581718680E+03  0.12298557578E+04  0.50400001928E-02 0. -1.
</event>
<event>
 5   0  0.1694830E-04  0.1909358E+04  0.7818609E-02  0.8650212E-01
       -1   -1    0    0    0  501  0.00000000000E+00  0.00000000000E+00  0.49243698301E+03  0.49243698303E+03  0.50400001928E-02 0.  1.
        1   -1    0    0  501    0  0.00000000000E+00  0.00000000000E+00 -0.18508190494E+04  0.18508190494E+04  0.50400001928E-02 0. -1.
    10030    2    1    2    0    0  0.00000000000E+00  0.00000000000E+00 -0.13583820664E+04  0.23432560324E+04  0.19093577442E+04 0.  0.
        1    1    3    3  502    0  0.54691354542E+03 -0.75050900736E+03 -0.95094701745E+03  0.13291645595E+04  0.50400001928E-02 0.  1.
       -1    1    3    3    0  502 -0.54691354542E+03  0.75050900736E+03 -0.40743504893E+03  0.10140914729E+04  0.50400001928E-02 0. -1.
</event>
<event>
 5   0  0.1758946E-04  0.1894539E+04  0.7818609E-02  0.8657579E-01
        1   -1    0    0  501    0  0.00000000000E+00  0.00000000000E+00  0.54863278476E+03  0.54863278479E+03  0.50400001928E-02 0. -1.
       -1   -1    0    0    0  501  0.00000000000E+00  0.00000000000E+00 -0.16355556355E+04  0.16355556355E+04  0.50400001928E-02 0.  1.
    10030    2    1    2    0    0  0.00000000000E+00  0.00000000000E+00 -0.10869228508E+04  0.21841884203E+04  0.18945389339E+04 0.  0.
        2    1    3    3  502    0 -0.37468886856E+03  0.54531654971E+03  0.23808813095E+03  0.70316985552E+03  0.25500000920E-02 0. -1.
       -2    1    3    3    0  502  0.37468886856E+03 -0.54531654971E+03 -0.13250109817E+04  0.14810185648E+04  0.25500000920E-02 0.  1.
</event>
<event>
 5   0  0.1813834E-04  0.1882576E+04  0.7818609E-02  0.8663578E-01
        1   -1    0    0  501    0  0.00000000000E+00  0.00000000000E+00  0.77725651696E+03  0.77725651698E+03  0.50400001928E-02 0.  1.
       -1   -1    0    0    0  501  0.00000000000E+00  0.00000000000E+00 -0.11399369764E+04  0.11399369764E+04  0.50400001928E-02 0. -1.
    10030    2    1    2    0    0  0.00000000000E+00  0.00000000000E+00 -0.36268045947E+03  0.19171934934E+04  0.18825763665E+04 0.  0.
        5    1    3    3  502    0  0.29492604576E+02  0.67561967116E+03 -0.84810813501E+03  0.10847309586E+04  0.46999998093E+01 0. -1.
       -5    1    3    3    0  502 -0.29492604576E+02 -0.67561967116E+03  0.48542767554E+03  0.83246253487E+03  0.46999998093E+01 0.  1.
</event>
<event>
 5   0  0.3459485E-04  0.1935734E+04  0.7818609E-02  0.8637271E-01
        2   -1    0    0  501    0  0.00000000000E+00  0.00000000000E+00  0.12527086960E+04  0.12527086960E+04  0.25500000920E-02 0.  1.
       -2   -1    0    0    0  501  0.00000000000E+00  0.00000000000E+00 -0.74779251458E+03  0.74779251459E+03  0.25500000920E-02 0. -1.
    10030    2    1    2    0    0  0.00000000000E+00  0.00000000000E+00  0.50491618142E+03  0.20005012106E+04  0.19357336447E+04 0.  0.
        3    1    3    3  502    0  0.57090508246E+03  0.77328282932E+03  0.36968726983E+03  0.10298386451E+04  0.10100000352E+00 0.  1.
       -3    1    3    3    0  502 -0.57090508246E+03 -0.77328282932E+03  0.13522891160E+03  0.97066256548E+03  0.10100000352E+00 0. -1.
</event>
<event>
 5   0  0.1782613E-04  0.1818405E+04  0.7818609E-02  0.8696573E-01
        1   -1    0    0  501    0  0.00000000000E+00  0.00000000000E+00  0.90992783229E+03  0.90992783231E+03  0.50400001928E-02 0. -1.
       -1   -1    0    0    0  501  0.00000000000E+00  0.00000000000E+00 -0.90847746837E+03  0.90847746838E+03  0.50400001928E-02 0.  1.
    10030    2    1    2    0    0  0.00000000000E+00  0.00000000000E+00  0.14503639250E+01  0.18184053007E+04  0.18184047223E+04 0.  0.
        3    1    3    3  502    0 -0.20059615111E+03  0.46835559448E+03  0.75375473339E+03  0.90980326831E+03  0.10100000352E+00 0. -1.
       -3    1    3    3    0  502  0.20059615111E+03 -0.46835559448E+03 -0.75230436947E+03  0.90860203238E+03  0.10100000352E+00 0.  1.
</event>
<event>
 5   0  0.1758946E-04  0.1880881E+04  0.7818609E-02  0.8664432E-01
        1   -1    0    0  501    0  0.00000000000E+00  0.00000000000E+00  0.83998634990E+03  0.83998634992E+03  0.50400001928E-02 0. -1.
       -1   -1    0    0    0  501  0.00000000000E+00  0.00000000000E+00 -0.10529079615E+04  0.10529079615E+04  0.50400001928E-02 0.  1.
    10030    2    1    2    0    0  0.00000000000E+00  0.00000000000E+00 -0.21292161155E+03  0.18928943114E+04  0.18808809801E+04 0.  0.
        2    1    3    3  502    0 -0.26381581601E+03 -0.69689647020E+02  0.79927240236E+03  0.84456604529E+03  0.25500000920E-02 0. -1.
       -2    1    3    3    0  502  0.26381581601E+03  0.69689647020E+02 -0.10121940139E+04  0.10483282661E+04  0.25500000920E-02 0.  1.
</event>
<event>
 5   0  0.3623359E-04  0.1869565E+04  0.7818609E-02  0.8670156E-01
       -2   -1    0    0    0  501  0.00000000000E+00  0.00000000000E+00  0.39840158087E+03  0.39840158088E+03  0.25500000920E-02 0. -1.
        2   -1    0    0  501    0  0.00000000000E+00  0.00000000000E+00 -0.21933094907E+04  0.21933094907E+04  0.25500000920E-02 0.  1.
    10030    2    1    2    0    0  0.00000000000E+00  0.00000000000E+00 -0.17949079098E+04  0.25917110716E+04  0.18695646215E+04 0.  0.
        5    1    3    3  502    0 -0.30428791196E+03 -0.62163982969E+03 -0.17684525221E+04  0.18990717796E+04  0.46999998093E+01 0.  1.
       -5    1    3    3    0  502  0.30428791196E+03  0.62163982969E+03 -0.26455387720E+02  0.69263929195E+03  0.46999998093E+01 0. -1.
</event>
<event>
 5   0  0.3459485E-04  0.1669901E+04  0.7818609E-02  0.8778719E-01
        2   -1    0    0  501    0  0.00000000000E+00  0.00000000000E+00  0.71518496598E+03  0.71518496598E+03  0.25500000920E-02 0.  1.
       -2   -1    0    0    0  501  0.00000000000E+00  0.00000000000E+00 -0.97477221949E+03  0.97477221949E+03  0.25500000920E-02 0. -1.
    10030    2    1    2    0    0  0.00000000000E+00  0.00000000000E+00 -0.25958725352E+03  0.16899571855E+04  0.16699011188E+04 0.  0.
        3    1    3    3  502    0 -0.46727787461E+03 -0.68657226753E+03 -0.42664674942E+02  0.83159507894E+03  0.10100000352E+00 0. -1.
       -3    1    3    3    0  502  0.46727787461E+03  0.68657226753E+03 -0.21692257857E+03  0.85836210653E+03  0.10100000352E+00 0.  1.
</event>
<event>
 5   0  0.1694830E-04  0.1910393E+04  0.7818609E-02  0.8649700E-01
       -1   -1    0    0    0  501  0.00000000000E+00  0.00000000000E+00  0.10608195447E+04  0.10608195447E+04  0.50400001928E-02 0.  1.
        1   -1    0    0  501    0  0.00000000000E+00  0.00000000000E+00 -0.86009032134E+03  0.86009032135E+03  0.50400001928E-02 0. -1.
    10030    2    1    2    0    0  0.00000000000E+00  0.00000000000E+00  0.20072922334E+03  0.19209098660E+04  0.19103932821E+04 0.  0.
        1    1    3    3  502    0 -0.11258527730E+03 -0.94618308606E+03  0.33193073671E+02  0.95343571213E+03  0.50400001928E-02 0.  1.
       -1    1    3    3    0  502  0.11258527730E+03  0.94618308606E+03  0.16753614967E+03  0.96747415391E+03  0.50400001928E-02 0. -1.
</event>
<event>
 5   0  0.3516539E-04  0.1896399E+04  0.7818609E-02  0.8656651E-01
        2   -1    0    0  501    0  0.00000000000E+00  0.00000000000E+00  0.61485360361E+03  0.61485360362E+03  0.25500000920E-02 0.  1.
       -2   -1    0    0    0  501  0.00000000000E+00  0.00000000000E+00 -0.14622699671E+04  0.14622699671E+04  0.25500000920E-02 0. -1.
    10030    2    1    2    0    0  0.00000000000E+00  0.00000000000E+00 -0.84741636346E+03  0.20771235707E+04  0.18963986487E+04 0.  0.
        4    1    3    3  502    0 -0.44267448979E+03 -0.70344109408E+03  0.76173459841E+02  0.83462212146E+03  0.12699999809E+01 0.  1.
       -4    1    3    3    0  502  0.44267448979E+03  0.70344109408E+03 -0.92358982331E+03  0.12425014492E+04  0.12699999809E+01 0. -1.
</event>
<event>
 5   0  0.3720978E-04  0.1891095E+04  0.7818609E-02  0.8659301E-01
        2   -1    0    0  501    0  0.00000000000E+00  0.00000000000E+00  0.10769706121E+04  0.10769706121E+04  0.25500000920E-02 0. -1.
       -2   -1    0    0    0  501  0.00000000000E+00  0.00000000000E+00 -0.83016238126E+03  0.83016238127E+03  0.25500000920E-02 0.  1.
    10030    2    1    2    0    0  0.00000000000E+00  0.00000000000E+00  0.24680823083E+03  0.19071329934E+04  0.18910954369E+04 0.  0.
        1    1    3    3  502    0 -0.31119424365E+03 -0.13264697500E+03  0.10138549978E+04  0.10688026169E+04  0.50400001928E-02 0. -1.
       -1    1    3    3    0  502  0.31119424365E+03  0.13264697500E+03 -0.76704676701E+03  0.83833037644E+03  0.50400001928E-02 0.  1.
</event>
<event>
 5   0  0.3459485E-04  0.1871760E+04  0.7818609E-02  0.8669042E-01
        2   -1    0    0  501    0  0.00000000000E+00  0.00000000000E+00  0.18172100727E+04  0.18172100727E+04  0.25500000920E-02 0. -1.
       -2   -1    0    0    0  501  0.00000000000E+00  0.00000000000E+00 -0.48198679841E+03  0.48198679841E+03  0.25500000920E-02 0.  1.
    10030    2    1    2    0    0  0.00000000000E+00  0.00000000000E+00  0.13352232743E+04  0.22991968711E+04  0.18717598831E+04 0.  0.
        3    1    3    3  502    0  0.39040110059E+03  0.43723187539E+03  0.15637988850E+04  0.16700454171E+04  0.10100000352E+00 0. -1.
       -3    1    3    3    0  502 -0.39040110059E+03 -0.43723187539E+03 -0.22857561065E+03  0.62915145409E+03  0.10100000352E+00 0.  1.
</event>
<event>
 5   0  0.1813834E-04  0.1931311E+04  0.7818609E-02  0.8639426E-01
        1   -1    0    0  501    0  0.00000000000E+00  0.00000000000E+00  0.15616935559E+04  0.15616935559E+04  0.50400001928E-02 0. -1.
       -1   -1    0    0    0  501  0.00000000000E+00  0.00000000000E+00 -0.59710183855E+03  0.59710183857E+03  0.50400001928E-02 0.  1.
    10030    2    1    2    0    0  0.00000000000E+00  0.00000000000E+00  0.96459171730E+03  0.21587953944E+04  0.19313105328E+04 0.  0.
        5    1    3    3  502    0 -0.95574278744E+03 -0.17920580103E+02  0.32943012645E+03  0.10110943186E+04  0.46999998093E+01 0.  1.
       -5    1    3    3    0  502  0.95574278744E+03  0.17920580103E+02  0.63516159086E+03  0.11477010758E+04  0.46999998093E+01 0. -1.
</event>
<event>
 5   0  0.1758946E-04  0.1863427E+04  0.7818609E-02  0.8673278E-01
       -1   -1    0    0    0  501  0.00000000000E+00  0.00000000000E+00  0.54696710001E+03  0.54696710004E+03  0.50400001928E-02 0.  1.
        1   -1    0    0  501    0  0.00000000000E+00  0.00000000000E+00 -0.15870982190E+04  0.15870982190E+04  0.50400001928E-02 0. -1.
    10030    2    1    2    0    0  0.00000000000E+00  0.00000000000E+00 -0.10401311190E+04  0.21340653190E+04  0.18634274983E+04 0.  0.
        2    1    3    3  502    0  0.50973564743E+03 -0.45623898484E+03  0.20434167267E+03  0.71396075574E+03  0.25500000920E-02 0.  1.
       -2    1    3    3    0  502 -0.50973564743E+03  0.45623898484E+03 -0.12444727917E+04  0.14201045633E+04  0.25500000920E-02 0. -1.
</event>
<event>
 5   0  0.1694830E-04  0.1956438E+04  0.7818609E-02  0.8627263E-01
       -1   -1    0    0    0  501  0.00000000000E+00  0.00000000000E+00  0.92188804992E+03  0.92188804993E+03  0.50400001928E-02 0.  1.
        1   -1    0    0  501    0  0.00000000000E+00  0.00000000000E+00 -0.10379915481E+04  0.10379915481E+04  0.50400001928E-02 0. -1.
    10030    2    1    2    0    0  0.00000000000E+00  0.00000000000E+00 -0.11610349815E+03  0.19598795980E+04  0.19564375831E+04 0.  0.
        1    1    3    3  502    0  0.73946796624E+03  0.25398976971E+03 -0.64695361172E+03  0.10148264147E+04  0.50400001928E-02 0. -1.
       -1    1    3    3    0  502 -0.73946796624E+03 -0.25398976971E+03  0.53085011357E+03  0.94505318332E+03  0.50400001928E-02 0.  1.
</event>
<event>
 5   0  0.3535876E-04  0.1929627E+04  0.7818609E-02  0.8640248E-01
        2   -1    0    0  501    0  0.00000000000E+00  0.00000000000E+00  0.28121124738E+04  0.28121124738E+04  0.25500000920E-02 0.  1.
       -2   -1    0    0    0  501  0.00000000000E+00  0.00000000000E+00 -0.33101971359E+03  0.33101971360E+03  0.25500000920E-02 0. -1.
    10030    2    1    2    0    0  0.00000000000E+00  0.00000000000E+00  0.24810927602E+04  0.31431321874E+04  0.19296265604E+04 0.  0.
        2    1    3    3  502    0 -0.10656017632E+03  0.83376480628E+03  0.46902424534E+03  0.96255003304E+03  0.25500000920E-02 0. -1.
       -2    1    3    3    0  502  0.10656017632E+03 -0.83376480628E+03  0.20120685149E+04  0.21805821544E+04  0.25500000920E-02 0.  1.
</event>
<event>
 5   0  0.3516539E-04  0.1911599E+04  0.7818609E-02  0.8649104E-01
        2   -1    0    0  501    0  0.00000000000E+00  0.00000000000E+00  0.13749535846E+04  0.13749535846E+04  0.25500000920E-02 0.  1.
       -2   -1    0    0    0  501  0.00000000000E+00  0.00000000000E+00 -0.66442467417E+03  0.66442467417E+03  0.25500000920E-02 0. -1.
    10030    2    1    2    0    0  0.00000000000E+00  0.00000000000E+00  0.71052891039E+03  0.20393782587E+04  0.19115994219E+04 0.  0.
        4    1    3    3  502    0 -0.11176271363E+03 -0.72398138710E+02  0.13650079145E+04  0.13714884667E+04  0.12699999809E+01 0.  1.
       -4    1    3    3    0  502  0.11176271363E+03  0.72398138710E+02 -0.65447900410E+03  0.66788979207E+03  0.12699999809E+01 0. -1.
</event>
<event>
 5   0  0.1758946E-04  0.1607643E+04  0.7818609E-02  0.8815866E-01
       -1   -1    0    0    0  501  0.00000000000E+00  0.00000000000E+00  0.32746951742E+03  0.32746951746E+03  0.50400001928E-02 0. -1.
        1   -1    0    0  501    0  0.00000000000E+00  0.00000000000E+00 -0.19730976449E+04  0.19730976449E+04  0.50400001928E-02 0.  1.
    10030    2    1    2    0    0  0.00000000000E+00  0.00000000000E+00 -0.16456281275E+04  0.23005671624E+04  0.16076434103E+04 0.  0.
        2    1    3    3  502    0 -0.12093566020E+03 -0.58248917134E+03 -0.49255985357E+02  0.59694658114E+03  0.25500000920E-02 0. -1.
       -2    1    3    3    0  502  0.12093566020E+03  0.58248917134E+03 -0.15963721422E+04  0.17036205813E+04  0.25500000920E-02 0.  1.
</event>
<event>
 5   0  0.1813834E-04  0.1888238E+04  0.7818609E-02  0.8660733E-01
       -1   -1    0    0    0  501  0.00000000000E+00  0.00000000000E+00  0.85449835455E+03  0.85449835457E+03  0.50400001928E-02 0. -1.
        1   -1    0    0  501    0  0.00000000000E+00  0.00000000000E+00 -0.10431396210E+04  0.10431396210E+04  0.50400001928E-02 0.  1.
    10030    2    1    2    0    0  0.00000000000E+00  0.00000000000E+00 -0.18864126643E+03  0.18976379756E+04  0.18882384275E+04 0.  0.
        5    1    3    3  502    0  0.13838536495E+03  0.67791148775E+03  0.55123554152E+03  0.88464524341E+03  0.46999998093E+01 0. -1.
       -5    1    3    3    0  502 -0.13838536495E+03 -0.67791148775E+03 -0.73987680795E+03  0.10129927322E+04  0.46999998093E+01 0.  1.
</event>
<event>
 5   0  0.1758946E-04  0.1912578E+04  0.7818609E-02  0.8648621E-01
        1   -1    0    0  501    0  0.00000000000E+00  0.00000000000E+00  0.99024323975E+03  0.99024323976E+03  0.50400001928E-02 0. -1.
       -1   -1    0    0    0  501  0.00000000000E+00  0.00000000000E+00 -0.92349900087E+03  0.92349900088E+03  0.50400001928E-02 0.  1.
    10030    2    1    2    0    0  0.00000000000E+00  0.00000000000E+00  0.66744238877E+02  0.19137422406E+04  0.19125779906E+04 0.  0.
        2    1    3    3  502    0  0.61070841788E+02 -0.97983371073E+02  0.98324354123E+03  0.98999911621E+03  0.25500000920E-02 0. -1.
       -2    1    3    3    0  502 -0.61070841788E+02  0.97983371073E+02 -0.91649930235E+03  0.92374312443E+03  0.25500000920E-02 0.  1.
</event>
<event>
 5   0  0.1287000E-04  0.1822554E+04  0.7818609E-02  0.8694397E-01
       -3   -1    0    0    0  501  0.00000000000E+00  0.00000000000E+00  0.14232259682E+04  0.14232259718E+04  0.10100000352E+00 0. -1.
        3   -1    0    0  501    0  0.00000000000E+00  0.00000000000E+00 -0.58348138794E+03  0.58348139668E+03  0.10100000352E+00 0.  1.
    10030    2    1    2    0    0  0.00000000000E+00  0.00000000000E+00  0.83974458030E+03  0.20067073685E+04  0.18225541152E+04 0.  0.
        5    1    3    3  502    0 -0.82212834045E+02  0.64947853476E+03  0.11178165211E+04  0.12954216232E+04  0.46999998093E+01 0. -1.
       -5    1    3    3    0  502  0.82212834045E+02 -0.64947853476E+03 -0.27807194075E+03  0.71128574528E+03  0.46999998093E+01 0.  1.
</event>
<event>
 5   0  0.3535876E-04  0.1884841E+04  0.7818609E-02  0.8662439E-01
       -2   -1    0    0    0  501  0.00000000000E+00  0.00000000000E+00  0.48549391035E+03  0.48549391036E+03  0.25500000920E-02 0. -1.
        2   -1    0    0  501    0  0.00000000000E+00  0.00000000000E+00 -0.18293864112E+04  0.18293864112E+04  0.25500000920E-02 0.  1.
    10030    2    1    2    0    0  0.00000000000E+00  0.00000000000E+00 -0.13438925008E+04  0.23148803215E+04  0.18848405368E+04 0.  0.
        2    1    3    3  502    0  0.56057170734E+03 -0.23171439445E+03 -0.15577734729E+04  0.16717028422E+04  0.25500000920E-02 0.  1.
       -2    1    3    3    0  502 -0.56057170734E+03  0.23171439445E+03  0.21388097212E+03  0.64317747932E+03  0.25500000920E-02 0. -1.
</event>
<event>
 5   0  0.3459485E-04  0.1882888E+04  0.7818609E-02  0.8663421E-01
       -2   -1    0    0    0  501  0.00000000000E+00  0.00000000000E+00  0.51694822228E+03  0.51694822229E+03  0.25500000920E-02 0. -1.
        2   -1    0    0  501    0  0.00000000000E+00  0.00000000000E+00 -0.17145170993E+04  0.17145170993E+04  0.25500000920E-02 0.  1.
    10030    2    1    2    0    0  0.00000000000E+00  0.00000000000E+00 -0.11975688770E+04  0.22314653216E+04  0.18828877466E+04 0.  0.
        3    1    3    3  502    0 -0.29115416076E+03 -0.30585577030E+03 -0.15959832365E+04  0.16509030858E+04  0.10100000352E+00 0.  1.
       -3    1    3    3    0  502  0.29115416076E+03  0.30585577030E+03  0.39841435946E+03  0.58056223574E+03  0.10100000352E+00 0. -1.
</event>
<event>
 5   0  0.3535876E-04  0.1903002E+04  0.7818609E-02  0.8653364E-01
       -2   -1    0    0    0  501  0.00000000000E+00  0.00000000000E+00  0.69213262738E+03  0.69213262738E+03  0.25500000920E-02 0. -1.
        2   -1    0    0  501    0  0.00000000000E+00  0.00000000000E+00 -0.13080638753E+04  0.13080638753E+04  0.25500000920E-02 0.  1.
    10030    2    1    2    0    0  0.00000000000E+00  0.00000000000E+00 -0.61593124795E+03  0.20001965027E+04  0.19030015101E+04 0.  0.
        2    1    3    3  502    0 -0.42365304605E+02  0.89866871638E+03  0.17618881170E+02  0.89983926666E+03  0.25500000920E-02 0.  1.
       -2    1    3    3    0  502  0.42365304605E+02 -0.89866871638E+03 -0.63355012912E+03  0.11003572361E+04  0.25500000920E-02 0. -1.
</event>
<event>
 5   0  0.1782613E-04  0.1868699E+04  0.7818609E-02  0.8670596E-01
        1   -1    0    0  501    0  0.00000000000E+00  0.00000000000E+00  0.12238051058E+04  0.12238051058E+04  0.50400001928E-02 0. -1.
       -1   -1    0    0    0  501  0.00000000000E+00  0.00000000000E+00 -0.71335628008E+03  0.71335628009E+03  0.50400001928E-02 0.  1.
    10030    2    1    2    0    0  0.00000000000E+00  0.00000000000E+00  0.51044882573E+03  0.19371613859E+04  0.18686990746E+04 0.  0.
        3    1    3    3  502    0  0.64803692310E+03  0.10772990769E+03  0.94398440468E+03  0.11500713687E+04  0.10100000352E+00 0. -1.
       -3    1    3    3    0  502 -0.64803692310E+03 -0.10772990769E+03 -0.43353557896E+03  0.78709001717E+03  0.10100000352E+00 0.  1.
</event>
<event>
 5   0  0.1813834E-04  0.1908826E+04  0.7818609E-02  0.8650476E-01
        1   -1    0    0  501    0  0.00000000000E+00  0.00000000000E+00  0.53898403405E+03  0.53898403407E+03  0.50400001928E-02 0.  1.
       -1   -1    0    0    0  501  0.00000000000E+00  0.00000000000E+00 -0.16900393188E+04  0.16900393188E+04  0.50400001928E-02 0. -1.
    10030    2    1    2    0    0  0.00000000000E+00  0.00000000000E+00 -0.11510552847E+04  0.22290233528E+04  0.19088260369E+04 0.  0.
        5    1    3    3  502    0 -0.64696090569E+02  0.54895104250E+03  0.33302749080E+03  0.64533884961E+03  0.46999998093E+01 0.  1.
       -5    1    3    3    0  502  0.64696090569E+02 -0.54895104250E+03 -0.14840827755E+04  0.15836845032E+04  0.46999998093E+01 0. -1.
</event>
<event>
 5   0  0.3623359E-04  0.1898370E+04  0.7818609E-02  0.8655668E-01
       -2   -1    0    0    0  501  0.00000000000E+00  0.00000000000E+00  0.72331514580E+03  0.72331514581E+03  0.25500000920E-02 0. -1.
        2   -1    0    0  501    0  0.00000000000E+00  0.00000000000E+00 -0.12455878394E+04  0.12455878394E+04  0.25500000920E-02 0.  1.
    10030    2    1    2    0    0  0.00000000000E+00  0.00000000000E+00 -0.52227269358E+03  0.19689029852E+04  0.18983704061E+04 0.  0.
        5    1    3    3  502    0  0.67814548023E+03  0.49113948538E+03  0.20249733788E+03  0.86146767107E+03  0.46999998093E+01 0. -1.
       -5    1    3    3    0  502 -0.67814548023E+03 -0.49113948538E+03 -0.72477003146E+03  0.11074353141E+04  0.46999998093E+01 0.  1.
</event>
<event>
 5   0  0.1813834E-04  0.2033365E+04  0.7818609E-02  0.8591178E-01
       -1   -1    0    0    0  501  0.00000000000E+00  0.00000000000E+00  0.11836053550E+04  0.11836053550E+04  0.50400001928E-02 0.  1.
        1   -1    0    0  501    0  0.00000000000E+00  0.00000000000E+00 -0.87330073653E+03  0.87330073655E+03  0.50400001928E-02 0. -1.
    10030    2    1    2    0    0  0.00000000000E+00  0.00000000000E+00  0.31030461844E+03  0.20569060915E+04  0.20333651205E+04 0.  0.
        5    1    3    3  502    0 -0.67856449763E+03  0.65415703483E+03 -0.23037697019E+03  0.97029214263E+03  0.46999998093E+01 0. -1.
       -5    1    3    3    0  502  0.67856449763E+03 -0.65415703483E+03  0.54068158863E+03  0.10866139489E+04  0.46999998093E+01 0.  1.
</event>
<event>
 5   0  0.1758946E-04  0.1820312E+04  0.7818609E-02  0.8695572E-01
       -1   -1    0    0    0  501  0.00000000000E+00  0.00000000000E+00  0.44037984787E+03  0.44037984789E+03  0.50400001928E-02 0. -1.
        1   -1    0    0  501    0  0.00000000000E+00  0.00000000000E+00 -0.18810666985E+04  0.18810666985E+04  0.50400001928E-02 0.  1.
    10030    2    1    2    0    0  0.00000000000E+00  0.00000000000E+00 -0.14406868507E+04  0.23214465464E+04  0.18203119146E+04 0.  0.
        2    1    3    3  502    0  0.61136047442E+01  0.76480146359E+03 -0.13495534808E+04  0.15512102541E+04  0.25500000920E-02 0.  1.
       -2    1    3    3    0  502 -0.61136047442E+01 -0.76480146359E+03 -0.91133369826E+02  0.77023629230E+03  0.25500000920E-02 0. -1.
</event>
<event>
 5   0  0.3623359E-04  0.1882756E+04  0.7818609E-02  0.8663488E-01
        2   -1    0    0  501    0  0.00000000000E+00  0.00000000000E+00  0.77995741016E+03  0.77995741017E+03  0.25500000920E-02 0. -1.
       -2   -1    0    0    0  501  0.00000000000E+00  0.00000000000E+00 -0.11362063293E+04  0.11362063293E+04  0.25500000920E-02 0.  1.
    10030    2    1    2    0    0  0.00000000000E+00  0.00000000000E+00 -0.35624891912E+03  0.19161637395E+04  0.18827560076E+04 0.  0.
        5    1    3    3  502    0 -0.97777231132E+02  0.69481538272E+03  0.46057919081E+03  0.83933550145E+03  0.46999998093E+01 0. -1.
       -5    1    3    3    0  502  0.97777231132E+02 -0.69481538272E+03 -0.81682810993E+03  0.10768282380E+04  0.46999998093E+01 0.  1.
</event>
<event>
 5   0  0.1694830E-04  0.1918535E+04  0.7818609E-02  0.8645685E-01
       -1   -1    0    0    0  501  0.00000000000E+00  0.00000000000E+00  0.86101915659E+03  0.86101915661E+03  0.50400001928E-02 0.  1.
        1   -1    0    0  501    0  0.00000000000E+00  0.00000000000E+00 -0.10687266168E+04  0.10687266168E+04  0.50400001928E-02 0. -1.
    10030    2    1    2    0    0  0.00000000000E+00  0.00000000000E+00 -0.20770746017E+03  0.19297457734E+04  0.19185349517E+04 0.  0.
        1    1    3    3  502    0 -0.58257080280E+03  0.71512946113E+03 -0.36882275677E+03  0.99339272817E+03  0.50400001928E-02 0. -1.
       -1    1    3    3    0  502  0.58257080280E+03 -0.71512946113E+03  0.16111529660E+03  0.93635304521E+03  0.50400001928E-02 0.  1.
</event>
<event>
 5   0  0.3459485E-04  0.1911094E+04  0.7818609E-02  0.8649354E-01
       -2   -1    0    0    0  501  0.00000000000E+00  0.00000000000E+00  0.63863326384E+03  0.63863326385E+03  0.25500000920E-02 0.  1.
        2   -1    0    0  501    0  0.00000000000E+00  0.00000000000E+00 -0.14297258355E+04  0.14297258355E+04  0.25500000920E-02 0. -1.
    10030    2    1    2    0    0  0.00000000000E+00  0.00000000000E+00 -0.79109257165E+03  0.20683590993E+04  0.19110944265E+04 0.  0.
        3    1    3    3  502    0  0.56173133467E+03  0.28158128364E+03 -0.11746753573E+04  0.13321757830E+04  0.10100000352E+00 0. -1.
       -3    1    3    3    0  502 -0.56173133467E+03 -0.28158128364E+03  0.38358278561E+03  0.73618331634E+03  0.10100000352E+00 0.  1.
</event>
<event>
 5   0  0.3720978E-04  0.1871580E+04  0.7818609E-02  0.8669134E-01
       -2   -1    0    0    0  501  0.00000000000E+00  0.00000000000E+00  0.36780048110E+03  0.36780048111E+03  0.25500000920E-02 0.  1.
        2   -1    0    0  501    0  0.00000000000E+00  0.00000000000E+00 -0.23809184187E+04  0.23809184187E+04  0.25500000920E-02 0. -1.
    10030    2    1    2    0    0  0.00000000000E+00  0.00000000000E+00 -0.20131179376E+04  0.27487188998E+04  0.18715800169E+04 0.  0.
        1    1    3    3  502    0 -0.45264893825E+03  0.62946591449E+03 -0.23696798577E+03  0.81072327283E+03  0.50400001928E-02 0.  1.
       -1    1    3    3    0  502  0.45264893825E+03 -0.62946591449E+03 -0.17761499519E+04  0.19379956270E+04  0.50400001928E-02 0. -1.
</event>
<event>
 5   0  0.3459485E-04  0.1876810E+04  0.7818609E-02  0.8666487E-01
        2   -1    0    0  501    0  0.00000000000E+00  0.00000000000E+00  0.13057992624E+04  0.13057992624E+04  0.25500000920E-02 0. -1.
       -2   -1    0    0    0  501  0.00000000000E+00  0.00000000000E+00 -0.67437891765E+03  0.67437891765E+03  0.25500000920E-02 0.  1.
    10030    2    1    2    0    0  0.00000000000E+00  0.00000000000E+00  0.63142034477E+03  0.19801781801E+04  0.18768095196E+04 0.  0.
        3    1    3    3  502    0 -0.63232512530E+03  0.24572717704E+03 -0.36837234470E+03  0.77195537705E+03  0.10100000352E+00 0.  1.
       -3    1    3    3    0  502  0.63232512530E+03 -0.24572717704E+03  0.99979268947E+03  0.12082228030E+04  0.10100000352E+00 0. -1.
</event>
<event>
 5   0  0.1758946E-04  0.1892407E+04  0.7818609E-02  0.8658645E-01
       -1   -1    0    0    0  501  0.00000000000E+00  0.00000000000E+00  0.66382172608E+03  0.66382172610E+03  0.50400001928E-02 0.  1.
        1   -1    0    0  501    0  0.00000000000E+00  0.00000000000E+00 -0.13487069470E+04  0.13487069470E+04  0.50400001928E-02 0. -1.
    10030    2    1    2    0    0  0.00000000000E+00  0.00000000000E+00 -0.68488522094E+03  0.20125286731E+04  0.18924069051E+04 0.  0.
        2    1    3    3  502    0  0.46976974063E+03  0.31318837585E+03 -0.11499354145E+04  0.12810628499E+04  0.25500000920E-02 0. -1.
       -2    1    3    3    0  502 -0.46976974063E+03 -0.31318837585E+03  0.46505019355E+03  0.73146582319E+03  0.25500000920E-02 0.  1.
</event>
<event>
 5   0  0.3516539E-04  0.1892705E+04  0.7818609E-02  0.8658496E-01
        2   -1    0    0  501    0  0.00000000000E+00  0.00000000000E+00  0.19437585290E+04  0.19437585290E+04  0.25500000920E-02 0. -1.
       -2   -1    0    0    0  501  0.00000000000E+00  0.00000000000E+00 -0.46074831570E+03  0.46074831570E+03  0.25500000920E-02 0.  1.
    10030    2    1    2    0    0  0.00000000000E+00  0.00000000000E+00  0.14830102133E+04  0.24045068447E+04  0.18927054376E+04 0.  0.
        4    1    3    3  502    0  0.71004139416E+03 -0.50760257038E+03  0.12061385953E+04  0.14888220427E+04  0.12699999809E+01 0. -1.
       -4    1    3    3    0  502 -0.71004139416E+03  0.50760257038E+03  0.27687161803E+03  0.91568480202E+03  0.12699999809E+01 0.  1.
</event>
<event>
 5   0  0.1813834E-04  0.1880448E+04  0.7818609E-02  0.8664650E-01
        1   -1    0    0  501    0  0.00000000000E+00  0.00000000000E+00  0.60978577456E+03  0.60978577458E+03  0.50400001928E-02 0. -1.
       -1   -1    0    0    0  501  0.00000000000E+00  0.00000000000E+00 -0.14497243542E+04  0.14497243542E+04  0.50400001928E-02 0.  1.
    10030    2    1    2    0    0  0.00000000000E+00  0.00000000000E+00 -0.83993857962E+03  0.20595101288E+04  0.18804481256E+04 0.  0.
        5    1    3    3  502    0  0.66984011187E+03  0.50722690228E+03 -0.88208890833E+03  0.12182232300E+04  0.46999998093E+01 0.  1.
       -5    1    3    3    0  502 -0.66984011187E+03 -0.50722690228E+03  0.42150328702E+02  0.84128689879E+03  0.46999998093E+01 0. -1.
</event>
<event>
 5   0  0.1287000E-04  0.1872592E+04  0.7818609E-02  0.8668621E-01
       -4   -1    0    0    0  501  0.00000000000E+00  0.00000000000E+00  0.25132119709E+03  0.25132440591E+03  0.12699999809E+01 0. -1.
        4   -1    0    0  501    0  0.00000000000E+00  0.00000000000E+00 -0.34881418032E+04  0.34881420344E+04  0.12699999809E+01 0.  1.
    10030    2    1    2    0    0  0.00000000000E+00  0.00000000000E+00 -0.32368206061E+04  0.37394664403E+04  0.18725922199E+04 0.  0.
        5    1    3    3  502    0 -0.22101963061E+03 -0.64712987535E+03 -0.28955220780E+04  0.29751801537E+04  0.46999998093E+01 0.  1.
       -5    1    3    3    0  502  0.22101963061E+03  0.64712987535E+03 -0.34129852816E+03  0.76428628668E+03  0.46999998093E+01 0. -1.
</event>
<event>
 5   0  0.1287000E-04  0.1918257E+04  0.7818609E-02  0.8645822E-01
        3   -1    0    0  501    0  0.00000000000E+00  0.00000000000E+00  0.70361203073E+03  0.70361203798E+03  0.10100000352E+00 0.  1.
       -3   -1    0    0    0  501  0.00000000000E+00  0.00000000000E+00 -0.13074355260E+04  0.13074355299E+04  0.10100000352E+00 0. -1.
    10030    2    1    2    0    0  0.00000000000E+00  0.00000000000E+00 -0.60382349528E+03  0.20110475679E+04  0.19182568928E+04 0.  0.
        3    1    3    3  502    0 -0.86387600718E+03  0.25119704942E+03  0.46655366390E+02  0.90086538775E+03  0.10100000352E+00 0.  1.
       -3    1    3    3    0  502  0.86387600718E+03 -0.25119704942E+03 -0.65047886167E+03  0.11101821801E+04  0.10100000352E+00 0. -1.
</event>
<event>
 5   0  0.1758946E-04  0.1829025E+04  0.7818609E-02  0.8691015E-01
        1   -1    0    0  501    0  0.00000000000E+00  0.00000000000E+00  0.24819840014E+04  0.24819840014E+04  0.50400001928E-02 0. -1.
       -1   -1    0    0    0  501  0.00000000000E+00  0.00000000000E+00 -0.33696142540E+03  0.33696142544E+03  0.50400001928E-02 0.  1.
    10030    2    1    2    0    0  0.00000000000E+00  0.00000000000E+00  0.21450225760E+04  0.28189454268E+04  0.18290247314E+04 0.  0.
        2    1    3    3  502    0 -0.47472305894E+03 -0.73076118717E+03  0.64495163272E+03  0.10841293760E+04  0.25500000920E-02 0.  1.
       -2    1    3    3    0  502  0.47472305894E+03  0.73076118717E+03  0.15000709432E+04  0.17348160508E+04  0.25500000920E-02 0. -1.
</event>
<event>
 5   0  0.1782613E-04  0.1843169E+04  0.7818609E-02  0.8683674E-01
       -1   -1    0    0    0  501  0.00000000000E+00  0.00000000000E+00  0.51878462073E+03  0.51878462076E+03  0.50400001928E-02 0.  1.
        1   -1    0    0  501    0  0.00000000000E+00  0.00000000000E+00 -0.16371300064E+04  0.16371300064E+04  0.50400001928E-02 0. -1.
    10030    2    1    2    0    0  0.00000000000E+00  0.00000000000E+00 -0.11183453856E+04  0.21559146271E+04  0.18431688685E+04 0.  0.
        3    1    3    3  502    0 -0.81245387968E+03 -0.16704845518E+03 -0.89358817997E+02  0.83424906445E+03  0.10100000352E+00 0.  1.
       -3    1    3    3    0  502  0.81245387968E+03  0.16704845518E+03 -0.10289865676E+04  0.13216655627E+04  0.10100000352E+00 0. -1.
</event>
<event>
 5   0  0.1813834E-04  0.1907152E+04  0.7818609E-02  0.8651305E-01
       -1   -1    0    0    0  501  0.00000000000E+00  0.00000000000E+00  0.36676057089E+03  0.36676057092E+03  0.50400001928E-02 0. -1.
        1   -1    0    0  501    0  0.00000000000E+00  0.00000000000E+00 -0.24792936122E+04  0.24792936122E+04  0.50400001928E-02 0.  1.
    10030    2    1    2    0    0  0.00000000000E+00  0.00000000000E+00 -0.21125330413E+04  0.28460541831E+04  0.19071519506E+04 0.  0.
        5    1    3    3  502    0  0.84809906673E+03  0.36083295283E+03 -0.69129899603E+03  0.11521236213E+04  0.46999998093E+01 0. -1.
       -5    1    3    3    0  502 -0.84809906673E+03 -0.36083295283E+03 -0.14212340453E+04  0.16939305618E+04  0.46999998093E+01 0.  1.
</event>
<event>
 5   0  0.3623359E-04  0.1849410E+04  0.7818609E-02  0.8680456E-01
        2   -1    0    0  501    0  0.00000000000E+00  0.00000000000E+00  0.90044510141E+03  0.90044510141E+03  0.25500000920E-02 0.  1.
       -2   -1    0    0    0  501  0.00000000000E+00  0.00000000000E+00 -0.94961838414E+03  0.94961838414E+03  0.25500000920E-02 0. -1.
    10030    2    1    2    0    0  0.00000000000E+00  0.00000000000E+00 -0.49173282725E+02  0.18500634856E+04  0.18494098758E+04 0.  0.
        5    1    3    3  502    0 -0.50854731193E+03 -0.32432822571E+03  0.67655190143E+03  0.90639601267E+03  0.46999998093E+01 0.  1.
       -5    1    3    3    0  502  0.50854731193E+03  0.32432822571E+03 -0.72572518415E+03  0.94366747288E+03  0.46999998093E+01 0. -1.
</event>
<event>
 5   0  0.1694830E-04  0.1692405E+04  0.7818609E-02  0.8765708E-01
       -1   -1    0    0    0  501  0.00000000000E+00  0.00000000000E+00  0.93443167719E+03  0.93443167720E+03  0.50400001928E-02 0.  1.
        1   -1    0    0  501    0  0.00000000000E+00  0.00000000000E+00 -0.76630359984E+03  0.76630359985E+03  0.50400001928E-02 0. -1.
    10030    2    1    2    0    0  0.00000000000E+00  0.00000000000E+00  0.16812807735E+03  0.17007352771E+04  0.16924046302E+04 0.  0.
        1    1    3    3  502    0 -0.80909094826E+03 -0.20626902475E+03 -0.54028841591E+02  0.83671631327E+03  0.50400001928E-02 0. -1.
       -1    1    3    3    0  502  0.80909094826E+03  0.20626902475E+03  0.22215691895E+03  0.86401896379E+03  0.50400001928E-02 0.  1.
</event>
<event>
 5   0  0.1813834E-04  0.1882263E+04  0.7818609E-02  0.8663736E-01
        1   -1    0    0  501    0  0.00000000000E+00  0.00000000000E+00  0.16206466507E+04  0.16206466507E+04  0.50400001928E-02 0.  1.
       -1   -1    0    0    0  501  0.00000000000E+00  0.00000000000E+00 -0.54652784397E+03  0.54652784399E+03  0.50400001928E-02 0. -1.
    10030    2    1    2    0    0  0.00000000000E+00  0.00000000000E+00  0.10741188068E+04  0.21671744947E+04  0.18822630208E+04 0.  0.
        5    1    3    3  502    0 -0.27124260200E+03  0.21318908896E+03 -0.47108293465E+03  0.58392067792E+03  0.46999998093E+01 0. -1.
       -5    1    3    3    0  502  0.27124260200E+03 -0.21318908896E+03  0.15452017414E+04  0.15832538168E+04  0.46999998093E+01 0.  1.
</event>
<event>
 5   0  0.1711979E-04  0.1887627E+04  0.7818609E-02  0.8661040E-01
        1   -1    0    0  501    0  0.00000000000E+00  0.00000000000E+00  0.20648152295E+04  0.20648152295E+04  0.50400001928E-02 0.  1.
       -1   -1    0    0    0  501  0.00000000000E+00  0.00000000000E+00 -0.43141079555E+03  0.43141079558E+03  0.50400001928E-02 0. -1.
    10030    2    1    2    0    0  0.00000000000E+00  0.00000000000E+00  0.16334044339E+04  0.24962260251E+04  0.18876266377E+04 0.  0.
        4    1    3    3  502    0  0.65807330454E+03 -0.42897843995E+03  0.12486422371E+03  0.79540911697E+03  0.12699999809E+01 0. -1.
       -4    1    3    3    0  502 -0.65807330454E+03  0.42897843995E+03  0.15085402102E+04  0.17008169081E+04  0.12699999809E+01 0.  1.
</event>
<event>
 5   0  0.1758946E-04  0.1289689E+04  0.7818609E-02  0.9037782E-01
        1   -1    0    0  501    0  0.00000000000E+00  0.00000000000E+00  0.43260592069E+03  0.43260592072E+03  0.50400001928E-02 0. -1.
       -1   -1    0    0    0  501  0.00000000000E+00  0.00000000000E+00 -0.96120813802E+03  0.96120813803E+03  0.50400001928E-02 0.  1.
    10030    2    1    2    0    0  0.00000000000E+00  0.00000000000E+00 -0.52860221733E+03  0.13938140588E+04  0.12896888486E+04 0.  0.
        2    1    3    3  502    0  0.31105151477E+03 -0.34289479560E+03  0.22082141151E+03  0.51292492773E+03  0.25500000920E-02 0. -1.
       -2    1    3    3    0  502 -0.31105151477E+03  0.34289479560E+03 -0.74942362884E+03  0.88088913103E+03  0.25500000920E-02 0.  1.
</event>
<event>
 5   0  0.3535876E-04  0.1882852E+04  0.7818609E-02  0.8663439E-01
        2   -1    0    0  501    0  0.00000000000E+00  0.00000000000E+00  0.54350225625E+03  0.54350225626E+03  0.25500000920E-02 0.  1.
       -2   -1    0    0    0  501  0.00000000000E+00  0.00000000000E+00 -0.16306891908E+04  0.16306891908E+04  0.25500000920E-02 0. -1.
    10030    2    1    2    0    0  0.00000000000E+00  0.00000000000E+00 -0.10871869345E+04  0.21741914470E+04  0.18828523622E+04 0.  0.
        2    1    3    3  502    0  0.31007069705E+03  0.62883023246E+03  0.18188020478E+03  0.72432845265E+03  0.25500000920E-02 0.  1.
       -2    1    3    3    0  502 -0.31007069705E+03 -0.62883023246E+03 -0.12690671393E+04  0.14498629944E+04  0.25500000920E-02 0. -1.
</event>
<event>
 5   0  0.3459485E-04  0.1894609E+04  0.7818609E-02  0.8657545E-01
       -2   -1    0    0    0  501  0.00000000000E+00  0.00000000000E+00  0.11276425138E+04  0.11276425138E+04  0.25500000920E-02 0. -1.
        2   -1    0    0  501    0  0.00000000000E+00  0.00000000000E+00 -0.79580682381E+03  0.79580682382E+03  0.25500000920E-02 0.  1.
    10030    2    1    2    0    0  0.00000000000E+00  0.00000000000E+00  0.33183568995E+03  0.19234493376E+04  0.18946087800E+04 0.  0.
        3    1    3    3  502    0 -0.10713563141E+03  0.66332662370E+03 -0.51200855201E+03  0.84476802778E+03  0.10100000352E+00 0.  1.
       -3    1    3    3    0  502  0.10713563141E+03 -0.66332662370E+03  0.84384424196E+03  0.10786813098E+04  0.10100000352E+00 0. -1.
</event>
<event>
 5   0  0.3516539E-04  0.1810198E+04  0.7818609E-02  0.8700895E-01
       -2   -1    0    0    0  501  0.00000000000E+00  0.00000000000E+00  0.11643039662E+04  0.11643039662E+04  0.25500000920E-02 0. -1.
        2   -1    0    0  501    0  0.00000000000E+00  0.00000000000E+00 -0.70359996813E+03  0.70359996813E+03  0.25500000920E-02 0.  1.
    10030    2    1    2    0    0  0.00000000000E+00  0.00000000000E+00  0.46070399812E+03  0.18679039344E+04  0.18101980373E+04 0.  0.
        4    1    3    3  502    0 -0.42258149361E+03 -0.76676842469E+03  0.46722072923E+03  0.99237379982E+03  0.12699999809E+01 0. -1.
       -4    1    3    3    0  502  0.42258149361E+03  0.76676842469E+03 -0.65167311140E+01  0.87553013456E+03  0.12699999809E+01 0.  1.
</event>
<event>
 5   0  0.1813834E-04  0.1919902E+04  0.7818609E-02  0.8645013E-01
       -1   -1    0    0    0  501  0.00000000000E+00  0.00000000000E+00  0.10544207120E+04  0.10544207120E+04  0.50400001928E-02 0.  1.
        1   -1    0    0  501    0  0.00000000000E+00  0.00000000000E+00 -0.87394509376E+03  0.87394509377E+03  0.50400001928E-02 0. -1.
    10030    2    1    2    0    0  0.00000000000E+00  0.00000000000E+00  0.18047561821E+03  0.19283658058E+04  0.19199018808E+04 0.  0.
        5    1    3    3  502    0  0.30499348932E+03  0.45127389099E+03  0.88417465955E+03  0.10384873961E+04  0.46999998093E+01 0.  1.
       -5    1    3    3    0  502 -0.30499348932E+03 -0.45127389099E+03 -0.70369904134E+03  0.88987840968E+03  0.46999998093E+01 0. -1.
</event>
<event>
 5   0  0.3720978E-04  0.1851010E+04  0.7818609E-02  0.8679634E-01
       -2   -1    0    0    0  501  0.00000000000E+00  0.00000000000E+00  0.72216677460E+03  0.72216677461E+03  0.25500000920E-02 0.  1.
        2   -1    0    0  501    0  0.00000000000E+00  0.00000000000E+00 -0.11860959199E+04  0.11860959199E+04  0.25500000920E-02 0. -1.
    10030    2    1    2    0    0  0.00000000000E+00  0.00000000000E+00 -0.46392914527E+03  0.19082626945E+04  0.18510095244E+04 0.  0.
        1    1    3    3  502    0  0.43343454027E+03  0.74686382519E+03  0.11133381512E+03  0.87067002504E+03  0.50400001928E-02 0.  1.
       -1    1    3    3    0  502 -0.43343454027E+03 -0.74686382519E+03 -0.57526296039E+03  0.10375926695E+04  0.50400001928E-02 0. -1.
</event>
<event>
 5   0  0.3623359E-04  0.1351133E+04  0.7818609E-02  0.8989971E-01
        2   -1    0    0  501    0  0.00000000000E+00  0.00000000000E+00  0.17916531853E+04  0.17916531853E+04  0.25500000920E-02 0.  1.
       -2   -1    0    0    0  501  0.00000000000E+00  0.00000000000E+00 -0.25473115926E+03  0.25473115927E+03  0.25500000920E-02 0. -1.
    10030    2    1    2    0    0  0.00000000000E+00  0.00000000000E+00  0.15369220261E+04  0.20463843446E+04  0.13511326995E+04 0.  0.
        5    1    3    3  502    0  0.28117226322E+03 -0.31313117305E+03  0.15688344318E+04  0.16243067868E+04  0.46999998093E+01 0.  1.
       -5    1    3    3    0  502 -0.28117226322E+03  0.31313117305E+03 -0.31912405785E+02  0.42207755778E+03  0.46999998093E+01 0. -1.
</event>
<event>
 5   0  0.1711979E-04  0.1923469E+04  0.7818609E-02  0.8643262E-01
       -1   -1    0    0    0  501  0.00000000000E+00  0.00000000000E+00  0.11634702306E+04  0.11634702306E+04  0.50400001928E-02 0.  1.
        1   -1    0    0  501    0  0.00000000000E+00  0.00000000000E+00 -0.79497831486E+03  0.79497831488E+03  0.50400001928E-02 0. -1.
    10030    2    1    2    0    0  0.00000000000E+00  0.00000000000E+00  0.36849191569E+03  0.19584485454E+04  0.19234693689E+04 0.  0.
        4    1    3    3  502    0 -0.52833985656E+03 -0.80151511176E+03  0.12520426352E+03  0.96811528183E+03  0.12699999809E+01 0. -1.
       -4    1    3    3    0  502  0.52833985656E+03  0.80151511176E+03  0.24328765217E+03  0.99033326361E+03  0.12699999809E+01 0.  1.
</event>
<event>
 5   0  0.1758946E-04  0.1912022E+04  0.7818609E-02  0.8648895E-01
        1   -1    0    0  501    0  0.00000000000E+00  0.00000000000E+00  0.10853602412E+04  0.10853602412E+04  0.50400001928E-02 0. -1.
       -1   -1    0    0    0  501  0.00000000000E+00  0.00000000000E+00 -0.84207718478E+03  0.84207718480E+03  0.50400001928E-02 0.  1.
    10030    2    1    2    0    0  0.00000000000E+00  0.00000000000E+00  0.24328305637E+03  0.19274374260E+04  0.19120220672E+04 0.  0.
        2    1    3    3  502    0 -0.12712637361E+03 -0.24008972416E+03  0.10456300032E+04  0.10803454513E+04  0.25500000920E-02 0. -1.
       -2    1    3    3    0  502  0.12712637361E+03  0.24008972416E+03 -0.80234694681E+03  0.84709197469E+03  0.25500000920E-02 0.  1.
</event>
<event>
 5   0  0.1758946E-04  0.1898974E+04  0.7818609E-02  0.8655367E-01
       -1   -1    0    0    0  501  0.00000000000E+00  0.00000000000E+00  0.35327889210E+03  0.35327889214E+03  0.50400001928E-02 0. -1.
        1   -1    0    0  501    0  0.00000000000E+00  0.00000000000E+00 -0.25518814162E+04  0.25518814162E+04  0.50400001928E-02 0.  1.
    10030    2    1    2    0    0  0.00000000000E+00  0.00000000000E+00 -0.21986025241E+04  0.29051603083E+04  0.18989742911E+04 0.  0.
        2    1    3    3  502    0  0.63460583652E+03  0.68467856639E+03 -0.13643533791E+04  0.16531695165E+04  0.25500000920E-02 0. -1.
       -2    1    3    3    0  502 -0.63460583652E+03 -0.68467856639E+03 -0.83424914491E+03  0.12519907918E+04  0.25500000920E-02 0.  1.
</event>
<event>
 5   0  0.1782613E-04  0.1919493E+04  0.7818609E-02  0.8645214E-01
       -1   -1    0    0    0  501  0.00000000000E+00  0.00000000000E+00  0.70297433754E+03  0.70297433756E+03  0.50400001928E-02 0. -1.
        1   -1    0    0  501    0  0.00000000000E+00  0.00000000000E+00 -0.13103088390E+04  0.13103088390E+04  0.50400001928E-02 0.  1.
    10030    2    1    2    0    0  0.00000000000E+00  0.00000000000E+00 -0.60733450147E+03  0.20132831766E+04  0.19194931499E+04 0.  0.
        3    1    3    3  502    0  0.57067532684E+03  0.65389096194E+03  0.12607151440E+03  0.87700499185E+03  0.10100000352E+00 0. -1.
       -3    1    3    3    0  502 -0.57067532684E+03 -0.65389096194E+03 -0.73340601587E+03  0.11362781847E+04  0.10100000352E+00 0.  1.
</event>
<event>
 5   0  0.1758946E-04  0.1857449E+04  0.7818609E-02  0.8676331E-01
       -1   -1    0    0    0  501  0.00000000000E+00  0.00000000000E+00  0.76762543193E+03  0.76762543194E+03  0.50400001928E-02 0. -1.
        1   -1    0    0  501    0  0.00000000000E+00  0.00000000000E+00 -0.11236334200E+04  0.11236334201E+04  0.50400001928E-02 0.  1.
    10030    2    1    2    0    0  0.00000000000E+00  0.00000000000E+00 -0.35600798812E+03  0.18912588520E+04  0.18574494226E+04 0.  0.
        2    1    3    3  502    0  0.66679597005E+03  0.79009920642E+02  0.47529000488E+03  0.82265425422E+03  0.25500000920E-02 0. -1.
       -2    1    3    3    0  502 -0.66679597005E+03 -0.79009920642E+02 -0.83129799300E+03  0.10686045978E+04  0.25500000920E-02 0.  1.
</event>
<event>
 5   0  0.3535876E-04  0.1917974E+04  0.7818609E-02  0.8645961E-01
       -2   -1    0    0    0  501  0.00000000000E+00  0.00000000000E+00  0.38622910548E+03  0.38622910549E+03  0.25500000920E-02 0.  1.
        2   -1    0    0  501    0  0.00000000000E+00  0.00000000000E+00 -0.23811144794E+04  0.23811144794E+04  0.25500000920E-02 0. -1.
    10030    2    1    2    0    0  0.00000000000E+00  0.00000000000E+00 -0.19948853739E+04  0.27673435849E+04  0.19179736343E+04 0.  0.
        2    1    3    3  502    0  0.29337443215E+03  0.39875352627E+03 -0.21824965132E+04  0.22379374348E+04  0.25500000920E-02 0. -1.
       -2    1    3    3    0  502 -0.29337443215E+03 -0.39875352627E+03  0.18761113925E+03  0.52940615007E+03  0.25500000920E-02 0.  1.
</event>
<event>
 5   0  0.3535876E-04  0.1895098E+04  0.7818609E-02  0.8657300E-01
       -2   -1    0    0    0  501  0.00000000000E+00  0.00000000000E+00  0.46610208463E+03  0.46610208463E+03  0.25500000920E-02 0. -1.
        2   -1    0    0  501    0  0.00000000000E+00  0.00000000000E+00 -0.19262927662E+04  0.19262927662E+04  0.25500000920E-02 0.  1.
    10030    2    1    2    0    0  0.00000000000E+00  0.00000000000E+00 -0.14601906816E+04  0.23923948508E+04  0.18950979647E+04 0.  0.
        2    1    3    3  502    0  0.55781264042E+03 -0.13022041078E+03 -0.16829755806E+04  0.17777848863E+04  0.25500000920E-02 0.  1.
       -2    1    3    3    0  502 -0.55781264042E+03  0.13022041078E+03  0.22278489904E+03  0.61460996448E+03  0.25500000920E-02 0. -1.
</event>
<event>
 5   0  0.3459485E-04  0.1907251E+04  0.7818609E-02  0.8651255E-01
        2   -1    0    0  501    0  0.00000000000E+00  0.00000000000E+00  0.12680588798E+04  0.12680588798E+04  0.25500000920E-02 0. -1.
       -2   -1    0    0    0  501  0.00000000000E+00  0.00000000000E+00 -0.71716060324E+03  0.71716060324E+03  0.25500000920E-02 0.  1.
    10030    2    1    2    0    0  0.00000000000E+00  0.00000000000E+00  0.55089827656E+03  0.19852194830E+04  0.19072512904E+04 0.  0.
        3    1    3    3  502    0  0.65604319580E+03 -0.23262029186E+03  0.95393755323E+03  0.11808902322E+04  0.10100000352E+00 0. -1.
       -3    1    3    3    0  502 -0.65604319580E+03  0.23262029186E+03 -0.40303927667E+03  0.80432925079E+03  0.10100000352E+00 0.  1.
</event>
<event>
 5   0  0.1694830E-04  0.1903418E+04  0.7818609E-02  0.8653157E-01
        1   -1    0    0  501    0  0.00000000000E+00  0.00000000000E+00  0.11093904526E+04  0.11093904526E+04  0.50400001928E-02 0.  1.
       -1   -1    0    0    0  501  0.00000000000E+00  0.00000000000E+00 -0.81643911048E+03  0.81643911049E+03  0.50400001928E-02 0. -1.
    10030    2    1    2    0    0  0.00000000000E+00  0.00000000000E+00  0.29295134210E+03  0.19258295631E+04  0.19034177201E+04 0.  0.
        1    1    3    3  502    0 -0.17832772929E+03  0.54253247194E+03  0.91675942171E+03  0.10800880054E+04  0.50400001928E-02 0.  1.
       -1    1    3    3    0  502  0.17832772929E+03 -0.54253247194E+03 -0.62380807961E+03  0.84574155766E+03  0.50400001928E-02 0. -1.
</event>
<event>
 5   0  0.1758946E-04  0.1951257E+04  0.7818609E-02  0.8629755E-01
       -1   -1    0    0    0  501  0.00000000000E+00  0.00000000000E+00  0.76767885265E+03  0.76767885266E+03  0.50400001928E-02 0.  1.
        1   -1    0    0  501    0  0.00000000000E+00  0.00000000000E+00 -0.12399071888E+04  0.12399071888E+04  0.50400001928E-02 0. -1.
    10030    2    1    2    0    0  0.00000000000E+00  0.00000000000E+00 -0.47222833619E+03  0.20075860415E+04  0.19512565471E+04 0.  0.
        2    1    3    3  502    0  0.10121554323E+03 -0.19010522660E+03 -0.12151438405E+04  0.12340823053E+04  0.25500000920E-02 0. -1.
       -2    1    3    3    0  502 -0.10121554323E+03  0.19010522660E+03  0.74291550426E+03  0.77350373616E+03  0.25500000920E-02 0.  1.
</event>
<event>
 5   0  0.1758946E-04  0.1888159E+04  0.7818609E-02  0.8660773E-01
        1   -1    0    0  501    0  0.00000000000E+00  0.00000000000E+00  0.23365172909E+04  0.23365172909E+04  0.50400001928E-02 0. -1.
       -1   -1    0    0    0  501  0.00000000000E+00  0.00000000000E+00 -0.38145923770E+03  0.38145923774E+03  0.50400001928E-02 0.  1.
    10030    2    1    2    0    0  0.00000000000E+00  0.00000000000E+00  0.19550580532E+04  0.27179765287E+04  0.18881590025E+04 0.  0.
        2    1    3    3  502    0  0.81652397305E+03  0.20970236578E+03  0.15892671680E+04  0.17990154563E+04  0.25500000920E-02 0. -1.
       -2    1    3    3    0  502 -0.81652397305E+03 -0.20970236578E+03  0.36579088522E+03  0.91896107235E+03  0.25500000920E-02 0.  1.
</event>
<event>
 5   0  0.3459485E-04  0.1943332E+04  0.7818609E-02  0.8633583E-01
       -2   -1    0    0    0  501  0.00000000000E+00  0.00000000000E+00  0.63071987765E+03  0.63071987765E+03  0.25500000920E-02 0.  1.
        2   -1    0    0  501    0  0.00000000000E+00  0.00000000000E+00 -0.14969161572E+04  0.14969161572E+04  0.25500000920E-02 0. -1.
    10030    2    1    2    0    0  0.00000000000E+00  0.00000000000E+00 -0.86619627957E+03  0.21276360349E+04  0.19433319588E+04 0.  0.
        3    1    3    3  502    0 -0.55497197450E+03 -0.54543885068E+03 -0.10702130397E+04  0.13231981684E+04  0.10100000352E+00 0. -1.
       -3    1    3    3    0  502  0.55497197450E+03  0.54543885068E+03  0.20401676018E+03  0.80443786643E+03  0.10100000352E+00 0.  1.
</event>
<event>
 5   0  0.3535876E-04  0.1969362E+04  0.7818609E-02  0.8621081E-01
        2   -1    0    0  501    0  0.00000000000E+00  0.00000000000E+00  0.13553871642E+04  0.13553871642E+04  0.25500000920E-02 0. -1.
       -2   -1    0    0    0  501  0.00000000000E+00  0.00000000000E+00 -0.71536481200E+03  0.71536481200E+03  0.25500000920E-02 0.  1.
    10030    2    1    2    0    0  0.00000000000E+00  0.00000000000E+00  0.64002235221E+03  0.20707519762E+04  0.19693616061E+04 0.  0.
        2    1    3    3  502    0  0.16045559850E+03  0.21509259280E+03  0.13161973788E+04  0.13432744926E+04  0.25500000920E-02 0. -1.
       -2    1    3    3    0  502 -0.16045559850E+03 -0.21509259280E+03 -0.67617502658E+03  0.72747748360E+03  0.25500000920E-02 0.  1.
</event>
<event>
 5   0  0.3535876E-04  0.1875248E+04  0.7818609E-02  0.8667276E-01
       -2   -1    0    0    0  501  0.00000000000E+00  0.00000000000E+00  0.17441428029E+04  0.17441428029E+04  0.25500000920E-02 0. -1.
        2   -1    0    0  501    0  0.00000000000E+00  0.00000000000E+00 -0.50405184750E+03  0.50405184751E+03  0.25500000920E-02 0.  1.
    10030    2    1    2    0    0  0.00000000000E+00  0.00000000000E+00  0.12400909554E+04  0.22481946505E+04  0.18752476126E+04 0.  0.
        2    1    3    3  502    0  0.26297656854E+03  0.31979595593E+03 -0.38851896395E+03  0.56777910703E+03  0.25500000920E-02 0.  1.
       -2    1    3    3    0  502 -0.26297656854E+03 -0.31979595593E+03  0.16286099194E+04  0.16804155434E+04  0.25500000920E-02 0. -1.
</event>
<event>
 5   0  0.1711979E-04  0.1931902E+04  0.7818609E-02  0.8639138E-01
       -1   -1    0    0    0  501  0.00000000000E+00  0.00000000000E+00  0.98819874115E+03  0.98819874117E+03  0.50400001928E-02 0.  1.
        1   -1    0    0  501    0  0.00000000000E+00  0.00000000000E+00 -0.94420397502E+03  0.94420397504E+03  0.50400001928E-02 0. -1.
    10030    2    1    2    0    0  0.00000000000E+00  0.00000000000E+00  0.43994766130E+02  0.19324027162E+04  0.19319018397E+04 0.  0.
        4    1    3    3  502    0 -0.52167872416E+03  0.51192544788E+03 -0.60970670193E+03  0.95181943178E+03  0.12699999809E+01 0. -1.
       -4    1    3    3    0  502  0.52167872416E+03 -0.51192544788E+03  0.65370146806E+03  0.98058328442E+03  0.12699999809E+01 0.  1.
</event>
<event>
 5   0  0.1287000E-04  0.1893745E+04  0.7818609E-02  0.8657976E-01
       -3   -1    0    0    0  501  0.00000000000E+00  0.00000000000E+00  0.74198766528E+03  0.74198767216E+03  0.10100000352E+00 0.  1.
        3   -1    0    0  501    0  0.00000000000E+00  0.00000000000E+00 -0.12083320466E+04  0.12083320508E+04  0.10100000352E+00 0. -1.
    10030    2    1    2    0    0  0.00000000000E+00  0.00000000000E+00 -0.46634438128E+03  0.19503197229E+04  0.18937449511E+04 0.  0.
        4    1    3    3  502    0  0.36774689866E+03 -0.21571057107E+03  0.63754215016E+03  0.76696182309E+03  0.12699999809E+01 0.  1.
       -4    1    3    3    0  502 -0.36774689866E+03  0.21571057107E+03 -0.11038865314E+04  0.11833578998E+04  0.12699999809E+01 0. -1.
</event>
<event>
 5   0  0.3720978E-04  0.1958353E+04  0.7818609E-02  0.8626343E-01
       -2   -1    0    0    0  501  0.00000000000E+00  0.00000000000E+00  0.60283464369E+03  0.60283464370E+03  0.25500000920E-02 0.  1.
        2   -1    0    0  501    0  0.00000000000E+00  0.00000000000E+00 -0.15904642610E+04  0.15904642610E+04  0.25500000920E-02 0. -1.
    10030    2    1    2    0    0  0.00000000000E+00  0.00000000000E+00 -0.98762961731E+03  0.21932989047E+04  0.19583533451E+04 0.  0.
        1    1    3    3  502    0 -0.28030514501E+02 -0.16778245291E+03 -0.15737887689E+04  0.15829553848E+04  0.50400001928E-02 0. -1.
       -1    1    3    3    0  502  0.28030514501E+02  0.16778245291E+03  0.58615915158E+03  0.61034351987E+03  0.50400001928E-02 0.  1.
</event>
<event>
 5   0  0.3459485E-04  0.1910985E+04  0.7818609E-02  0.8649408E-01
       -2   -1    0    0    0  501  0.00000000000E+00  0.00000000000E+00  0.54989890150E+03  0.54989890150E+03  0.25500000920E-02 0. -1.
        2   -1    0    0  501    0  0.00000000000E+00  0.00000000000E+00 -0.16602427360E+04  0.16602427360E+04  0.25500000920E-02 0.  1.
    10030    2    1    2    0    0  0.00000000000E+00  0.00000000000E+00 -0.11103438345E+04  0.22101416375E+04  0.19109847270E+04 0.  0.
        3    1    3    3  502    0 -0.83007051932E+03 -0.31059161610E+03 -0.14223249167E+03  0.89761590390E+03  0.10100000352E+00 0. -1.
       -3    1    3    3    0  502  0.83007051932E+03  0.31059161610E+03 -0.96811134282E+03  0.13125257336E+04  0.10100000352E+00 0.  1.
</event>
<event>
 5   0  0.1758946E-04  0.1821775E+04  0.7818609E-02  0.8694805E-01
       -1   -1    0    0    0  501  0.00000000000E+00  0.00000000000E+00  0.73550678036E+03  0.73550678038E+03  0.50400001928E-02 0. -1.
        1   -1    0    0  501    0  0.00000000000E+00  0.00000000000E+00 -0.11280873215E+04  0.11280873215E+04  0.50400001928E-02 0.  1.
    10030    2    1    2    0    0  0.00000000000E+00  0.00000000000E+00 -0.39258054110E+03  0.18635941018E+04  0.18217748201E+04 0.  0.
        2    1    3    3  502    0  0.84765184762E+03 -0.22200261764E+02 -0.53665834420E+03  0.10034982236E+04  0.25500000920E-02 0.  1.
       -2    1    3    3    0  502 -0.84765184762E+03  0.22200261764E+02  0.14407780310E+03  0.86009587823E+03  0.25500000920E-02 0. -1.
</event>
<event>
 5   0  0.3459485E-04  0.1872589E+04  0.7818609E-02  0.8668622E-01
       -2   -1    0    0    0  501  0.00000000000E+00  0.00000000000E+00  0.37923062832E+03  0.37923062833E+03  0.25500000920E-02 0. -1.
        2   -1    0    0  501    0  0.00000000000E+00  0.00000000000E+00 -0.23116459716E+04  0.23116459716E+04  0.25500000920E-02 0.  1.
    10030    2    1    2    0    0  0.00000000000E+00  0.00000000000E+00 -0.19324153433E+04  0.26908765999E+04  0.18725885338E+04 0.  0.
        3    1    3    3  502    0 -0.77411522118E+03  0.36135532172E+03 -0.15168080289E+04  0.17408442351E+04  0.10100000352E+00 0.  1.
       -3    1    3    3    0  502  0.77411522118E+03 -0.36135532172E+03 -0.41560731435E+03  0.95003236479E+03  0.10100000352E+00 0. -1.
</event>
<event>
 5   0  0.3535876E-04  0.1877621E+04  0.7818609E-02  0.8666077E-01
       -2   -1    0    0    0  501  0.00000000000E+00  0.00000000000E+00  0.61537790000E+03  0.61537790001E+03  0.25500000920E-02 0.  1.
        2   -1    0    0  501    0  0.00000000000E+00  0.00000000000E+00 -0.14322338976E+04  0.14322338976E+04  0.25500000920E-02 0. -1.
    10030    2    1    2    0    0  0.00000000000E+00  0.00000000000E+00 -0.81685599764E+03  0.20476117977E+04  0.18776209290E+04 0.  0.
        2    1    3    3  502    0  0.89550790698E+03  0.12686935905E+03 -0.13397937770E+03  0.91431981242E+03  0.25500000920E-02 0. -1.
       -2    1    3    3    0  502 -0.89550790698E+03 -0.12686935905E+03 -0.68287661994E+03  0.11332919852E+04  0.25500000920E-02 0.  1.
</event>
<event>
 5   0  0.3459485E-04  0.1925816E+04  0.7818609E-02  0.8642112E-01
       -2   -1    0    0    0  501  0.00000000000E+00  0.00000000000E+00  0.47802875857E+03  0.47802875858E+03  0.25500000920E-02 0.  1.
        2   -1    0    0  501    0  0.00000000000E+00  0.00000000000E+00 -0.19396155831E+04  0.19396155831E+04  0.25500000920E-02 0. -1.
    10030    2    1    2    0    0  0.00000000000E+00  0.00000000000E+00 -0.14615868245E+04  0.24176443417E+04  0.19258162210E+04 0.  0.
        3    1    3    3  502    0 -0.23599567954E+02  0.95290605812E+03 -0.90202893158E+03  0.13123425996E+04  0.10100000352E+00 0.  1.
       -3    1    3    3    0  502  0.23599567954E+02 -0.95290605812E+03 -0.55955789296E+03  0.11053017421E+04  0.10100000352E+00 0. -1.
</event>
<event>
 5   0  0.1813834E-04  0.2026172E+04  0.7818609E-02  0.8594481E-01
       -1   -1    0    0    0  501  0.00000000000E+00  0.00000000000E+00  0.50874313943E+03  0.50874313946E+03  0.50400001928E-02 0. -1.
        1   -1    0    0  501    0  0.00000000000E+00  0.00000000000E+00 -0.20174087115E+04  0.20174087115E+04  0.50400001928E-02 0.  1.
    10030    2    1    2    0    0  0.00000000000E+00  0.00000000000E+00 -0.15086655720E+04  0.25261518509E+04  0.20261716032E+04 0.  0.
        5    1    3    3  502    0  0.80274006135E+03 -0.48431716257E+03 -0.12329429560E+04  0.15489109538E+04  0.46999998093E+01 0.  1.
       -5    1    3    3    0  502 -0.80274006135E+03  0.48431716257E+03 -0.27572261604E+03  0.97724089714E+03  0.46999998093E+01 0. -1.
</event>
<event>
 5   0  0.1813834E-04  0.1928370E+04  0.7818609E-02  0.8640863E-01
       -1   -1    0    0    0  501  0.00000000000E+00  0.00000000000E+00  0.57132154414E+03  0.57132154416E+03  0.50400001928E-02 0. -1.
        1   -1    0    0  501    0  0.00000000000E+00  0.00000000000E+00 -0.16271962449E+04  0.16271962449E+04  0.50400001928E-02 0.  1.
    10030    2    1    2    0    0  0.00000000000E+00  0.00000000000E+00 -0.10558747007E+04  0.21985177891E+04  0.19283695406E+04 0.  0.
        5    1    3    3  502    0  0.33914783878E+02 -0.10818014008E+03  0.56368289554E+03  0.57499013209E+03  0.46999998093E+01 0. -1.
       -5    1    3    3    0  502 -0.33914783878E+02  0.10818014008E+03 -0.16195575963E+04  0.16235276570E+04  0.46999998093E+01 0.  1.
</event>
<event>
 5   0  0.3720978E-04  0.1877364E+04  0.7818609E-02  0.8666206E-01
        2   -1    0    0  501    0  0.00000000000E+00  0.00000000000E+00  0.18253766815E+04  0.18253766815E+04  0.25500000920E-02 0. -1.
       -2   -1    0    0    0  501  0.00000000000E+00  0.00000000000E+00 -0.48270808489E+03  0.48270808489E+03  0.25500000920E-02 0.  1.
    10030    2    1    2    0    0  0.00000000000E+00  0.00000000000E+00  0.13426685966E+04  0.23080847664E+04  0.18773641971E+04 0.  0.
        1    1    3    3  502    0 -0.67000978716E+03  0.55463752355E+03  0.23738234018E+03  0.90160205904E+03  0.50400001928E-02 0. -1.
       -1    1    3    3    0  502  0.67000978716E+03 -0.55463752355E+03  0.11052862565E+04  0.14064827074E+04  0.50400001928E-02 0.  1.
</event>
<event>
 5   0  0.1711979E-04  0.1892677E+04  0.7818609E-02  0.8658510E-01
       -1   -1    0    0    0  501  0.00000000000E+00  0.00000000000E+00  0.33804269185E+03  0.33804269188E+03  0.50400001928E-02 0.  1.
        1   -1    0    0  501    0  0.00000000000E+00  0.00000000000E+00 -0.26492417626E+04  0.26492417626E+04  0.50400001928E-02 0. -1.
    10030    2    1    2    0    0  0.00000000000E+00  0.00000000000E+00 -0.23111990708E+04  0.29872844545E+04  0.18926772750E+04 0.  0.
        4    1    3    3  502    0  0.75980176069E+03 -0.56368722824E+03 -0.11198440960E+04  0.14659789968E+04  0.12699999809E+01 0. -1.
       -4    1    3    3    0  502 -0.75980176069E+03  0.56368722824E+03 -0.11913549748E+04  0.15213054577E+04  0.12699999809E+01 0.  1.
</event>
<event>
 5   0  0.3535876E-04  0.1931238E+04  0.7818609E-02  0.8639462E-01
        2   -1    0    0  501    0  0.00000000000E+00  0.00000000000E+00  0.12661246082E+04  0.12661246082E+04  0.25500000920E-02 0. -1.
       -2   -1    0    0    0  501  0.00000000000E+00  0.00000000000E+00 -0.73643611250E+03  0.73643611250E+03  0.25500000920E-02 0.  1.
    10030    2    1    2    0    0  0.00000000000E+00  0.00000000000E+00  0.52968849570E+03  0.20025607207E+04  0.19312378252E+04 0.  0.
        2    1    3    3  502    0  0.76132984582E+03  0.23581610556E+03 -0.30043782743E+03  0.85176009412E+03  0.25500000920E-02 0.  1.
       -2    1    3    3    0  502 -0.76132984582E+03 -0.23581610556E+03  0.83012632313E+03  0.11508006266E+04  0.25500000920E-02 0. -1.
</event>
<event>
 5   0  0.1694830E-04  0.1963588E+04  0.7818609E-02  0.8623836E-01
        1   -1    0    0  501    0  0.00000000000E+00  0.00000000000E+00  0.19517803467E+04  0.19517803467E+04  0.50400001928E-02 0.  1.
       -1   -1    0    0    0  501  0.00000000000E+00  0.00000000000E+00 -0.49386694446E+03  0.49386694448E+03  0.50400001928E-02 0. -1.
    10030    2    1    2    0    0  0.00000000000E+00  0.00000000000E+00  0.14579134022E+04  0.24456472912E+04  0.19635883439E+04 0.  0.
        1    1    3    3  502    0  0.94427484624E+03  0.20857615623E+03  0.94018098349E+03  0.13487398859E+04  0.50400001928E-02 0. -1.
       -1    1    3    3    0  502 -0.94427484624E+03 -0.20857615623E+03  0.51773241872E+03  0.10969074052E+04  0.50400001928E-02 0.  1.
</event>
<event>
 5   0  0.3516539E-04  0.1912580E+04  0.7818609E-02  0.8648620E-01
       -2   -1    0    0    0  501  0.00000000000E+00  0.00000000000E+00  0.44747254234E+03  0.44747254234E+03  0.25500000920E-02 0. -1.
        2   -1    0    0  501    0  0.00000000000E+00  0.00000000000E+00 -0.20436804141E+04  0.20436804141E+04  0.25500000920E-02 0.  1.
    10030    2    1    2    0    0  0.00000000000E+00  0.00000000000E+00 -0.15962078718E+04  0.24911529565E+04  0.19125803206E+04 0.  0.
        4    1    3    3  502    0  0.40070328732E+03  0.58596925343E+03 -0.16326922327E+04  0.17803394704E+04  0.12699999809E+01 0.  1.
       -4    1    3    3    0  502 -0.40070328732E+03 -0.58596925343E+03  0.36484360897E+02  0.71081348603E+03  0.12699999809E+01 0. -1.
</event>
<event>
 5   0  0.1711979E-04  0.1911380E+04  0.7818609E-02  0.8649212E-01
        1   -1    0    0  501    0  0.00000000000E+00  0.00000000000E+00  0.90968618773E+03  0.90968618775E+03  0.50400001928E-02 0. -1.
       -1   -1    0    0    0  501  0.00000000000E+00  0.00000000000E+00 -0.10040203907E+04  0.10040203907E+04  0.50400001928E-02 0.  1.
    10030    2    1    2    0    0  0.00000000000E+00  0.00000000000E+00 -0.94334202970E+02  0.19137065785E+04  0.19113801104E+04 0.  0.
        4    1    3    3  502    0 -0.17247025918E+03 -0.29268834466E+03  0.84718910245E+03  0.91276691746E+03  0.12699999809E+01 0. -1.
       -4    1    3    3    0  502  0.17247025918E+03  0.29268834466E+03 -0.94152330542E+03  0.10009396610E+04  0.12699999809E+01 0.  1.
</event>
<event>
 5   0  0.3623359E-04  0.1924699E+04  0.7818609E-02  0.8642659E-01
       -2   -1    0    0    0  501  0.00000000000E+00  0.00000000000E+00  0.66468671836E+03  0.66468671836E+03  0.25500000920E-02 0.  1.
        2   -1    0    0  501    0  0.00000000000E+00  0.00000000000E+00 -0.13933134771E+04  0.13933134771E+04  0.25500000920E-02 0. -1.
    10030    2    1    2    0    0  0.00000000000E+00  0.00000000000E+00 -0.72862675871E+03  0.20580001954E+04  0.19246994183E+04 0.  0.
        5    1    3    3  502    0 -0.66296418506E+03 -0.58518449590E+03  0.41628079283E+02  0.88527814381E+03  0.46999998093E+01 0. -1.
       -5    1    3    3    0  502  0.66296418506E+03  0.58518449590E+03 -0.77025483799E+03  0.11727220516E+04  0.46999998093E+01 0.  1.
</event>
<event>
 5   0  0.1711979E-04  0.1293290E+04  0.7818609E-02  0.9034904E-01
        1   -1    0    0  501    0  0.00000000000E+00  0.00000000000E+00  0.19383226739E+04  0.19383226739E+04  0.50400001928E-02 0.  1.
       -1   -1    0    0    0  501  0.00000000000E+00  0.00000000000E+00 -0.21572746752E+03  0.21572746758E+03  0.50400001928E-02 0. -1.
    10030    2    1    2    0    0  0.00000000000E+00  0.00000000000E+00  0.17225952064E+04  0.21540501415E+04  0.12932895140E+04 0.  0.
        4    1    3    3  502    0  0.59455524566E+03  0.78834709647E+02  0.12639255568E+04  0.13990068898E+04  0.12699999809E+01 0.  1.
       -4    1    3    3    0  502 -0.59455524566E+03 -0.78834709647E+02  0.45866964953E+03  0.75504325167E+03  0.12699999809E+01 0. -1.
</event>
<event>
 5   0  0.1813834E-04  0.1906895E+04  0.7818609E-02  0.8651432E-01
        1   -1    0    0  501    0  0.00000000000E+00  0.00000000000E+00  0.54732890628E+03  0.54732890631E+03  0.50400001928E-02 0.  1.
       -1   -1    0    0    0  501  0.00000000000E+00  0.00000000000E+00 -0.16609069471E+04  0.16609069471E+04  0.50400001928E-02 0. -1.
    10030    2    1    2    0    0  0.00000000000E+00  0.00000000000E+00 -0.11135780408E+04  0.22082358534E+04  0.19068952597E+04 0.  0.
        5    1    3    3  502    0 -0.12413670655E+03 -0.83888335626E+03 -0.10614351134E+04  0.13586028843E+04  0.46999998093E+01 0.  1.
       -5    1    3    3    0  502  0.12413670655E+03  0.83888335626E+03 -0.52142927434E+02  0.84963296911E+03  0.46999998093E+01 0. -1.
</event>
<event>
 5   0  0.3720978E-04  0.1909348E+04  0.7818609E-02  0.8650217E-01
       -2   -1    0    0    0  501  0.00000000000E+00  0.00000000000E+00  0.96263482026E+03  0.96263482026E+03  0.25500000920E-02 0.  1.
        2   -1    0    0  501    0  0.00000000000E+00  0.00000000000E+00 -0.94677878658E+03  0.94677878658E+03  0.25500000920E-02 0. -1.
    10030    2    1    2    0    0  0.00000000000E+00  0.00000000000E+00  0.15856033679E+02  0.19094136068E+04  0.19093477704E+04 0.  0.
        1    1    3    3  502    0  0.65648822441E+03 -0.65271854282E+03 -0.22528367369E+03  0.95277018141E+03  0.50400001928E-02 0. -1.
       -1    1    3    3    0  502 -0.65648822441E+03  0.65271854282E+03  0.24113970737E+03  0.95664342543E+03  0.50400001928E-02 0.  1.
</event>
<event>
 5   0  0.1782613E-04  0.1899926E+04  0.7818609E-02  0.8654893E-01
        1   -1    0    0  501    0  0.00000000000E+00  0.00000000000E+00  0.63087835039E+03  0.63087835041E+03  0.50400001928E-02 0.  1.
       -1   -1    0    0    0  501  0.00000000000E+00  0.00000000000E+00 -0.14304339408E+04  0.14304339408E+04  0.50400001928E-02 0. -1.
    10030    2    1    2    0    0  0.00000000000E+00  0.00000000000E+00 -0.79955559038E+03  0.20613122912E+04  0.18999261090E+04 0.  0.
        3    1    3    3  502    0 -0.86614432749E+03 -0.33109303497E+03 -0.17584484448E+03  0.94379553579E+03  0.10100000352E+00 0.  1.
       -3    1    3    3    0  502  0.86614432749E+03  0.33109303497E+03 -0.62371074590E+03  0.11175167554E+04  0.10100000352E+00 0. -1.
</event>
<event>
 5   0  0.3720978E-04  0.1904134E+04  0.7818609E-02  0.8652801E-01
       -2   -1    0    0    0  501  0.00000000000E+00  0.00000000000E+00  0.87225331836E+03  0.87225331837E+03  0.25500000920E-02 0. -1.
        2   -1    0    0  501    0  0.00000000000E+00  0.00000000000E+00 -0.10391837272E+04  0.10391837272E+04  0.25500000920E-02 0.  1.
    10030    2    1    2    0    0  0.00000000000E+00  0.00000000000E+00 -0.16693040884E+03  0.19114370456E+04  0.19041338760E+04 0.  0.
        1    1    3    3  502    0  0.17402315868E+03 -0.91078317963E+03  0.13328282038E+03  0.93678939484E+03  0.50400001928E-02 0. -1.
       -1    1    3    3    0  502 -0.17402315868E+03  0.91078317963E+03 -0.30021322922E+03  0.97464765073E+03  0.50400001928E-02 0.  1.
</event>
<event>
 5   0  0.1782613E-04  0.1916225E+04  0.7818609E-02  0.8646822E-01
       -1   -1    0    0    0  501  0.00000000000E+00  0.00000000000E+00  0.89362642586E+03  0.89362642587E+03  0.50400001928E-02 0.  1.
        1   -1    0    0  501    0  0.00000000000E+00  0.00000000000E+00 -0.10272524549E+04  0.10272524549E+04  0.50400001928E-02 0. -1.
    10030    2    1    2    0    0  0.00000000000E+00  0.00000000000E+00 -0.13362602903E+03  0.19208788808E+04  0.19162253936E+04 0.  0.
        3    1    3    3  502    0  0.41448737972E+03 -0.31161854691E+02  0.79853830389E+03  0.90024123551E+03  0.10100000352E+00 0.  1.
       -3    1    3    3    0  502 -0.41448737972E+03  0.31161854691E+02 -0.93216433293E+03  0.10206376453E+04  0.10100000352E+00 0. -1.
</event>
<event>
 5   0  0.1813834E-04  0.1855877E+04  0.7818609E-02  0.8677137E-01
        1   -1    0    0  501    0  0.00000000000E+00  0.00000000000E+00  0.72196678360E+03  0.72196678362E+03  0.50400001928E-02 0.  1.
       -1   -1    0    0    0  501  0.00000000000E+00  0.00000000000E+00 -0.11926720290E+04  0.11926720290E+04  0.50400001928E-02 0. -1.
    10030    2    1    2    0    0  0.00000000000E+00  0.00000000000E+00 -0.47070524543E+03  0.19146388127E+04  0.18558767079E+04 0.  0.
        5    1    3    3  502    0  0.11501316236E+03  0.32859945492E+01 -0.11852718207E+04  0.11908527215E+04  0.46999998093E+01 0. -1.
       -5    1    3    3    0  502 -0.11501316236E+03 -0.32859945492E+01  0.71456657528E+03  0.72378609118E+03  0.46999998093E+01 0.  1.
</event>
<event>
 5   0  0.3516539E-04  0.1884685E+04  0.7818609E-02  0.8662517E-01
       -2   -1    0    0    0  501  0.00000000000E+00  0.00000000000E+00  0.81557575532E+03  0.81557575532E+03  0.25500000920E-02 0.  1.
        2   -1    0    0  501    0  0.00000000000E+00  0.00000000000E+00 -0.10888127479E+04  0.10888127479E+04  0.25500000920E-02 0. -1.
    10030    2    1    2    0    0  0.00000000000E+00  0.00000000000E+00 -0.27323699258E+03  0.19043885032E+04  0.18846848853E+04 0.  0.
        4    1    3    3  502    0  0.30589572281E+03 -0.72690598194E+03 -0.65780463578E+03  0.10269727609E+04  0.12699999809E+01 0. -1.
       -4    1    3    3    0  502 -0.30589572281E+03  0.72690598194E+03  0.38456764320E+03  0.87741574234E+03  0.12699999809E+01 0.  1.
</event>
<event>
 5   0  0.3535876E-04  0.1976485E+04  0.7818609E-02  0.8617694E-01
        2   -1    0    0  501    0  0.00000000000E+00  0.00000000000E+00  0.14570045980E+04  0.14570045980E+04  0.25500000920E-02 0. -1.
       -2   -1    0    0    0  501  0.00000000000E+00  0.00000000000E+00 -0.67029528270E+03  0.67029528271E+03  0.25500000920E-02 0.  1.
    10030    2    1    2    0    0  0.00000000000E+00  0.00000000000E+00  0.78670931526E+03  0.21272998807E+04  0.19764850709E+04 0.  0.
        2    1    3    3  502    0  0.34449651925E+02 -0.50311904386E+03 -0.52138249201E+03  0.72536560009E+03  0.25500000920E-02 0.  1.
       -2    1    3    3    0  502 -0.34449651925E+02  0.50311904386E+03  0.13080918073E+04  0.14019342806E+04  0.25500000920E-02 0. -1.
</event>
<event>
 5   0  0.1711979E-04  0.1893353E+04  0.7818609E-02  0.8658172E-01
       -1   -1    0    0    0  501  0.00000000000E+00  0.00000000000E+00  0.67770183391E+03  0.67770183393E+03  0.50400001928E-02 0.  1.
        1   -1    0    0  501    0  0.00000000000E+00  0.00000000000E+00 -0.13224058171E+04  0.13224058171E+04  0.50400001928E-02 0. -1.
    10030    2    1    2    0    0  0.00000000000E+00  0.00000000000E+00 -0.64470398314E+03  0.20001076510E+04  0.18933534772E+04 0.  0.
        4    1    3    3  502    0  0.12429357251E+03 -0.44969574529E+03  0.54781583467E+03  0.71956859097E+03  0.12699999809E+01 0.  1.
       -4    1    3    3    0  502 -0.12429357251E+03  0.44969574529E+03 -0.11925198178E+04  0.12805390600E+04  0.12699999809E+01 0. -1.
</event>
<event>
 5   0  0.3623359E-04  0.1966511E+04  0.7818609E-02  0.8622440E-01
        2   -1    0    0  501    0  0.00000000000E+00  0.00000000000E+00  0.96844255814E+03  0.96844255814E+03  0.25500000920E-02 0.  1.
       -2   -1    0    0    0  501  0.00000000000E+00  0.00000000000E+00 -0.99829481527E+03  0.99829481528E+03  0.25500000920E-02 0. -1.
    10030    2    1    2    0    0  0.00000000000E+00  0.00000000000E+00 -0.29852257139E+02  0.19667373734E+04  0.19665108031E+04 0.  0.
        5    1    3    3  502    0  0.59792588511E+02  0.71732581157E+03 -0.68480746587E+03  0.99353652620E+03  0.46999998093E+01 0. -1.
       -5    1    3    3    0  502 -0.59792588511E+02 -0.71732581157E+03  0.65495520873E+03  0.97320084722E+03  0.46999998093E+01 0.  1.
</event>
<event>
 5   0  0.1694830E-04  0.1852446E+04  0.7818609E-02  0.8678896E-01
       -1   -1    0    0    0  501  0.00000000000E+00  0.00000000000E+00  0.61353118058E+03  0.61353118060E+03  0.50400001928E-02 0.  1.
        1   -1    0    0  501    0  0.00000000000E+00  0.00000000000E+00 -0.13982804309E+04  0.13982804309E+04  0.50400001928E-02 0. -1.
    10030    2    1    2    0    0  0.00000000000E+00  0.00000000000E+00 -0.78474925032E+03  0.20118116115E+04  0.18524455658E+04 0.  0.
        1    1    3    3  502    0  0.32054905944E+03  0.85670893220E+03 -0.55045356755E+03  0.10675678077E+04  0.50400001928E-02 0.  1.
       -1    1    3    3    0  502 -0.32054905944E+03 -0.85670893220E+03 -0.23429568277E+03  0.94424380380E+03  0.50400001928E-02 0. -1.
</event>
<event>
 5   0  0.3516539E-04  0.1901949E+04  0.7818609E-02  0.8653887E-01
       -2   -1    0    0    0  501  0.00000000000E+00  0.00000000000E+00  0.76166295267E+03  0.76166295268E+03  0.25500000920E-02 0.  1.
        2   -1    0    0  501    0  0.00000000000E+00  0.00000000000E+00 -0.11873398264E+04  0.11873398264E+04  0.25500000920E-02 0. -1.
    10030    2    1    2    0    0  0.00000000000E+00  0.00000000000E+00 -0.42567687374E+03  0.19490027791E+04  0.19019492717E+04 0.  0.
        4    1    3    3  502    0  0.38162455607E+02  0.18926889508E+03 -0.11670421987E+04  0.11829066718E+04  0.12699999809E+01 0. -1.
       -4    1    3    3    0  502 -0.38162455607E+02 -0.18926889508E+03  0.74136532497E+03  0.76609610731E+03  0.12699999809E+01 0.  1.
</event>
<event>
 5   0  0.1758946E-04  0.1900634E+04  0.7818609E-02  0.8654541E-01
       -1   -1    0    0    0  501  0.00000000000E+00  0.00000000000E+00  0.83162543165E+03  0.83162543167E+03  0.50400001928E-02 0.  1.
        1   -1    0    0  501    0  0.00000000000E+00  0.00000000000E+00 -0.10859486765E+04  0.10859486765E+04  0.50400001928E-02 0. -1.
    10030    2    1    2    0    0  0.00000000000E+00  0.00000000000E+00 -0.25432324487E+03  0.19175741082E+04  0.19006341435E+04 0.  0.
        2    1    3    3  502    0  0.37360399655E+02  0.58926546502E+02 -0.10833610334E+04  0.10856054836E+04  0.25500000920E-02 0. -1.
       -2    1    3    3    0  502 -0.37360399655E+02 -0.58926546502E+02  0.82903778857E+03  0.83196862455E+03  0.25500000920E-02 0.  1.
</event>
<event>
 5   0  0.1758946E-04  0.1897992E+04  0.7818609E-02  0.8655856E-01
       -1   -1    0    0    0  501  0.00000000000E+00  0.00000000000E+00  0.14204333518E+04  0.14204333519E+04  0.50400001928E-02 0.  1.
        1   -1    0    0  501    0  0.00000000000E+00  0.00000000000E+00 -0.63402732789E+03  0.63402732791E+03  0.50400001928E-02 0. -1.
    10030    2    1    2    0    0  0.00000000000E+00  0.00000000000E+00  0.78640602395E+03  0.20544606798E+04  0.18979921628E+04 0.  0.
        2    1    3    3  502    0 -0.17652831386E+03  0.74174356525E+03 -0.21839684579E+03  0.79312227584E+03  0.25500000920E-02 0. -1.
       -2    1    3    3    0  502  0.17652831386E+03 -0.74174356525E+03  0.10048028697E+04  0.12613384039E+04  0.25500000920E-02 0.  1.
</event>
<event>
 5   0  0.3535876E-04  0.1890664E+04  0.7818609E-02  0.8659517E-01
        2   -1    0    0  501    0  0.00000000000E+00  0.00000000000E+00  0.94413884367E+03  0.94413884368E+03  0.25500000920E-02 0. -1.
       -2   -1    0    0    0  501  0.00000000000E+00  0.00000000000E+00 -0.94652677677E+03  0.94652677677E+03  0.25500000920E-02 0.  1.
    10030    2    1    2    0    0  0.00000000000E+00  0.00000000000E+00 -0.23879330964E+01  0.18906656205E+04  0.18906641125E+04 0.  0.
        2    1    3    3  502    0  0.25901671449E+03 -0.22443929773E+03  0.87982321714E+03  0.94422007508E+03  0.25500000920E-02 0. -1.
       -2    1    3    3    0  502 -0.25901671449E+03  0.22443929773E+03 -0.88221115024E+03  0.94644554538E+03  0.25500000920E-02 0.  1.
</event>
<event>
 5   0  0.1813834E-04  0.1871380E+04  0.7818609E-02  0.8669235E-01
        1   -1    0    0  501    0  0.00000000000E+00  0.00000000000E+00  0.14502525791E+04  0.14502525791E+04  0.50400001928E-02 0.  1.
       -1   -1    0    0    0  501  0.00000000000E+00  0.00000000000E+00 -0.60369879211E+03  0.60369879213E+03  0.50400001928E-02 0. -1.
    10030    2    1    2    0    0  0.00000000000E+00  0.00000000000E+00  0.84655378702E+03  0.20539513713E+04  0.18713799511E+04 0.  0.
        5    1    3    3  502    0  0.60267271269E+02  0.82220452136E+03 -0.62436678931E+02  0.82678464416E+03  0.46999998093E+01 0. -1.
       -5    1    3    3    0  502 -0.60267271269E+02 -0.82220452136E+03  0.90899046595E+03  0.12271667271E+04  0.46999998093E+01 0.  1.
</event>
<event>
 5   0  0.1711979E-04  0.1917354E+04  0.7818609E-02  0.8646266E-01
        1   -1    0    0  501    0  0.00000000000E+00  0.00000000000E+00  0.14282310067E+04  0.14282310068E+04  0.50400001928E-02 0.  1.
       -1   -1    0    0    0  501  0.00000000000E+00  0.00000000000E+00 -0.64349626737E+03  0.64349626739E+03  0.50400001928E-02 0. -1.
    10030    2    1    2    0    0  0.00000000000E+00  0.00000000000E+00  0.78473473937E+03  0.20717272742E+04  0.19173537199E+04 0.  0.
        4    1    3    3  502    0 -0.97611566184E+02 -0.74773620227E+03  0.10319934862E+04  0.12781430336E+04  0.12699999809E+01 0.  1.
       -4    1    3    3    0  502  0.97611566184E+02  0.74773620227E+03 -0.24725874679E+03  0.79358424052E+03  0.12699999809E+01 0. -1.
</event>
<event>
 5   0  0.1813834E-04  0.1888566E+04  0.7818609E-02  0.8660569E-01
       -1   -1    0    0    0  501  0.00000000000E+00  0.00000000000E+00  0.30201169142E+03  0.30201169146E+03  0.50400001928E-02 0. -1.
        1   -1    0    0  501    0  0.00000000000E+00  0.00000000000E+00 -0.29524376112E+04  0.29524376112E+04  0.50400001928E-02 0.  1.
    10030    2    1    2    0    0  0.00000000000E+00  0.00000000000E+00 -0.26504259197E+04  0.32544493026E+04  0.18885663100E+04 0.  0.
        5    1    3    3  502    0  0.32533477655E+02 -0.93888833817E+03 -0.11610176877E+04  0.14935039002E+04  0.46999998093E+01 0. -1.
       -5    1    3    3    0  502 -0.32533477655E+02  0.93888833817E+03 -0.14894082321E+04  0.17609454025E+04  0.46999998093E+01 0.  1.
</event>
<event>
 5   0  0.3535876E-04  0.1922454E+04  0.7818609E-02  0.8643759E-01
        2   -1    0    0  501    0  0.00000000000E+00  0.00000000000E+00  0.20669453227E+04  0.20669453227E+04  0.25500000920E-02 0.  1.
       -2   -1    0    0    0  501  0.00000000000E+00  0.00000000000E+00 -0.44701603276E+03  0.44701603277E+03  0.25500000920E-02 0. -1.
    10030    2    1    2    0    0  0.00000000000E+00  0.00000000000E+00  0.16199292899E+04  0.25139613555E+04  0.19224543668E+04 0.  0.
        2    1    3    3  502    0 -0.93396378506E+03 -0.15716218895E+03  0.10247171017E+04  0.13953614026E+04  0.25500000920E-02 0. -1.
       -2    1    3    3    0  502  0.93396378506E+03  0.15716218895E+03  0.59521218824E+03  0.11185999528E+04  0.25500000920E-02 0.  1.
</event>
<event>
 5   0  0.3535876E-04  0.1865716E+04  0.7818609E-02  0.8672112E-01
        2   -1    0    0  501    0  0.00000000000E+00  0.00000000000E+00  0.17619066454E+04  0.17619066454E+04  0.25500000920E-02 0.  1.
       -2   -1    0    0    0  501  0.00000000000E+00  0.00000000000E+00 -0.49391065495E+03  0.49391065495E+03  0.25500000920E-02 0. -1.
    10030    2    1    2    0    0  0.00000000000E+00  0.00000000000E+00  0.12679959904E+04  0.22558173003E+04  0.18657164470E+04 0.  0.
        2    1    3    3  502    0 -0.16638306088E+03 -0.42956299258E+03 -0.34679366998E+03  0.57660518302E+03  0.25500000920E-02 0. -1.
       -2    1    3    3    0  502  0.16638306088E+03  0.42956299258E+03  0.16147896604E+04  0.16792121173E+04  0.25500000920E-02 0.  1.
</event>
<event>
 5   0  0.1694830E-04  0.1889456E+04  0.7818609E-02  0.8660123E-01
       -1   -1    0    0    0  501  0.00000000000E+00  0.00000000000E+00  0.68826590178E+03  0.68826590180E+03  0.50400001928E-02 0.  1.
        1   -1    0    0  501    0  0.00000000000E+00  0.00000000000E+00 -0.12967529840E+04  0.12967529840E+04  0.50400001928E-02 0. -1.
    10030    2    1    2    0    0  0.00000000000E+00  0.00000000000E+00 -0.60848708220E+03  0.19850188858E+04  0.18894558602E+04 0.  0.
        1    1    3    3  502    0 -0.56326756860E+03  0.11787434345E+03 -0.10913677420E+04  0.12337942547E+04  0.50400001928E-02 0. -1.
       -1    1    3    3    0  502  0.56326756860E+03 -0.11787434345E+03  0.48288065980E+03  0.75122463106E+03  0.50400001928E-02 0.  1.
</event>
<event>
 5   0  0.3459485E-04  0.1855619E+04  0.7818609E-02  0.8677268E-01
       -2   -1    0    0    0  501  0.00000000000E+00  0.00000000000E+00  0.72442081086E+03  0.72442081086E+03  0.25500000920E-02 0.  1.
        2   -1    0    0  501    0  0.00000000000E+00  0.00000000000E+00 -0.11883021994E+04  0.11883021994E+04  0.25500000920E-02 0. -1.
    10030    2    1    2    0    0  0.00000000000E+00  0.00000000000E+00 -0.46388138850E+03  0.19127230102E+04  0.18556194037E+04 0.  0.
        3    1    3    3  502    0  0.53668237123E+03 -0.37755749962E+02  0.54721579950E+03  0.76739729323E+03  0.10100000352E+00 0.  1.
       -3    1    3    3    0  502 -0.53668237123E+03  0.37755749962E+02 -0.10110971880E+04  0.11453257170E+04  0.10100000352E+00 0. -1.
</event>
<event>
 5   0  0.3459485E-04  0.1823973E+04  0.7818609E-02  0.8693654E-01
       -2   -1    0    0    0  501  0.00000000000E+00  0.00000000000E+00  0.10920449201E+04  0.10920449201E+04  0.25500000920E-02 0.  1.
        2   -1    0    0  501    0  0.00000000000E+00  0.00000000000E+00 -0.76161648506E+03  0.76161648506E+03  0.25500000920E-02 0. -1.
    10030    2    1    2    0    0  0.00000000000E+00  0.00000000000E+00  0.33042843500E+03  0.18536614051E+04  0.18239730410E+04 0.  0.
        3    1    3    3  502    0 -0.18241136586E+03 -0.86390102512E+03  0.39722936791E+03  0.96818906652E+03  0.10100000352E+00 0.  1.
       -3    1    3    3    0  502  0.18241136586E+03  0.86390102512E+03 -0.66800932902E+02  0.88547233861E+03  0.10100000352E+00 0. -1.
</event>
<event>
 5   0  0.3516539E-04  0.1908368E+04  0.7818609E-02  0.8650702E-01
        2   -1    0    0  501    0  0.00000000000E+00  0.00000000000E+00  0.18955262049E+04  0.18955262049E+04  0.25500000920E-02 0.  1.
       -2   -1    0    0    0  501  0.00000000000E+00  0.00000000000E+00 -0.48032440499E+03  0.48032440499E+03  0.25500000920E-02 0. -1.
    10030    2    1    2    0    0  0.00000000000E+00  0.00000000000E+00  0.14152017999E+04  0.23758506099E+04  0.19083684094E+04 0.  0.
        4    1    3    3  502    0 -0.57297311992E+03 -0.32555827416E+03 -0.15149620756E+03  0.67619457247E+03  0.12699999809E+01 0. -1.
       -4    1    3    3    0  502  0.57297311992E+03  0.32555827416E+03  0.15666980075E+04  0.16996560375E+04  0.12699999809E+01 0.  1.
</event>
<event>
 5   0  0.1711979E-04  0.1942049E+04  0.7818609E-02  0.8634204E-01
        1   -1    0    0  501    0  0.00000000000E+00  0.00000000000E+00  0.15230636243E+04  0.15230636243E+04  0.50400001928E-02 0. -1.
       -1   -1    0    0    0  501  0.00000000000E+00  0.00000000000E+00 -0.61907365425E+03  0.61907365427E+03  0.50400001928E-02 0.  1.
    10030    2    1    2    0    0  0.00000000000E+00  0.00000000000E+00  0.90398997001E+03  0.21421372785E+04  0.19420489835E+04 0.  0.
        4    1    3    3  502    0  0.16200241945E+03  0.23124586273E+03  0.14767844774E+04  0.15035336506E+04  0.12699999809E+01 0. -1.
       -4    1    3    3    0  502 -0.16200241945E+03 -0.23124586273E+03 -0.57279450742E+03  0.63860362790E+03  0.12699999809E+01 0.  1.
</event>
<event>
 5   0  0.1711979E-04  0.1910800E+04  0.7818609E-02  0.8649499E-01
        1   -1    0    0  501    0  0.00000000000E+00  0.00000000000E+00  0.11275938054E+04  0.11275938054E+04  0.50400001928E-02 0.  1.
       -1   -1    0    0    0  501  0.00000000000E+00  0.00000000000E+00 -0.80950194828E+03  0.80950194830E+03  0.50400001928E-02 0. -1.
    10030    2    1    2    0    0  0.00000000000E+00  0.00000000000E+00  0.31809185711E+03  0.19370957537E+04  0.19108002327E+04 0.  0.
        4    1    3    3  502    0 -0.84964216993E+03 -0.19628292094E+03  0.55476234354E+03  0.10335287479E+04  0.12699999809E+01 0.  1.
       -4    1    3    3    0  502  0.84964216993E+03  0.19628292094E+03 -0.23667048643E+03  0.90356700583E+03  0.12699999809E+01 0. -1.
</event>
<event>
 5   0  0.3623359E-04  0.1847563E+04  0.7818609E-02  0.8681407E-01
        2   -1    0    0  501    0  0.00000000000E+00  0.00000000000E+00  0.17110510137E+04  0.17110510137E+04  0.25500000920E-02 0. -1.
       -2   -1    0    0    0  501  0.00000000000E+00  0.00000000000E+00 -0.49874171867E+03  0.49874171867E+03  0.25500000920E-02 0.  1.
    10030    2    1    2    0    0  0.00000000000E+00  0.00000000000E+00  0.12123092950E+04  0.22097927324E+04  0.18475632853E+04 0.  0.
        5    1    3    3  502    0  0.49135973940E+03 -0.60688934976E+03  0.15828433235E+02  0.78103886309E+03  0.46999998093E+01 0.  1.
       -5    1    3    3    0  502 -0.49135973940E+03  0.60688934976E+03  0.11964808618E+04  0.14287538693E+04  0.46999998093E+01 0. -1.
</event>
<event>
 5   0  0.1711979E-04  0.1894753E+04  0.7818609E-02  0.8657473E-01
        1   -1    0    0  501    0  0.00000000000E+00  0.00000000000E+00  0.80214283777E+03  0.80214283778E+03  0.50400001928E-02 0.  1.
       -1   -1    0    0    0  501  0.00000000000E+00  0.00000000000E+00 -0.11189054089E+04  0.11189054090E+04  0.50400001928E-02 0. -1.
    10030    2    1    2    0    0  0.00000000000E+00  0.00000000000E+00 -0.31676257117E+03  0.19210482467E+04  0.18947527120E+04 0.  0.
        4    1    3    3  502    0 -0.83177971090E+03 -0.21898954696E+03 -0.56101528601E+03  0.10269146377E+04  0.12699999809E+01 0. -1.
       -4    1    3    3    0  502  0.83177971090E+03  0.21898954696E+03  0.24425271484E+03  0.89413360901E+03  0.12699999809E+01 0.  1.
</event>
<event>
 5   0  0.3459485E-04  0.1767334E+04  0.7818609E-02  0.8723866E-01
       -2   -1    0    0    0  501  0.00000000000E+00  0.00000000000E+00  0.30519629042E+03  0.30519629043E+03  0.25500000920E-02 0.  1.
        2   -1    0    0  501    0  0.00000000000E+00  0.00000000000E+00 -0.25585742874E+04  0.25585742874E+04  0.25500000920E-02 0. -1.
    10030    2    1    2    0    0  0.00000000000E+00  0.00000000000E+00 -0.22533779970E+04  0.28637705778E+04  0.17673340163E+04 0.  0.
        3    1    3    3  502    0 -0.75092073463E+03 -0.35322977800E+01 -0.18814724634E+04  0.20257919606E+04  0.10100000352E+00 0. -1.
       -3    1    3    3    0  502  0.75092073463E+03  0.35322977800E+01 -0.37190553355E+03  0.83797861722E+03  0.10100000352E+00 0.  1.
</event>
<event>
 5   0  0.3459485E-04  0.1770609E+04  0.7818609E-02  0.8722087E-01
       -2   -1    0    0    0  501  0.00000000000E+00  0.00000000000E+00  0.29752871326E+03  0.29752871327E+03  0.25500000920E-02 0.  1.
        2   -1    0    0  501    0  0.00000000000E+00  0.00000000000E+00 -0.26342460023E+04  0.26342460023E+04  0.25500000920E-02 0. -1.
    10030    2    1    2    0    0  0.00000000000E+00  0.00000000000E+00 -0.23367172890E+04  0.29317747156E+04  0.17706087354E+04 0.  0.
        3    1    3    3  502    0  0.31293012046E+03  0.65722533991E+03 -0.20026806589E+04  0.21308684238E+04  0.10100000352E+00 0. -1.
       -3    1    3    3    0  502 -0.31293012046E+03 -0.65722533991E+03 -0.33403663008E+03  0.80090629174E+03  0.10100000352E+00 0.  1.
</event>
<event>
 5   0  0.1711979E-04  0.1895322E+04  0.7818609E-02  0.8657188E-01
       -1   -1    0    0    0  501  0.00000000000E+00  0.00000000000E+00  0.33769935028E+03  0.33769935032E+03  0.50400001928E-02 0.  1.
        1   -1    0    0  501    0  0.00000000000E+00  0.00000000000E+00 -0.26593527908E+04  0.26593527908E+04  0.50400001928E-02 0. -1.
    10030    2    1    2    0    0  0.00000000000E+00  0.00000000000E+00 -0.23216534405E+04  0.29970521411E+04  0.18953223575E+04 0.  0.
        4    1    3    3  502    0 -0.14975714281E+03  0.86097373924E+02  0.31259185357E+03  0.35714876374E+03  0.12699999809E+01 0.  1.
       -4    1    3    3    0  502  0.14975714281E+03 -0.86097373924E+02 -0.26342452940E+04  0.26399033773E+04  0.12699999809E+01 0. -1.
</event>
<event>
 5   0  0.1782613E-04  0.1908261E+04  0.7818609E-02  0.8650755E-01
       -1   -1    0    0    0  501  0.00000000000E+00  0.00000000000E+00  0.93603253276E+03  0.93603253277E+03  0.50400001928E-02 0. -1.
        1   -1    0    0  501    0  0.00000000000E+00  0.00000000000E+00 -0.97257850076E+03  0.97257850077E+03  0.50400001928E-02 0.  1.
    10030    2    1    2    0    0  0.00000000000E+00  0.00000000000E+00 -0.36545968002E+02  0.19086110335E+04  0.19082611115E+04 0.  0.
        3    1    3    3  502    0  0.14573254999E+03 -0.93984974476E+03  0.57961648342E+02  0.95284578067E+03  0.10100000352E+00 0. -1.
       -3    1    3    3    0  502 -0.14573254999E+03  0.93984974476E+03 -0.94507616344E+02  0.95576525288E+03  0.10100000352E+00 0.  1.
</event>
<event>
 5   0  0.1711979E-04  0.1946480E+04  0.7818609E-02  0.8632060E-01
       -1   -1    0    0    0  501  0.00000000000E+00  0.00000000000E+00  0.78791072837E+03  0.78791072839E+03  0.50400001928E-02 0. -1.
        1   -1    0    0  501    0  0.00000000000E+00  0.00000000000E+00 -0.12021620511E+04  0.12021620511E+04  0.50400001928E-02 0.  1.
    10030    2    1    2    0    0  0.00000000000E+00  0.00000000000E+00 -0.41425132274E+03  0.19900727795E+04  0.19464802874E+04 0.  0.
        4    1    3    3  502    0 -0.38531962231E+02 -0.53150285381E+03  0.62549281490E+03  0.82171945950E+03  0.12699999809E+01 0. -1.
       -4    1    3    3    0  502  0.38531962231E+02  0.53150285381E+03 -0.10397441376E+04  0.11683533200E+04  0.12699999809E+01 0.  1.
</event>
<event>
 5   0  0.3623359E-04  0.1894749E+04  0.7818609E-02  0.8657475E-01
        2   -1    0    0  501    0  0.00000000000E+00  0.00000000000E+00  0.20296845945E+04  0.20296845945E+04  0.25500000920E-02 0.  1.
       -2   -1    0    0    0  501  0.00000000000E+00  0.00000000000E+00 -0.44219578855E+03  0.44219578856E+03  0.25500000920E-02 0. -1.
    10030    2    1    2    0    0  0.00000000000E+00  0.00000000000E+00  0.15874888059E+04  0.24718803831E+04  0.18947485108E+04 0.  0.
        5    1    3    3  502    0  0.13111776135E+03  0.65903716085E+03  0.16649700822E+04  0.17954579670E+04  0.46999998093E+01 0.  1.
       -5    1    3    3    0  502 -0.13111776135E+03 -0.65903716085E+03 -0.77481276275E+02  0.67642241602E+03  0.46999998093E+01 0. -1.
</event>
<event>
 5   0  0.1711979E-04  0.1799867E+04  0.7818609E-02  0.8706370E-01
       -1   -1    0    0    0  501  0.00000000000E+00  0.00000000000E+00  0.84565519496E+03  0.84565519498E+03  0.50400001928E-02 0. -1.
        1   -1    0    0  501    0  0.00000000000E+00  0.00000000000E+00 -0.95769553680E+03  0.95769553681E+03  0.50400001928E-02 0.  1.
    10030    2    1    2    0    0  0.00000000000E+00  0.00000000000E+00 -0.11204034183E+03  0.18033507318E+04  0.17998668905E+04 0.  0.
        4    1    3    3  502    0 -0.58886006074E+03 -0.58145577391E+03 -0.41030268288E+03  0.92368657705E+03  0.12699999809E+01 0.  1.
       -4    1    3    3    0  502  0.58886006074E+03  0.58145577391E+03  0.29826234104E+03  0.87966415474E+03  0.12699999809E+01 0. -1.
</event>
<event>
 5   0  0.1758946E-04  0.1891309E+04  0.7818609E-02  0.8659194E-01
        1   -1    0    0  501    0  0.00000000000E+00  0.00000000000E+00  0.94128761367E+03  0.94128761368E+03  0.50400001928E-02 0. -1.
       -1   -1    0    0    0  501  0.00000000000E+00  0.00000000000E+00 -0.95004197044E+03  0.95004197046E+03  0.50400001928E-02 0.  1.
    10030    2    1    2    0    0  0.00000000000E+00  0.00000000000E+00 -0.87543567785E+01  0.18913295841E+04  0.18913093235E+04 0.  0.
        2    1    3    3  502    0  0.34496152585E+03  0.88068050891E+02 -0.88046207571E+03  0.94971990749E+03  0.25500000920E-02 0.  1.
       -2    1    3    3    0  502 -0.34496152585E+03 -0.88068050891E+02  0.87170771894E+03  0.94160967665E+03  0.25500000920E-02 0. -1.
</event>
<event>
 5   0  0.1813834E-04  0.1997697E+04  0.7818609E-02  0.8607698E-01
        1   -1    0    0  501    0  0.00000000000E+00  0.00000000000E+00  0.54624333331E+03  0.54624333333E+03  0.50400001928E-02 0. -1.
       -1   -1    0    0    0  501  0.00000000000E+00  0.00000000000E+00 -0.18264715305E+04  0.18264715305E+04  0.50400001928E-02 0.  1.
    10030    2    1    2    0    0  0.00000000000E+00  0.00000000000E+00 -0.12802281972E+04  0.23727148638E+04  0.19976965706E+04 0.  0.
        5    1    3    3  502    0  0.60016886265E+03  0.31659561609E+03 -0.15106773734E+04  0.16560808145E+04  0.46999998093E+01 0.  1.
       -5    1    3    3    0  502 -0.60016886265E+03 -0.31659561609E+03  0.23044917619E+03  0.71663404931E+03  0.46999998093E+01 0. -1.
</event>
<event>
 5   0  0.3535876E-04  0.1894854E+04  0.7818609E-02  0.8657422E-01
       -2   -1    0    0    0  501  0.00000000000E+00  0.00000000000E+00  0.74506509691E+03  0.74506509692E+03  0.25500000920E-02 0. -1.
        2   -1    0    0  501    0  0.00000000000E+00  0.00000000000E+00 -0.12047509963E+04  0.12047509963E+04  0.25500000920E-02 0.  1.
    10030    2    1    2    0    0  0.00000000000E+00  0.00000000000E+00 -0.45968589939E+03  0.19498160932E+04  0.18948539974E+04 0.  0.
        2    1    3    3  502    0  0.48611939603E+03 -0.71683320615E+03 -0.62498125271E+03  0.10680652971E+04  0.25500000920E-02 0.  1.
       -2    1    3    3    0  502 -0.48611939603E+03  0.71683320615E+03  0.16529535331E+03  0.88175079613E+03  0.25500000920E-02 0. -1.
</event>
<event>
 5   0  0.3516539E-04  0.1922612E+04  0.7818609E-02  0.8643682E-01
       -2   -1    0    0    0  501  0.00000000000E+00  0.00000000000E+00  0.15200334089E+04  0.15200334089E+04  0.25500000920E-02 0. -1.
        2   -1    0    0  501    0  0.00000000000E+00  0.00000000000E+00 -0.60795294661E+03  0.60795294661E+03  0.25500000920E-02 0.  1.
    10030    2    1    2    0    0  0.00000000000E+00  0.00000000000E+00  0.91208046230E+03  0.21279863555E+04  0.19226115467E+04 0.  0.
        4    1    3    3  502    0 -0.15136509056E+03 -0.79452328123E+02  0.15030734228E+04  0.15127641555E+04  0.12699999809E+01 0. -1.
       -4    1    3    3    0  502  0.15136509056E+03  0.79452328123E+02 -0.59099296050E+03  0.61522219997E+03  0.12699999809E+01 0.  1.
</event>
<event>
 5   0  0.3459485E-04  0.1881607E+04  0.7818609E-02  0.8664066E-01
        2   -1    0    0  501    0  0.00000000000E+00  0.00000000000E+00  0.98053582211E+03  0.98053582211E+03  0.25500000920E-02 0. -1.
       -2   -1    0    0    0  501  0.00000000000E+00  0.00000000000E+00 -0.90268157874E+03  0.90268157874E+03  0.25500000920E-02 0.  1.
    10030    2    1    2    0    0  0.00000000000E+00  0.00000000000E+00  0.77854243373E+02  0.18832174009E+04  0.18816074234E+04 0.  0.
        3    1    3    3  502    0  0.43984033656E+02 -0.41201478090E+03 -0.80643802020E+03  0.90666039151E+03  0.10100000352E+00 0.  1.
       -3    1    3    3    0  502 -0.43984033656E+02  0.41201478090E+03  0.88429226358E+03  0.97655700935E+03  0.10100000352E+00 0. -1.
</event>
<event>
 5   0  0.1711979E-04  0.1911625E+04  0.7818609E-02  0.8649091E-01
       -1   -1    0    0    0  501  0.00000000000E+00  0.00000000000E+00  0.70194318659E+03  0.70194318661E+03  0.50400001928E-02 0. -1.
        1   -1    0    0  501    0  0.00000000000E+00  0.00000000000E+00 -0.13014982989E+04  0.13014982989E+04  0.50400001928E-02 0.  1.
    10030    2    1    2    0    0  0.00000000000E+00  0.00000000000E+00 -0.59955511227E+03  0.20034414855E+04  0.19116253433E+04 0.  0.
        4    1    3    3  502    0 -0.17901596887E+03 -0.41855755978E+03  0.58102893710E+03  0.73812829956E+03  0.12699999809E+01 0. -1.
       -4    1    3    3    0  502  0.17901596887E+03  0.41855755978E+03 -0.11805840494E+04  0.12653131859E+04  0.12699999809E+01 0.  1.
</event>
<event>
 5   0  0.1782613E-04  0.1885879E+04  0.7818609E-02  0.8661917E-01
       -1   -1    0    0    0  501  0.00000000000E+00  0.00000000000E+00  0.64728950492E+03  0.64728950494E+03  0.50400001928E-02 0. -1.
        1   -1    0    0  501    0  0.00000000000E+00  0.00000000000E+00 -0.13736280064E+04  0.13736280064E+04  0.50400001928E-02 0.  1.
    10030    2    1    2    0    0  0.00000000000E+00  0.00000000000E+00 -0.72633850146E+03  0.20209175113E+04  0.18858790971E+04 0.  0.
        3    1    3    3  502    0 -0.70068525145E+03  0.30575848887E+03  0.22834012965E+03  0.79786421159E+03  0.10100000352E+00 0. -1.
       -3    1    3    3    0  502  0.70068525145E+03 -0.30575848887E+03 -0.95467863111E+03  0.12230532997E+04  0.10100000352E+00 0.  1.
</event>
<event>
 5   0  0.1813834E-04  0.1894505E+04  0.7818609E-02  0.8657597E-01
        1   -1    0    0  501    0  0.00000000000E+00  0.00000000000E+00  0.10435053221E+04  0.10435053221E+04  0.50400001928E-02 0.  1.
       -1   -1    0    0    0  501  0.00000000000E+00  0.00000000000E+00 -0.85987780052E+03  0.85987780054E+03  0.50400001928E-02 0. -1.
    10030    2    1    2    0    0  0.00000000000E+00  0.00000000000E+00  0.18362752156E+03  0.19033831226E+04  0.18945047492E+04 0.  0.
        5    1    3    3  502    0 -0.31878985625E+03 -0.70105362435E+03  0.64590701255E+03  0.10051473104E+04  0.46999998093E+01 0.  1.
       -5    1    3    3    0  502  0.31878985625E+03  0.70105362435E+03 -0.46227949099E+03  0.89823581227E+03  0.46999998093E+01 0. -1.
</event>
<event>
 5   0  0.1813834E-04  0.1894043E+04  0.7818609E-02  0.8657827E-01
        1   -1    0    0  501    0  0.00000000000E+00  0.00000000000E+00  0.12209593989E+04  0.12209593989E+04  0.50400001928E-02 0. -1.
       -1   -1    0    0    0  501  0.00000000000E+00  0.00000000000E+00 -0.73454513787E+03  0.73454513788E+03  0.50400001928E-02 0.  1.
    10030    2    1    2    0    0  0.00000000000E+00  0.00000000000E+00  0.48641426106E+03  0.19555045368E+04  0.18940430724E+04 0.  0.
        5    1    3    3  502    0 -0.88294732069E+02  0.14022644633E+03 -0.71944831748E+03  0.73830033691E+03  0.46999998093E+01 0.  1.
       -5    1    3    3    0  502  0.88294732069E+02 -0.14022644633E+03  0.12058625785E+04  0.12172041999E+04  0.46999998093E+01 0. -1.
</event>
<event>
 5   0  0.3535876E-04  0.1918342E+04  0.7818609E-02  0.8645780E-01
        2   -1    0    0  501    0  0.00000000000E+00  0.00000000000E+00  0.64614982298E+03  0.64614982299E+03  0.25500000920E-02 0. -1.
       -2   -1    0    0    0  501  0.00000000000E+00  0.00000000000E+00 -0.14238318786E+04  0.14238318786E+04  0.25500000920E-02 0.  1.
    10030    2    1    2    0    0  0.00000000000E+00  0.00000000000E+00 -0.77768205559E+03  0.20699817016E+04  0.19183416967E+04 0.  0.
        2    1    3    3  502    0 -0.34395885066E+03 -0.65627697138E+02 -0.13523971826E+04  0.13969942108E+04  0.25500000920E-02 0.  1.
       -2    1    3    3    0  502  0.34395885066E+03  0.65627697138E+02  0.57471512696E+03  0.67298749078E+03  0.25500000920E-02 0. -1.
</event>
<event>
 5   0  0.3535876E-04  0.1780816E+04  0.7818609E-02  0.8716568E-01
        2   -1    0    0  501    0  0.00000000000E+00  0.00000000000E+00  0.10509741412E+04  0.10509741412E+04  0.25500000920E-02 0.  1.
       -2   -1    0    0    0  501  0.00000000000E+00  0.00000000000E+00 -0.75437327706E+03  0.75437327706E+03  0.25500000920E-02 0. -1.
    10030    2    1    2    0    0  0.00000000000E+00  0.00000000000E+00  0.29660086418E+03  0.18053474183E+04  0.17808164499E+04 0.  0.
        2    1    3    3  502    0  0.23761567558E+03  0.36322164056E+03 -0.63986369047E+03  0.77318607840E+03  0.25500000920E-02 0. -1.
       -2    1    3    3    0  502 -0.23761567558E+03 -0.36322164056E+03  0.93646455465E+03  0.10321613399E+04  0.25500000920E-02 0.  1.
</event>
<event>
 5   0  0.1782613E-04  0.1835788E+04  0.7818609E-02  0.8687496E-01
        1   -1    0    0  501    0  0.00000000000E+00  0.00000000000E+00  0.24212508353E+04  0.24212508353E+04  0.50400001928E-02 0. -1.
       -1   -1    0    0    0  501  0.00000000000E+00  0.00000000000E+00 -0.34797282173E+03  0.34797282177E+03  0.50400001928E-02 0.  1.
    10030    2    1    2    0    0  0.00000000000E+00  0.00000000000E+00  0.20732780135E+04  0.27692236571E+04  0.18357880982E+04 0.  0.
        3    1    3    3  502    0 -0.37622414519E+03  0.74545548022E+03  0.46167602312E+03  0.95414529341E+03  0.10100000352E+00 0.  1.
       -3    1    3    3    0  502  0.37622414519E+03 -0.74545548022E+03  0.16116019904E+04  0.18150783636E+04  0.10100000352E+00 0. -1.
</event>
<event>
 5   0  0.1694830E-04  0.1874628E+04  0.7818609E-02  0.8667589E-01
        1   -1    0    0  501    0  0.00000000000E+00  0.00000000000E+00  0.19501430177E+04  0.19501430177E+04  0.50400001928E-02 0. -1.
       -1   -1    0    0    0  501  0.00000000000E+00  0.00000000000E+00 -0.45050950657E+03  0.45050950660E+03  0.50400001928E-02 0.  1.
    10030    2    1    2    0    0  0.00000000000E+00  0.00000000000E+00  0.14996335111E+04  0.24006525243E+04  0.18746284631E+04 0.  0.
        1    1    3    3  502    0  0.57725411473E+03 -0.55295480360E+03  0.12300615479E+03  0.80877181080E+03  0.50400001928E-02 0.  1.
       -1    1    3    3    0  502 -0.57725411473E+03  0.55295480360E+03  0.13766273563E+04  0.15918807135E+04  0.50400001928E-02 0. -1.
</event>
<event>
 5   0  0.3720978E-04  0.1804916E+04  0.7818609E-02  0.8703690E-01
        2   -1    0    0  501    0  0.00000000000E+00  0.00000000000E+00  0.60075206009E+03  0.60075206009E+03  0.25500000920E-02 0. -1.
       -2   -1    0    0    0  501  0.00000000000E+00  0.00000000000E+00 -0.13556840977E+04  0.13556840977E+04  0.25500000920E-02 0.  1.
    10030    2    1    2    0    0  0.00000000000E+00  0.00000000000E+00 -0.75493203760E+03  0.19564361578E+04  0.18049155266E+04 0.  0.
        1    1    3    3  502    0  0.28320810601E+03  0.76940363263E+03 -0.78627605985E+03  0.11359660310E+04  0.50400001928E-02 0.  1.
       -1    1    3    3    0  502 -0.28320810601E+03 -0.76940363263E+03  0.31344022258E+02  0.82047012680E+03  0.50400001928E-02 0. -1.
</event>
<event>
 5   0  0.3623359E-04  0.1920493E+04  0.7818609E-02  0.8644723E-01
       -2   -1    0    0    0  501  0.00000000000E+00  0.00000000000E+00  0.76239239435E+03  0.76239239435E+03  0.25500000920E-02 0.  1.
        2   -1    0    0  501    0  0.00000000000E+00  0.00000000000E+00 -0.12094469079E+04  0.12094469079E+04  0.25500000920E-02 0. -1.
    10030    2    1    2    0    0  0.00000000000E+00  0.00000000000E+00 -0.44705451356E+03  0.19718393023E+04  0.19204927742E+04 0.  0.
        5    1    3    3  502    0  0.88310907754E+03  0.17338591447E+03 -0.56730254599E+03  0.10638602290E+04  0.46999998093E+01 0.  1.
       -5    1    3    3    0  502 -0.88310907754E+03 -0.17338591447E+03  0.12024803243E+03  0.90797907325E+03  0.46999998093E+01 0. -1.
</event>
<event>
 5   0  0.1758946E-04  0.1856109E+04  0.7818609E-02  0.8677018E-01
        1   -1    0    0  501    0  0.00000000000E+00  0.00000000000E+00  0.14640776273E+04  0.14640776274E+04  0.50400001928E-02 0. -1.
       -1   -1    0    0    0  501  0.00000000000E+00  0.00000000000E+00 -0.58827824229E+03  0.58827824231E+03  0.50400001928E-02 0.  1.
    10030    2    1    2    0    0  0.00000000000E+00  0.00000000000E+00  0.87579938506E+03  0.20523558697E+04  0.18561088473E+04 0.  0.
        2    1    3    3  502    0  0.67238208568E+03 -0.29519892291E+02  0.11444569856E+04  0.13276862901E+04  0.25500000920E-02 0. -1.
       -2    1    3    3    0  502 -0.67238208568E+03  0.29519892291E+02 -0.26865760050E+03  0.72466957953E+03  0.25500000920E-02 0.  1.
</event>
<event>
 5   0  0.1758946E-04  0.1587968E+04  0.7818609E-02  0.8827974E-01
       -1   -1    0    0    0  501  0.00000000000E+00  0.00000000000E+00  0.41590567004E+03  0.41590567007E+03  0.50400001928E-02 0.  1.
        1   -1    0    0  501    0  0.00000000000E+00  0.00000000000E+00 -0.15157546557E+04  0.15157546557E+04  0.50400001928E-02 0. -1.
    10030    2    1    2    0    0  0.00000000000E+00  0.00000000000E+00 -0.10998489856E+04  0.19316603257E+04  0.15879684578E+04 0.  0.
        2    1    3    3  502    0  0.15635023554E+03 -0.66388333879E+03 -0.55470287751E+02  0.68429776889E+03  0.25500000920E-02 0.  1.
       -2    1    3    3    0  502 -0.15635023554E+03  0.66388333879E+03 -0.10443786979E+04  0.12473625569E+04  0.25500000920E-02 0. -1.
</event>
<event>
 5   0  0.1782613E-04  0.1891140E+04  0.7818609E-02  0.8659279E-01
        1   -1    0    0  501    0  0.00000000000E+00  0.00000000000E+00  0.16534435326E+04  0.16534435326E+04  0.50400001928E-02 0. -1.
       -1   -1    0    0    0  501  0.00000000000E+00  0.00000000000E+00 -0.54075205356E+03  0.54075205358E+03  0.50400001928E-02 0.  1.
    10030    2    1    2    0    0  0.00000000000E+00  0.00000000000E+00  0.11126914790E+04  0.21941955862E+04  0.18911403816E+04 0.  0.
        3    1    3    3  502    0 -0.21594562473E+03 -0.51468410218E+03  0.14419218697E+04  0.15461794612E+04  0.10100000352E+00 0. -1.
       -3    1    3    3    0  502  0.21594562473E+03  0.51468410218E+03 -0.32923039064E+03  0.64801612495E+03  0.10100000352E+00 0.  1.
</event>
<event>
 5   0  0.3459485E-04  0.1774598E+04  0.7818609E-02  0.8719926E-01
       -2   -1    0    0    0  501  0.00000000000E+00  0.00000000000E+00  0.63209892493E+03  0.63209892494E+03  0.25500000920E-02 0. -1.
        2   -1    0    0  501    0  0.00000000000E+00  0.00000000000E+00 -0.12455314380E+04  0.12455314380E+04  0.25500000920E-02 0.  1.
    10030    2    1    2    0    0  0.00000000000E+00  0.00000000000E+00 -0.61343251309E+03  0.18776303630E+04  0.17745975126E+04 0.  0.
        3    1    3    3  502    0 -0.75161025556E+03 -0.20573210281E+03  0.14224958962E+03  0.79213548736E+03  0.10100000352E+00 0.  1.
       -3    1    3    3    0  502  0.75161025556E+03  0.20573210281E+03 -0.75568210272E+03  0.10854948756E+04  0.10100000352E+00 0. -1.
</event>
<event>
 5   0  0.1813834E-04  0.1938069E+04  0.7818609E-02  0.8636136E-01
       -1   -1    0    0    0  501  0.00000000000E+00  0.00000000000E+00  0.15903018177E+04  0.15903018177E+04  0.50400001928E-02 0.  1.
        1   -1    0    0  501    0  0.00000000000E+00  0.00000000000E+00 -0.59047151689E+03  0.59047151692E+03  0.50400001928E-02 0. -1.
    10030    2    1    2    0    0  0.00000000000E+00  0.00000000000E+00  0.99983030080E+03  0.21807733346E+04  0.19380690665E+04 0.  0.
        5    1    3    3  502    0  0.98459235770E+02 -0.65296143100E+03  0.12979189761E+04  0.14562515614E+04  0.46999998093E+01 0.  1.
       -5    1    3    3    0  502 -0.98459235770E+02  0.65296143100E+03 -0.29808867534E+03  0.72452177321E+03  0.46999998093E+01 0. -1.
</event>
<event>
 5   0  0.1758946E-04  0.1926516E+04  0.7818609E-02  0.8641769E-01
       -1   -1    0    0    0  501  0.00000000000E+00  0.00000000000E+00  0.58790299599E+03  0.58790299601E+03  0.50400001928E-02 0.  1.
        1   -1    0    0  501    0  0.00000000000E+00  0.00000000000E+00 -0.15782633665E+04  0.15782633665E+04  0.50400001928E-02 0. -1.
    10030    2    1    2    0    0  0.00000000000E+00  0.00000000000E+00 -0.99036037051E+03  0.21661663625E+04  0.19265157790E+04 0.  0.
        2    1    3    3  502    0 -0.91888115138E+03  0.27313390726E+03 -0.60138090676E+03  0.11316376172E+04  0.25500000920E-02 0. -1.
       -2    1    3    3    0  502  0.91888115138E+03 -0.27313390726E+03 -0.38897946375E+03  0.10345287453E+04  0.25500000920E-02 0.  1.
</event>
<event>
 5   0  0.3459485E-04  0.1884959E+04  0.7818609E-02  0.8662380E-01
        2   -1    0    0  501    0  0.00000000000E+00  0.00000000000E+00  0.16883369598E+04  0.16883369598E+04  0.25500000920E-02 0. -1.
       -2   -1    0    0    0  501  0.00000000000E+00  0.00000000000E+00 -0.52611997649E+03  0.52611997650E+03  0.25500000920E-02 0.  1.
    10030    2    1    2    0    0  0.00000000000E+00  0.00000000000E+00  0.11622169833E+04  0.22144569363E+04  0.18849592055E+04 0.  0.
        3    1    3    3  502    0 -0.26478593417E+03  0.69749128349E+03 -0.95462250637E+02  0.75214276103E+03  0.10100000352E+00 0.  1.
       -3    1    3    3    0  502  0.26478593417E+03 -0.69749128349E+03  0.12576792339E+04  0.14623141752E+04  0.10100000352E+00 0. -1.
</event>
<event>
 5   0  0.3623359E-04  0.1608889E+04  0.7818609E-02  0.8815106E-01
        2   -1    0    0  501    0  0.00000000000E+00  0.00000000000E+00  0.43483750428E+03  0.43483750429E+03  0.25500000920E-02 0. -1.
       -2   -1    0    0    0  501  0.00000000000E+00  0.00000000000E+00 -0.14882132376E+04  0.14882132376E+04  0.25500000920E-02 0.  1.
    10030    2    1    2    0    0  0.00000000000E+00  0.00000000000E+00 -0.10533757333E+04  0.19230507419E+04  0.16088889708E+04 0.  0.
        5    1    3    3  502    0 -0.50554875316E+03 -0.49296808775E+03 -0.66065422286E+02  0.70921351326E+03  0.46999998093E+01 0. -1.
       -5    1    3    3    0  502  0.50554875316E+03  0.49296808775E+03 -0.98731031103E+03  0.12138372286E+04  0.46999998093E+01 0.  1.
</event>
<event>
 5   0  0.3623359E-04  0.1891659E+04  0.7818609E-02  0.8659019E-01
        2   -1    0    0  501    0  0.00000000000E+00  0.00000000000E+00  0.16109819509E+04  0.16109819509E+04  0.25500000920E-02 0.  1.
       -2   -1    0    0    0  501  0.00000000000E+00  0.00000000000E+00 -0.55530955058E+03  0.55530955058E+03  0.25500000920E-02 0. -1.
    10030    2    1    2    0    0  0.00000000000E+00  0.00000000000E+00  0.10556724003E+04  0.21662915015E+04  0.18916592327E+04 0.  0.
        5    1    3    3  502    0  0.45897436643E+03 -0.78691046475E+03  0.81909511177E+03  0.12250814017E+04  0.46999998093E+01 0. -1.
       -5    1    3    3    0  502 -0.45897436643E+03  0.78691046475E+03  0.23657728858E+03  0.94121009984E+03  0.46999998093E+01 0.  1.
</event>
<event>
 5   0  0.3623359E-04  0.1899596E+04  0.7818609E-02  0.8655057E-01
       -2   -1    0    0    0  501  0.00000000000E+00  0.00000000000E+00  0.32699149676E+03  0.32699149677E+03  0.25500000920E-02 0.  1.
        2   -1    0    0  501    0  0.00000000000E+00  0.00000000000E+00 -0.27588382887E+04  0.27588382887E+04  0.25500000920E-02 0. -1.
    10030    2    1    2    0    0  0.00000000000E+00  0.00000000000E+00 -0.24318467920E+04  0.30858297855E+04  0.18995964428E+04 0.  0.
        5    1    3    3  502    0  0.55813875440E+03  0.11286847447E+03  0.18923375900E+02  0.56977043258E+03  0.46999998093E+01 0.  1.
       -5    1    3    3    0  502 -0.55813875440E+03 -0.11286847447E+03 -0.24507701679E+04  0.25160593529E+04  0.46999998093E+01 0. -1.
</event>
<event>
 5   0  0.3535876E-04  0.1885033E+04  0.7818609E-02  0.8662343E-01
        2   -1    0    0  501    0  0.00000000000E+00  0.00000000000E+00  0.15488748253E+04  0.15488748253E+04  0.25500000920E-02 0. -1.
       -2   -1    0    0    0  501  0.00000000000E+00  0.00000000000E+00 -0.57353693768E+03  0.57353693768E+03  0.25500000920E-02 0.  1.
    10030    2    1    2    0    0  0.00000000000E+00  0.00000000000E+00  0.97533788766E+03  0.21224117630E+04  0.18850325453E+04 0.  0.
        2    1    3    3  502    0 -0.76294709728E+03 -0.52747190707E+03  0.67614693807E+03  0.11478194840E+04  0.25500000920E-02 0. -1.
       -2    1    3    3    0  502  0.76294709728E+03  0.52747190707E+03  0.29919094958E+03  0.97459227901E+03  0.25500000920E-02 0.  1.
</event>
<event>
 5   0  0.3516539E-04  0.1999254E+04  0.7818609E-02  0.8606970E-01
       -2   -1    0    0    0  501  0.00000000000E+00  0.00000000000E+00  0.59892794222E+03  0.59892794222E+03  0.25500000920E-02 0. -1.
        2   -1    0    0  501    0  0.00000000000E+00  0.00000000000E+00 -0.16684039215E+04  0.16684039215E+04  0.25500000920E-02 0.  1.
    10030    2    1    2    0    0  0.00000000000E+00  0.00000000000E+00 -0.10694759793E+04  0.22673318637E+04  0.19992535882E+04 0.  0.
        4    1    3    3  502    0  0.20133113551E+03  0.78727259327E+03 -0.11949685874E+04  0.14450895820E+04  0.12699999809E+01 0.  1.
       -4    1    3    3    0  502 -0.20133113551E+03 -0.78727259327E+03  0.12549260813E+03  0.82224228171E+03  0.12699999809E+01 0. -1.
</event>
<event>
 5   0  0.3459485E-04  0.1816020E+04  0.7818609E-02  0.8697826E-01
        2   -1    0    0  501    0  0.00000000000E+00  0.00000000000E+00  0.20624890986E+04  0.20624890986E+04  0.25500000920E-02 0. -1.
       -2   -1    0    0    0  501  0.00000000000E+00  0.00000000000E+00 -0.39975115156E+03  0.39975115157E+03  0.25500000920E-02 0.  1.
    10030    2    1    2    0    0  0.00000000000E+00  0.00000000000E+00  0.16627379470E+04  0.24622402501E+04  0.18160202557E+04 0.  0.
        3    1    3    3  502    0  0.89944509023E+03 -0.12358631109E+03  0.81184597642E+03  0.12179363474E+04  0.10100000352E+00 0. -1.
       -3    1    3    3    0  502 -0.89944509023E+03  0.12358631109E+03  0.85089197058E+03  0.12443039028E+04  0.10100000352E+00 0.  1.
</event>
<event>
 5   0  0.3623359E-04  0.1918591E+04  0.7818609E-02  0.8645657E-01
       -2   -1    0    0    0  501  0.00000000000E+00  0.00000000000E+00  0.40669754776E+03  0.40669754777E+03  0.25500000920E-02 0. -1.
        2   -1    0    0  501    0  0.00000000000E+00  0.00000000000E+00 -0.22627330957E+04  0.22627330957E+04  0.25500000920E-02 0.  1.
    10030    2    1    2    0    0  0.00000000000E+00  0.00000000000E+00 -0.18560355480E+04  0.26694306435E+04  0.19185911511E+04 0.  0.
        5    1    3    3  502    0 -0.77521978539E+03  0.56501118451E+03 -0.93462587869E+03  0.13393098885E+04  0.46999998093E+01 0. -1.
       -5    1    3    3    0  502  0.77521978539E+03 -0.56501118451E+03 -0.92140966928E+03  0.13301207550E+04  0.46999998093E+01 0.  1.
</event>
<event>
 5   0  0.3516539E-04  0.1956750E+04  0.7818609E-02  0.8627113E-01
        2   -1    0    0  501    0  0.00000000000E+00  0.00000000000E+00  0.65532738610E+03  0.65532738611E+03  0.25500000920E-02 0.  1.
       -2   -1    0    0    0  501  0.00000000000E+00  0.00000000000E+00 -0.14606703036E+04  0.14606703036E+04  0.25500000920E-02 0. -1.
    10030    2    1    2    0    0  0.00000000000E+00  0.00000000000E+00 -0.80534291751E+03  0.21159976897E+04  0.19567496028E+04 0.  0.
        4    1    3    3  502    0 -0.13272429446E+03  0.10401994634E+03  0.63949311041E+03  0.66135386801E+03  0.12699999809E+01 0.  1.
       -4    1    3    3    0  502  0.13272429446E+03 -0.10401994634E+03 -0.14448360279E+04  0.14546438217E+04  0.12699999809E+01 0. -1.
</event>
<event>
 5   0  0.1287000E-04  0.1899784E+04  0.7818609E-02  0.8654964E-01
       -3   -1    0    0    0  501  0.00000000000E+00  0.00000000000E+00  0.19761342764E+04  0.19761342790E+04  0.10100000352E+00 0. -1.
        3   -1    0    0  501    0  0.00000000000E+00  0.00000000000E+00 -0.45659581467E+03  0.45659582584E+03  0.10100000352E+00 0.  1.
    10030    2    1    2    0    0  0.00000000000E+00  0.00000000000E+00  0.15195384618E+04  0.24327301049E+04  0.18997838367E+04 0.  0.
        3    1    3    3  502    0  0.54807381882E+01  0.94471142646E+03  0.63310074727E+03  0.11372450414E+04  0.10100000352E+00 0.  1.
       -3    1    3    3    0  502 -0.54807381882E+01 -0.94471142646E+03  0.88643771449E+03  0.12954850635E+04  0.10100000352E+00 0. -1.
</event>
<event>
 5   0  0.3720978E-04  0.1652295E+04  0.7818609E-02  0.8789050E-01
       -2   -1    0    0    0  501  0.00000000000E+00  0.00000000000E+00  0.72209668951E+03  0.72209668951E+03  0.25500000920E-02 0. -1.
        2   -1    0    0  501    0  0.00000000000E+00  0.00000000000E+00 -0.94519110655E+03  0.94519110656E+03  0.25500000920E-02 0.  1.
    10030    2    1    2    0    0  0.00000000000E+00  0.00000000000E+00 -0.22309441704E+03  0.16672877961E+04  0.16522946093E+04 0.  0.
        1    1    3    3  502    0 -0.22863811855E+03 -0.79145866108E+03 -0.17405418110E+03  0.84200775498E+03  0.50400001928E-02 0.  1.
       -1    1    3    3    0  502  0.22863811855E+03  0.79145866108E+03 -0.49040235945E+02  0.82528004109E+03  0.50400001928E-02 0. -1.
</event>
<event>
 5   0  0.1758946E-04  0.1944935E+04  0.7818609E-02  0.8632807E-01
        1   -1    0    0  501    0  0.00000000000E+00  0.00000000000E+00  0.17146943860E+04  0.17146943860E+04  0.50400001928E-02 0.  1.
       -1   -1    0    0    0  501  0.00000000000E+00  0.00000000000E+00 -0.55152267807E+03  0.55152267809E+03  0.50400001928E-02 0. -1.
    10030    2    1    2    0    0  0.00000000000E+00  0.00000000000E+00  0.11631717080E+04  0.22662170641E+04  0.19449347957E+04 0.  0.
        2    1    3    3  502    0  0.28594437383E+03  0.29977375150E+03  0.16067301349E+04  0.16592800286E+04  0.25500000920E-02 0.  1.
       -2    1    3    3    0  502 -0.28594437383E+03 -0.29977375150E+03 -0.44355842690E+03  0.60693703553E+03  0.25500000920E-02 0. -1.
</event>
<event>
 5   0  0.3459485E-04  0.1916131E+04  0.7818609E-02  0.8646868E-01
       -2   -1    0    0    0  501  0.00000000000E+00  0.00000000000E+00  0.62172763368E+03  0.62172763369E+03  0.25500000920E-02 0. -1.
        2   -1    0    0  501    0  0.00000000000E+00  0.00000000000E+00 -0.14763537289E+04  0.14763537289E+04  0.25500000920E-02 0.  1.
    10030    2    1    2    0    0  0.00000000000E+00  0.00000000000E+00 -0.85462609526E+03  0.20980813626E+04  0.19161314260E+04 0.  0.
        3    1    3    3  502    0 -0.28502371455E+03  0.61816660968E+03 -0.11655133386E+04  0.13497369476E+04  0.10100000352E+00 0.  1.
       -3    1    3    3    0  502  0.28502371455E+03 -0.61816660968E+03  0.31088724334E+03  0.74834441499E+03  0.10100000352E+00 0. -1.
</event>
<event>
 5   0  0.1711979E-04  0.1814158E+04  0.7818609E-02  0.8698806E-01
       -1   -1    0    0    0  501  0.00000000000E+00  0.00000000000E+00  0.61418380201E+03  0.61418380203E+03  0.50400001928E-02 0.  1.
        1   -1    0    0  501    0  0.00000000000E+00  0.00000000000E+00 -0.13396514838E+04  0.13396514838E+04  0.50400001928E-02 0. -1.
    10030    2    1    2    0    0  0.00000000000E+00  0.00000000000E+00 -0.72546768177E+03  0.19538352858E+04  0.18141579222E+04 0.  0.
        4    1    3    3  502    0 -0.65235984465E+03  0.69585484007E+02  0.31189296091E+03  0.72642572811E+03  0.12699999809E+01 0.  1.
       -4    1    3    3    0  502  0.65235984465E+03 -0.69585484007E+02 -0.10373606427E+04  0.12274095577E+04  0.12699999809E+01 0. -1.
</event>
<event>
 5   0  0.1694830E-04  0.1880500E+04  0.7818609E-02  0.8664624E-01
       -1   -1    0    0    0  501  0.00000000000E+00  0.00000000000E+00  0.72431947676E+03  0.72431947678E+03  0.50400001928E-02 0.  1.
        1   -1    0    0  501    0  0.00000000000E+00  0.00000000000E+00 -0.12205528964E+04  0.12205528964E+04  0.50400001928E-02 0. -1.
    10030    2    1    2    0    0  0.00000000000E+00  0.00000000000E+00 -0.49623341959E+03  0.19448723731E+04  0.18805001838E+04 0.  0.
        1    1    3    3  502    0 -0.60227801556E+03  0.72050330566E+03 -0.29669712312E+03  0.98483145989E+03  0.50400001928E-02 0. -1.
       -1    1    3    3    0  502  0.60227801556E+03 -0.72050330566E+03 -0.19953629646E+03  0.96004091325E+03  0.50400001928E-02 0.  1.
</event>
<event>
 5   0  0.1813834E-04  0.1929411E+04  0.7818609E-02  0.8640354E-01
       -1   -1    0    0    0  501  0.00000000000E+00  0.00000000000E+00  0.46541455613E+03  0.46541455616E+03  0.50400001928E-02 0. -1.
        1   -1    0    0  501    0  0.00000000000E+00  0.00000000000E+00 -0.19996296341E+04  0.19996296341E+04  0.50400001928E-02 0.  1.
    10030    2    1    2    0    0  0.00000000000E+00  0.00000000000E+00 -0.15342150780E+04  0.24650441903E+04  0.19294110383E+04 0.  0.
        5    1    3    3  502    0  0.63531212371E+03 -0.43341177668E+03 -0.15111658850E+04  0.16956154295E+04  0.46999998093E+01 0.  1.
       -5    1    3    3    0  502 -0.63531212371E+03  0.43341177668E+03 -0.23049193014E+02  0.76942876083E+03  0.46999998093E+01 0. -1.
</event>
<event>
 5   0  0.3516539E-04  0.1911219E+04  0.7818609E-02  0.8649292E-01
       -2   -1    0    0    0  501  0.00000000000E+00  0.00000000000E+00  0.87062546301E+03  0.87062546301E+03  0.25500000920E-02 0.  1.
        2   -1    0    0  501    0  0.00000000000E+00  0.00000000000E+00 -0.10488895413E+04  0.10488895413E+04  0.25500000920E-02 0. -1.
    10030    2    1    2    0    0  0.00000000000E+00  0.00000000000E+00 -0.17826407831E+03  0.19195150043E+04  0.19112194459E+04 0.  0.
        4    1    3    3  502    0 -0.30781832662E+03 -0.70259364592E+03 -0.66151655982E+03  0.10129144709E+04  0.12699999809E+01 0. -1.
       -4    1    3    3    0  502  0.30781832662E+03  0.70259364592E+03  0.48325248151E+03  0.90660053346E+03  0.12699999809E+01 0.  1.
</event>
<event>
 5   0  0.1758946E-04  0.1878085E+04  0.7818609E-02  0.8665842E-01
       -1   -1    0    0    0  501  0.00000000000E+00  0.00000000000E+00  0.11607791613E+04  0.11607791613E+04  0.50400001928E-02 0.  1.
        1   -1    0    0  501    0  0.00000000000E+00  0.00000000000E+00 -0.75966288666E+03  0.75966288668E+03  0.50400001928E-02 0. -1.
    10030    2    1    2    0    0  0.00000000000E+00  0.00000000000E+00  0.40111627464E+03  0.19204420480E+04  0.18780850337E+04 0.  0.
        2    1    3    3  502    0  0.64852136797E+03 -0.14991283275E+03  0.87787680809E+03  0.11016902978E+04  0.25500000920E-02 0.  1.
       -2    1    3    3    0  502 -0.64852136797E+03  0.14991283275E+03 -0.47676053345E+03  0.81875175017E+03  0.25500000920E-02 0. -1.
</event>
<event>
 5   0  0.3535876E-04  0.1901593E+04  0.7818609E-02  0.8654064E-01
        2   -1    0    0  501    0  0.00000000000E+00  0.00000000000E+00  0.95472384299E+03  0.95472384300E+03  0.25500000920E-02 0.  1.
       -2   -1    0    0    0  501  0.00000000000E+00  0.00000000000E+00 -0.94688490973E+03  0.94688490973E+03  0.25500000920E-02 0. -1.
    10030    2    1    2    0    0  0.00000000000E+00  0.00000000000E+00  0.78389332645E+01  0.19016087527E+04  0.19015925956E+04 0.  0.
        2    1    3    3  502    0  0.13442842742E+03  0.29961697987E+03 -0.88837297018E+03  0.94712611139E+03  0.25500000920E-02 0. -1.
       -2    1    3    3    0  502 -0.13442842742E+03 -0.29961697987E+03  0.89621190345E+03  0.95448264134E+03  0.25500000920E-02 0.  1.
</event>
<event>
 5   0  0.3720978E-04  0.2006327E+04  0.7818609E-02  0.8603668E-01
        2   -1    0    0  501    0  0.00000000000E+00  0.00000000000E+00  0.19850688294E+04  0.19850688294E+04  0.25500000920E-02 0. -1.
       -2   -1    0    0    0  501  0.00000000000E+00  0.00000000000E+00 -0.50695327406E+03  0.50695327407E+03  0.25500000920E-02 0.  1.
    10030    2    1    2    0    0  0.00000000000E+00  0.00000000000E+00  0.14781155553E+04  0.24920221035E+04  0.20063271342E+04 0.  0.
        1    1    3    3  502    0  0.36157984069E+03  0.64415338284E+03  0.15820859395E+04  0.17460439519E+04  0.50400001928E-02 0. -1.
       -1    1    3    3    0  502 -0.36157984069E+03 -0.64415338284E+03 -0.10397038421E+03  0.74597815158E+03  0.50400001928E-02 0.  1.
</event>
<event>
 5   0  0.3623359E-04  0.1945439E+04  0.7818609E-02  0.8632564E-01
       -2   -1    0    0    0  501  0.00000000000E+00  0.00000000000E+00  0.18941799087E+04  0.18941799088E+04  0.25500000920E-02 0. -1.
        2   -1    0    0  501    0  0.00000000000E+00  0.00000000000E+00 -0.49952105154E+03  0.49952105155E+03  0.25500000920E-02 0.  1.
    10030    2    1    2    0    0  0.00000000000E+00  0.00000000000E+00  0.13946588572E+04  0.23937009603E+04  0.19454385005E+04 0.  0.
        5    1    3    3  502    0 -0.58409216408E+03 -0.55464586222E+03  0.13682904399E+04  0.15877772219E+04  0.46999998093E+01 0. -1.
       -5    1    3    3    0  502  0.58409216408E+03  0.55464586222E+03  0.26368417321E+02  0.80592373836E+03  0.46999998093E+01 0.  1.
</event>
<event>
 5   0  0.1758946E-04  0.1908151E+04  0.7818609E-02  0.8650809E-01
       -1   -1    0    0    0  501  0.00000000000E+00  0.00000000000E+00  0.34807882903E+03  0.34807882906E+03  0.50400001928E-02 0.  1.
        1   -1    0    0  501    0  0.00000000000E+00  0.00000000000E+00 -0.26150988005E+04  0.26150988005E+04  0.50400001928E-02 0. -1.
    10030    2    1    2    0    0  0.00000000000E+00  0.00000000000E+00 -0.22670199715E+04  0.29631776296E+04  0.19081514912E+04 0.  0.
        2    1    3    3  502    0 -0.38310653327E+02  0.37189731776E+03 -0.24966076943E+04  0.25244455432E+04  0.25500000920E-02 0. -1.
       -2    1    3    3    0  502  0.38310653327E+02 -0.37189731776E+03  0.22958772287E+03  0.43873208637E+03  0.25500000920E-02 0.  1.
</event>
<event>
 5   0  0.1711979E-04  0.1917250E+04  0.7818609E-02  0.8646317E-01
       -1   -1    0    0    0  501  0.00000000000E+00  0.00000000000E+00  0.16070098973E+04  0.16070098973E+04  0.50400001928E-02 0.  1.
        1   -1    0    0  501    0  0.00000000000E+00  0.00000000000E+00 -0.57184606308E+03  0.57184606310E+03  0.50400001928E-02 0. -1.
    10030    2    1    2    0    0  0.00000000000E+00  0.00000000000E+00  0.10351638342E+04  0.21788559604E+04  0.19172504094E+04 0.  0.
        4    1    3    3  502    0  0.82939617633E+03 -0.46367162558E+03  0.37351148162E+03  0.10209808193E+04  0.12699999809E+01 0. -1.
       -4    1    3    3    0  502 -0.82939617633E+03  0.46367162558E+03  0.66165235260E+03  0.11578751411E+04  0.12699999809E+01 0.  1.
</event>
<event>
 5   0  0.3516539E-04  0.1865482E+04  0.7818609E-02  0.8672232E-01
        2   -1    0    0  501    0  0.00000000000E+00  0.00000000000E+00  0.15569930122E+04  0.15569930122E+04  0.25500000920E-02 0. -1.
       -2   -1    0    0    0  501  0.00000000000E+00  0.00000000000E+00 -0.55877287979E+03  0.55877287979E+03  0.25500000920E-02 0.  1.
    10030    2    1    2    0    0  0.00000000000E+00  0.00000000000E+00  0.99822013240E+03  0.21157658920E+04  0.18654816742E+04 0.  0.
        4    1    3    3  502    0  0.64154789518E+03 -0.43545341155E+03 -0.88909321145E+02  0.78045490307E+03  0.12699999809E+01 0.  1.
       -4    1    3    3    0  502 -0.64154789518E+03  0.43545341155E+03  0.10871294535E+04  0.13353109889E+04  0.12699999809E+01 0. -1.
</event>
<event>
 5   0  0.3459485E-04  0.1770777E+04  0.7818609E-02  0.8721996E-01
       -2   -1    0    0    0  501  0.00000000000E+00  0.00000000000E+00  0.83605890464E+03  0.83605890464E+03  0.25500000920E-02 0. -1.
        2   -1    0    0  501    0  0.00000000000E+00  0.00000000000E+00 -0.93762917243E+03  0.93762917243E+03  0.25500000920E-02 0.  1.
    10030    2    1    2    0    0  0.00000000000E+00  0.00000000000E+00 -0.10157026779E+03  0.17736880771E+04  0.17707774777E+04 0.  0.
        3    1    3    3  502    0 -0.31820488006E+03 -0.80253164547E+03 -0.24758153557E+03  0.89811358670E+03  0.10100000352E+00 0.  1.
       -3    1    3    3    0  502  0.31820488006E+03  0.80253164547E+03  0.14601126778E+03  0.87557449037E+03  0.10100000352E+00 0. -1.
</event>
<event>
 5   0  0.1694830E-04  0.1774887E+04  0.7818609E-02  0.8719769E-01
       -1   -1    0    0    0  501  0.00000000000E+00  0.00000000000E+00  0.72020738195E+03  0.72020738197E+03  0.50400001928E-02 0. -1.
        1   -1    0    0  501    0  0.00000000000E+00  0.00000000000E+00 -0.10935130545E+04  0.10935130546E+04  0.50400001928E-02 0.  1.
    10030    2    1    2    0    0  0.00000000000E+00  0.00000000000E+00 -0.37330567258E+03  0.18137204365E+04  0.17748872349E+04 0.  0.
        1    1    3    3  502    0 -0.11536252790E+03 -0.63763593850E+03 -0.80627584897E+03  0.10343929851E+04  0.50400001928E-02 0.  1.
       -1    1    3    3    0  502  0.11536252790E+03  0.63763593850E+03  0.43297017639E+03  0.77932745145E+03  0.50400001928E-02 0. -1.
</event>
<event>
 5   0  0.1694830E-04  0.1797433E+04  0.7818609E-02  0.8707666E-01
       -1   -1    0    0    0  501  0.00000000000E+00  0.00000000000E+00  0.75874037166E+03  0.75874037167E+03  0.50400001928E-02 0.  1.
        1   -1    0    0  501    0  0.00000000000E+00  0.00000000000E+00 -0.10645159900E+04  0.10645159900E+04  0.50400001928E-02 0. -1.
    10030    2    1    2    0    0  0.00000000000E+00  0.00000000000E+00 -0.30577561830E+03  0.18232563616E+04  0.17974329004E+04 0.  0.
        1    1    3    3  502    0  0.66762492898E+03  0.51285631860E+03 -0.47196481441E+03  0.96514011180E+03  0.50400001928E-02 0. -1.
       -1    1    3    3    0  502 -0.66762492898E+03 -0.51285631860E+03  0.16618919611E+03  0.85811624985E+03  0.50400001928E-02 0.  1.
</event>
<event>
 5   0  0.1758946E-04  0.1371524E+04  0.7818609E-02  0.8974693E-01
       -1   -1    0    0    0  501  0.00000000000E+00  0.00000000000E+00  0.60069945780E+03  0.60069945783E+03  0.50400001928E-02 0.  1.
        1   -1    0    0  501    0  0.00000000000E+00  0.00000000000E+00 -0.78287020525E+03  0.78287020527E+03  0.50400001928E-02 0. -1.
    10030    2    1    2    0    0  0.00000000000E+00  0.00000000000E+00 -0.18217074744E+03  0.13835696631E+04  0.13715242730E+04 0.  0.
        2    1    3    3  502    0  0.98171610969E+02  0.66236456367E+03  0.58218617037E+02  0.67212639271E+03  0.25500000920E-02 0.  1.
       -2    1    3    3    0  502 -0.98171610969E+02 -0.66236456367E+03 -0.24038936448E+03  0.71144327038E+03  0.25500000920E-02 0. -1.
</event>
<event>
 5   0  0.1758946E-04  0.1923891E+04  0.7818609E-02  0.8643055E-01
        1   -1    0    0  501    0  0.00000000000E+00  0.00000000000E+00  0.85168695424E+03  0.85168695425E+03  0.50400001928E-02 0. -1.
       -1   -1    0    0    0  501  0.00000000000E+00  0.00000000000E+00 -0.10864785341E+04  0.10864785341E+04  0.50400001928E-02 0.  1.
    10030    2    1    2    0    0  0.00000000000E+00  0.00000000000E+00 -0.23479157982E+03  0.19381654883E+04  0.19238914663E+04 0.  0.
        2    1    3    3  502    0  0.24591721464E+03  0.91068043943E+03  0.72484597069E+02  0.94608041732E+03  0.25500000920E-02 0. -1.
       -2    1    3    3    0  502 -0.24591721464E+03 -0.91068043943E+03 -0.30727617689E+03  0.99208507100E+03  0.25500000920E-02 0.  1.
</event>
<event>
 5   0  0.3623359E-04  0.1924116E+04  0.7818609E-02  0.8642945E-01
       -2   -1    0    0    0  501  0.00000000000E+00  0.00000000000E+00  0.77834937093E+03  0.77834937093E+03  0.25500000920E-02 0.  1.
        2   -1    0    0  501    0  0.00000000000E+00  0.00000000000E+00 -0.11891263148E+04  0.11891263148E+04  0.25500000920E-02 0. -1.
    10030    2    1    2    0    0  0.00000000000E+00  0.00000000000E+00 -0.41077694387E+03  0.19674756857E+04  0.19241161286E+04 0.  0.
        5    1    3    3  502    0 -0.56321879053E+03  0.75771781259E+03 -0.16338575015E+02  0.94426729720E+03  0.46999998093E+01 0.  1.
       -5    1    3    3    0  502  0.56321879053E+03 -0.75771781259E+03 -0.39443836886E+03  0.10232083885E+04  0.46999998093E+01 0. -1.
</event>
<event>
 5   0  0.1813834E-04  0.1868107E+04  0.7818609E-02  0.8670896E-01
       -1   -1    0    0    0  501  0.00000000000E+00  0.00000000000E+00  0.65797552756E+03  0.65797552758E+03  0.50400001928E-02 0.  1.
        1   -1    0    0  501    0  0.00000000000E+00  0.00000000000E+00 -0.13259708165E+04  0.13259708165E+04  0.50400001928E-02 0. -1.
    10030    2    1    2    0    0  0.00000000000E+00  0.00000000000E+00 -0.66799528896E+03  0.19839463441E+04  0.18681074354E+04 0.  0.
        5    1    3    3  502    0 -0.69407194661E+03 -0.11627045324E+02  0.32970528558E+03  0.76850420987E+03  0.46999998093E+01 0.  1.
       -5    1    3    3    0  502  0.69407194661E+03  0.11627045324E+02 -0.99770057453E+03  0.12154421342E+04  0.46999998093E+01 0. -1.
</event>
<event>
 5   0  0.1782613E-04  0.2028759E+04  0.7818609E-02  0.8593292E-01
        1   -1    0    0  501    0  0.00000000000E+00  0.00000000000E+00  0.25941491017E+04  0.25941491017E+04  0.50400001928E-02 0. -1.
       -1   -1    0    0    0  501  0.00000000000E+00  0.00000000000E+00 -0.39664864887E+03  0.39664864890E+03  0.50400001928E-02 0.  1.
    10030    2    1    2    0    0  0.00000000000E+00  0.00000000000E+00  0.21975004528E+04  0.29907977506E+04  0.20287589667E+04 0.  0.
        3    1    3    3  502    0 -0.47951988858E+03  0.23743929602E+03  0.23691733454E+04  0.24288472767E+04  0.10100000352E+00 0. -1.
       -3    1    3    3    0  502  0.47951988858E+03 -0.23743929602E+03 -0.17167289259E+03  0.56195047387E+03  0.10100000352E+00 0.  1.
</event>
<event>
 5   0  0.1813834E-04  0.1901642E+04  0.7818609E-02  0.8654039E-01
        1   -1    0    0  501    0  0.00000000000E+00  0.00000000000E+00  0.81241269169E+03  0.81241269171E+03  0.50400001928E-02 0. -1.
       -1   -1    0    0    0  501  0.00000000000E+00  0.00000000000E+00 -0.11128099877E+04  0.11128099877E+04  0.50400001928E-02 0.  1.
    10030    2    1    2    0    0  0.00000000000E+00  0.00000000000E+00 -0.30039729600E+03  0.19252226794E+04  0.19016424033E+04 0.  0.
        5    1    3    3  502    0 -0.91652715799E+03  0.25296725232E+03 -0.14519720926E+03  0.96183095275E+03  0.46999998093E+01 0.  1.
       -5    1    3    3    0  502  0.91652715799E+03 -0.25296725232E+03 -0.15520008675E+03  0.96339172667E+03  0.46999998093E+01 0. -1.
</event>
<event>
 5   0  0.1694830E-04  0.1881364E+04  0.7818609E-02  0.8664189E-01
       -1   -1    0    0    0  501  0.00000000000E+00  0.00000000000E+00  0.12082150484E+04  0.12082150484E+04  0.50400001928E-02 0. -1.
        1   -1    0    0  501    0  0.00000000000E+00  0.00000000000E+00 -0.73238824781E+03  0.73238824783E+03  0.50400001928E-02 0.  1.
    10030    2    1    2    0    0  0.00000000000E+00  0.00000000000E+00  0.47582680059E+03  0.19406032962E+04  0.18813638694E+04 0.  0.
        1    1    3    3  502    0 -0.20306759541E+03 -0.60084073667E+03 -0.47868202314E+03  0.79459582081E+03  0.50400001928E-02 0.  1.
       -1    1    3    3    0  502  0.20306759541E+03  0.60084073667E+03  0.95450882373E+03  0.11460074754E+04  0.50400001928E-02 0. -1.
</event>
<event>
 5   0  0.3535876E-04  0.1892353E+04  0.7818609E-02  0.8658672E-01
        2   -1    0    0  501    0  0.00000000000E+00  0.00000000000E+00  0.22376999916E+04  0.22376999916E+04  0.25500000920E-02 0.  1.
       -2   -1    0    0    0  501  0.00000000000E+00  0.00000000000E+00 -0.40007578517E+03  0.40007578518E+03  0.25500000920E-02 0. -1.
    10030    2    1    2    0    0  0.00000000000E+00  0.00000000000E+00  0.18376242065E+04  0.26377757768E+04  0.18923525899E+04 0.  0.
        2    1    3    3  502    0  0.46802900074E+03  0.64444089490E+03  0.20683148830E+03  0.82288181236E+03  0.25500000920E-02 0. -1.
       -2    1    3    3    0  502 -0.46802900074E+03 -0.64444089490E+03  0.16307927182E+04  0.18148939644E+04  0.25500000920E-02 0.  1.
</event>
<event>
 5   0  0.3720978E-04  0.1757748E+04  0.7818609E-02  0.8729097E-01
        2   -1    0    0  501    0  0.00000000000E+00  0.00000000000E+00  0.24865119069E+04  0.24865119069E+04  0.25500000920E-02 0. -1.
       -2   -1    0    0    0  501  0.00000000000E+00  0.00000000000E+00 -0.31064373487E+03  0.31064373488E+03  0.25500000920E-02 0.  1.
    10030    2    1    2    0    0  0.00000000000E+00  0.00000000000E+00  0.21758681720E+04  0.27971556418E+04  0.17577478153E+04 0.  0.
        1    1    3    3  502    0 -0.29971195884E+03 -0.26662823397E+03  0.23323306952E+04  0.23665765032E+04  0.50400001928E-02 0. -1.
       -1    1    3    3    0  502  0.29971195884E+03  0.26662823397E+03 -0.15646252320E+03  0.43057913862E+03  0.50400001928E-02 0.  1.
</event>
<event>
 5   0  0.1813834E-04  0.1864100E+04  0.7818609E-02  0.8672935E-01
        1   -1    0    0  501    0  0.00000000000E+00  0.00000000000E+00  0.19838371388E+04  0.19838371388E+04  0.50400001928E-02 0. -1.
       -1   -1    0    0    0  501  0.00000000000E+00  0.00000000000E+00 -0.43789738605E+03  0.43789738608E+03  0.50400001928E-02 0.  1.
    10030    2    1    2    0    0  0.00000000000E+00  0.00000000000E+00  0.15459397528E+04  0.24217345249E+04  0.18640998873E+04 0.  0.
        5    1    3    3  502    0 -0.14185242895E+03  0.29609491908E+03  0.19062084359E+04  0.19342820383E+04  0.46999998093E+01 0. -1.
       -5    1    3    3    0  502  0.14185242895E+03 -0.29609491908E+03 -0.36026868309E+03  0.48745248663E+03  0.46999998093E+01 0.  1.
</event>
<event>
 5   0  0.1758946E-04  0.1896048E+04  0.7818609E-02  0.8656826E-01
        1   -1    0    0  501    0  0.00000000000E+00  0.00000000000E+00  0.10676982644E+04  0.10676982644E+04  0.50400001928E-02 0. -1.
       -1   -1    0    0    0  501  0.00000000000E+00  0.00000000000E+00 -0.84176339549E+03  0.84176339550E+03  0.50400001928E-02 0.  1.
    10030    2    1    2    0    0  0.00000000000E+00  0.00000000000E+00  0.22593486892E+03  0.19094616599E+04  0.18960478015E+04 0.  0.
        2    1    3    3  502    0  0.90354685125E+03 -0.17780656217E+03  0.33981025520E+03  0.98157174751E+03  0.25500000920E-02 0. -1.
       -2    1    3    3    0  502 -0.90354685125E+03  0.17780656217E+03 -0.11387538628E+03  0.92788991242E+03  0.25500000920E-02 0.  1.
</event>
<event>
 5   0  0.1782613E-04  0.1955640E+04  0.7818609E-02  0.8627646E-01
       -1   -1    0    0    0  501  0.00000000000E+00  0.00000000000E+00  0.15772948263E+04  0.15772948263E+04  0.50400001928E-02 0.  1.
        1   -1    0    0  501    0  0.00000000000E+00  0.00000000000E+00 -0.60618462078E+03  0.60618462080E+03  0.50400001928E-02 0. -1.
    10030    2    1    2    0    0  0.00000000000E+00  0.00000000000E+00  0.97111020547E+03  0.21834794471E+04  0.19556399118E+04 0.  0.
        3    1    3    3  502    0  0.44879895292E+03 -0.19560859585E+03  0.14306006615E+04  0.15120520777E+04  0.10100000352E+00 0.  1.
       -3    1    3    3    0  502 -0.44879895292E+03  0.19560859585E+03 -0.45949045602E+03  0.67142736933E+03  0.10100000352E+00 0. -1.
</event>
<event>
 5   0  0.3535876E-04  0.1889007E+04  0.7818609E-02  0.8660348E-01
        2   -1    0    0  501    0  0.00000000000E+00  0.00000000000E+00  0.28919817773E+04  0.28919817773E+04  0.25500000920E-02 0. -1.
       -2   -1    0    0    0  501  0.00000000000E+00  0.00000000000E+00 -0.30846907124E+03  0.30846907125E+03  0.25500000920E-02 0.  1.
    10030    2    1    2    0    0  0.00000000000E+00  0.00000000000E+00  0.25835127061E+04  0.32004508486E+04  0.18890070756E+04 0.  0.
        2    1    3    3  502    0  0.15477475569E+03 -0.54390283928E+03  0.25734669792E+04  0.26348658062E+04  0.25500000920E-02 0. -1.
       -2    1    3    3    0  502 -0.15477475569E+03  0.54390283928E+03  0.10045726913E+02  0.56558504242E+03  0.25500000920E-02 0.  1.
</event>
<event>
 5   0  0.3720978E-04  0.1908516E+04  0.7818609E-02  0.8650629E-01
        2   -1    0    0  501    0  0.00000000000E+00  0.00000000000E+00  0.10545213966E+04  0.10545213966E+04  0.25500000920E-02 0. -1.
       -2   -1    0    0    0  501  0.00000000000E+00  0.00000000000E+00 -0.86352746761E+03  0.86352746761E+03  0.25500000920E-02 0.  1.
    10030    2    1    2    0    0  0.00000000000E+00  0.00000000000E+00  0.19099392895E+03  0.19180488642E+04  0.19085158539E+04 0.  0.
        1    1    3    3  502    0 -0.96318985921E+02 -0.90012713961E+03  0.39883564612E+03  0.98923004764E+03  0.50400001928E-02 0. -1.
       -1    1    3    3    0  502  0.96318985921E+02  0.90012713961E+03 -0.20784171718E+03  0.92881881653E+03  0.50400001928E-02 0.  1.
</event>
<event>
 5   0  0.1694830E-04  0.1544799E+04  0.7818609E-02  0.8855197E-01
        1   -1    0    0  501    0  0.00000000000E+00  0.00000000000E+00  0.80989227271E+03  0.80989227272E+03  0.50400001928E-02 0. -1.
       -1   -1    0    0    0  501  0.00000000000E+00  0.00000000000E+00 -0.73664239926E+03  0.73664239928E+03  0.50400001928E-02 0.  1.
    10030    2    1    2    0    0  0.00000000000E+00  0.00000000000E+00  0.73249873447E+02  0.15465346720E+04  0.15447989991E+04 0.  0.
        1    1    3    3  502    0  0.10794501001E+03 -0.31002949644E+03  0.73657468503E+03  0.80641966773E+03  0.50400001928E-02 0. -1.
       -1    1    3    3    0  502 -0.10794501001E+03  0.31002949644E+03 -0.66332481159E+03  0.74011500427E+03  0.50400001928E-02 0.  1.
</event>
<event>
 5   0  0.3535876E-04  0.1934994E+04  0.7818609E-02  0.8637631E-01
        2   -1    0    0  501    0  0.00000000000E+00  0.00000000000E+00  0.15510567297E+04  0.15510567297E+04  0.25500000920E-02 0. -1.
       -2   -1    0    0    0  501  0.00000000000E+00  0.00000000000E+00 -0.60349187529E+03  0.60349187530E+03  0.25500000920E-02 0.  1.
    10030    2    1    2    0    0  0.00000000000E+00  0.00000000000E+00  0.94756485445E+03  0.21545486050E+04  0.19349936791E+04 0.  0.
        2    1    3    3  502    0  0.30432107598E+03  0.87421407442E+03  0.16044808764E+03  0.93947067758E+03  0.25500000920E-02 0.  1.
       -2    1    3    3    0  502 -0.30432107598E+03 -0.87421407442E+03  0.78711676681E+03  0.12150779275E+04  0.25500000920E-02 0. -1.
</event>
<event>
 5   0  0.1711979E-04  0.1902408E+04  0.7818609E-02  0.8653659E-01
        1   -1    0    0  501    0  0.00000000000E+00  0.00000000000E+00  0.42165985047E+03  0.42165985050E+03  0.50400001928E-02 0. -1.
       -1   -1    0    0    0  501  0.00000000000E+00  0.00000000000E+00 -0.21457798341E+04  0.21457798341E+04  0.50400001928E-02 0.  1.
    10030    2    1    2    0    0  0.00000000000E+00  0.00000000000E+00 -0.17241199836E+04  0.25674396846E+04  0.19024081623E+04 0.  0.
        4    1    3    3  502    0 -0.55375376829E+03 -0.17490210364E+03 -0.18787767784E+04  0.19664785221E+04  0.12699999809E+01 0.  1.
       -4    1    3    3    0  502  0.55375376829E+03  0.17490210364E+03  0.15465679482E+03  0.60096116250E+03  0.12699999809E+01 0. -1.
</event>
<event>
 5   0  0.1782613E-04  0.1938633E+04  0.7818609E-02  0.8635862E-01
        1   -1    0    0  501    0  0.00000000000E+00  0.00000000000E+00  0.55953202709E+03  0.55953202711E+03  0.50400001928E-02 0. -1.
       -1   -1    0    0    0  501  0.00000000000E+00  0.00000000000E+00 -0.16792139784E+04  0.16792139784E+04  0.50400001928E-02 0.  1.
    10030    2    1    2    0    0  0.00000000000E+00  0.00000000000E+00 -0.11196819513E+04  0.22387460055E+04  0.19386325091E+04 0.  0.
        3    1    3    3  502    0  0.33702522621E+03  0.59492226737E+03 -0.13532659315E+04  0.15161949739E+04  0.10100000352E+00 0.  1.
       -3    1    3    3    0  502 -0.33702522621E+03 -0.59492226737E+03  0.23358398017E+03  0.72255103163E+03  0.10100000352E+00 0. -1.
</event>
<event>
 5   0  0.3623359E-04  0.1913546E+04  0.7818609E-02  0.8648143E-01
       -2   -1    0    0    0  501  0.00000000000E+00  0.00000000000E+00  0.15376635692E+04  0.15376635692E+04  0.25500000920E-02 0. -1.
        2   -1    0    0  501    0  0.00000000000E+00  0.00000000000E+00 -0.59532794736E+03  0.59532794737E+03  0.25500000920E-02 0.  1.
    10030    2    1    2    0    0  0.00000000000E+00  0.00000000000E+00  0.94233562187E+03  0.21329915166E+04  0.19135455013E+04 0.  0.
        5    1    3    3  502    0 -0.93354584680E+03  0.13544935197E+03  0.29303634515E+03  0.98779894948E+03  0.46999998093E+01 0. -1.
       -5    1    3    3    0  502  0.93354584680E+03 -0.13544935197E+03  0.64929927673E+03  0.11451925671E+04  0.46999998093E+01 0.  1.
</event>
<event>
 5   0  0.3535876E-04  0.1862249E+04  0.7818609E-02  0.8673879E-01
       -2   -1    0    0    0  501  0.00000000000E+00  0.00000000000E+00  0.12021448114E+04  0.12021448114E+04  0.25500000920E-02 0. -1.
        2   -1    0    0  501    0  0.00000000000E+00  0.00000000000E+00 -0.72120470530E+03  0.72120470531E+03  0.25500000920E-02 0.  1.
    10030    2    1    2    0    0  0.00000000000E+00  0.00000000000E+00  0.48094010608E+03  0.19233495167E+04  0.18622486348E+04 0.  0.
        2    1    3    3  502    0  0.85926897952E+03 -0.29012368158E+03  0.22653416284E+02  0.90720896548E+03  0.25500000920E-02 0.  1.
       -2    1    3    3    0  502 -0.85926897952E+03  0.29012368158E+03  0.45828668980E+03  0.10161405512E+04  0.25500000920E-02 0. -1.
</event>
<event>
 5   0  0.1287000E-04  0.2155678E+04  0.7818609E-02  0.8537106E-01
       -3   -1    0    0    0  501  0.00000000000E+00  0.00000000000E+00  0.10464656363E+04  0.10464656412E+04  0.10100000352E+00 0.  1.
        3   -1    0    0  501    0  0.00000000000E+00  0.00000000000E+00 -0.11101529586E+04  0.11101529632E+04  0.10100000352E+00 0. -1.
    10030    2    1    2    0    0  0.00000000000E+00  0.00000000000E+00 -0.63687322329E+02  0.21566186044E+04  0.21556780209E+04 0.  0.
        4    1    3    3  502    0  0.63029640074E+03  0.16987374940E+02  0.84270776799E+03  0.10524828354E+04  0.12699999809E+01 0.  1.
       -4    1    3    3    0  502 -0.63029640074E+03 -0.16987374940E+02 -0.90639509032E+03  0.11041357690E+04  0.12699999809E+01 0. -1.
</event>
<event>
 5   0  0.1813834E-04  0.1923203E+04  0.7818609E-02  0.8643392E-01
       -1   -1    0    0    0  501  0.00000000000E+00  0.00000000000E+00  0.99870505508E+03  0.99870505510E+03  0.50400001928E-02 0.  1.
        1   -1    0    0  501    0  0.00000000000E+00  0.00000000000E+00 -0.92587603717E+03  0.92587603719E+03  0.50400001928E-02 0. -1.
    10030    2    1    2    0    0  0.00000000000E+00  0.00000000000E+00  0.72829017908E+02  0.19245810923E+04  0.19232026193E+04 0.  0.
        5    1    3    3  502    0  0.87319414739E+03 -0.28053111193E+03 -0.25273768491E+03  0.95134859603E+03  0.46999998093E+01 0.  1.
       -5    1    3    3    0  502 -0.87319414739E+03  0.28053111193E+03  0.32556670281E+03  0.97323249626E+03  0.46999998093E+01 0. -1.
</event>
<event>
 5   0  0.1758946E-04  0.2013819E+04  0.7818609E-02  0.8600187E-01
        1   -1    0    0  501    0  0.00000000000E+00  0.00000000000E+00  0.17302688547E+04  0.17302688547E+04  0.50400001928E-02 0.  1.
       -1   -1    0    0    0  501  0.00000000000E+00  0.00000000000E+00 -0.58595929901E+03  0.58595929904E+03  0.50400001928E-02 0. -1.
    10030    2    1    2    0    0  0.00000000000E+00  0.00000000000E+00  0.11443095557E+04  0.23162281537E+04  0.20138193814E+04 0.  0.
        2    1    3    3  502    0  0.96211656820E+03  0.20792157481E+03  0.32825580834E+03  0.10376182091E+04  0.25500000920E-02 0. -1.
       -2    1    3    3    0  502 -0.96211656820E+03 -0.20792157481E+03  0.81605374735E+03  0.12786099447E+04  0.25500000920E-02 0.  1.
</event>
<event>
 5   0  0.1694830E-04  0.1929061E+04  0.7818609E-02  0.8640524E-01
        1   -1    0    0  501    0  0.00000000000E+00  0.00000000000E+00  0.51875445327E+03  0.51875445330E+03  0.50400001928E-02 0. -1.
       -1   -1    0    0    0  501  0.00000000000E+00  0.00000000000E+00 -0.17933716987E+04  0.17933716988E+04  0.50400001928E-02 0.  1.
    10030    2    1    2    0    0  0.00000000000E+00  0.00000000000E+00 -0.12746172455E+04  0.23121261521E+04  0.19290614870E+04 0.  0.
        1    1    3    3  502    0  0.33810636186E+03  0.79252382127E+03 -0.11774351106E+03  0.86963984133E+03  0.50400001928E-02 0. -1.
       -1    1    3    3    0  502 -0.33810636186E+03 -0.79252382127E+03 -0.11568737344E+04  0.14424863107E+04  0.50400001928E-02 0.  1.
</event>
<event>
 5   0  0.3535876E-04  0.1898259E+04  0.7818609E-02  0.8655723E-01
       -2   -1    0    0    0  501  0.00000000000E+00  0.00000000000E+00  0.70936217109E+03  0.70936217110E+03  0.25500000920E-02 0.  1.
        2   -1    0    0  501    0  0.00000000000E+00  0.00000000000E+00 -0.12699397305E+04  0.12699397305E+04  0.25500000920E-02 0. -1.
    10030    2    1    2    0    0  0.00000000000E+00  0.00000000000E+00 -0.56057755937E+03  0.19793019016E+04  0.18982594179E+04 0.  0.
        2    1    3    3  502    0  0.12513069465E+03  0.81355771845E+03 -0.77302424719E+03  0.11292034089E+04  0.25500000920E-02 0. -1.
       -2    1    3    3    0  502 -0.12513069465E+03 -0.81355771845E+03  0.21244668782E+03  0.85009849263E+03  0.25500000920E-02 0.  1.
</event>
<event>
 5   0  0.1694830E-04  0.1878271E+04  0.7818609E-02  0.8665749E-01
       -1   -1    0    0    0  501  0.00000000000E+00  0.00000000000E+00  0.93884683166E+03  0.93884683167E+03  0.50400001928E-02 0.  1.
        1   -1    0    0  501    0  0.00000000000E+00  0.00000000000E+00 -0.93942389730E+03  0.93942389731E+03  0.50400001928E-02 0. -1.
    10030    2    1    2    0    0  0.00000000000E+00  0.00000000000E+00 -0.57706564573E+00  0.18782707290E+04  0.18782706403E+04 0.  0.
        1    1    3    3  502    0  0.88460684544E+03  0.15819772903E+03 -0.27308766062E+03  0.93921917723E+03  0.50400001928E-02 0. -1.
       -1    1    3    3    0  502 -0.88460684544E+03 -0.15819772903E+03  0.27251059497E+03  0.93905155176E+03  0.50400001928E-02 0.  1.
</event>
<event>
 5   0  0.3623359E-04  0.1409189E+04  0.7818609E-02  0.8947194E-01
       -2   -1    0    0    0  501  0.00000000000E+00  0.00000000000E+00  0.53649205572E+03  0.53649205573E+03  0.25500000920E-02 0.  1.
        2   -1    0    0  501    0  0.00000000000E+00  0.00000000000E+00 -0.92536901463E+03  0.92536901463E+03  0.25500000920E-02 0. -1.
    10030    2    1    2    0    0  0.00000000000E+00  0.00000000000E+00 -0.38887695891E+03  0.14618610704E+04  0.14091885963E+04 0.  0.
        5    1    3    3  502    0  0.42873236678E+03  0.53743258192E+03 -0.34447323327E+02  0.68837048928E+03  0.46999998093E+01 0. -1.
       -5    1    3    3    0  502 -0.42873236678E+03 -0.53743258192E+03 -0.35442963558E+03  0.77349058107E+03  0.46999998093E+01 0.  1.
</event>
<event>
 5   0  0.1782613E-04  0.1917241E+04  0.7818609E-02  0.8646322E-01
        1   -1    0    0  501    0  0.00000000000E+00  0.00000000000E+00  0.94348093866E+03  0.94348093868E+03  0.50400001928E-02 0. -1.
       -1   -1    0    0    0  501  0.00000000000E+00  0.00000000000E+00 -0.97400311555E+03  0.97400311556E+03  0.50400001928E-02 0.  1.
    10030    2    1    2    0    0  0.00000000000E+00  0.00000000000E+00 -0.30522176887E+02  0.19174840542E+04  0.19172411155E+04 0.  0.
        3    1    3    3  502    0  0.52403943766E+03  0.69427364341E+03  0.38767969881E+03  0.95232808592E+03  0.10100000352E+00 0. -1.
       -3    1    3    3    0  502 -0.52403943766E+03 -0.69427364341E+03 -0.41820187569E+03  0.96515596832E+03  0.10100000352E+00 0.  1.
</event>
<event>
 5   0  0.1287000E-04  0.1914981E+04  0.7818609E-02  0.8647435E-01
        3   -1    0    0  501    0  0.00000000000E+00  0.00000000000E+00  0.14086625484E+04  0.14086625520E+04  0.10100000352E+00 0. -1.
       -3   -1    0    0    0  501  0.00000000000E+00  0.00000000000E+00 -0.65082168068E+03  0.65082168852E+03  0.10100000352E+00 0.  1.
    10030    2    1    2    0    0  0.00000000000E+00  0.00000000000E+00  0.75784086767E+03  0.20594842405E+04  0.19149810851E+04 0.  0.
        4    1    3    3  502    0  0.44859672882E+03 -0.63588852414E+03 -0.22102132718E+03  0.80897792319E+03  0.12699999809E+01 0.  1.
       -4    1    3    3    0  502 -0.44859672882E+03  0.63588852414E+03  0.97886219486E+03  0.12505063173E+04  0.12699999809E+01 0. -1.
</event>
<event>
 5   0  0.1813834E-04  0.1898117E+04  0.7818609E-02  0.8655794E-01
        1   -1    0    0  501    0  0.00000000000E+00  0.00000000000E+00  0.13530541151E+04  0.13530541152E+04  0.50400001928E-02 0. -1.
       -1   -1    0    0    0  501  0.00000000000E+00  0.00000000000E+00 -0.66568820693E+03  0.66568820695E+03  0.50400001928E-02 0.  1.
    10030    2    1    2    0    0  0.00000000000E+00  0.00000000000E+00  0.68736590821E+03  0.20187423221E+04  0.18981171385E+04 0.  0.
        5    1    3    3  502    0 -0.47817799956E+03  0.50484944708E+03  0.10306101707E+04  0.12432644841E+04  0.46999998093E+01 0. -1.
       -5    1    3    3    0  502  0.47817799956E+03 -0.50484944708E+03 -0.34324426250E+03  0.77547783799E+03  0.46999998093E+01 0.  1.
</event>
<event>
 5   0  0.3535876E-04  0.1863594E+04  0.7818609E-02  0.8673193E-01
        2   -1    0    0  501    0  0.00000000000E+00  0.00000000000E+00  0.78462458384E+03  0.78462458384E+03  0.25500000920E-02 0.  1.
       -2   -1    0    0    0  501  0.00000000000E+00  0.00000000000E+00 -0.11065747870E+04  0.11065747870E+04  0.25500000920E-02 0. -1.
    10030    2    1    2    0    0  0.00000000000E+00  0.00000000000E+00 -0.32195020316E+03  0.18911993708E+04  0.18635941422E+04 0.  0.
        2    1    3    3  502    0  0.20830700245E+03 -0.55388992852E+03  0.56945048126E+03  0.82125496090E+03  0.25500000920E-02 0.  1.
       -2    1    3    3    0  502 -0.20830700245E+03  0.55388992852E+03 -0.89140068441E+03  0.10699444099E+04  0.25500000920E-02 0. -1.
</event>
<event>
 5   0  0.1287000E-04  0.1917260E+04  0.7818609E-02  0.8646312E-01
        3   -1    0    0  501    0  0.00000000000E+00  0.00000000000E+00  0.19338765653E+04  0.19338765680E+04  0.10100000352E+00 0.  1.
       -3   -1    0    0    0  501  0.00000000000E+00  0.00000000000E+00 -0.47519665311E+03  0.47519666384E+03  0.10100000352E+00 0. -1.
    10030    2    1    2    0    0  0.00000000000E+00  0.00000000000E+00  0.14586799122E+04  0.24090732318E+04  0.19172602197E+04 0.  0.
        4    1    3    3  502    0  0.72479915596E+03  0.37912081505E+03  0.13574782259E+04  0.15848707063E+04  0.12699999809E+01 0.  1.
       -4    1    3    3    0  502 -0.72479915596E+03 -0.37912081505E+03  0.10120168630E+03  0.82420252553E+03  0.12699999809E+01 0. -1.
</event>
<event>
 5   0  0.1694830E-04  0.1895080E+04  0.7818609E-02  0.8657309E-01
        1   -1    0    0  501    0  0.00000000000E+00  0.00000000000E+00  0.16060650023E+04  0.16060650023E+04  0.50400001928E-02 0.  1.
       -1   -1    0    0    0  501  0.00000000000E+00  0.00000000000E+00 -0.55902605193E+03  0.55902605196E+03  0.50400001928E-02 0. -1.
    10030    2    1    2    0    0  0.00000000000E+00  0.00000000000E+00  0.10470389504E+04  0.21650910543E+04  0.18950801328E+04 0.  0.
        1    1    3    3  502    0  0.27729738553E+03 -0.53209392408E+03  0.13613666265E+04  0.14877287642E+04  0.50400001928E-02 0.  1.
       -1    1    3    3    0  502 -0.27729738553E+03  0.53209392408E+03 -0.31432767610E+03  0.67736229010E+03  0.50400001928E-02 0. -1.
</event>
<event>
 5   0  0.3535876E-04  0.1900031E+04  0.7818609E-02  0.8654841E-01
        2   -1    0    0  501    0  0.00000000000E+00  0.00000000000E+00  0.16620650978E+04  0.16620650978E+04  0.25500000920E-02 0.  1.
       -2   -1    0    0    0  501  0.00000000000E+00  0.00000000000E+00 -0.54301715820E+03  0.54301715820E+03  0.25500000920E-02 0. -1.
    10030    2    1    2    0    0  0.00000000000E+00  0.00000000000E+00  0.11190479396E+04  0.22050822560E+04  0.19000314378E+04 0.  0.
        2    1    3    3  502    0 -0.27872166042E+02 -0.68098190906E+03  0.13276090274E+04  0.14923333903E+04  0.25500000920E-02 0.  1.
       -2    1    3    3    0  502  0.27872166042E+02  0.68098190906E+03 -0.20856108787E+03  0.71274886565E+03  0.25500000920E-02 0. -1.
</event>
<event>
 5   0  0.1758946E-04  0.1957708E+04  0.7818609E-02  0.8626653E-01
        1   -1    0    0  501    0  0.00000000000E+00  0.00000000000E+00  0.78920131423E+03  0.78920131424E+03  0.50400001928E-02 0.  1.
       -1   -1    0    0    0  501  0.00000000000E+00  0.00000000000E+00 -0.12140821483E+04  0.12140821483E+04  0.50400001928E-02 0. -1.
    10030    2    1    2    0    0  0.00000000000E+00  0.00000000000E+00 -0.42488083406E+03  0.20032834625E+04  0.19577080753E+04 0.  0.
        2    1    3    3  502    0  0.48222956599E+03  0.81815948659E+03 -0.45507847683E+03  0.10531033757E+04  0.25500000920E-02 0. -1.
       -2    1    3    3    0  502 -0.48222956599E+03 -0.81815948659E+03  0.30197642761E+02  0.95018008685E+03  0.25500000920E-02 0.  1.
</event>
<event>
 5   0  0.1758946E-04  0.1626045E+04  0.7818609E-02  0.8804706E-01
       -1   -1    0    0    0  501  0.00000000000E+00  0.00000000000E+00  0.99668901747E+03  0.99668901748E+03  0.50400001928E-02 0. -1.
        1   -1    0    0  501    0  0.00000000000E+00  0.00000000000E+00 -0.66320129125E+03  0.66320129127E+03  0.50400001928E-02 0.  1.
    10030    2    1    2    0    0  0.00000000000E+00  0.00000000000E+00  0.33348772622E+03  0.16598903087E+04  0.16260448252E+04 0.  0.
        2    1    3    3  502    0 -0.48532849440E+03 -0.38722551081E+02 -0.49793286741E+03  0.69640528709E+03  0.25500000920E-02 0.  1.
       -2    1    3    3    0  502  0.48532849440E+03  0.38722551081E+02  0.83142059363E+03  0.96348502166E+03  0.25500000920E-02 0. -1.
</event>
<event>
 5   0  0.1711979E-04  0.1893728E+04  0.7818609E-02  0.8657985E-01
       -1   -1    0    0    0  501  0.00000000000E+00  0.00000000000E+00  0.93071999377E+03  0.93071999378E+03  0.50400001928E-02 0.  1.
        1   -1    0    0  501    0  0.00000000000E+00  0.00000000000E+00 -0.96328830995E+03  0.96328830996E+03  0.50400001928E-02 0. -1.
    10030    2    1    2    0    0  0.00000000000E+00  0.00000000000E+00 -0.32568316180E+02  0.18940083037E+04  0.18937282697E+04 0.  0.
        4    1    3    3  502    0  0.59938075552E+03 -0.61743555490E+03  0.37882631028E+03  0.94021005143E+03  0.12699999809E+01 0.  1.
       -4    1    3    3    0  502 -0.59938075552E+03  0.61743555490E+03 -0.41139462646E+03  0.95379825232E+03  0.12699999809E+01 0. -1.
</event>
<event>
 5   0  0.1711979E-04  0.1855929E+04  0.7818609E-02  0.8677110E-01
        1   -1    0    0  501    0  0.00000000000E+00  0.00000000000E+00  0.92032242812E+03  0.92032242814E+03  0.50400001928E-02 0. -1.
       -1   -1    0    0    0  501  0.00000000000E+00  0.00000000000E+00 -0.93566959613E+03  0.93566959614E+03  0.50400001928E-02 0.  1.
    10030    2    1    2    0    0  0.00000000000E+00  0.00000000000E+00 -0.15347168003E+02  0.18559920243E+04  0.18559285705E+04 0.  0.
        4    1    3    3  502    0 -0.65142619399E+03  0.30572467104E+03 -0.59360524866E+03  0.93284107159E+03  0.12699999809E+01 0.  1.
       -4    1    3    3    0  502  0.65142619399E+03 -0.30572467104E+03  0.57825808066E+03  0.92315095269E+03  0.12699999809E+01 0. -1.
</event>
<event>
 5   0  0.1813834E-04  0.1581143E+04  0.7818609E-02  0.8832217E-01
        1   -1    0    0  501    0  0.00000000000E+00  0.00000000000E+00  0.24156208160E+04  0.24156208160E+04  0.50400001928E-02 0. -1.
       -1   -1    0    0    0  501  0.00000000000E+00  0.00000000000E+00 -0.25873406636E+03  0.25873406641E+03  0.50400001928E-02 0.  1.
    10030    2    1    2    0    0  0.00000000000E+00  0.00000000000E+00  0.21568867497E+04  0.26743548824E+04  0.15811431265E+04 0.  0.
        5    1    3    3  502    0  0.81852548125E+02  0.33346080281E+03 -0.12600555083E+03  0.36578058380E+03  0.46999998093E+01 0.  1.
       -5    1    3    3    0  502 -0.81852548125E+02 -0.33346080281E+03  0.22828923005E+04  0.23085742986E+04  0.46999998093E+01 0. -1.
</event>
<event>
 5   0  0.1782613E-04  0.1906159E+04  0.7818609E-02  0.8651797E-01
        1   -1    0    0  501    0  0.00000000000E+00  0.00000000000E+00  0.11909609537E+04  0.11909609538E+04  0.50400001928E-02 0.  1.
       -1   -1    0    0    0  501  0.00000000000E+00  0.00000000000E+00 -0.76271246895E+03  0.76271246897E+03  0.50400001928E-02 0. -1.
    10030    2    1    2    0    0  0.00000000000E+00  0.00000000000E+00  0.42824848479E+03  0.19536734227E+04  0.19061592478E+04 0.  0.
        3    1    3    3  502    0  0.45035724409E+03  0.14253250067E+03 -0.63429194024E+03  0.79086246384E+03  0.10100000352E+00 0. -1.
       -3    1    3    3    0  502 -0.45035724409E+03 -0.14253250067E+03  0.10625404250E+04  0.11628109589E+04  0.10100000352E+00 0.  1.
</event>
<event>
 5   0  0.3623359E-04  0.1858523E+04  0.7818609E-02  0.8675782E-01
       -2   -1    0    0    0  501  0.00000000000E+00  0.00000000000E+00  0.89789816736E+03  0.89789816737E+03  0.25500000920E-02 0.  1.
        2   -1    0    0  501    0  0.00000000000E+00  0.00000000000E+00 -0.96171997350E+03  0.96171997351E+03  0.25500000920E-02 0. -1.
    10030    2    1    2    0    0  0.00000000000E+00  0.00000000000E+00 -0.63821806142E+02  0.18596181409E+04  0.18585226409E+04 0.  0.
        5    1    3    3  502    0 -0.24669311356E+02 -0.82798514374E+03  0.38945077176E+03  0.91534800311E+03  0.46999998093E+01 0.  1.
       -5    1    3    3    0  502  0.24669311356E+02  0.82798514374E+03 -0.45327257790E+03  0.94427013776E+03  0.46999998093E+01 0. -1.
</event>
<event>
 5   0  0.1813834E-04  0.1907166E+04  0.7818609E-02  0.8651298E-01
       -1   -1    0    0    0  501  0.00000000000E+00  0.00000000000E+00  0.92580207102E+03  0.92580207103E+03  0.50400001928E-02 0. -1.
        1   -1    0    0  501    0  0.00000000000E+00  0.00000000000E+00 -0.98219740322E+03  0.98219740324E+03  0.50400001928E-02 0.  1.
    10030    2    1    2    0    0  0.00000000000E+00  0.00000000000E+00 -0.56395332209E+02  0.19079994743E+04  0.19071658450E+04 0.  0.
        5    1    3    3  502    0  0.66243757393E+02 -0.91996507908E+03  0.21392943945E+03  0.94684311118E+03  0.46999998093E+01 0.  1.
       -5    1    3    3    0  502 -0.66243757393E+02  0.91996507908E+03 -0.27032477166E+03  0.96115636309E+03  0.46999998093E+01 0. -1.
</event>
<event>
 5   0  0.3720978E-04  0.1872507E+04  0.7818609E-02  0.8668664E-01
        2   -1    0    0  501    0  0.00000000000E+00  0.00000000000E+00  0.40339302156E+03  0.40339302157E+03  0.25500000920E-02 0.  1.
       -2   -1    0    0    0  501  0.00000000000E+00  0.00000000000E+00 -0.21729941047E+04  0.21729941047E+04  0.25500000920E-02 0. -1.
    10030    2    1    2    0    0  0.00000000000E+00  0.00000000000E+00 -0.17696010831E+04  0.25763871262E+04  0.18725070443E+04 0.  0.
        1    1    3    3  502    0  0.76288230816E+03 -0.32194850865E+02 -0.13933974932E+03  0.77617104448E+03  0.50400001928E-02 0.  1.
       -1    1    3    3    0  502 -0.76288230816E+03  0.32194850865E+02 -0.16302613338E+04  0.18002160817E+04  0.50400001928E-02 0. -1.
</event>
<event>
 5   0  0.1782613E-04  0.1880068E+04  0.7818609E-02  0.8664842E-01
       -1   -1    0    0    0  501  0.00000000000E+00  0.00000000000E+00  0.90868876670E+03  0.90868876672E+03  0.50400001928E-02 0. -1.
        1   -1    0    0  501    0  0.00000000000E+00  0.00000000000E+00 -0.97246087190E+03  0.97246087191E+03  0.50400001928E-02 0.  1.
    10030    2    1    2    0    0  0.00000000000E+00  0.00000000000E+00 -0.63772105197E+02  0.18811496386E+04  0.18800683715E+04 0.  0.
        3    1    3    3  502    0  0.40856941026E+03 -0.40322350924E+03  0.71295197300E+03  0.91532436186E+03  0.10100000352E+00 0. -1.
       -3    1    3    3    0  502 -0.40856941026E+03  0.40322350924E+03 -0.77672407820E+03  0.96582527678E+03  0.10100000352E+00 0.  1.
</event>
<event>
 5   0  0.1711979E-04  0.1847315E+04  0.7818609E-02  0.8681535E-01
       -1   -1    0    0    0  501  0.00000000000E+00  0.00000000000E+00  0.83406622365E+03  0.83406622367E+03  0.50400001928E-02 0. -1.
        1   -1    0    0  501    0  0.00000000000E+00  0.00000000000E+00 -0.10228727465E+04  0.10228727465E+04  0.50400001928E-02 0.  1.
    10030    2    1    2    0    0  0.00000000000E+00  0.00000000000E+00 -0.18880652284E+03  0.18569389702E+04  0.18473154673E+04 0.  0.
        4    1    3    3  502    0 -0.21886285340E+03 -0.47795388256E+03 -0.85783395487E+03  0.10060922271E+04  0.12699999809E+01 0.  1.
       -4    1    3    3    0  502  0.21886285340E+03  0.47795388256E+03  0.66902743203E+03  0.85084674305E+03  0.12699999809E+01 0. -1.
</event>
<event>
 5   0  0.3720978E-04  0.1878796E+04  0.7818609E-02  0.8665484E-01
       -2   -1    0    0    0  501  0.00000000000E+00  0.00000000000E+00  0.69098986369E+03  0.69098986370E+03  0.25500000920E-02 0.  1.
        2   -1    0    0  501    0  0.00000000000E+00  0.00000000000E+00 -0.12771074202E+04  0.12771074202E+04  0.25500000920E-02 0. -1.
    10030    2    1    2    0    0  0.00000000000E+00  0.00000000000E+00 -0.58611755648E+03  0.19680972839E+04  0.18787956591E+04 0.  0.
        1    1    3    3  502    0  0.31813532883E+03  0.35035658321E+03  0.55699752701E+03  0.73089401966E+03  0.50400001928E-02 0.  1.
       -1    1    3    3    0  502 -0.31813532883E+03 -0.35035658321E+03 -0.11431150835E+04  0.12372032642E+04  0.50400001928E-02 0. -1.
</event>
<event>
 5   0  0.3459485E-04  0.1914802E+04  0.7818609E-02  0.8647523E-01
       -2   -1    0    0    0  501  0.00000000000E+00  0.00000000000E+00  0.53150772701E+03  0.53150772702E+03  0.25500000920E-02 0.  1.
        2   -1    0    0  501    0  0.00000000000E+00  0.00000000000E+00 -0.17245598782E+04  0.17245598782E+04  0.25500000920E-02 0. -1.
    10030    2    1    2    0    0  0.00000000000E+00  0.00000000000E+00 -0.11930521512E+04  0.22560676053E+04  0.19148022362E+04 0.  0.
        3    1    3    3  502    0 -0.96192740871E+02 -0.12488517411E+03  0.51611224576E+03  0.53964915504E+03  0.10100000352E+00 0.  1.
       -3    1    3    3    0  502  0.96192740871E+02  0.12488517411E+03 -0.17091643970E+04  0.17164184502E+04  0.10100000352E+00 0. -1.
</event>
<event>
 5   0  0.3720978E-04  0.1886834E+04  0.7818609E-02  0.8661438E-01
        2   -1    0    0  501    0  0.00000000000E+00  0.00000000000E+00  0.90401748170E+03  0.90401748171E+03  0.25500000920E-02 0.  1.
       -2   -1    0    0    0  501  0.00000000000E+00  0.00000000000E+00 -0.98453378615E+03  0.98453378615E+03  0.25500000920E-02 0. -1.
    10030    2    1    2    0    0  0.00000000000E+00  0.00000000000E+00 -0.80516304449E+02  0.18885512679E+04  0.18868341252E+04 0.  0.
        1    1    3    3  502    0 -0.16027011081E+03 -0.76195561882E+03 -0.57344631728E+03  0.96700752443E+03  0.50400001928E-02 0. -1.
       -1    1    3    3    0  502  0.16027011081E+03  0.76195561882E+03  0.49293001283E+03  0.92154374343E+03  0.50400001928E-02 0.  1.
</event>
<event>
 5   0  0.3459485E-04  0.1544733E+04  0.7818609E-02  0.8855239E-01
        2   -1    0    0  501    0  0.00000000000E+00  0.00000000000E+00  0.88376868938E+03  0.88376868938E+03  0.25500000920E-02 0.  1.
       -2   -1    0    0    0  501  0.00000000000E+00  0.00000000000E+00 -0.67500686142E+03  0.67500686142E+03  0.25500000920E-02 0. -1.
    10030    2    1    2    0    0  0.00000000000E+00  0.00000000000E+00  0.20876182796E+03  0.15587755508E+04  0.15447328950E+04 0.  0.
        3    1    3    3  502    0  0.12056355856E+03 -0.48124187064E+02 -0.66391981453E+03  0.67649171418E+03  0.10100000352E+00 0. -1.
       -3    1    3    3    0  502 -0.12056355856E+03  0.48124187064E+02  0.87268164249E+03  0.88228383663E+03  0.10100000352E+00 0.  1.
</event>
<event>
 5   0  0.3535876E-04  0.1930931E+04  0.7818609E-02  0.8639611E-01
        2   -1    0    0  501    0  0.00000000000E+00  0.00000000000E+00  0.11669255490E+04  0.11669255490E+04  0.25500000920E-02 0. -1.
       -2   -1    0    0    0  501  0.00000000000E+00  0.00000000000E+00 -0.79878616840E+03  0.79878616841E+03  0.25500000920E-02 0.  1.
    10030    2    1    2    0    0  0.00000000000E+00  0.00000000000E+00  0.36813938063E+03  0.19657117174E+04  0.19309313692E+04 0.  0.
        2    1    3    3  502    0 -0.50042614741E+03 -0.98520555020E+02  0.10185860076E+04  0.11391444525E+04  0.25500000920E-02 0. -1.
       -2    1    3    3    0  502  0.50042614741E+03  0.98520555020E+02 -0.65044662702E+03  0.82656726489E+03  0.25500000920E-02 0.  1.
</event>
<event>
 5   0  0.3720978E-04  0.1903769E+04  0.7818609E-02  0.8652983E-01
       -2   -1    0    0    0  501  0.00000000000E+00  0.00000000000E+00  0.52749703954E+03  0.52749703954E+03  0.25500000920E-02 0.  1.
        2   -1    0    0  501    0  0.00000000000E+00  0.00000000000E+00 -0.17177046279E+04  0.17177046279E+04  0.25500000920E-02 0. -1.
    10030    2    1    2    0    0  0.00000000000E+00  0.00000000000E+00 -0.11902075884E+04  0.22452016675E+04  0.19037690049E+04 0.  0.
        1    1    3    3  502    0 -0.49618057864E+03  0.12832212678E+03 -0.15410995385E+04  0.16240842104E+04  0.50400001928E-02 0. -1.
       -1    1    3    3    0  502  0.49618057864E+03 -0.12832212678E+03  0.35089195009E+03  0.62111745710E+03  0.50400001928E-02 0.  1.
</event>
<event>
 5   0  0.1813834E-04  0.1901414E+04  0.7818609E-02  0.8654153E-01
       -1   -1    0    0    0  501  0.00000000000E+00  0.00000000000E+00  0.12350032578E+04  0.12350032578E+04  0.50400001928E-02 0.  1.
        1   -1    0    0  501    0  0.00000000000E+00  0.00000000000E+00 -0.73185542999E+03  0.73185543001E+03  0.50400001928E-02 0. -1.
    10030    2    1    2    0    0  0.00000000000E+00  0.00000000000E+00  0.50314782778E+03  0.19668586878E+04  0.19014140425E+04 0.  0.
        5    1    3    3  502    0 -0.12711251991E+03 -0.63290390010E+03  0.97351889988E+03  0.11681121855E+04  0.46999998093E+01 0.  1.
       -5    1    3    3    0  502  0.12711251991E+03  0.63290390010E+03 -0.47037107209E+03  0.79874650230E+03  0.46999998093E+01 0. -1.
</event>
<event>
 5   0  0.1813834E-04  0.1935383E+04  0.7818609E-02  0.8637442E-01
        1   -1    0    0  501    0  0.00000000000E+00  0.00000000000E+00  0.18623644535E+04  0.18623644535E+04  0.50400001928E-02 0. -1.
       -1   -1    0    0    0  501  0.00000000000E+00  0.00000000000E+00 -0.50281628280E+03  0.50281628283E+03  0.50400001928E-02 0.  1.
    10030    2    1    2    0    0  0.00000000000E+00  0.00000000000E+00  0.13595481707E+04  0.23651807363E+04  0.19353833437E+04 0.  0.
        5    1    3    3  502    0  0.69287313049E+03 -0.25872360516E+02 -0.14515951191E+03  0.70840378873E+03  0.46999998093E+01 0.  1.
       -5    1    3    3    0  502 -0.69287313049E+03  0.25872360516E+02  0.15047076826E+04  0.16567769476E+04  0.46999998093E+01 0. -1.
</event>
<event>
 5   0  0.3535876E-04  0.1650250E+04  0.7818609E-02  0.8790259E-01
        2   -1    0    0  501    0  0.00000000000E+00  0.00000000000E+00  0.64552063979E+03  0.64552063979E+03  0.25500000920E-02 0. -1.
       -2   -1    0    0    0  501  0.00000000000E+00  0.00000000000E+00 -0.10547008456E+04  0.10547008456E+04  0.25500000920E-02 0.  1.
    10030    2    1    2    0    0  0.00000000000E+00  0.00000000000E+00 -0.40918020580E+03  0.17002214854E+04  0.16502498776E+04 0.  0.
        2    1    3    3  502    0 -0.50235611664E+03 -0.59569764921E+03 -0.48412461268E+03  0.91738432394E+03  0.25500000920E-02 0.  1.
       -2    1    3    3    0  502  0.50235611664E+03  0.59569764921E+03  0.74944406879E+02  0.78283716144E+03  0.25500000920E-02 0. -1.
</event>
<event>
 5   0  0.1782613E-04  0.1876671E+04  0.7818609E-02  0.8666557E-01
       -1   -1    0    0    0  501  0.00000000000E+00  0.00000000000E+00  0.76463130264E+03  0.76463130266E+03  0.50400001928E-02 0.  1.
        1   -1    0    0  501    0  0.00000000000E+00  0.00000000000E+00 -0.11515003898E+04  0.11515003898E+04  0.50400001928E-02 0. -1.
    10030    2    1    2    0    0  0.00000000000E+00  0.00000000000E+00 -0.38686908714E+03  0.19161316924E+04  0.18766707149E+04 0.  0.
        3    1    3    3  502    0  0.29312088428E+03  0.75917248378E+03 -0.67038703218E+03  0.10543630760E+04  0.10100000352E+00 0. -1.
       -3    1    3    3    0  502 -0.29312088428E+03 -0.75917248378E+03  0.28351794504E+03  0.86176861644E+03  0.10100000352E+00 0.  1.
</event>
<event>
 5   0  0.1813834E-04  0.1872693E+04  0.7818609E-02  0.8668569E-01
       -1   -1    0    0    0  501  0.00000000000E+00  0.00000000000E+00  0.51870862005E+03  0.51870862007E+03  0.50400001928E-02 0. -1.
        1   -1    0    0  501    0  0.00000000000E+00  0.00000000000E+00 -0.16902457320E+04  0.16902457320E+04  0.50400001928E-02 0.  1.
    10030    2    1    2    0    0  0.00000000000E+00  0.00000000000E+00 -0.11715371119E+04  0.22089543520E+04  0.18726932810E+04 0.  0.
        5    1    3    3  502    0 -0.67477196413E+03 -0.43457695174E+03 -0.11545913137E+04  0.14061570049E+04  0.46999998093E+01 0.  1.
       -5    1    3    3    0  502  0.67477196413E+03  0.43457695174E+03 -0.16945798164E+02  0.80279734717E+03  0.46999998093E+01 0. -1.
</event>
<event>
 5   0  0.3623359E-04  0.1719414E+04  0.7818609E-02  0.8750369E-01
       -2   -1    0    0    0  501  0.00000000000E+00  0.00000000000E+00  0.65549214872E+03  0.65549214873E+03  0.25500000920E-02 0.  1.
        2   -1    0    0  501    0  0.00000000000E+00  0.00000000000E+00 -0.11275439142E+04  0.11275439142E+04  0.25500000920E-02 0. -1.
    10030    2    1    2    0    0  0.00000000000E+00  0.00000000000E+00 -0.47205176552E+03  0.17830360630E+04  0.17194140666E+04 0.  0.
        5    1    3    3  502    0 -0.37696643150E+03  0.27685561847E+03  0.51199803231E+03  0.69348165012E+03  0.46999998093E+01 0.  1.
       -5    1    3    3    0  502  0.37696643150E+03 -0.27685561847E+03 -0.98404979783E+03  0.10895544129E+04  0.46999998093E+01 0. -1.
</event>
<event>
 5   0  0.3459485E-04  0.1909949E+04  0.7818609E-02  0.8649920E-01
        2   -1    0    0  501    0  0.00000000000E+00  0.00000000000E+00  0.60448645030E+03  0.60448645031E+03  0.25500000920E-02 0.  1.
       -2   -1    0    0    0  501  0.00000000000E+00  0.00000000000E+00 -0.15086799847E+04  0.15086799847E+04  0.25500000920E-02 0. -1.
    10030    2    1    2    0    0  0.00000000000E+00  0.00000000000E+00 -0.90419353438E+03  0.21131664350E+04  0.19099493277E+04 0.  0.
        3    1    3    3  502    0  0.32850458487E+03  0.88599252179E+03 -0.60491844626E+03  0.11219734167E+04  0.10100000352E+00 0. -1.
       -3    1    3    3    0  502 -0.32850458487E+03 -0.88599252179E+03 -0.29927508812E+03  0.99119301830E+03  0.10100000352E+00 0.  1.
</event>
<event>
 5   0  0.1813834E-04  0.1503661E+04  0.7818609E-02  0.8882022E-01
       -1   -1    0    0    0  501  0.00000000000E+00  0.00000000000E+00  0.11163634855E+04  0.11163634855E+04  0.50400001928E-02 0.  1.
        1   -1    0    0  501    0  0.00000000000E+00  0.00000000000E+00 -0.50633047323E+03  0.50633047326E+03  0.50400001928E-02 0. -1.
    10030    2    1    2    0    0  0.00000000000E+00  0.00000000000E+00  0.61003301227E+03  0.16226939588E+04  0.15036606691E+04 0.  0.
        5    1    3    3  502    0  0.46108176176E+03 -0.63679608743E+02 -0.33212378640E+03  0.57182146085E+03  0.46999998093E+01 0. -1.
       -5    1    3    3    0  502 -0.46108176176E+03  0.63679608743E+02  0.94215679866E+03  0.10508724979E+04  0.46999998093E+01 0.  1.
</event>
<event>
 5   0  0.3535876E-04  0.1898535E+04  0.7818609E-02  0.8655586E-01
        2   -1    0    0  501    0  0.00000000000E+00  0.00000000000E+00  0.84945230039E+03  0.84945230040E+03  0.25500000920E-02 0. -1.
       -2   -1    0    0    0  501  0.00000000000E+00  0.00000000000E+00 -0.10608113692E+04  0.10608113692E+04  0.25500000920E-02 0.  1.
    10030    2    1    2    0    0  0.00000000000E+00  0.00000000000E+00 -0.21135906881E+03  0.19102636696E+04  0.18985348644E+04 0.  0.
        2    1    3    3  502    0  0.94042538364E+03  0.50583216754E+02  0.14009509930E+02  0.94188896924E+03  0.25500000920E-02 0. -1.
       -2    1    3    3    0  502 -0.94042538364E+03 -0.50583216754E+02 -0.22536857874E+03  0.96837470036E+03  0.25500000920E-02 0.  1.
</event>
<event>
 5   0  0.1694830E-04  0.1892693E+04  0.7818609E-02  0.8658502E-01
        1   -1    0    0  501    0  0.00000000000E+00  0.00000000000E+00  0.96526687274E+03  0.96526687276E+03  0.50400001928E-02 0.  1.
       -1   -1    0    0    0  501  0.00000000000E+00  0.00000000000E+00 -0.92779682062E+03  0.92779682063E+03  0.50400001928E-02 0. -1.
    10030    2    1    2    0    0  0.00000000000E+00  0.00000000000E+00  0.37470052126E+02  0.18930636934E+04  0.18926928283E+04 0.  0.
        1    1    3    3  502    0  0.31360972837E+03 -0.65356905436E+03  0.62718634351E+03  0.95857513011E+03  0.50400001928E-02 0. -1.
       -1    1    3    3    0  502 -0.31360972837E+03  0.65356905436E+03 -0.58971629139E+03  0.93448856328E+03  0.50400001928E-02 0.  1.
</event>
<event>
 5   0  0.1287000E-04  0.1896256E+04  0.7818609E-02  0.8656722E-01
        3   -1    0    0  501    0  0.00000000000E+00  0.00000000000E+00  0.81267985850E+03  0.81267986477E+03  0.10100000352E+00 0. -1.
       -3   -1    0    0    0  501  0.00000000000E+00  0.00000000000E+00 -0.11061515475E+04  0.11061515521E+04  0.10100000352E+00 0.  1.
    10030    2    1    2    0    0  0.00000000000E+00  0.00000000000E+00 -0.29347168896E+03  0.19188314168E+04  0.18962564104E+04 0.  0.
        5    1    3    3  502    0  0.49450742033E+03 -0.44704875350E+03 -0.82895410689E+03  0.10637561648E+04  0.46999998093E+01 0.  1.
       -5    1    3    3    0  502 -0.49450742033E+03  0.44704875350E+03  0.53548241794E+03  0.85507525206E+03  0.46999998093E+01 0. -1.
</event>
<event>
 5   0  0.3459485E-04  0.1894142E+04  0.7818609E-02  0.8657778E-01
        2   -1    0    0  501    0  0.00000000000E+00  0.00000000000E+00  0.13532374472E+04  0.13532374472E+04  0.25500000920E-02 0.  1.
       -2   -1    0    0    0  501  0.00000000000E+00  0.00000000000E+00 -0.66281329526E+03  0.66281329526E+03  0.25500000920E-02 0. -1.
    10030    2    1    2    0    0  0.00000000000E+00  0.00000000000E+00  0.69042415193E+03  0.20160507425E+04  0.18941423090E+04 0.  0.
        3    1    3    3  502    0 -0.59204092941E+03 -0.49319882664E+03 -0.24084994824E+03  0.80732041499E+03  0.10100000352E+00 0. -1.
       -3    1    3    3    0  502  0.59204092941E+03  0.49319882664E+03  0.93127410017E+03  0.12087303275E+04  0.10100000352E+00 0.  1.
</event>
<event>
 5   0  0.1758946E-04  0.1902876E+04  0.7818609E-02  0.8653426E-01
       -1   -1    0    0    0  501  0.00000000000E+00  0.00000000000E+00  0.43157926713E+03  0.43157926716E+03  0.50400001928E-02 0. -1.
        1   -1    0    0  501    0  0.00000000000E+00  0.00000000000E+00 -0.20974927719E+04  0.20974927719E+04  0.50400001928E-02 0.  1.
    10030    2    1    2    0    0  0.00000000000E+00  0.00000000000E+00 -0.16659135048E+04  0.25290720391E+04  0.19028761319E+04 0.  0.
        2    1    3    3  502    0  0.74446247224E+03 -0.57865575491E+03 -0.10019512747E+04  0.13758536303E+04  0.25500000920E-02 0. -1.
       -2    1    3    3    0  502 -0.74446247224E+03  0.57865575491E+03 -0.66396223012E+03  0.11532184088E+04  0.25500000920E-02 0.  1.
</event>
<event>
 5   0  0.1782613E-04  0.1834793E+04  0.7818609E-02  0.8688013E-01
        1   -1    0    0  501    0  0.00000000000E+00  0.00000000000E+00  0.12346953532E+04  0.12346953532E+04  0.50400001928E-02 0. -1.
       -1   -1    0    0    0  501  0.00000000000E+00  0.00000000000E+00 -0.68163868862E+03  0.68163868863E+03  0.50400001928E-02 0.  1.
    10030    2    1    2    0    0  0.00000000000E+00  0.00000000000E+00  0.55305666458E+03  0.19163340418E+04  0.18347927637E+04 0.  0.
        3    1    3    3  502    0 -0.82376362415E+03 -0.72819764126E+02 -0.13827005445E+03  0.83845563072E+03  0.10100000352E+00 0.  1.
       -3    1    3    3    0  502  0.82376362415E+03  0.72819764126E+02  0.69132671902E+03  0.10778784111E+04  0.10100000352E+00 0. -1.
</event>
<event>
 5   0  0.1813834E-04  0.1890145E+04  0.7818609E-02  0.8659778E-01
        1   -1    0    0  501    0  0.00000000000E+00  0.00000000000E+00  0.15473015005E+04  0.15473015005E+04  0.50400001928E-02 0. -1.
       -1   -1    0    0    0  501  0.00000000000E+00  0.00000000000E+00 -0.57723843170E+03  0.57723843172E+03  0.50400001928E-02 0.  1.
    10030    2    1    2    0    0  0.00000000000E+00  0.00000000000E+00  0.97006306883E+03  0.21245399323E+04  0.18901448532E+04 0.  0.
        5    1    3    3  502    0  0.37271644890E+03 -0.80436730199E+03  0.85307455411E+03  0.12303180860E+04  0.46999998093E+01 0. -1.
       -5    1    3    3    0  502 -0.37271644890E+03  0.80436730199E+03  0.11698851472E+03  0.89422184629E+03  0.46999998093E+01 0.  1.
</event>
<event>
 5   0  0.1758946E-04  0.1708679E+04  0.7818609E-02  0.8756430E-01
        1   -1    0    0  501    0  0.00000000000E+00  0.00000000000E+00  0.12069849861E+04  0.12069849861E+04  0.50400001928E-02 0.  1.
       -1   -1    0    0    0  501  0.00000000000E+00  0.00000000000E+00 -0.60472689326E+03  0.60472689329E+03  0.50400001928E-02 0. -1.
    10030    2    1    2    0    0  0.00000000000E+00  0.00000000000E+00  0.60225809282E+03  0.18117118794E+04  0.17086793507E+04 0.  0.
        2    1    3    3  502    0 -0.61688572413E+03  0.14277670269E+03 -0.30700896836E+03  0.70369573689E+03  0.25500000920E-02 0. -1.
       -2    1    3    3    0  502  0.61688572413E+03 -0.14277670269E+03  0.90926706118E+03  0.11080161425E+04  0.25500000920E-02 0.  1.
</event>
<event>
 5   0  0.3516539E-04  0.1904505E+04  0.7818609E-02  0.8652617E-01
        2   -1    0    0  501    0  0.00000000000E+00  0.00000000000E+00  0.84606746678E+03  0.84606746679E+03  0.25500000920E-02 0.  1.
       -2   -1    0    0    0  501  0.00000000000E+00  0.00000000000E+00 -0.10717640047E+04  0.10717640047E+04  0.25500000920E-02 0. -1.
    10030    2    1    2    0    0  0.00000000000E+00  0.00000000000E+00 -0.22569653790E+03  0.19178314715E+04  0.19045048243E+04 0.  0.
        4    1    3    3  502    0 -0.85143269726E+03 -0.38364594278E+03  0.74629655606E+02  0.93685273430E+03  0.12699999809E+01 0. -1.
       -4    1    3    3    0  502  0.85143269726E+03  0.38364594278E+03 -0.30032619350E+03  0.98097873717E+03  0.12699999809E+01 0.  1.
</event>
<event>
 5   0  0.1711979E-04  0.1839211E+04  0.7818609E-02  0.8685721E-01
       -1   -1    0    0    0  501  0.00000000000E+00  0.00000000000E+00  0.10221297025E+04  0.10221297025E+04  0.50400001928E-02 0.  1.
        1   -1    0    0  501    0  0.00000000000E+00  0.00000000000E+00 -0.82736450714E+03  0.82736450715E+03  0.50400001928E-02 0. -1.
    10030    2    1    2    0    0  0.00000000000E+00  0.00000000000E+00  0.19476519534E+03  0.18494942096E+04  0.18392105236E+04 0.  0.
        4    1    3    3  502    0  0.45263162383E+03  0.58083777279E+03 -0.45653699397E+03  0.86641534206E+03  0.12699999809E+01 0. -1.
       -4    1    3    3    0  502 -0.45263162383E+03 -0.58083777279E+03  0.65130218930E+03  0.98307886758E+03  0.12699999809E+01 0.  1.
</event>
<event>
 5   0  0.1813834E-04  0.1897652E+04  0.7818609E-02  0.8656026E-01
        1   -1    0    0  501    0  0.00000000000E+00  0.00000000000E+00  0.14447523956E+04  0.14447523956E+04  0.50400001928E-02 0.  1.
       -1   -1    0    0    0  501  0.00000000000E+00  0.00000000000E+00 -0.62313135437E+03  0.62313135439E+03  0.50400001928E-02 0. -1.
    10030    2    1    2    0    0  0.00000000000E+00  0.00000000000E+00  0.82162104123E+03  0.20678837500E+04  0.18976517247E+04 0.  0.
        5    1    3    3  502    0  0.10463651619E+03  0.86912870352E+03  0.80958200896E+03  0.11923835889E+04  0.46999998093E+01 0.  1.
       -5    1    3    3    0  502 -0.10463651619E+03 -0.86912870352E+03  0.12039032275E+02  0.87550016111E+03  0.46999998093E+01 0. -1.
</event>
<event>
 5   0  0.1287000E-04  0.1912821E+04  0.7818609E-02  0.8648501E-01
       -4   -1    0    0    0  501  0.00000000000E+00  0.00000000000E+00  0.14455981120E+04  0.14455986698E+04  0.12699999809E+01 0.  1.
        4   -1    0    0  501    0  0.00000000000E+00  0.00000000000E+00 -0.63276145690E+03  0.63276273139E+03  0.12699999809E+01 0. -1.
    10030    2    1    2    0    0  0.00000000000E+00  0.00000000000E+00  0.81283665506E+03  0.20783614012E+04  0.19128206101E+04 0.  0.
        5    1    3    3  502    0  0.14119179236E+03 -0.70808633208E+03  0.10878956701E+04  0.13057030500E+04  0.46999998093E+01 0.  1.
       -5    1    3    3    0  502 -0.14119179236E+03  0.70808633208E+03 -0.27505901501E+03  0.77265835118E+03  0.46999998093E+01 0. -1.
</event>
<event>
 5   0  0.3720978E-04  0.1701500E+04  0.7818609E-02  0.8760509E-01
       -2   -1    0    0    0  501  0.00000000000E+00  0.00000000000E+00  0.64930636373E+03  0.64930636373E+03  0.25500000920E-02 0.  1.
        2   -1    0    0  501    0  0.00000000000E+00  0.00000000000E+00 -0.11146906914E+04  0.11146906914E+04  0.25500000920E-02 0. -1.
    10030    2    1    2    0    0  0.00000000000E+00  0.00000000000E+00 -0.46538432767E+03  0.17639970551E+04  0.17015002316E+04 0.  0.
        1    1    3    3  502    0  0.86110732756E+02  0.78288973845E+03  0.10074902743E+03  0.79402882027E+03  0.50400001928E-02 0.  1.
       -1    1    3    3    0  502 -0.86110732756E+02 -0.78288973845E+03 -0.56613335510E+03  0.96996823486E+03  0.50400001928E-02 0. -1.
</event>
<event>
 5   0  0.3459485E-04  0.1896830E+04  0.7818609E-02  0.8656436E-01
       -2   -1    0    0    0  501  0.00000000000E+00  0.00000000000E+00  0.69719854418E+03  0.69719854418E+03  0.25500000920E-02 0.  1.
        2   -1    0    0  501    0  0.00000000000E+00  0.00000000000E+00 -0.12901504570E+04  0.12901504570E+04  0.25500000920E-02 0. -1.
    10030    2    1    2    0    0  0.00000000000E+00  0.00000000000E+00 -0.59295191282E+03  0.19873490012E+04  0.18968300086E+04 0.  0.
        3    1    3    3  502    0  0.52555824547E+03 -0.69422921497E+03 -0.69034853420E+03  0.11111916042E+04  0.10100000352E+00 0. -1.
       -3    1    3    3    0  502 -0.52555824547E+03  0.69422921497E+03  0.97396621382E+02  0.87615739702E+03  0.10100000352E+00 0.  1.
</event>
<event>
 5   0  0.3459485E-04  0.2041335E+04  0.7818609E-02  0.8587535E-01
        2   -1    0    0  501    0  0.00000000000E+00  0.00000000000E+00  0.21013428860E+04  0.21013428860E+04  0.25500000920E-02 0.  1.
       -2   -1    0    0    0  501  0.00000000000E+00  0.00000000000E+00 -0.49576014224E+03  0.49576014225E+03  0.25500000920E-02 0. -1.
    10030    2    1    2    0    0  0.00000000000E+00  0.00000000000E+00  0.16055827437E+04  0.25971030282E+04  0.20413349045E+04 0.  0.
        3    1    3    3  502    0 -0.67288693656E+03 -0.59657076004E+03  0.18855521881E+03  0.91881803523E+03  0.10100000352E+00 0. -1.
       -3    1    3    3    0  502  0.67288693656E+03  0.59657076004E+03  0.14170275249E+04  0.16782849930E+04  0.10100000352E+00 0.  1.
</event>
<event>
 5   0  0.1711979E-04  0.1921054E+04  0.7818609E-02  0.8644447E-01
        1   -1    0    0  501    0  0.00000000000E+00  0.00000000000E+00  0.81837286320E+03  0.81837286322E+03  0.50400001928E-02 0. -1.
       -1   -1    0    0    0  501  0.00000000000E+00  0.00000000000E+00 -0.11273732727E+04  0.11273732727E+04  0.50400001928E-02 0.  1.
    10030    2    1    2    0    0  0.00000000000E+00  0.00000000000E+00 -0.30900040948E+03  0.19457461359E+04  0.19210535579E+04 0.  0.
        4    1    3    3  502    0 -0.10525801723E+02 -0.29210214739E+03 -0.10812339787E+04  0.11200459752E+04  0.12699999809E+01 0.  1.
       -4    1    3    3    0  502  0.10525801723E+02  0.29210214739E+03  0.77223356923E+03  0.82570016068E+03  0.12699999809E+01 0. -1.
</event>
<event>
 5   0  0.3720978E-04  0.1881979E+04  0.7818609E-02  0.8663879E-01
        2   -1    0    0  501    0  0.00000000000E+00  0.00000000000E+00  0.18859466537E+04  0.18859466537E+04  0.25500000920E-02 0. -1.
       -2   -1    0    0    0  501  0.00000000000E+00  0.00000000000E+00 -0.46950469106E+03  0.46950469106E+03  0.25500000920E-02 0.  1.
    10030    2    1    2    0    0  0.00000000000E+00  0.00000000000E+00  0.14164419626E+04  0.23554513448E+04  0.18819785344E+04 0.  0.
        1    1    3    3  502    0 -0.12598483895E+03  0.75995495220E+03  0.13846050197E+04  0.15844667146E+04  0.50400001928E-02 0. -1.
       -1    1    3    3    0  502  0.12598483895E+03 -0.75995495220E+03  0.31836942944E+02  0.77098463018E+03  0.50400001928E-02 0.  1.
</event>
<event>
 5   0  0.1758946E-04  0.1821446E+04  0.7818609E-02  0.8694977E-01
       -1   -1    0    0    0  501  0.00000000000E+00  0.00000000000E+00  0.66962642851E+03  0.66962642853E+03  0.50400001928E-02 0. -1.
        1   -1    0    0  501    0  0.00000000000E+00  0.00000000000E+00 -0.12386255843E+04  0.12386255843E+04  0.50400001928E-02 0.  1.
    10030    2    1    2    0    0  0.00000000000E+00  0.00000000000E+00 -0.56899915575E+03  0.19082520128E+04  0.18214460478E+04 0.  0.
        2    1    3    3  502    0 -0.41440006759E+03  0.20274168019E+03  0.53815180501E+03  0.70882929549E+03  0.25500000920E-02 0. -1.
       -2    1    3    3    0  502  0.41440006759E+03 -0.20274168019E+03 -0.11071509608E+04  0.11994227173E+04  0.25500000920E-02 0.  1.
</event>
<event>
 5   0  0.1694830E-04  0.1865336E+04  0.7818609E-02  0.8672306E-01
       -1   -1    0    0    0  501  0.00000000000E+00  0.00000000000E+00  0.48660274045E+03  0.48660274047E+03  0.50400001928E-02 0.  1.
        1   -1    0    0  501    0  0.00000000000E+00  0.00000000000E+00 -0.17876375540E+04  0.17876375541E+04  0.50400001928E-02 0. -1.
    10030    2    1    2    0    0  0.00000000000E+00  0.00000000000E+00 -0.13010348136E+04  0.22742402945E+04  0.18653357154E+04 0.  0.
        1    1    3    3  502    0  0.82939363944E+03 -0.41549543983E+03 -0.53269415665E+03  0.10697164738E+04  0.50400001928E-02 0.  1.
       -1    1    3    3    0  502 -0.82939363944E+03  0.41549543983E+03 -0.76834065695E+03  0.12045238208E+04  0.50400001928E-02 0. -1.
</event>
<event>
 5   0  0.1813834E-04  0.1908165E+04  0.7818609E-02  0.8650803E-01
       -1   -1    0    0    0  501  0.00000000000E+00  0.00000000000E+00  0.51949488199E+03  0.51949488201E+03  0.50400001928E-02 0. -1.
        1   -1    0    0  501    0  0.00000000000E+00  0.00000000000E+00 -0.17522271655E+04  0.17522271656E+04  0.50400001928E-02 0.  1.
    10030    2    1    2    0    0  0.00000000000E+00  0.00000000000E+00 -0.12327322836E+04  0.22717220476E+04  0.19081646099E+04 0.  0.
        5    1    3    3  502    0 -0.63361872946E+03 -0.55000661885E+03 -0.11570686965E+04  0.14292690557E+04  0.46999998093E+01 0.  1.
       -5    1    3    3    0  502  0.63361872946E+03  0.55000661885E+03 -0.75663587030E+02  0.84245299186E+03  0.46999998093E+01 0. -1.
</event>
<event>
 5   0  0.3535876E-04  0.1885536E+04  0.7818609E-02  0.8662090E-01
        2   -1    0    0  501    0  0.00000000000E+00  0.00000000000E+00  0.13918513523E+04  0.13918513523E+04  0.25500000920E-02 0. -1.
       -2   -1    0    0    0  501  0.00000000000E+00  0.00000000000E+00 -0.63858225888E+03  0.63858225888E+03  0.25500000920E-02 0.  1.
    10030    2    1    2    0    0  0.00000000000E+00  0.00000000000E+00  0.75326909342E+03  0.20304336112E+04  0.18855360835E+04 0.  0.
        2    1    3    3  502    0 -0.99660419280E+02  0.87159791750E+03  0.74841419270E+03  0.11531430669E+04  0.25500000920E-02 0. -1.
       -2    1    3    3    0  502  0.99660419280E+02 -0.87159791750E+03  0.48549007220E+01  0.87729054425E+03  0.25500000920E-02 0.  1.
</event>
<event>
 5   0  0.3720978E-04  0.1925894E+04  0.7818609E-02  0.8642074E-01
        2   -1    0    0  501    0  0.00000000000E+00  0.00000000000E+00  0.76913885361E+03  0.76913885361E+03  0.25500000920E-02 0.  1.
       -2   -1    0    0    0  501  0.00000000000E+00  0.00000000000E+00 -0.12055907096E+04  0.12055907096E+04  0.25500000920E-02 0. -1.
    10030    2    1    2    0    0  0.00000000000E+00  0.00000000000E+00 -0.43645185595E+03  0.19747295632E+04  0.19258937211E+04 0.  0.
        1    1    3    3  502    0 -0.15499407767E+03 -0.45284999866E+03  0.63852782940E+03  0.79800631222E+03  0.50400001928E-02 0.  1.
       -1    1    3    3    0  502  0.15499407767E+03  0.45284999866E+03 -0.10749796854E+04  0.11767232510E+04  0.50400001928E-02 0. -1.
</event>
<event>
 5   0  0.3623359E-04  0.1591264E+04  0.7818609E-02  0.8825933E-01
       -2   -1    0    0    0  501  0.00000000000E+00  0.00000000000E+00  0.77052586565E+03  0.77052586566E+03  0.25500000920E-02 0. -1.
        2   -1    0    0  501    0  0.00000000000E+00  0.00000000000E+00 -0.82155627593E+03  0.82155627593E+03  0.25500000920E-02 0.  1.
    10030    2    1    2    0    0  0.00000000000E+00  0.00000000000E+00 -0.51030410273E+02  0.15920821416E+04  0.15912641021E+04 0.  0.
        5    1    3    3  502    0 -0.16464352955E+03 -0.55674707643E+03 -0.56979254053E+03  0.81348658758E+03  0.46999998093E+01 0.  1.
       -5    1    3    3    0  502  0.16464352955E+03  0.55674707643E+03  0.51876213026E+03  0.77859555401E+03  0.46999998093E+01 0. -1.
</event>
<event>
 5   0  0.1287000E-04  0.1863185E+04  0.7818609E-02  0.8673402E-01
       -3   -1    0    0    0  501  0.00000000000E+00  0.00000000000E+00  0.12733727490E+04  0.12733727530E+04  0.10100000352E+00 0.  1.
        3   -1    0    0  501    0  0.00000000000E+00  0.00000000000E+00 -0.68154815234E+03  0.68154815982E+03  0.10100000352E+00 0. -1.
    10030    2    1    2    0    0  0.00000000000E+00  0.00000000000E+00  0.59182459665E+03  0.19549209128E+04  0.18631852893E+04 0.  0.
        3    1    3    3  502    0  0.10412629307E+03 -0.69084480418E+03  0.94249707871E+03  0.11732048338E+04  0.10100000352E+00 0.  1.
       -3    1    3    3    0  502 -0.10412629307E+03  0.69084480418E+03 -0.35067248206E+03  0.78171607905E+03  0.10100000352E+00 0. -1.
</event>
<event>
 5   0  0.1287000E-04  0.1987754E+04  0.7818609E-02  0.8612368E-01
       -4   -1    0    0    0  501  0.00000000000E+00  0.00000000000E+00  0.13535105204E+04  0.13535111162E+04  0.12699999809E+01 0.  1.
        4   -1    0    0  501    0  0.00000000000E+00  0.00000000000E+00 -0.72979837657E+03  0.72979948160E+03  0.12699999809E+01 0. -1.
    10030    2    1    2    0    0  0.00000000000E+00  0.00000000000E+00  0.62371214380E+03  0.20833105978E+04  0.19877540614E+04 0.  0.
        3    1    3    3  502    0 -0.69307395128E+03  0.61829901084E+03  0.68262258928E+03  0.11526572684E+04  0.10100000352E+00 0.  1.
       -3    1    3    3    0  502  0.69307395128E+03 -0.61829901084E+03 -0.58910445485E+02  0.93065332941E+03  0.10100000352E+00 0. -1.
</event>
<event>
 5   0  0.3516539E-04  0.1675008E+04  0.7818609E-02  0.8775748E-01
        2   -1    0    0  501    0  0.00000000000E+00  0.00000000000E+00  0.81529063754E+03  0.81529063754E+03  0.25500000920E-02 0.  1.
       -2   -1    0    0    0  501  0.00000000000E+00  0.00000000000E+00 -0.86032306868E+03  0.86032306869E+03  0.25500000920E-02 0. -1.
    10030    2    1    2    0    0  0.00000000000E+00  0.00000000000E+00 -0.45032431141E+02  0.16756137062E+04  0.16750084694E+04 0.  0.
        4    1    3    3  502    0  0.51323972172E+03 -0.42751468692E+03  0.48286719228E+03  0.82422457969E+03  0.12699999809E+01 0.  1.
       -4    1    3    3    0  502 -0.51323972172E+03  0.42751468692E+03 -0.52789962342E+03  0.85138912654E+03  0.12699999809E+01 0. -1.
</event>
<event>
 5   0  0.3720978E-04  0.1881425E+04  0.7818609E-02  0.8664158E-01
        2   -1    0    0  501    0  0.00000000000E+00  0.00000000000E+00  0.16133416431E+04  0.16133416431E+04  0.25500000920E-02 0. -1.
       -2   -1    0    0    0  501  0.00000000000E+00  0.00000000000E+00 -0.54851381647E+03  0.54851381647E+03  0.25500000920E-02 0.  1.
    10030    2    1    2    0    0  0.00000000000E+00  0.00000000000E+00  0.10648278266E+04  0.21618554595E+04  0.18814251852E+04 0.  0.
        1    1    3    3  502    0 -0.78136546234E+03  0.53566166404E+02  0.11311779358E+04  0.13758505887E+04  0.50400001928E-02 0. -1.
       -1    1    3    3    0  502  0.78136546234E+03 -0.53566166404E+02 -0.66350109248E+02  0.78600487081E+03  0.50400001928E-02 0.  1.
</event>
<event>
 5   0  0.1694830E-04  0.1927519E+04  0.7818609E-02  0.8641278E-01
        1   -1    0    0  501    0  0.00000000000E+00  0.00000000000E+00  0.14109667894E+04  0.14109667894E+04  0.50400001928E-02 0.  1.
       -1   -1    0    0    0  501  0.00000000000E+00  0.00000000000E+00 -0.65829519824E+03  0.65829519826E+03  0.50400001928E-02 0. -1.
    10030    2    1    2    0    0  0.00000000000E+00  0.00000000000E+00  0.75267159112E+03  0.20692619876E+04  0.19275192994E+04 0.  0.
        1    1    3    3  502    0  0.64753735565E+03 -0.59686143048E+03  0.79664201879E+03  0.11875128211E+04  0.50400001928E-02 0.  1.
       -1    1    3    3    0  502 -0.64753735565E+03  0.59686143048E+03 -0.43970427667E+02  0.88174916653E+03  0.50400001928E-02 0. -1.
</event>
<event>
 5   0  0.1813834E-04  0.1857207E+04  0.7818609E-02  0.8676455E-01
       -1   -1    0    0    0  501  0.00000000000E+00  0.00000000000E+00  0.55628889632E+03  0.55628889634E+03  0.50400001928E-02 0. -1.
        1   -1    0    0  501    0  0.00000000000E+00  0.00000000000E+00 -0.15501018897E+04  0.15501018897E+04  0.50400001928E-02 0.  1.
    10030    2    1    2    0    0  0.00000000000E+00  0.00000000000E+00 -0.99381299337E+03  0.21063907860E+04  0.18572070099E+04 0.  0.
        5    1    3    3  502    0  0.74725201376E+03  0.34119466432E+03 -0.58181948156E+01  0.82149577748E+03  0.46999998093E+01 0. -1.
       -5    1    3    3    0  502 -0.74725201376E+03 -0.34119466432E+03 -0.98799479855E+03  0.12848950086E+04  0.46999998093E+01 0.  1.
</event>
<event>
 5   0  0.3623359E-04  0.1827738E+04  0.7818609E-02  0.8691686E-01
        2   -1    0    0  501    0  0.00000000000E+00  0.00000000000E+00  0.11452806011E+04  0.11452806011E+04  0.25500000920E-02 0.  1.
       -2   -1    0    0    0  501  0.00000000000E+00  0.00000000000E+00 -0.72921601161E+03  0.72921601161E+03  0.25500000920E-02 0. -1.
    10030    2    1    2    0    0  0.00000000000E+00  0.00000000000E+00  0.41606458953E+03  0.18744966128E+04  0.18277384410E+04 0.  0.
        5    1    3    3  502    0 -0.84985671041E+03 -0.18201990696E+03 -0.81587539984E+02  0.87296408370E+03  0.46999998093E+01 0.  1.
       -5    1    3    3    0  502  0.84985671041E+03  0.18201990696E+03  0.49765212951E+03  0.10015325291E+04  0.46999998093E+01 0. -1.
</event>
<event>
 5   0  0.3623359E-04  0.1882329E+04  0.7818609E-02  0.8663702E-01
        2   -1    0    0  501    0  0.00000000000E+00  0.00000000000E+00  0.57645558588E+03  0.57645558588E+03  0.25500000920E-02 0.  1.
       -2   -1    0    0    0  501  0.00000000000E+00  0.00000000000E+00 -0.15366162856E+04  0.15366162856E+04  0.25500000920E-02 0. -1.
    10030    2    1    2    0    0  0.00000000000E+00  0.00000000000E+00 -0.96016069968E+03  0.21130718714E+04  0.18823294517E+04 0.  0.
        5    1    3    3  502    0  0.90957042218E+02 -0.56417975957E+03 -0.13195423366E+04  0.14379798513E+04  0.46999998093E+01 0. -1.
       -5    1    3    3    0  502 -0.90957042218E+02  0.56417975957E+03  0.35938163696E+03  0.67509202011E+03  0.46999998093E+01 0.  1.
</event>
<event>
 5   0  0.3623359E-04  0.1906098E+04  0.7818609E-02  0.8651827E-01
       -2   -1    0    0    0  501  0.00000000000E+00  0.00000000000E+00  0.82865356250E+03  0.82865356250E+03  0.25500000920E-02 0. -1.
        2   -1    0    0  501    0  0.00000000000E+00  0.00000000000E+00 -0.10961184571E+04  0.10961184571E+04  0.25500000920E-02 0.  1.
    10030    2    1    2    0    0  0.00000000000E+00  0.00000000000E+00 -0.26746489462E+03  0.19247720196E+04  0.19060980714E+04 0.  0.
        5    1    3    3  502    0  0.30844470570E+02 -0.22799183102E+02  0.82786214262E+03  0.82876353762E+03  0.46999998093E+01 0. -1.
       -5    1    3    3    0  502 -0.30844470570E+02  0.22799183102E+02 -0.10953270372E+04  0.10960084820E+04  0.46999998093E+01 0.  1.
</event>
<event>
 5   0  0.3516539E-04  0.1883871E+04  0.7818609E-02  0.8662927E-01
        2   -1    0    0  501    0  0.00000000000E+00  0.00000000000E+00  0.76881067003E+03  0.76881067004E+03  0.25500000920E-02 0.  1.
       -2   -1    0    0    0  501  0.00000000000E+00  0.00000000000E+00 -0.11540457355E+04  0.11540457355E+04  0.25500000920E-02 0. -1.
    10030    2    1    2    0    0  0.00000000000E+00  0.00000000000E+00 -0.38523506548E+03  0.19228564056E+04  0.18838712007E+04 0.  0.
        4    1    3    3  502    0  0.64493566414E+03  0.30645421402E+03 -0.81964690678E+03  0.10870505328E+04  0.12699999809E+01 0. -1.
       -4    1    3    3    0  502 -0.64493566414E+03 -0.30645421402E+03  0.43441184130E+03  0.83580587275E+03  0.12699999809E+01 0.  1.
</event>
<event>
 5   0  0.3516539E-04  0.1910268E+04  0.7818609E-02  0.8649762E-01
        2   -1    0    0  501    0  0.00000000000E+00  0.00000000000E+00  0.21942595902E+04  0.21942595902E+04  0.25500000920E-02 0. -1.
       -2   -1    0    0    0  501  0.00000000000E+00  0.00000000000E+00 -0.41575807488E+03  0.41575807489E+03  0.25500000920E-02 0.  1.
    10030    2    1    2    0    0  0.00000000000E+00  0.00000000000E+00  0.17785015153E+04  0.26100176650E+04  0.19102681937E+04 0.  0.
        4    1    3    3  502    0 -0.58208268866E+03 -0.70826438546E+03  0.52308787040E+03  0.10555004639E+04  0.12699999809E+01 0.  1.
       -4    1    3    3    0  502  0.58208268866E+03  0.70826438546E+03  0.12554136449E+04  0.15545172012E+04  0.12699999809E+01 0. -1.
</event>
<event>
 5   0  0.1813834E-04  0.1911700E+04  0.7818609E-02  0.8649055E-01
        1   -1    0    0  501    0  0.00000000000E+00  0.00000000000E+00  0.14356856533E+04  0.14356856533E+04  0.50400001928E-02 0. -1.
       -1   -1    0    0    0  501  0.00000000000E+00  0.00000000000E+00 -0.63638510307E+03  0.63638510309E+03  0.50400001928E-02 0.  1.
    10030    2    1    2    0    0  0.00000000000E+00  0.00000000000E+00  0.79930055021E+03  0.20720707564E+04  0.19116997280E+04 0.  0.
        5    1    3    3  502    0 -0.38730917470E+02  0.64440969907E+03  0.11636675888E+04  0.13307547826E+04  0.46999998093E+01 0. -1.
       -5    1    3    3    0  502  0.38730917470E+02 -0.64440969907E+03 -0.36436703856E+03  0.74131597380E+03  0.46999998093E+01 0.  1.
</event>
<event>
 5   0  0.3459485E-04  0.1737456E+04  0.7818609E-02  0.8740285E-01
        2   -1    0    0  501    0  0.00000000000E+00  0.00000000000E+00  0.27554248135E+04  0.27554248135E+04  0.25500000920E-02 0. -1.
       -2   -1    0    0    0  501  0.00000000000E+00  0.00000000000E+00 -0.27389188078E+03  0.27389188079E+03  0.25500000920E-02 0.  1.
    10030    2    1    2    0    0  0.00000000000E+00  0.00000000000E+00  0.24815329327E+04  0.30293166943E+04  0.17374561687E+04 0.  0.
        3    1    3    3  502    0 -0.26785693195E+03  0.23140639045E+03  0.26239872515E+04  0.26477547771E+04  0.10100000352E+00 0. -1.
       -3    1    3    3    0  502  0.26785693195E+03 -0.23140639045E+03 -0.14245431874E+03  0.38156191721E+03  0.10100000352E+00 0.  1.
</event>
<event>
 5   0  0.3535876E-04  0.1788243E+04  0.7818609E-02  0.8712577E-01
       -2   -1    0    0    0  501  0.00000000000E+00  0.00000000000E+00  0.12413122044E+04  0.12413122044E+04  0.25500000920E-02 0. -1.
        2   -1    0    0  501    0  0.00000000000E+00  0.00000000000E+00 -0.64403861956E+03  0.64403861957E+03  0.25500000920E-02 0.  1.
    10030    2    1    2    0    0  0.00000000000E+00  0.00000000000E+00  0.59727358487E+03  0.18853508240E+04  0.17882427113E+04 0.  0.
        2    1    3    3  502    0 -0.37961383255E+03  0.70078653974E+03  0.72591546111E+03  0.10780360350E+04  0.25500000920E-02 0. -1.
       -2    1    3    3    0  502  0.37961383255E+03 -0.70078653974E+03 -0.12864187624E+03  0.80731478896E+03  0.25500000920E-02 0.  1.
</event>
<event>
 5   0  0.1782613E-04  0.1932756E+04  0.7818609E-02  0.8638721E-01
       -1   -1    0    0    0  501  0.00000000000E+00  0.00000000000E+00  0.64882090180E+03  0.64882090181E+03  0.50400001928E-02 0.  1.
        1   -1    0    0  501    0  0.00000000000E+00  0.00000000000E+00 -0.14393599923E+04  0.14393599923E+04  0.50400001928E-02 0. -1.
    10030    2    1    2    0    0  0.00000000000E+00  0.00000000000E+00 -0.79053909052E+03  0.20881808941E+04  0.19327564236E+04 0.  0.
        3    1    3    3  502    0  0.24743137023E+03  0.84558234982E+02  0.60987415830E+03  0.66356527730E+03  0.10100000352E+00 0.  1.
       -3    1    3    3    0  502 -0.24743137023E+03 -0.84558234982E+02 -0.14004132488E+04  0.14246156168E+04  0.10100000352E+00 0. -1.
</event>
<event>
 5   0  0.3623359E-04  0.1901883E+04  0.7818609E-02  0.8653920E-01
       -2   -1    0    0    0  501  0.00000000000E+00  0.00000000000E+00  0.12683971285E+04  0.12683971285E+04  0.25500000920E-02 0.  1.
        2   -1    0    0  501    0  0.00000000000E+00  0.00000000000E+00 -0.71293867044E+03  0.71293867045E+03  0.25500000920E-02 0. -1.
    10030    2    1    2    0    0  0.00000000000E+00  0.00000000000E+00  0.55545845809E+03  0.19813357990E+04  0.19018826067E+04 0.  0.
        5    1    3    3  502    0  0.42967999731E+03 -0.80097100168E+03  0.56884521077E+03  0.10722809377E+04  0.46999998093E+01 0.  1.
       -5    1    3    3    0  502 -0.42967999731E+03  0.80097100168E+03 -0.13386752681E+02  0.90905486125E+03  0.46999998093E+01 0. -1.
</event>
<event>
 5   0  0.3535876E-04  0.1884963E+04  0.7818609E-02  0.8662378E-01
       -2   -1    0    0    0  501  0.00000000000E+00  0.00000000000E+00  0.11010594476E+04  0.11010594476E+04  0.25500000920E-02 0. -1.
        2   -1    0    0  501    0  0.00000000000E+00  0.00000000000E+00 -0.80674238792E+03  0.80674238793E+03  0.25500000920E-02 0.  1.
    10030    2    1    2    0    0  0.00000000000E+00  0.00000000000E+00  0.29431705969E+03  0.19078018355E+04  0.18849629471E+04 0.  0.
        2    1    3    3  502    0 -0.60252619421E+03  0.40773036146E+03 -0.45925837150E+03  0.86034883284E+03  0.25500000920E-02 0.  1.
       -2    1    3    3    0  502  0.60252619421E+03 -0.40773036146E+03  0.75357543119E+03  0.10474530027E+04  0.25500000920E-02 0. -1.
</event>
<event>
 5   0  0.1694830E-04  0.1928562E+04  0.7818609E-02  0.8640768E-01
        1   -1    0    0  501    0  0.00000000000E+00  0.00000000000E+00  0.13541671784E+04  0.13541671784E+04  0.50400001928E-02 0. -1.
       -1   -1    0    0    0  501  0.00000000000E+00  0.00000000000E+00 -0.68664936845E+03  0.68664936847E+03  0.50400001928E-02 0.  1.
    10030    2    1    2    0    0  0.00000000000E+00  0.00000000000E+00  0.66751780998E+03  0.20408165469E+04  0.19285621980E+04 0.  0.
        1    1    3    3  502    0 -0.27565977949E+02 -0.72813896019E+03  0.10020995546E+04  0.12390116003E+04  0.50400001928E-02 0. -1.
       -1    1    3    3    0  502  0.27565977949E+02  0.72813896019E+03 -0.33458174460E+03  0.80180494657E+03  0.50400001928E-02 0.  1.
</event>
<event>
 5   0  0.3623359E-04  0.1774046E+04  0.7818609E-02  0.8720224E-01
       -2   -1    0    0    0  501  0.00000000000E+00  0.00000000000E+00  0.36991754239E+03  0.36991754240E+03  0.25500000920E-02 0. -1.
        2   -1    0    0  501    0  0.00000000000E+00  0.00000000000E+00 -0.21269880366E+04  0.21269880366E+04  0.25500000920E-02 0.  1.
    10030    2    1    2    0    0  0.00000000000E+00  0.00000000000E+00 -0.17570704942E+04  0.24969055790E+04  0.17740464337E+04 0.  0.
        5    1    3    3  502    0  0.49823356463E+03  0.61996160686E+03 -0.14312205823E+04  0.16373770256E+04  0.46999998093E+01 0.  1.
       -5    1    3    3    0  502 -0.49823356463E+03 -0.61996160686E+03 -0.32584991187E+03  0.85952855332E+03  0.46999998093E+01 0. -1.
</event>
<event>
 5   0  0.3623359E-04  0.1915133E+04  0.7818609E-02  0.8647360E-01
       -2   -1    0    0    0  501  0.00000000000E+00  0.00000000000E+00  0.79429717438E+03  0.79429717439E+03  0.25500000920E-02 0.  1.
        2   -1    0    0  501    0  0.00000000000E+00  0.00000000000E+00 -0.11543963410E+04  0.11543963410E+04  0.25500000920E-02 0. -1.
    10030    2    1    2    0    0  0.00000000000E+00  0.00000000000E+00 -0.36009916660E+03  0.19486935154E+04  0.19151331565E+04 0.  0.
        5    1    3    3  502    0  0.20120336245E+03 -0.60171846877E+03 -0.90980905917E+03  0.11091990456E+04  0.46999998093E+01 0. -1.
       -5    1    3    3    0  502 -0.20120336245E+03  0.60171846877E+03  0.54970989257E+03  0.83949446973E+03  0.46999998093E+01 0.  1.
</event>
<event>
 5   0  0.3459485E-04  0.1908362E+04  0.7818609E-02  0.8650705E-01
        2   -1    0    0  501    0  0.00000000000E+00  0.00000000000E+00  0.11326472863E+04  0.11326472863E+04  0.25500000920E-02 0. -1.
       -2   -1    0    0    0  501  0.00000000000E+00  0.00000000000E+00 -0.80383515801E+03  0.80383515802E+03  0.25500000920E-02 0.  1.
    10030    2    1    2    0    0  0.00000000000E+00  0.00000000000E+00  0.32881212830E+03  0.19364824443E+04  0.19083623454E+04 0.  0.
        3    1    3    3  502    0 -0.66709924008E+03 -0.47381760549E+03  0.66249241122E+03  0.10528156175E+04  0.10100000352E+00 0. -1.
       -3    1    3    3    0  502  0.66709924008E+03  0.47381760549E+03 -0.33368028292E+03  0.88366682681E+03  0.10100000352E+00 0.  1.
</event>
<event>
 5   0  0.1758946E-04  0.1935123E+04  0.7818609E-02  0.8637568E-01
        1   -1    0    0  501    0  0.00000000000E+00  0.00000000000E+00  0.12835951758E+04  0.12835951758E+04  0.50400001928E-02 0.  1.
       -1   -1    0    0    0  501  0.00000000000E+00  0.00000000000E+00 -0.72933820315E+03  0.72933820317E+03  0.50400001928E-02 0. -1.
    10030    2    1    2    0    0  0.00000000000E+00  0.00000000000E+00  0.55425697269E+03  0.20129333790E+04  0.19351227342E+04 0.  0.
        2    1    3    3  502    0  0.57069714829E+03 -0.20354989662E+03  0.10618129125E+04  0.12225278960E+04  0.25500000920E-02 0.  1.
       -2    1    3    3    0  502 -0.57069714829E+03  0.20354989662E+03 -0.50755593980E+03  0.79040548297E+03  0.25500000920E-02 0. -1.
</event>
<event>
 5   0  0.1813834E-04  0.1802200E+04  0.7818609E-02  0.8705131E-01
       -1   -1    0    0    0  501  0.00000000000E+00  0.00000000000E+00  0.55294523989E+03  0.55294523991E+03  0.50400001928E-02 0. -1.
        1   -1    0    0  501    0  0.00000000000E+00  0.00000000000E+00 -0.14684654373E+04  0.14684654373E+04  0.50400001928E-02 0.  1.
    10030    2    1    2    0    0  0.00000000000E+00  0.00000000000E+00 -0.91552019744E+03  0.20214106773E+04  0.18021997376E+04 0.  0.
        5    1    3    3  502    0  0.86766036709E+03 -0.34065483960E+02 -0.18771861597E+03  0.88840043820E+03  0.46999998093E+01 0. -1.
       -5    1    3    3    0  502 -0.86766036709E+03  0.34065483960E+02 -0.72780158147E+03  0.11330102391E+04  0.46999998093E+01 0.  1.
</event>
<event>
 5   0  0.3535876E-04  0.1878336E+04  0.7818609E-02  0.8665716E-01
       -2   -1    0    0    0  501  0.00000000000E+00  0.00000000000E+00  0.48927254730E+03  0.48927254731E+03  0.25500000920E-02 0. -1.
        2   -1    0    0  501    0  0.00000000000E+00  0.00000000000E+00 -0.18027502937E+04  0.18027502937E+04  0.25500000920E-02 0.  1.
    10030    2    1    2    0    0  0.00000000000E+00  0.00000000000E+00 -0.13134777464E+04  0.22920228410E+04  0.18783356764E+04 0.  0.
        2    1    3    3  502    0  0.26893284515E+03  0.30488536232E+03 -0.16898129977E+04  0.17380298981E+04  0.25500000920E-02 0.  1.
       -2    1    3    3    0  502 -0.26893284515E+03 -0.30488536232E+03  0.37633525136E+03  0.55399294289E+03  0.25500000920E-02 0. -1.
</event>
<event>
 5   0  0.3720978E-04  0.1893125E+04  0.7818609E-02  0.8658286E-01
       -2   -1    0    0    0  501  0.00000000000E+00  0.00000000000E+00  0.77366438734E+03  0.77366438735E+03  0.25500000920E-02 0. -1.
        2   -1    0    0  501    0  0.00000000000E+00  0.00000000000E+00 -0.11581000887E+04  0.11581000888E+04  0.25500000920E-02 0.  1.
    10030    2    1    2    0    0  0.00000000000E+00  0.00000000000E+00 -0.38443570141E+03  0.19317644761E+04  0.18931252422E+04 0.  0.
        1    1    3    3  502    0 -0.35536782901E+03 -0.79609985630E+03  0.18397951152E+03  0.89101612543E+03  0.50400001928E-02 0. -1.
       -1    1    3    3    0  502  0.35536782901E+03  0.79609985630E+03 -0.56841521293E+03  0.10407483507E+04  0.50400001928E-02 0.  1.
</event>
<event>
 5   0  0.1758946E-04  0.1910836E+04  0.7818609E-02  0.8649481E-01
       -1   -1    0    0    0  501  0.00000000000E+00  0.00000000000E+00  0.10057992019E+04  0.10057992019E+04  0.50400001928E-02 0. -1.
        1   -1    0    0  501    0  0.00000000000E+00  0.00000000000E+00 -0.90756056848E+03  0.90756056849E+03  0.50400001928E-02 0.  1.
    10030    2    1    2    0    0  0.00000000000E+00  0.00000000000E+00  0.98238633458E+02  0.19133597704E+04  0.19108361473E+04 0.  0.
        2    1    3    3  502    0 -0.45754747146E+03  0.12185322542E+03 -0.78181144000E+03  0.91401697190E+03  0.25500000920E-02 0.  1.
       -2    1    3    3    0  502  0.45754747146E+03 -0.12185322542E+03  0.88005007346E+03  0.99934279854E+03  0.25500000920E-02 0. -1.
</event>
<event>
 5   0  0.1782613E-04  0.1840283E+04  0.7818609E-02  0.8685166E-01
       -1   -1    0    0    0  501  0.00000000000E+00  0.00000000000E+00  0.44235840651E+03  0.44235840654E+03  0.50400001928E-02 0.  1.
        1   -1    0    0  501    0  0.00000000000E+00  0.00000000000E+00 -0.19139686278E+04  0.19139686278E+04  0.50400001928E-02 0. -1.
    10030    2    1    2    0    0  0.00000000000E+00  0.00000000000E+00 -0.14716102213E+04  0.23563270343E+04  0.18402827091E+04 0.  0.
        3    1    3    3  502    0  0.98709705750E+02  0.55775361142E+01 -0.19071479117E+04  0.19097088475E+04  0.10100000352E+00 0. -1.
       -3    1    3    3    0  502 -0.98709705750E+02 -0.55775361142E+01  0.43553769037E+03  0.44661818688E+03  0.10100000352E+00 0.  1.
</event>
<event>
 5   0  0.3535876E-04  0.1962062E+04  0.7818609E-02  0.8624566E-01
       -2   -1    0    0    0  501  0.00000000000E+00  0.00000000000E+00  0.46613521115E+03  0.46613521115E+03  0.25500000920E-02 0. -1.
        2   -1    0    0  501    0  0.00000000000E+00  0.00000000000E+00 -0.20646828551E+04  0.20646828551E+04  0.25500000920E-02 0.  1.
    10030    2    1    2    0    0  0.00000000000E+00  0.00000000000E+00 -0.15985476440E+04  0.25308180663E+04  0.19620615471E+04 0.  0.
        2    1    3    3  502    0  0.42078530760E+03  0.41269825601E+03 -0.18108542610E+04  0.19043563953E+04  0.25500000920E-02 0.  1.
       -2    1    3    3    0  502 -0.42078530760E+03 -0.41269825601E+03  0.21230661702E+03  0.62646167101E+03  0.25500000920E-02 0. -1.
</event>
<event>
 5   0  0.1694830E-04  0.1914404E+04  0.7818609E-02  0.8647720E-01
        1   -1    0    0  501    0  0.00000000000E+00  0.00000000000E+00  0.15710093428E+04  0.15710093428E+04  0.50400001928E-02 0.  1.
       -1   -1    0    0    0  501  0.00000000000E+00  0.00000000000E+00 -0.58321468796E+03  0.58321468798E+03  0.50400001928E-02 0. -1.
    10030    2    1    2    0    0  0.00000000000E+00  0.00000000000E+00  0.98779465481E+03  0.21542240308E+04  0.19144040573E+04 0.  0.
        1    1    3    3  502    0  0.82585297997E+03 -0.20477828157E+03  0.48356896957E+00  0.85086281091E+03  0.50400001928E-02 0.  1.
       -1    1    3    3    0  502 -0.82585297997E+03  0.20477828157E+03  0.98731108584E+03  0.13033612198E+04  0.50400001928E-02 0. -1.
</event>
<event>
 5   0  0.1694830E-04  0.1920227E+04  0.7818609E-02  0.8644853E-01
       -1   -1    0    0    0  501  0.00000000000E+00  0.00000000000E+00  0.88254807701E+03  0.88254807702E+03  0.50400001928E-02 0.  1.
        1   -1    0    0  501    0  0.00000000000E+00  0.00000000000E+00 -0.10444965255E+04  0.10444965255E+04  0.50400001928E-02 0. -1.
    10030    2    1    2    0    0  0.00000000000E+00  0.00000000000E+00 -0.16194844848E+03  0.19270446025E+04  0.19202274866E+04 0.  0.
        1    1    3    3  502    0  0.25015201841E+03 -0.49387395927E+03 -0.86818936786E+03  0.10296797067E+04  0.50400001928E-02 0. -1.
       -1    1    3    3    0  502 -0.25015201841E+03  0.49387395927E+03  0.70624091938E+03  0.89736489579E+03  0.50400001928E-02 0.  1.
</event>
<event>
 5   0  0.1758946E-04  0.2196930E+04  0.7818609E-02  0.8519707E-01
        1   -1    0    0  501    0  0.00000000000E+00  0.00000000000E+00  0.13218784395E+04  0.13218784395E+04  0.50400001928E-02 0. -1.
       -1   -1    0    0    0  501  0.00000000000E+00  0.00000000000E+00 -0.91281141936E+03  0.91281141937E+03  0.50400001928E-02 0.  1.
    10030    2    1    2    0    0  0.00000000000E+00  0.00000000000E+00  0.40906702016E+03  0.22346898589E+04  0.21969303445E+04 0.  0.
        2    1    3    3  502    0  0.73385230906E+03 -0.81536977926E+03  0.26259919785E+03  0.11279740366E+04  0.25500000920E-02 0.  1.
       -2    1    3    3    0  502 -0.73385230906E+03  0.81536977926E+03  0.14646782231E+03  0.11067158223E+04  0.25500000920E-02 0. -1.
</event>
<event>
 5   0  0.3516539E-04  0.1939486E+04  0.7818609E-02  0.8635448E-01
        2   -1    0    0  501    0  0.00000000000E+00  0.00000000000E+00  0.12261326678E+04  0.12261326678E+04  0.25500000920E-02 0. -1.
       -2   -1    0    0    0  501  0.00000000000E+00  0.00000000000E+00 -0.76696538713E+03  0.76696538713E+03  0.25500000920E-02 0.  1.
    10030    2    1    2    0    0  0.00000000000E+00  0.00000000000E+00  0.45916728064E+03  0.19930980549E+04  0.19394858249E+04 0.  0.
        4    1    3    3  502    0 -0.66397631043E+03 -0.19386929725E+03  0.92804031908E+03  0.11574585487E+04  0.12699999809E+01 0. -1.
       -4    1    3    3    0  502  0.66397631043E+03  0.19386929725E+03 -0.46887303844E+03  0.83563950619E+03  0.12699999809E+01 0.  1.
</event>
<event>
 5   0  0.1287000E-04  0.1866921E+04  0.7818609E-02  0.8671499E-01
        4   -1    0    0  501    0  0.00000000000E+00  0.00000000000E+00  0.92454990027E+03  0.92455077253E+03  0.12699999809E+01 0.  1.
       -4   -1    0    0    0  501  0.00000000000E+00  0.00000000000E+00 -0.94245513558E+03  0.94245599127E+03  0.12699999809E+01 0. -1.
    10030    2    1    2    0    0  0.00000000000E+00  0.00000000000E+00 -0.17905235305E+02  0.18670067638E+04  0.18669209032E+04 0.  0.
        4    1    3    3  502    0  0.55853170967E+03 -0.63903203625E+03 -0.39759265630E+03  0.93723057319E+03  0.12699999809E+01 0. -1.
       -4    1    3    3    0  502 -0.55853170967E+03  0.63903203625E+03  0.37968742100E+03  0.92977619061E+03  0.12699999809E+01 0.  1.
</event>
<event>
 5   0  0.3516539E-04  0.1887846E+04  0.7818609E-02  0.8660930E-01
        2   -1    0    0  501    0  0.00000000000E+00  0.00000000000E+00  0.16928150588E+04  0.16928150588E+04  0.25500000920E-02 0. -1.
       -2   -1    0    0    0  501  0.00000000000E+00  0.00000000000E+00 -0.52633644815E+03  0.52633644815E+03  0.25500000920E-02 0.  1.
    10030    2    1    2    0    0  0.00000000000E+00  0.00000000000E+00  0.11664786107E+04  0.22191515070E+04  0.18878456139E+04 0.  0.
        4    1    3    3  502    0  0.34570999175E+02 -0.74683828598E+03 -0.94100459893E+02  0.75353771561E+03  0.12699999809E+01 0.  1.
       -4    1    3    3    0  502 -0.34570999175E+02  0.74683828598E+03  0.12605790706E+04  0.14656137914E+04  0.12699999809E+01 0. -1.
</event>
<event>
 5   0  0.3720978E-04  0.1879681E+04  0.7818609E-02  0.8665037E-01
       -2   -1    0    0    0  501  0.00000000000E+00  0.00000000000E+00  0.79169535174E+03  0.79169535174E+03  0.25500000920E-02 0.  1.
        2   -1    0    0  501    0  0.00000000000E+00  0.00000000000E+00 -0.11157074085E+04  0.11157074085E+04  0.25500000920E-02 0. -1.
    10030    2    1    2    0    0  0.00000000000E+00  0.00000000000E+00 -0.32401205680E+03  0.19074027603E+04  0.18796812169E+04 0.  0.
        1    1    3    3  502    0 -0.29811931158E+02 -0.19826615266E+03 -0.10937536733E+04  0.11119781097E+04  0.50400001928E-02 0. -1.
       -1    1    3    3    0  502  0.29811931158E+02  0.19826615266E+03  0.76974161652E+03  0.79542465058E+03  0.50400001928E-02 0.  1.
</event>
<event>
 5   0  0.3623359E-04  0.1860100E+04  0.7818609E-02  0.8674976E-01
        2   -1    0    0  501    0  0.00000000000E+00  0.00000000000E+00  0.13383608288E+04  0.13383608288E+04  0.25500000920E-02 0. -1.
       -2   -1    0    0    0  501  0.00000000000E+00  0.00000000000E+00 -0.64630792034E+03  0.64630792035E+03  0.25500000920E-02 0.  1.
    10030    2    1    2    0    0  0.00000000000E+00  0.00000000000E+00  0.69205290845E+03  0.19846687491E+04  0.18601002166E+04 0.  0.
        5    1    3    3  502    0 -0.48787519393E+03 -0.28642889650E+03  0.11336397509E+04  0.12669747008E+04  0.46999998093E+01 0. -1.
       -5    1    3    3    0  502  0.48787519393E+03  0.28642889650E+03 -0.44158684246E+03  0.71769404835E+03  0.46999998093E+01 0.  1.
</event>
<event>
 5   0  0.3459485E-04  0.1885505E+04  0.7818609E-02  0.8662105E-01
        2   -1    0    0  501    0  0.00000000000E+00  0.00000000000E+00  0.70125317152E+03  0.70125317152E+03  0.25500000920E-02 0. -1.
       -2   -1    0    0    0  501  0.00000000000E+00  0.00000000000E+00 -0.12674202187E+04  0.12674202187E+04  0.25500000920E-02 0.  1.
    10030    2    1    2    0    0  0.00000000000E+00  0.00000000000E+00 -0.56616704721E+03  0.19686733903E+04  0.18855051822E+04 0.  0.
        3    1    3    3  502    0  0.42941083606E+03 -0.49719679902E+03  0.42289502782E+03  0.78130566223E+03  0.10100000352E+00 0. -1.
       -3    1    3    3    0  502 -0.42941083606E+03  0.49719679902E+03 -0.98906207503E+03  0.11873677280E+04  0.10100000352E+00 0.  1.
</event>
<event>
 5   0  0.3516539E-04  0.1924935E+04  0.7818609E-02  0.8642543E-01
       -2   -1    0    0    0  501  0.00000000000E+00  0.00000000000E+00  0.73785127815E+03  0.73785127815E+03  0.25500000920E-02 0.  1.
        2   -1    0    0  501    0  0.00000000000E+00  0.00000000000E+00 -0.12554612717E+04  0.12554612717E+04  0.25500000920E-02 0. -1.
    10030    2    1    2    0    0  0.00000000000E+00  0.00000000000E+00 -0.51760999353E+03  0.19933125498E+04  0.19249350160E+04 0.  0.
        4    1    3    3  502    0  0.66553403146E+03  0.35610527211E+03 -0.87717342198E+03  0.11572300277E+04  0.12699999809E+01 0. -1.
       -4    1    3    3    0  502 -0.66553403146E+03 -0.35610527211E+03  0.35956342845E+03  0.83608252214E+03  0.12699999809E+01 0.  1.
</event>
<event>
 5   0  0.1782613E-04  0.1907829E+04  0.7818609E-02  0.8650969E-01
       -1   -1    0    0    0  501  0.00000000000E+00  0.00000000000E+00  0.77183172142E+03  0.77183172144E+03  0.50400001928E-02 0.  1.
        1   -1    0    0  501    0  0.00000000000E+00  0.00000000000E+00 -0.11789522449E+04  0.11789522449E+04  0.50400001928E-02 0. -1.
    10030    2    1    2    0    0  0.00000000000E+00  0.00000000000E+00 -0.40712052345E+03  0.19507839663E+04  0.19078288609E+04 0.  0.
        3    1    3    3  502    0  0.32418919070E+03 -0.89327368044E+03 -0.28859659114E+03  0.99313871244E+03  0.10100000352E+00 0.  1.
       -3    1    3    3    0  502 -0.32418919070E+03  0.89327368044E+03 -0.11852393231E+03  0.95764525387E+03  0.10100000352E+00 0. -1.
</event>
<event>
 5   0  0.1758946E-04  0.1836251E+04  0.7818609E-02  0.8687256E-01
       -1   -1    0    0    0  501  0.00000000000E+00  0.00000000000E+00  0.10733394942E+04  0.10733394942E+04  0.50400001928E-02 0. -1.
        1   -1    0    0  501    0  0.00000000000E+00  0.00000000000E+00 -0.78535653182E+03  0.78535653184E+03  0.50400001928E-02 0.  1.
    10030    2    1    2    0    0  0.00000000000E+00  0.00000000000E+00  0.28798296237E+03  0.18586960260E+04  0.18362507265E+04 0.  0.
        2    1    3    3  502    0 -0.19822737462E+03  0.83268584763E+03  0.48015691992E+03  0.98143287119E+03  0.25500000920E-02 0. -1.
       -2    1    3    3    0  502  0.19822737462E+03 -0.83268584763E+03 -0.19217395755E+03  0.87726315486E+03  0.25500000920E-02 0.  1.
</event>
<event>
 5   0  0.1813834E-04  0.1881315E+04  0.7818609E-02  0.8664214E-01
       -1   -1    0    0    0  501  0.00000000000E+00  0.00000000000E+00  0.10447650928E+04  0.10447650928E+04  0.50400001928E-02 0. -1.
        1   -1    0    0  501    0  0.00000000000E+00  0.00000000000E+00 -0.84692359456E+03  0.84692359457E+03  0.50400001928E-02 0.  1.
    10030    2    1    2    0    0  0.00000000000E+00  0.00000000000E+00  0.19784149827E+03  0.18916886874E+04  0.18813146551E+04 0.  0.
        5    1    3    3  502    0 -0.41982198205E+03 -0.72437645426E+03 -0.33221202406E+03  0.90075449654E+03  0.46999998093E+01 0.  1.
       -5    1    3    3    0  502  0.41982198205E+03  0.72437645426E+03  0.53005352234E+03  0.99093419087E+03  0.46999998093E+01 0. -1.
</event>
<event>
 5   0  0.3516539E-04  0.1864661E+04  0.7818609E-02  0.8672650E-01
        2   -1    0    0  501    0  0.00000000000E+00  0.00000000000E+00  0.18932595549E+04  0.18932595549E+04  0.25500000920E-02 0. -1.
       -2   -1    0    0    0  501  0.00000000000E+00  0.00000000000E+00 -0.45912350296E+03  0.45912350297E+03  0.25500000920E-02 0.  1.
    10030    2    1    2    0    0  0.00000000000E+00  0.00000000000E+00  0.14341360519E+04  0.23523830578E+04  0.18646607829E+04 0.  0.
        4    1    3    3  502    0  0.22220567891E+03  0.10459309943E+03  0.18517178999E+04  0.18679335839E+04  0.12699999809E+01 0. -1.
       -4    1    3    3    0  502 -0.22220567891E+03 -0.10459309943E+03 -0.41758184795E+03  0.48444947396E+03  0.12699999809E+01 0.  1.
</event>
<event>
 5   0  0.1694830E-04  0.1890858E+04  0.7818609E-02  0.8659420E-01
        1   -1    0    0  501    0  0.00000000000E+00  0.00000000000E+00  0.13290873778E+04  0.13290873778E+04  0.50400001928E-02 0.  1.
       -1   -1    0    0    0  501  0.00000000000E+00  0.00000000000E+00 -0.67251866448E+03  0.67251866450E+03  0.50400001928E-02 0. -1.
    10030    2    1    2    0    0  0.00000000000E+00  0.00000000000E+00  0.65656871333E+03  0.20016060423E+04  0.18908580786E+04 0.  0.
        1    1    3    3  502    0 -0.39450835353E+03  0.62306004630E+03  0.95453883127E+03  0.12062276082E+04  0.50400001928E-02 0.  1.
       -1    1    3    3    0  502  0.39450835353E+03 -0.62306004630E+03 -0.29797011794E+03  0.79537843415E+03  0.50400001928E-02 0. -1.
</event>
<event>
 5   0  0.1813834E-04  0.1967477E+04  0.7818609E-02  0.8621979E-01
        1   -1    0    0  501    0  0.00000000000E+00  0.00000000000E+00  0.14760139836E+04  0.14760139836E+04  0.50400001928E-02 0. -1.
       -1   -1    0    0    0  501  0.00000000000E+00  0.00000000000E+00 -0.65564502891E+03  0.65564502893E+03  0.50400001928E-02 0.  1.
    10030    2    1    2    0    0  0.00000000000E+00  0.00000000000E+00  0.82036895467E+03  0.21316590125E+04  0.19674767912E+04 0.  0.
        5    1    3    3  502    0  0.21711080835E+03  0.94567612721E+03  0.58581906988E+03  0.11334224779E+04  0.46999998093E+01 0. -1.
       -5    1    3    3    0  502 -0.21711080835E+03 -0.94567612721E+03  0.23454988478E+03  0.99823653465E+03  0.46999998093E+01 0.  1.
</event>
<event>
 5   0  0.1694830E-04  0.1878470E+04  0.7818609E-02  0.8665648E-01
        1   -1    0    0  501    0  0.00000000000E+00  0.00000000000E+00  0.17506856858E+04  0.17506856858E+04  0.50400001928E-02 0. -1.
       -1   -1    0    0    0  501  0.00000000000E+00  0.00000000000E+00 -0.50389540190E+03  0.50389540192E+03  0.50400001928E-02 0.  1.
    10030    2    1    2    0    0  0.00000000000E+00  0.00000000000E+00  0.12467902839E+04  0.22545810877E+04  0.18784700874E+04 0.  0.
        1    1    3    3  502    0  0.22819338870E+03  0.90855361422E+03  0.54181028179E+03  0.10821738650E+04  0.50400001928E-02 0.  1.
       -1    1    3    3    0  502 -0.22819338870E+03 -0.90855361422E+03  0.70498000210E+03  0.11724072227E+04  0.50400001928E-02 0. -1.
</event>
<event>
 5   0  0.1758946E-04  0.1797558E+04  0.7818609E-02  0.8707599E-01
       -1   -1    0    0    0  501  0.00000000000E+00  0.00000000000E+00  0.15238225067E+04  0.15238225067E+04  0.50400001928E-02 0.  1.
        1   -1    0    0  501    0  0.00000000000E+00  0.00000000000E+00 -0.53011668167E+03  0.53011668170E+03  0.50400001928E-02 0. -1.
    10030    2    1    2    0    0  0.00000000000E+00  0.00000000000E+00  0.99370582506E+03  0.20539391884E+04  0.17975580444E+04 0.  0.
        2    1    3    3  502    0  0.41197957927E+03  0.22677703810E+03  0.13720255410E+04  0.14503823923E+04  0.25500000920E-02 0.  1.
       -2    1    3    3    0  502 -0.41197957927E+03 -0.22677703810E+03 -0.37831971590E+03  0.60355679617E+03  0.25500000920E-02 0. -1.
</event>
<event>
 5   0  0.3623359E-04  0.1903640E+04  0.7818609E-02  0.8653047E-01
        2   -1    0    0  501    0  0.00000000000E+00  0.00000000000E+00  0.81191205876E+03  0.81191205876E+03  0.25500000920E-02 0. -1.
       -2   -1    0    0    0  501  0.00000000000E+00  0.00000000000E+00 -0.11158364481E+04  0.11158364481E+04  0.25500000920E-02 0.  1.
    10030    2    1    2    0    0  0.00000000000E+00  0.00000000000E+00 -0.30392438933E+03  0.19277485069E+04  0.19036397430E+04 0.  0.
        5    1    3    3  502    0 -0.47358199674E+03  0.42692527147E+02  0.68300194778E+03  0.83223572994E+03  0.46999998093E+01 0. -1.
       -5    1    3    3    0  502  0.47358199674E+03 -0.42692527147E+02 -0.98692633711E+03  0.10955127769E+04  0.46999998093E+01 0.  1.
</event>
<event>
 5   0  0.3516539E-04  0.1914936E+04  0.7818609E-02  0.8647457E-01
        2   -1    0    0  501    0  0.00000000000E+00  0.00000000000E+00  0.76886090450E+03  0.76886090451E+03  0.25500000920E-02 0.  1.
       -2   -1    0    0    0  501  0.00000000000E+00  0.00000000000E+00 -0.11923420046E+04  0.11923420046E+04  0.25500000920E-02 0. -1.
    10030    2    1    2    0    0  0.00000000000E+00  0.00000000000E+00 -0.42348110008E+03  0.19612029091E+04  0.19149361891E+04 0.  0.
        4    1    3    3  502    0  0.46114054140E+03  0.45312930797E+03  0.51155697316E+03  0.82442035294E+03  0.12699999809E+01 0.  1.
       -4    1    3    3    0  502 -0.46114054140E+03 -0.45312930797E+03 -0.93503807324E+03  0.11367825562E+04  0.12699999809E+01 0. -1.
</event>
<event>
 5   0  0.1782613E-04  0.1951039E+04  0.7818609E-02  0.8629860E-01
        1   -1    0    0  501    0  0.00000000000E+00  0.00000000000E+00  0.10437856554E+04  0.10437856554E+04  0.50400001928E-02 0.  1.
       -1   -1    0    0    0  501  0.00000000000E+00  0.00000000000E+00 -0.91171776594E+03  0.91171776595E+03  0.50400001928E-02 0. -1.
    10030    2    1    2    0    0  0.00000000000E+00  0.00000000000E+00  0.13206788947E+03  0.19555034214E+04  0.19510386218E+04 0.  0.
        3    1    3    3  502    0  0.41815546368E+03  0.45017915471E+03 -0.69340883055E+03  0.92646159101E+03  0.10100000352E+00 0. -1.
       -3    1    3    3    0  502 -0.41815546368E+03 -0.45017915471E+03  0.82547672002E+03  0.10290418304E+04  0.10100000352E+00 0.  1.
</event>
<event>
 5   0  0.1758946E-04  0.1867429E+04  0.7818609E-02  0.8671241E-01
       -1   -1    0    0    0  501  0.00000000000E+00  0.00000000000E+00  0.55675492101E+03  0.55675492103E+03  0.50400001928E-02 0. -1.
        1   -1    0    0  501    0  0.00000000000E+00  0.00000000000E+00 -0.15659005200E+04  0.15659005200E+04  0.50400001928E-02 0.  1.
    10030    2    1    2    0    0  0.00000000000E+00  0.00000000000E+00 -0.10091455990E+04  0.21226554410E+04  0.18674290566E+04 0.  0.
        2    1    3    3  502    0  0.20361431293E+03 -0.32587670248E+02  0.53054974504E+03  0.56921329627E+03  0.25500000920E-02 0. -1.
       -2    1    3    3    0  502 -0.20361431293E+03  0.32587670248E+02 -0.15396953440E+04  0.15534421447E+04  0.25500000920E-02 0.  1.
</event>
<event>
 5   0  0.3516539E-04  0.1908254E+04  0.7818609E-02  0.8650758E-01
        2   -1    0    0  501    0  0.00000000000E+00  0.00000000000E+00  0.17035807966E+04  0.17035807966E+04  0.25500000920E-02 0. -1.
       -2   -1    0    0    0  501  0.00000000000E+00  0.00000000000E+00 -0.53437959044E+03  0.53437959044E+03  0.25500000920E-02 0.  1.
    10030    2    1    2    0    0  0.00000000000E+00  0.00000000000E+00  0.11692012061E+04  0.22379603870E+04  0.19082544991E+04 0.  0.
        4    1    3    3  502    0  0.11991422857E+02  0.76204548488E+03 -0.88599017253E+02  0.76727342845E+03  0.12699999809E+01 0.  1.
       -4    1    3    3    0  502 -0.11991422857E+02 -0.76204548488E+03  0.12578002234E+04  0.14706869586E+04  0.12699999809E+01 0. -1.
</event>
<event>
 5   0  0.1694830E-04  0.1895989E+04  0.7818609E-02  0.8656855E-01
       -1   -1    0    0    0  501  0.00000000000E+00  0.00000000000E+00  0.44483176944E+03  0.44483176947E+03  0.50400001928E-02 0.  1.
        1   -1    0    0  501    0  0.00000000000E+00  0.00000000000E+00 -0.20203005879E+04  0.20203005879E+04  0.50400001928E-02 0. -1.
    10030    2    1    2    0    0  0.00000000000E+00  0.00000000000E+00 -0.15754688184E+04  0.24651323573E+04  0.18959893305E+04 0.  0.
        1    1    3    3  502    0 -0.51791867991E+03 -0.58262849979E+03 -0.86360715474E+02  0.78431747460E+03  0.50400001928E-02 0.  1.
       -1    1    3    3    0  502  0.51791867991E+03  0.58262849979E+03 -0.14891081029E+04  0.16808148827E+04  0.50400001928E-02 0. -1.
</event>
<event>
 5   0  0.3720978E-04  0.1457939E+04  0.7818609E-02  0.8912915E-01
        2   -1    0    0  501    0  0.00000000000E+00  0.00000000000E+00  0.94068849237E+03  0.94068849237E+03  0.25500000920E-02 0.  1.
       -2   -1    0    0    0  501  0.00000000000E+00  0.00000000000E+00 -0.56490145693E+03  0.56490145693E+03  0.25500000920E-02 0. -1.
    10030    2    1    2    0    0  0.00000000000E+00  0.00000000000E+00  0.37578703544E+03  0.15055899493E+04  0.14579386816E+04 0.  0.
        1    1    3    3  502    0  0.24640767435E+03  0.66575269101E+03  0.16788927963E+02  0.71008820276E+03  0.50400001928E-02 0. -1.
       -1    1    3    3    0  502 -0.24640767435E+03 -0.66575269101E+03  0.35899810747E+03  0.79550174655E+03  0.50400001928E-02 0.  1.
</event>
<event>
 5   0  0.1694830E-04  0.1880015E+04  0.7818609E-02  0.8664868E-01
       -1   -1    0    0    0  501  0.00000000000E+00  0.00000000000E+00  0.73872838303E+03  0.73872838304E+03  0.50400001928E-02 0. -1.
        1   -1    0    0  501    0  0.00000000000E+00  0.00000000000E+00 -0.11961291111E+04  0.11961291111E+04  0.50400001928E-02 0.  1.
    10030    2    1    2    0    0  0.00000000000E+00  0.00000000000E+00 -0.45740072810E+03  0.19348574942E+04  0.18800154512E+04 0.  0.
        1    1    3    3  502    0  0.85744865719E+03 -0.34330344931E+03 -0.48848293667E+02  0.92491167894E+03  0.50400001928E-02 0.  1.
       -1    1    3    3    0  502 -0.85744865719E+03  0.34330344931E+03 -0.40855243443E+03  0.10099458152E+04  0.50400001928E-02 0. -1.
</event>
<event>
 5   0  0.1694830E-04  0.1832951E+04  0.7818609E-02  0.8688970E-01
        1   -1    0    0  501    0  0.00000000000E+00  0.00000000000E+00  0.16731523190E+04  0.16731523190E+04  0.50400001928E-02 0. -1.
       -1   -1    0    0    0  501  0.00000000000E+00  0.00000000000E+00 -0.50200306566E+03  0.50200306569E+03  0.50400001928E-02 0.  1.
    10030    2    1    2    0    0  0.00000000000E+00  0.00000000000E+00  0.11711492533E+04  0.21751553847E+04  0.18329512743E+04 0.  0.
        1    1    3    3  502    0  0.23146968585E+03 -0.55935467575E+03  0.14021314097E+04  0.15272289805E+04  0.50400001928E-02 0. -1.
       -1    1    3    3    0  502 -0.23146968585E+03  0.55935467575E+03 -0.23098215633E+03  0.64792640424E+03  0.50400001928E-02 0.  1.
</event>
<event>
 5   0  0.3459485E-04  0.1910557E+04  0.7818609E-02  0.8649619E-01
        2   -1    0    0  501    0  0.00000000000E+00  0.00000000000E+00  0.12859778610E+04  0.12859778610E+04  0.25500000920E-02 0. -1.
       -2   -1    0    0    0  501  0.00000000000E+00  0.00000000000E+00 -0.70962095348E+03  0.70962095349E+03  0.25500000920E-02 0.  1.
    10030    2    1    2    0    0  0.00000000000E+00  0.00000000000E+00  0.57635690750E+03  0.19955988145E+04  0.19105568150E+04 0.  0.
        3    1    3    3  502    0  0.51443027861E+03 -0.19442756260E+03  0.11040458380E+04  0.12334333428E+04  0.10100000352E+00 0. -1.
       -3    1    3    3    0  502 -0.51443027861E+03  0.19442756260E+03 -0.52768893046E+03  0.76216547166E+03  0.10100000352E+00 0.  1.
</event>
<event>
 5   0  0.1813834E-04  0.1893175E+04  0.7818609E-02  0.8658261E-01
        1   -1    0    0  501    0  0.00000000000E+00  0.00000000000E+00  0.15641194019E+04  0.15641194019E+04  0.50400001928E-02 0. -1.
       -1   -1    0    0    0  501  0.00000000000E+00  0.00000000000E+00 -0.57286416435E+03  0.57286416437E+03  0.50400001928E-02 0.  1.
    10030    2    1    2    0    0  0.00000000000E+00  0.00000000000E+00  0.99125523754E+03  0.21369835663E+04  0.18931750623E+04 0.  0.
        5    1    3    3  502    0  0.91982157499E+03  0.22324947905E+03  0.48469505408E+03  0.10634206342E+04  0.46999998093E+01 0.  1.
       -5    1    3    3    0  502 -0.91982157499E+03 -0.22324947905E+03  0.50656018346E+03  0.10735629321E+04  0.46999998093E+01 0. -1.
</event>
<event>
 5   0  0.3459485E-04  0.1908445E+04  0.7818609E-02  0.8650664E-01
       -2   -1    0    0    0  501  0.00000000000E+00  0.00000000000E+00  0.73897592443E+03  0.73897592443E+03  0.25500000920E-02 0.  1.
        2   -1    0    0  501    0  0.00000000000E+00  0.00000000000E+00 -0.12321651147E+04  0.12321651147E+04  0.25500000920E-02 0. -1.
    10030    2    1    2    0    0  0.00000000000E+00  0.00000000000E+00 -0.49318919022E+03  0.19711410391E+04  0.19084447644E+04 0.  0.
        3    1    3    3  502    0 -0.62701094355E+03  0.35867262559E+03  0.39738807811E+03  0.82444288493E+03  0.10100000352E+00 0.  1.
       -3    1    3    3    0  502  0.62701094355E+03 -0.35867262559E+03 -0.89057726834E+03  0.11466981542E+04  0.10100000352E+00 0. -1.
</event>
<event>
 5   0  0.3516539E-04  0.1970928E+04  0.7818609E-02  0.8620335E-01
        2   -1    0    0  501    0  0.00000000000E+00  0.00000000000E+00  0.10763922199E+04  0.10763922199E+04  0.25500000920E-02 0. -1.
       -2   -1    0    0    0  501  0.00000000000E+00  0.00000000000E+00 -0.90221666850E+03  0.90221666850E+03  0.25500000920E-02 0.  1.
    10030    2    1    2    0    0  0.00000000000E+00  0.00000000000E+00  0.17417555138E+03  0.19786088884E+04  0.19709277030E+04 0.  0.
        4    1    3    3  502    0  0.93029970979E+03 -0.23263669079E+03 -0.14086545798E+03  0.96923788106E+03  0.12699999809E+01 0.  1.
       -4    1    3    3    0  502 -0.93029970979E+03  0.23263669079E+03  0.31504100936E+03  0.10093710073E+04  0.12699999809E+01 0. -1.
</event>
<event>
 5   0  0.3459485E-04  0.1846956E+04  0.7818609E-02  0.8681720E-01
        2   -1    0    0  501    0  0.00000000000E+00  0.00000000000E+00  0.82112592009E+03  0.82112592009E+03  0.25500000920E-02 0.  1.
       -2   -1    0    0    0  501  0.00000000000E+00  0.00000000000E+00 -0.10385879339E+04  0.10385879339E+04  0.25500000920E-02 0. -1.
    10030    2    1    2    0    0  0.00000000000E+00  0.00000000000E+00 -0.21746201384E+03  0.18597138540E+04  0.18469558445E+04 0.  0.
        3    1    3    3  502    0 -0.48911550343E+03 -0.11194092420E+03  0.67189628002E+03  0.83857579712E+03  0.10100000352E+00 0.  1.
       -3    1    3    3    0  502  0.48911550343E+03  0.11194092420E+03 -0.88935829385E+03  0.10211380569E+04  0.10100000352E+00 0. -1.
</event>
<event>
 5   0  0.3720978E-04  0.1886617E+04  0.7818609E-02  0.8661547E-01
        2   -1    0    0  501    0  0.00000000000E+00  0.00000000000E+00  0.85618852480E+03  0.85618852480E+03  0.25500000920E-02 0.  1.
       -2   -1    0    0    0  501  0.00000000000E+00  0.00000000000E+00 -0.10392936459E+04  0.10392936459E+04  0.25500000920E-02 0. -1.
    10030    2    1    2    0    0  0.00000000000E+00  0.00000000000E+00 -0.18310512107E+03  0.18954821707E+04  0.18866173894E+04 0.  0.
        1    1    3    3  502    0 -0.45122411938E+03  0.43329775854E+03 -0.80090201052E+03  0.10162648198E+04  0.50400001928E-02 0. -1.
       -1    1    3    3    0  502  0.45122411938E+03 -0.43329775854E+03  0.61779688944E+03  0.87921735089E+03  0.50400001928E-02 0.  1.
</event>
<event>
 5   0  0.1758946E-04  0.1913030E+04  0.7818609E-02  0.8648398E-01
       -1   -1    0    0    0  501  0.00000000000E+00  0.00000000000E+00  0.42118413497E+03  0.42118413500E+03  0.50400001928E-02 0. -1.
        1   -1    0    0  501    0  0.00000000000E+00  0.00000000000E+00 -0.21722581902E+04  0.21722581902E+04  0.50400001928E-02 0.  1.
    10030    2    1    2    0    0  0.00000000000E+00  0.00000000000E+00 -0.17510740553E+04  0.25934423252E+04  0.19130297299E+04 0.  0.
        2    1    3    3  502    0  0.23559543296E+03  0.48914373076E+03 -0.19431273072E+04  0.20175506263E+04  0.25500000920E-02 0.  1.
       -2    1    3    3    0  502 -0.23559543296E+03 -0.48914373076E+03  0.19205325196E+03  0.57589169900E+03  0.25500000920E-02 0. -1.
</event>
<event>
 5   0  0.1711979E-04  0.1908023E+04  0.7818609E-02  0.8650873E-01
       -1   -1    0    0    0  501  0.00000000000E+00  0.00000000000E+00  0.78711798993E+03  0.78711798994E+03  0.50400001928E-02 0. -1.
        1   -1    0    0  501    0  0.00000000000E+00  0.00000000000E+00 -0.11562910656E+04  0.11562910656E+04  0.50400001928E-02 0.  1.
    10030    2    1    2    0    0  0.00000000000E+00  0.00000000000E+00 -0.36917307570E+03  0.19434090556E+04  0.19080225359E+04 0.  0.
        4    1    3    3  502    0 -0.15129850643E+02  0.71802623506E+03 -0.82420215126E+03  0.10932069272E+04  0.12699999809E+01 0.  1.
       -4    1    3    3    0  502  0.15129850643E+02 -0.71802623506E+03  0.45502907556E+03  0.85020212839E+03  0.12699999809E+01 0. -1.
</event>
<event>
 5   0  0.3623359E-04  0.1965048E+04  0.7818609E-02  0.8623139E-01
        2   -1    0    0  501    0  0.00000000000E+00  0.00000000000E+00  0.14168865352E+04  0.14168865352E+04  0.25500000920E-02 0.  1.
       -2   -1    0    0    0  501  0.00000000000E+00  0.00000000000E+00 -0.68131993681E+03  0.68131993681E+03  0.25500000920E-02 0. -1.
    10030    2    1    2    0    0  0.00000000000E+00  0.00000000000E+00  0.73556659843E+03  0.20982064721E+04  0.19650476276E+04 0.  0.
        5    1    3    3  502    0 -0.77720665947E+03 -0.42091539158E+03  0.82594101552E+03  0.12097192275E+04  0.46999998093E+01 0.  1.
       -5    1    3    3    0  502  0.77720665947E+03  0.42091539158E+03 -0.90374417089E+02  0.88848724451E+03  0.46999998093E+01 0. -1.
</event>
<event>
 5   0  0.1694830E-04  0.1928889E+04  0.7818609E-02  0.8640609E-01
        1   -1    0    0  501    0  0.00000000000E+00  0.00000000000E+00  0.55508958308E+03  0.55508958311E+03  0.50400001928E-02 0. -1.
       -1   -1    0    0    0  501  0.00000000000E+00  0.00000000000E+00 -0.16756812384E+04  0.16756812384E+04  0.50400001928E-02 0.  1.
    10030    2    1    2    0    0  0.00000000000E+00  0.00000000000E+00 -0.11205916553E+04  0.22307708215E+04  0.19288890067E+04 0.  0.
        1    1    3    3  502    0  0.90744904517E+03 -0.27794487185E+03 -0.36187480005E+03  0.10157118156E+04  0.50400001928E-02 0. -1.
       -1    1    3    3    0  502 -0.90744904517E+03  0.27794487185E+03 -0.75871685522E+03  0.12150590059E+04  0.50400001928E-02 0.  1.
</event>
<event>
 5   0  0.1711979E-04  0.1915244E+04  0.7818609E-02  0.8647306E-01
       -1   -1    0    0    0  501  0.00000000000E+00  0.00000000000E+00  0.47796252897E+03  0.47796252900E+03  0.50400001928E-02 0.  1.
        1   -1    0    0  501    0  0.00000000000E+00  0.00000000000E+00 -0.19186432073E+04  0.19186432073E+04  0.50400001928E-02 0. -1.
    10030    2    1    2    0    0  0.00000000000E+00  0.00000000000E+00 -0.14406806784E+04  0.23966057363E+04  0.19152436499E+04 0.  0.
        4    1    3    3  502    0 -0.31739651474E+03  0.86545625951E+03 -0.39575807025E+03  0.10031855002E+04  0.12699999809E+01 0.  1.
       -4    1    3    3    0  502  0.31739651474E+03 -0.86545625951E+03 -0.10449226081E+04  0.13934202361E+04  0.12699999809E+01 0. -1.
</event>
<event>
 5   0  0.1813834E-04  0.1302461E+04  0.7818609E-02  0.9027616E-01
        1   -1    0    0  501    0  0.00000000000E+00  0.00000000000E+00  0.73008560093E+03  0.73008560095E+03  0.50400001928E-02 0.  1.
       -1   -1    0    0    0  501  0.00000000000E+00  0.00000000000E+00 -0.58089222902E+03  0.58089222904E+03  0.50400001928E-02 0. -1.
    10030    2    1    2    0    0  0.00000000000E+00  0.00000000000E+00  0.14919337191E+03  0.13109778300E+04  0.13024608280E+04 0.  0.
        5    1    3    3  502    0 -0.20764868411E+03 -0.12991551462E+03  0.68193523084E+03  0.72460593844E+03  0.46999998093E+01 0.  1.
       -5    1    3    3    0  502  0.20764868411E+03  0.12991551462E+03 -0.53274185893E+03  0.58637189155E+03  0.46999998093E+01 0. -1.
</event>
<event>
 5   0  0.3516539E-04  0.1864753E+04  0.7818609E-02  0.8672603E-01
       -2   -1    0    0    0  501  0.00000000000E+00  0.00000000000E+00  0.73406675102E+03  0.73406675103E+03  0.25500000920E-02 0. -1.
        2   -1    0    0  501    0  0.00000000000E+00  0.00000000000E+00 -0.11842600109E+04  0.11842600109E+04  0.25500000920E-02 0.  1.
    10030    2    1    2    0    0  0.00000000000E+00  0.00000000000E+00 -0.45019325987E+03  0.19183267619E+04  0.18647529580E+04 0.  0.
        4    1    3    3  502    0  0.28582513632E+03 -0.85131636127E+03  0.32884353280E+02  0.89862035872E+03  0.12699999809E+01 0.  1.
       -4    1    3    3    0  502 -0.28582513632E+03  0.85131636127E+03 -0.48307761315E+03  0.10197064032E+04  0.12699999809E+01 0. -1.
</event>
<event>
 5   0  0.1694830E-04  0.1897275E+04  0.7818609E-02  0.8656214E-01
        1   -1    0    0  501    0  0.00000000000E+00  0.00000000000E+00  0.11486054824E+04  0.11486054824E+04  0.50400001928E-02 0.  1.
       -1   -1    0    0    0  501  0.00000000000E+00  0.00000000000E+00 -0.78348341622E+03  0.78348341624E+03  0.50400001928E-02 0. -1.
    10030    2    1    2    0    0  0.00000000000E+00  0.00000000000E+00  0.36512206615E+03  0.19320888986E+04  0.18972752539E+04 0.  0.
        1    1    3    3  502    0 -0.64287336341E+03  0.69621261390E+03  0.22712684245E+03  0.97446640153E+03  0.50400001928E-02 0. -1.
       -1    1    3    3    0  502  0.64287336341E+03 -0.69621261390E+03  0.13799522370E+03  0.95762249708E+03  0.50400001928E-02 0.  1.
</event>
<event>
 5   0  0.3535876E-04  0.1920803E+04  0.7818609E-02  0.8644570E-01
       -2   -1    0    0    0  501  0.00000000000E+00  0.00000000000E+00  0.76423188086E+03  0.76423188087E+03  0.25500000920E-02 0. -1.
        2   -1    0    0  501    0  0.00000000000E+00  0.00000000000E+00 -0.12069251881E+04  0.12069251881E+04  0.25500000920E-02 0.  1.
    10030    2    1    2    0    0  0.00000000000E+00  0.00000000000E+00 -0.44269330726E+03  0.19711570690E+04  0.19208026516E+04 0.  0.
        2    1    3    3  502    0  0.79463513578E+03 -0.48212684405E+03  0.26818037737E+02  0.92984434177E+03  0.25500000920E-02 0. -1.
       -2    1    3    3    0  502 -0.79463513578E+03  0.48212684405E+03 -0.46951134499E+03  0.10413127272E+04  0.25500000920E-02 0.  1.
</event>
<event>
 5   0  0.3623359E-04  0.1908816E+04  0.7818609E-02  0.8650480E-01
        2   -1    0    0  501    0  0.00000000000E+00  0.00000000000E+00  0.15788805449E+04  0.15788805449E+04  0.25500000920E-02 0. -1.
       -2   -1    0    0    0  501  0.00000000000E+00  0.00000000000E+00 -0.57692464685E+03  0.57692464685E+03  0.25500000920E-02 0.  1.
    10030    2    1    2    0    0  0.00000000000E+00  0.00000000000E+00  0.10019558980E+04  0.21558051917E+04  0.19088164928E+04 0.  0.
        5    1    3    3  502    0 -0.78946887600E+03 -0.35840517844E+03  0.50411270939E+02  0.86849223620E+03  0.46999998093E+01 0.  1.
       -5    1    3    3    0  502  0.78946887600E+03  0.35840517844E+03  0.95154462707E+03  0.12873129555E+04  0.46999998093E+01 0. -1.
</event>
<event>
 5   0  0.1782613E-04  0.2009236E+04  0.7818609E-02  0.8602315E-01
        1   -1    0    0  501    0  0.00000000000E+00  0.00000000000E+00  0.12866406233E+04  0.12866406233E+04  0.50400001928E-02 0.  1.
       -1   -1    0    0    0  501  0.00000000000E+00  0.00000000000E+00 -0.78441247175E+03  0.78441247176E+03  0.50400001928E-02 0. -1.
    10030    2    1    2    0    0  0.00000000000E+00  0.00000000000E+00  0.50222815156E+03  0.20710530951E+04  0.20092356274E+04 0.  0.
        3    1    3    3  502    0  0.49607762445E+03  0.48100501892E+02 -0.64798999323E+03  0.81749477631E+03  0.10100000352E+00 0. -1.
       -3    1    3    3    0  502 -0.49607762445E+03 -0.48100501892E+02  0.11502181448E+04  0.12535583188E+04  0.10100000352E+00 0.  1.
</event>
<event>
 5   0  0.1813834E-04  0.1911225E+04  0.7818609E-02  0.8649289E-01
       -1   -1    0    0    0  501  0.00000000000E+00  0.00000000000E+00  0.24330364902E+04  0.24330364902E+04  0.50400001928E-02 0. -1.
        1   -1    0    0  501    0  0.00000000000E+00  0.00000000000E+00 -0.37533148993E+03  0.37533148997E+03  0.50400001928E-02 0.  1.
    10030    2    1    2    0    0  0.00000000000E+00  0.00000000000E+00  0.20577050003E+04  0.28083679802E+04  0.19112249590E+04 0.  0.
        5    1    3    3  502    0 -0.32418449257E+03  0.17136463455E+03 -0.26782075653E+03  0.45410513190E+03  0.46999998093E+01 0.  1.
       -5    1    3    3    0  502  0.32418449257E+03 -0.17136463455E+03  0.23255257568E+04  0.23542628483E+04  0.46999998093E+01 0. -1.
</event>
<event>
 5   0  0.3535876E-04  0.1916496E+04  0.7818609E-02  0.8646688E-01
       -2   -1    0    0    0  501  0.00000000000E+00  0.00000000000E+00  0.59565703961E+03  0.59565703962E+03  0.25500000920E-02 0.  1.
        2   -1    0    0  501    0  0.00000000000E+00  0.00000000000E+00 -0.15415575144E+04  0.15415575144E+04  0.25500000920E-02 0. -1.
    10030    2    1    2    0    0  0.00000000000E+00  0.00000000000E+00 -0.94590047481E+03  0.21372145540E+04  0.19164963714E+04 0.  0.
        2    1    3    3  502    0  0.16279527954E+03 -0.18118845944E+03  0.56055683236E+03  0.61119188737E+03  0.25500000920E-02 0.  1.
       -2    1    3    3    0  502 -0.16279527954E+03  0.18118845944E+03 -0.15064573072E+04  0.15260226667E+04  0.25500000920E-02 0. -1.
</event>
<event>
 5   0  0.1711979E-04  0.1755375E+04  0.7818609E-02  0.8730397E-01
       -1   -1    0    0    0  501  0.00000000000E+00  0.00000000000E+00  0.46091660416E+03  0.46091660418E+03  0.50400001928E-02 0.  1.
        1   -1    0    0  501    0  0.00000000000E+00  0.00000000000E+00 -0.16713116400E+04  0.16713116400E+04  0.50400001928E-02 0. -1.
    10030    2    1    2    0    0  0.00000000000E+00  0.00000000000E+00 -0.12103950359E+04  0.21322282442E+04  0.17553749293E+04 0.  0.
        4    1    3    3  502    0 -0.78836857148E+03  0.21345380977E+03 -0.99549945890E+03  0.12876755488E+04  0.12699999809E+01 0. -1.
       -4    1    3    3    0  502  0.78836857148E+03 -0.21345380977E+03 -0.21489557695E+03  0.84455269540E+03  0.12699999809E+01 0.  1.
</event>
<event>
 5   0  0.3459485E-04  0.1865555E+04  0.7818609E-02  0.8672195E-01
        2   -1    0    0  501    0  0.00000000000E+00  0.00000000000E+00  0.15234432001E+04  0.15234432001E+04  0.25500000920E-02 0.  1.
       -2   -1    0    0    0  501  0.00000000000E+00  0.00000000000E+00 -0.57112299537E+03  0.57112299538E+03  0.25500000920E-02 0. -1.
    10030    2    1    2    0    0  0.00000000000E+00  0.00000000000E+00  0.95232020477E+03  0.20945661955E+04  0.18655545489E+04 0.  0.
        3    1    3    3  502    0 -0.28448562156E+03 -0.14276254618E+03 -0.50826252814E+03  0.59970327761E+03  0.10100000352E+00 0. -1.
       -3    1    3    3    0  502  0.28448562156E+03  0.14276254618E+03  0.14605827329E+04  0.14948629179E+04  0.10100000352E+00 0.  1.
</event>
<event>
 5   0  0.3623359E-04  0.1839673E+04  0.7818609E-02  0.8685482E-01
       -2   -1    0    0    0  501  0.00000000000E+00  0.00000000000E+00  0.46950900266E+03  0.46950900266E+03  0.25500000920E-02 0. -1.
        2   -1    0    0  501    0  0.00000000000E+00  0.00000000000E+00 -0.18020931076E+04  0.18020931076E+04  0.25500000920E-02 0.  1.
    10030    2    1    2    0    0  0.00000000000E+00  0.00000000000E+00 -0.13325841049E+04  0.22716021102E+04  0.18396727292E+04 0.  0.
        5    1    3    3  502    0  0.17065263785E+03 -0.65088208588E+03  0.10809405000E+03  0.68152492703E+03  0.46999998093E+01 0. -1.
       -5    1    3    3    0  502 -0.17065263785E+03  0.65088208588E+03 -0.14406781549E+04  0.15900771832E+04  0.46999998093E+01 0.  1.
</event>
<event>
 5   0  0.3720978E-04  0.1816934E+04  0.7818609E-02  0.8697346E-01
        2   -1    0    0  501    0  0.00000000000E+00  0.00000000000E+00  0.61824947920E+03  0.61824947920E+03  0.25500000920E-02 0. -1.
       -2   -1    0    0    0  501  0.00000000000E+00  0.00000000000E+00 -0.13349178019E+04  0.13349178019E+04  0.25500000920E-02 0.  1.
    10030    2    1    2    0    0  0.00000000000E+00  0.00000000000E+00 -0.71666832272E+03  0.19531672811E+04  0.18169339403E+04 0.  0.
        1    1    3    3  502    0  0.12029312904E+03 -0.56573487980E+03  0.39475486102E+03  0.70025551867E+03  0.50400001928E-02 0. -1.
       -1    1    3    3    0  502 -0.12029312904E+03  0.56573487980E+03 -0.11114231837E+04  0.12529117625E+04  0.50400001928E-02 0.  1.
</event>
<event>
 5   0  0.1711979E-04  0.1892977E+04  0.7818609E-02  0.8658360E-01
       -1   -1    0    0    0  501  0.00000000000E+00  0.00000000000E+00  0.46156768075E+03  0.46156768078E+03  0.50400001928E-02 0.  1.
        1   -1    0    0  501    0  0.00000000000E+00  0.00000000000E+00 -0.19408640658E+04  0.19408640658E+04  0.50400001928E-02 0. -1.
    10030    2    1    2    0    0  0.00000000000E+00  0.00000000000E+00 -0.14792963850E+04  0.24024317466E+04  0.18929766248E+04 0.  0.
        4    1    3    3  502    0  0.90830966507E+03  0.15297639073E+02 -0.40248463625E+03  0.99360754865E+03  0.12699999809E+01 0.  1.
       -4    1    3    3    0  502 -0.90830966507E+03 -0.15297639073E+02 -0.10768117488E+04  0.14088241979E+04  0.12699999809E+01 0. -1.
</event>
<event>
 5   0  0.3720978E-04  0.1881129E+04  0.7818609E-02  0.8664307E-01
        2   -1    0    0  501    0  0.00000000000E+00  0.00000000000E+00  0.20621979713E+04  0.20621979713E+04  0.25500000920E-02 0. -1.
       -2   -1    0    0    0  501  0.00000000000E+00  0.00000000000E+00 -0.42898947653E+03  0.42898947653E+03  0.25500000920E-02 0.  1.
    10030    2    1    2    0    0  0.00000000000E+00  0.00000000000E+00  0.16332084948E+04  0.24911874478E+04  0.18811286274E+04 0.  0.
        1    1    3    3  502    0  0.34910854400E+02 -0.95269150467E+02  0.20549291512E+04  0.20574325737E+04  0.50400001928E-02 0. -1.
       -1    1    3    3    0  502 -0.34910854400E+02  0.95269150467E+02 -0.42172065641E+03  0.43375487416E+03  0.50400001928E-02 0.  1.
</event>
<event>
 5   0  0.1711979E-04  0.1786250E+04  0.7818609E-02  0.8713646E-01
       -1   -1    0    0    0  501  0.00000000000E+00  0.00000000000E+00  0.68510771211E+03  0.68510771213E+03  0.50400001928E-02 0. -1.
        1   -1    0    0  501    0  0.00000000000E+00  0.00000000000E+00 -0.11643018568E+04  0.11643018568E+04  0.50400001928E-02 0.  1.
    10030    2    1    2    0    0  0.00000000000E+00  0.00000000000E+00 -0.47919414471E+03  0.18494095690E+04  0.17862499057E+04 0.  0.
        4    1    3    3  502    0 -0.55064733810E+03  0.16930257584E+03  0.46702656336E+03  0.74161396759E+03  0.12699999809E+01 0. -1.
       -4    1    3    3    0  502  0.55064733810E+03 -0.16930257584E+03 -0.94622070807E+03  0.11077956014E+04  0.12699999809E+01 0.  1.
</event>
<event>
 5   0  0.3516539E-04  0.1612629E+04  0.7818609E-02  0.8812827E-01
        2   -1    0    0  501    0  0.00000000000E+00  0.00000000000E+00  0.14526816601E+04  0.14526816601E+04  0.25500000920E-02 0.  1.
       -2   -1    0    0    0  501  0.00000000000E+00  0.00000000000E+00 -0.44754677644E+03  0.44754677645E+03  0.25500000920E-02 0. -1.
    10030    2    1    2    0    0  0.00000000000E+00  0.00000000000E+00  0.10051348837E+04  0.19002284366E+04  0.16126289024E+04 0.  0.
        4    1    3    3  502    0  0.34021646021E+03  0.73087268673E+03  0.52001555203E+03  0.95934347929E+03  0.12699999809E+01 0. -1.
       -4    1    3    3    0  502 -0.34021646021E+03 -0.73087268673E+03  0.48511933164E+03  0.94088495728E+03  0.12699999809E+01 0.  1.
</event>
<event>
 5   0  0.1694830E-04  0.1590049E+04  0.7818609E-02  0.8826685E-01
        1   -1    0    0  501    0  0.00000000000E+00  0.00000000000E+00  0.95201744221E+03  0.95201744222E+03  0.50400001928E-02 0. -1.
       -1   -1    0    0    0  501  0.00000000000E+00  0.00000000000E+00 -0.66392052815E+03  0.66392052817E+03  0.50400001928E-02 0.  1.
    10030    2    1    2    0    0  0.00000000000E+00  0.00000000000E+00  0.28809691405E+03  0.16159379704E+04  0.15900489591E+04 0.  0.
        1    1    3    3  502    0  0.23582230388E+03 -0.29167149314E+03  0.85644648381E+03  0.93497860862E+03  0.50400001928E-02 0. -1.
       -1    1    3    3    0  502 -0.23582230388E+03  0.29167149314E+03 -0.56834956976E+03  0.68095936177E+03  0.50400001928E-02 0.  1.
</event>
<event>
 5   0  0.3623359E-04  0.1920176E+04  0.7818609E-02  0.8644878E-01
       -2   -1    0    0    0  501  0.00000000000E+00  0.00000000000E+00  0.70219867812E+03  0.70219867813E+03  0.25500000920E-02 0.  1.
        2   -1    0    0  501    0  0.00000000000E+00  0.00000000000E+00 -0.13126900324E+04  0.13126900324E+04  0.25500000920E-02 0. -1.
    10030    2    1    2    0    0  0.00000000000E+00  0.00000000000E+00 -0.61049135426E+03  0.20148887105E+04  0.19201762477E+04 0.  0.
        5    1    3    3  502    0 -0.79625148324E+03  0.51473114619E+03 -0.46362957361E+03  0.10554331097E+04  0.46999998093E+01 0. -1.
       -5    1    3    3    0  502  0.79625148324E+03 -0.51473114619E+03 -0.14686178066E+03  0.95945560087E+03  0.46999998093E+01 0.  1.
</event>
<event>
 5   0  0.3623359E-04  0.1904139E+04  0.7818609E-02  0.8652799E-01
       -2   -1    0    0    0  501  0.00000000000E+00  0.00000000000E+00  0.10330424010E+04  0.10330424010E+04  0.25500000920E-02 0.  1.
        2   -1    0    0  501    0  0.00000000000E+00  0.00000000000E+00 -0.87744378420E+03  0.87744378420E+03  0.25500000920E-02 0. -1.
    10030    2    1    2    0    0  0.00000000000E+00  0.00000000000E+00  0.15559861679E+03  0.19104861852E+04  0.19041393159E+04 0.  0.
        5    1    3    3  502    0  0.22593218573E+03 -0.77511685089E+03  0.58402347200E+03  0.99647227303E+03  0.46999998093E+01 0.  1.
       -5    1    3    3    0  502 -0.22593218573E+03  0.77511685089E+03 -0.42842485520E+03  0.91401391217E+03  0.46999998093E+01 0. -1.
</event>
<event>
 5   0  0.3535876E-04  0.1861551E+04  0.7818609E-02  0.8674235E-01
       -2   -1    0    0    0  501  0.00000000000E+00  0.00000000000E+00  0.54099594595E+03  0.54099594596E+03  0.25500000920E-02 0. -1.
        2   -1    0    0  501    0  0.00000000000E+00  0.00000000000E+00 -0.16013850660E+04  0.16013850660E+04  0.25500000920E-02 0.  1.
    10030    2    1    2    0    0  0.00000000000E+00  0.00000000000E+00 -0.10603891201E+04  0.21423810120E+04  0.18615507821E+04 0.  0.
        2    1    3    3  502    0  0.55567805562E+03  0.73052885012E+03 -0.35230476250E+03  0.98314248613E+03  0.25500000920E-02 0.  1.
       -2    1    3    3    0  502 -0.55567805562E+03 -0.73052885012E+03 -0.70808435756E+03  0.11592385258E+04  0.25500000920E-02 0. -1.
</event>
<event>
 5   0  0.3535876E-04  0.1858592E+04  0.7818609E-02  0.8675747E-01
       -2   -1    0    0    0  501  0.00000000000E+00  0.00000000000E+00  0.53849509681E+03  0.53849509681E+03  0.25500000920E-02 0.  1.
        2   -1    0    0  501    0  0.00000000000E+00  0.00000000000E+00 -0.16037125970E+04  0.16037125970E+04  0.25500000920E-02 0. -1.
    10030    2    1    2    0    0  0.00000000000E+00  0.00000000000E+00 -0.10652175002E+04  0.21422076938E+04  0.18585923385E+04 0.  0.
        2    1    3    3  502    0  0.60950722145E+03 -0.67210067947E+03 -0.30101709321E+03  0.95594438476E+03  0.25500000920E-02 0. -1.
       -2    1    3    3    0  502 -0.60950722145E+03  0.67210067947E+03 -0.76420040698E+03  0.11862633090E+04  0.25500000920E-02 0.  1.
</event>
<event>
 5   0  0.3720978E-04  0.1923623E+04  0.7818609E-02  0.8643186E-01
        2   -1    0    0  501    0  0.00000000000E+00  0.00000000000E+00  0.14061072769E+04  0.14061072769E+04  0.25500000920E-02 0. -1.
       -2   -1    0    0    0  501  0.00000000000E+00  0.00000000000E+00 -0.65790221125E+03  0.65790221125E+03  0.25500000920E-02 0.  1.
    10030    2    1    2    0    0  0.00000000000E+00  0.00000000000E+00  0.74820506565E+03  0.20640094881E+04  0.19236227143E+04 0.  0.
        1    1    3    3  502    0  0.78778640169E+03  0.19308099120E+03 -0.18052912910E+03  0.83095032964E+03  0.50400001928E-02 0. -1.
       -1    1    3    3    0  502 -0.78778640169E+03 -0.19308099120E+03  0.92873419475E+03  0.12330591585E+04  0.50400001928E-02 0.  1.
</event>
<event>
 5   0  0.1782613E-04  0.2044093E+04  0.7818609E-02  0.8586279E-01
       -1   -1    0    0    0  501  0.00000000000E+00  0.00000000000E+00  0.76918260918E+03  0.76918260920E+03  0.50400001928E-02 0. -1.
        1   -1    0    0  501    0  0.00000000000E+00  0.00000000000E+00 -0.13580372999E+04  0.13580372999E+04  0.50400001928E-02 0.  1.
    10030    2    1    2    0    0  0.00000000000E+00  0.00000000000E+00 -0.58885469075E+03  0.21272199091E+04  0.20440926337E+04 0.  0.
        3    1    3    3  502    0 -0.45392304581E+03  0.40199677802E+03  0.56179006915E+03  0.82659278551E+03  0.10100000352E+00 0. -1.
       -3    1    3    3    0  502  0.45392304581E+03 -0.40199677802E+03 -0.11506447599E+04  0.13006271236E+04  0.10100000352E+00 0.  1.
</event>
<event>
 5   0  0.1782613E-04  0.1923408E+04  0.7818609E-02  0.8643291E-01
        1   -1    0    0  501    0  0.00000000000E+00  0.00000000000E+00  0.18630135751E+04  0.18630135751E+04  0.50400001928E-02 0. -1.
       -1   -1    0    0    0  501  0.00000000000E+00  0.00000000000E+00 -0.49644029390E+03  0.49644029392E+03  0.50400001928E-02 0.  1.
    10030    2    1    2    0    0  0.00000000000E+00  0.00000000000E+00  0.13665732812E+04  0.23594538691E+04  0.19234084400E+04 0.  0.
        3    1    3    3  502    0 -0.75032793434E+03 -0.14597676492E+03  0.13991754484E+04  0.15943629356E+04  0.10100000352E+00 0. -1.
       -3    1    3    3    0  502  0.75032793434E+03  0.14597676492E+03 -0.32602167129E+02  0.76509093345E+03  0.10100000352E+00 0.  1.
</event>
<event>
 5   0  0.1287000E-04  0.1898841E+04  0.7818609E-02  0.8655433E-01
        3   -1    0    0  501    0  0.00000000000E+00  0.00000000000E+00  0.11495079093E+04  0.11495079137E+04  0.10100000352E+00 0. -1.
       -3   -1    0    0    0  501  0.00000000000E+00  0.00000000000E+00 -0.78416124353E+03  0.78416125004E+03  0.10100000352E+00 0.  1.
    10030    2    1    2    0    0  0.00000000000E+00  0.00000000000E+00  0.36534666575E+03  0.19336691638E+04  0.18988412911E+04 0.  0.
        5    1    3    3  502    0  0.44639329327E+03  0.35828616810E+03  0.95402361903E+03  0.11125731914E+04  0.46999998093E+01 0. -1.
       -5    1    3    3    0  502 -0.44639329327E+03 -0.35828616810E+03 -0.58867695328E+03  0.82109597237E+03  0.46999998093E+01 0.  1.
</event>
<event>
 5   0  0.3459485E-04  0.1835265E+04  0.7818609E-02  0.8687768E-01
       -2   -1    0    0    0  501  0.00000000000E+00  0.00000000000E+00  0.31535982027E+03  0.31535982028E+03  0.25500000920E-02 0.  1.
        2   -1    0    0  501    0  0.00000000000E+00  0.00000000000E+00 -0.26701226437E+04  0.26701226437E+04  0.25500000920E-02 0. -1.
    10030    2    1    2    0    0  0.00000000000E+00  0.00000000000E+00 -0.23547628234E+04  0.29854824640E+04  0.18352649913E+04 0.  0.
        3    1    3    3  502    0  0.13824565559E+03  0.67309631576E+03 -0.21667212753E+04  0.22730709638E+04  0.10100000352E+00 0. -1.
       -3    1    3    3    0  502 -0.13824565559E+03 -0.67309631576E+03 -0.18804154819E+03  0.71241150020E+03  0.10100000352E+00 0.  1.
</event>
<event>
 5   0  0.1694830E-04  0.2006975E+04  0.7818609E-02  0.8603367E-01
        1   -1    0    0  501    0  0.00000000000E+00  0.00000000000E+00  0.16217597603E+04  0.16217597603E+04  0.50400001928E-02 0.  1.
       -1   -1    0    0    0  501  0.00000000000E+00  0.00000000000E+00 -0.62092229046E+03  0.62092229048E+03  0.50400001928E-02 0. -1.
    10030    2    1    2    0    0  0.00000000000E+00  0.00000000000E+00  0.10008374699E+04  0.22426820508E+04  0.20069746237E+04 0.  0.
        1    1    3    3  502    0  0.87959710069E+03 -0.14606559328E+03 -0.14043337814E+02  0.89175301090E+03  0.50400001928E-02 0. -1.
       -1    1    3    3    0  502 -0.87959710069E+03  0.14606559328E+03  0.10148808077E+04  0.13509290399E+04  0.50400001928E-02 0.  1.
</event>
<event>
 5   0  0.3535876E-04  0.1932944E+04  0.7818609E-02  0.8638630E-01
       -2   -1    0    0    0  501  0.00000000000E+00  0.00000000000E+00  0.52175764698E+03  0.52175764699E+03  0.25500000920E-02 0. -1.
        2   -1    0    0  501    0  0.00000000000E+00  0.00000000000E+00 -0.17902335062E+04  0.17902335062E+04  0.25500000920E-02 0.  1.
    10030    2    1    2    0    0  0.00000000000E+00  0.00000000000E+00 -0.12684758593E+04  0.23119911532E+04  0.19329438913E+04 0.  0.
        2    1    3    3  502    0 -0.58598869293E+03 -0.26675045329E+03 -0.14963664527E+04  0.16290031042E+04  0.25500000920E-02 0.  1.
       -2    1    3    3    0  502  0.58598869293E+03  0.26675045329E+03  0.22789059345E+03  0.68298804906E+03  0.25500000920E-02 0. -1.
</event>
<event>
 5   0  0.1711979E-04  0.1927390E+04  0.7818609E-02  0.8641341E-01
       -1   -1    0    0    0  501  0.00000000000E+00  0.00000000000E+00  0.40150116035E+03  0.40150116038E+03  0.50400001928E-02 0. -1.
        1   -1    0    0  501    0  0.00000000000E+00  0.00000000000E+00 -0.23130905064E+04  0.23130905064E+04  0.50400001928E-02 0.  1.
    10030    2    1    2    0    0  0.00000000000E+00  0.00000000000E+00 -0.19115893461E+04  0.27145916668E+04  0.19273904870E+04 0.  0.
        4    1    3    3  502    0 -0.97361584001E+02 -0.88645896667E+03 -0.14702435554E+04  0.17195657890E+04  0.12699999809E+01 0.  1.
       -4    1    3    3    0  502  0.97361584001E+02  0.88645896667E+03 -0.44134579065E+03  0.99502587778E+03  0.12699999809E+01 0. -1.
</event>
<event>
 5   0  0.1694830E-04  0.1874181E+04  0.7818609E-02  0.8667816E-01
       -1   -1    0    0    0  501  0.00000000000E+00  0.00000000000E+00  0.13188171130E+04  0.13188171130E+04  0.50400001928E-02 0. -1.
        1   -1    0    0  501    0  0.00000000000E+00  0.00000000000E+00 -0.66585345632E+03  0.66585345634E+03  0.50400001928E-02 0.  1.
    10030    2    1    2    0    0  0.00000000000E+00  0.00000000000E+00  0.65296365670E+03  0.19846705694E+04  0.18741813498E+04 0.  0.
        1    1    3    3  502    0 -0.25498291251E+03 -0.68176508957E+03  0.95146080183E+03  0.11979555837E+04  0.50400001928E-02 0. -1.
       -1    1    3    3    0  502  0.25498291251E+03  0.68176508957E+03 -0.29849714513E+03  0.78671498569E+03  0.50400001928E-02 0.  1.
</event>
<event>
 5   0  0.1758946E-04  0.1847027E+04  0.7818609E-02  0.8681683E-01
        1   -1    0    0  501    0  0.00000000000E+00  0.00000000000E+00  0.86713666009E+03  0.86713666011E+03  0.50400001928E-02 0.  1.
       -1   -1    0    0    0  501  0.00000000000E+00  0.00000000000E+00 -0.98355552512E+03  0.98355552513E+03  0.50400001928E-02 0. -1.
    10030    2    1    2    0    0  0.00000000000E+00  0.00000000000E+00 -0.11641886503E+03  0.18506921852E+04  0.18470268575E+04 0.  0.
        2    1    3    3  502    0  0.84263188764E+03  0.35967592563E+03 -0.17455093162E+03  0.93266462208E+03  0.25500000920E-02 0. -1.
       -2    1    3    3    0  502 -0.84263188764E+03 -0.35967592563E+03  0.58132066596E+02  0.91802756316E+03  0.25500000920E-02 0.  1.
</event>
<event>
 5   0  0.1782613E-04  0.1828661E+04  0.7818609E-02  0.8691204E-01
       -1   -1    0    0    0  501  0.00000000000E+00  0.00000000000E+00  0.84479078178E+03  0.84479078180E+03  0.50400001928E-02 0.  1.
        1   -1    0    0  501    0  0.00000000000E+00  0.00000000000E+00 -0.98959479555E+03  0.98959479556E+03  0.50400001928E-02 0. -1.
    10030    2    1    2    0    0  0.00000000000E+00  0.00000000000E+00 -0.14480401377E+03  0.18343855774E+04  0.18286613257E+04 0.  0.
        3    1    3    3  502    0 -0.85204958929E+03  0.12446327975E+03  0.23600295978E+03  0.89284770137E+03  0.10100000352E+00 0.  1.
       -3    1    3    3    0  502  0.85204958929E+03 -0.12446327975E+03 -0.38080697355E+03  0.94153787599E+03  0.10100000352E+00 0. -1.
</event>
<event>
 5   0  0.3516539E-04  0.1989439E+04  0.7818609E-02  0.8611574E-01
        2   -1    0    0  501    0  0.00000000000E+00  0.00000000000E+00  0.79466967693E+03  0.79466967694E+03  0.25500000920E-02 0. -1.
       -2   -1    0    0    0  501  0.00000000000E+00  0.00000000000E+00 -0.12451302890E+04  0.12451302890E+04  0.25500000920E-02 0.  1.
    10030    2    1    2    0    0  0.00000000000E+00  0.00000000000E+00 -0.45046061203E+03  0.20397999659E+04  0.19894394029E+04 0.  0.
        4    1    3    3  502    0 -0.18171369636E+03 -0.92614640647E+03 -0.54734641509E+03  0.10910347129E+04  0.12699999809E+01 0.  1.
       -4    1    3    3    0  502  0.18171369636E+03  0.92614640647E+03  0.96885803055E+02  0.94876525305E+03  0.12699999809E+01 0. -1.
</event>
<event>
 5   0  0.3516539E-04  0.1888387E+04  0.7818609E-02  0.8660659E-01
        2   -1    0    0  501    0  0.00000000000E+00  0.00000000000E+00  0.98565970683E+03  0.98565970683E+03  0.25500000920E-02 0. -1.
       -2   -1    0    0    0  501  0.00000000000E+00  0.00000000000E+00 -0.90447144573E+03  0.90447144574E+03  0.25500000920E-02 0.  1.
    10030    2    1    2    0    0  0.00000000000E+00  0.00000000000E+00  0.81188261093E+02  0.18901311526E+04  0.18883866765E+04 0.  0.
        4    1    3    3  502    0  0.68013839638E+03 -0.53820278333E+03 -0.33291137926E+03  0.92902210607E+03  0.12699999809E+01 0.  1.
       -4    1    3    3    0  502 -0.68013839638E+03  0.53820278333E+03  0.41409964036E+03  0.96110904650E+03  0.12699999809E+01 0. -1.
</event>
<event>
 5   0  0.1758946E-04  0.1790705E+04  0.7818609E-02  0.8711258E-01
       -1   -1    0    0    0  501  0.00000000000E+00  0.00000000000E+00  0.80218426871E+03  0.80218426873E+03  0.50400001928E-02 0. -1.
        1   -1    0    0  501    0  0.00000000000E+00  0.00000000000E+00 -0.99934179551E+03  0.99934179552E+03  0.50400001928E-02 0.  1.
    10030    2    1    2    0    0  0.00000000000E+00  0.00000000000E+00 -0.19715752680E+03  0.18015260643E+04  0.17907051879E+04 0.  0.
        2    1    3    3  502    0  0.54999374378E+03  0.64674408026E+03  0.18754314147E+03  0.86945008682E+03  0.25500000920E-02 0. -1.
       -2    1    3    3    0  502 -0.54999374378E+03 -0.64674408026E+03 -0.38470066827E+03  0.93207597744E+03  0.25500000920E-02 0.  1.
</event>
<event>
 5   0  0.3516539E-04  0.1774066E+04  0.7818609E-02  0.8720214E-01
        2   -1    0    0  501    0  0.00000000000E+00  0.00000000000E+00  0.10327164249E+04  0.10327164249E+04  0.25500000920E-02 0.  1.
       -2   -1    0    0    0  501  0.00000000000E+00  0.00000000000E+00 -0.76190046810E+03  0.76190046810E+03  0.25500000920E-02 0. -1.
    10030    2    1    2    0    0  0.00000000000E+00  0.00000000000E+00  0.27081595684E+03  0.17946168930E+04  0.17740655316E+04 0.  0.
        4    1    3    3  502    0 -0.49896859402E+03 -0.63143945098E+03 -0.24192799657E+03  0.84036670953E+03  0.12699999809E+01 0. -1.
       -4    1    3    3    0  502  0.49896859402E+03  0.63143945098E+03  0.51274395341E+03  0.95425018351E+03  0.12699999809E+01 0.  1.
</event>
<event>
 5   0  0.3720978E-04  0.1885491E+04  0.7818609E-02  0.8662113E-01
       -2   -1    0    0    0  501  0.00000000000E+00  0.00000000000E+00  0.43454177092E+03  0.43454177093E+03  0.25500000920E-02 0. -1.
        2   -1    0    0  501    0  0.00000000000E+00  0.00000000000E+00 -0.20453008239E+04  0.20453008239E+04  0.25500000920E-02 0.  1.
    10030    2    1    2    0    0  0.00000000000E+00  0.00000000000E+00 -0.16107590530E+04  0.24798425948E+04  0.18854905379E+04 0.  0.
        1    1    3    3  502    0 -0.91563307090E+03 -0.83886595592E+02 -0.53154822459E+03  0.10620566824E+04  0.50400001928E-02 0. -1.
       -1    1    3    3    0  502  0.91563307090E+03  0.83886595592E+02 -0.10792108284E+04  0.14177859125E+04  0.50400001928E-02 0.  1.
</event>
<event>
 5   0  0.3516539E-04  0.1942747E+04  0.7818609E-02  0.8633866E-01
       -2   -1    0    0    0  501  0.00000000000E+00  0.00000000000E+00  0.11930536020E+04  0.11930536020E+04  0.25500000920E-02 0. -1.
        2   -1    0    0  501    0  0.00000000000E+00  0.00000000000E+00 -0.79088325510E+03  0.79088325510E+03  0.25500000920E-02 0.  1.
    10030    2    1    2    0    0  0.00000000000E+00  0.00000000000E+00  0.40217034694E+03  0.19839368571E+04  0.19427466292E+04 0.  0.
        4    1    3    3  502    0  0.80271942852E+03 -0.10726438290E+03 -0.34666420739E+03  0.88093235515E+03  0.12699999809E+01 0.  1.
       -4    1    3    3    0  502 -0.80271942852E+03  0.10726438290E+03  0.74883455433E+03  0.11030045020E+04  0.12699999809E+01 0. -1.
</event>
<event>
 5   0  0.1782613E-04  0.1876545E+04  0.7818609E-02  0.8666620E-01
       -1   -1    0    0    0  501  0.00000000000E+00  0.00000000000E+00  0.40097103990E+03  0.40097103994E+03  0.50400001928E-02 0. -1.
        1   -1    0    0  501    0  0.00000000000E+00  0.00000000000E+00 -0.21955578549E+04  0.21955578549E+04  0.50400001928E-02 0.  1.
    10030    2    1    2    0    0  0.00000000000E+00  0.00000000000E+00 -0.17945868150E+04  0.25965288948E+04  0.18765448210E+04 0.  0.
        3    1    3    3  502    0  0.29376493857E+03  0.19340139838E+03  0.30630788319E+03  0.46639733011E+03  0.10100000352E+00 0. -1.
       -3    1    3    3    0  502 -0.29376493857E+03 -0.19340139838E+03 -0.21008946982E+04  0.21301315647E+04  0.10100000352E+00 0.  1.
</event>
<event>
 5   0  0.3623359E-04  0.1887721E+04  0.7818609E-02  0.8660993E-01
       -2   -1    0    0    0  501  0.00000000000E+00  0.00000000000E+00  0.11513436993E+04  0.11513436993E+04  0.25500000920E-02 0.  1.
        2   -1    0    0  501    0  0.00000000000E+00  0.00000000000E+00 -0.77376765567E+03  0.77376765567E+03  0.25500000920E-02 0. -1.
    10030    2    1    2    0    0  0.00000000000E+00  0.00000000000E+00  0.37757604366E+03  0.19251113550E+04  0.18877208640E+04 0.  0.
        5    1    3    3  502    0  0.90347506347E+03 -0.22208354090E+02 -0.88798226237E+02  0.90811211659E+03  0.46999998093E+01 0. -1.
       -5    1    3    3    0  502 -0.90347506347E+03  0.22208354090E+02  0.46637426989E+03  0.10169992384E+04  0.46999998093E+01 0.  1.
</event>
<event>
 5   0  0.1813834E-04  0.1894858E+04  0.7818609E-02  0.8657420E-01
       -1   -1    0    0    0  501  0.00000000000E+00  0.00000000000E+00  0.55437826202E+03  0.55437826204E+03  0.50400001928E-02 0.  1.
        1   -1    0    0  501    0  0.00000000000E+00  0.00000000000E+00 -0.16191503604E+04  0.16191503604E+04  0.50400001928E-02 0. -1.
    10030    2    1    2    0    0  0.00000000000E+00  0.00000000000E+00 -0.10647720984E+04  0.21735286224E+04  0.18948580556E+04 0.  0.
        5    1    3    3  502    0 -0.25332243354E+03 -0.67036977807E+03 -0.12432267114E+04  0.14349922092E+04  0.46999998093E+01 0.  1.
       -5    1    3    3    0  502  0.25332243354E+03  0.67036977807E+03  0.17845461303E+03  0.73853641318E+03  0.46999998093E+01 0. -1.
</event>
<event>
 5   0  0.1782613E-04  0.1949711E+04  0.7818609E-02  0.8630500E-01
       -1   -1    0    0    0  501  0.00000000000E+00  0.00000000000E+00  0.79185310436E+03  0.79185310437E+03  0.50400001928E-02 0.  1.
        1   -1    0    0  501    0  0.00000000000E+00  0.00000000000E+00 -0.12001511359E+04  0.12001511359E+04  0.50400001928E-02 0. -1.
    10030    2    1    2    0    0  0.00000000000E+00  0.00000000000E+00 -0.40829803156E+03  0.19920042403E+04  0.19497111609E+04 0.  0.
        3    1    3    3  502    0  0.34746348327E+03  0.58505155554E+03 -0.91738017116E+03  0.11421920082E+04  0.10100000352E+00 0. -1.
       -3    1    3    3    0  502 -0.34746348327E+03 -0.58505155554E+03  0.50908213961E+03  0.84981223215E+03  0.10100000352E+00 0.  1.
</event>
<event>
 5   0  0.3459485E-04  0.1763298E+04  0.7818609E-02  0.8726064E-01
       -2   -1    0    0    0  501  0.00000000000E+00  0.00000000000E+00  0.10679794824E+04  0.10679794824E+04  0.25500000920E-02 0.  1.
        2   -1    0    0  501    0  0.00000000000E+00  0.00000000000E+00 -0.72782798891E+03  0.72782798892E+03  0.25500000920E-02 0. -1.
    10030    2    1    2    0    0  0.00000000000E+00  0.00000000000E+00  0.34015149353E+03  0.17958074714E+04  0.17632984534E+04 0.  0.
        3    1    3    3  502    0  0.25496981397E+03  0.59083668993E+03 -0.44370251087E+03  0.78164539821E+03  0.10100000352E+00 0. -1.
       -3    1    3    3    0  502 -0.25496981397E+03 -0.59083668993E+03  0.78385400440E+03  0.10141620731E+04  0.10100000352E+00 0.  1.
</event>
<event>
 5   0  0.1694830E-04  0.1877083E+04  0.7818609E-02  0.8666348E-01
       -1   -1    0    0    0  501  0.00000000000E+00  0.00000000000E+00  0.10139076946E+04  0.10139076946E+04  0.50400001928E-02 0. -1.
        1   -1    0    0  501    0  0.00000000000E+00  0.00000000000E+00 -0.86877787585E+03  0.86877787586E+03  0.50400001928E-02 0.  1.
    10030    2    1    2    0    0  0.00000000000E+00  0.00000000000E+00  0.14512981873E+03  0.18826855705E+04  0.18770834539E+04 0.  0.
        1    1    3    3  502    0  0.36982498040E+03 -0.58875601969E+03 -0.55975806769E+03  0.89259916044E+03  0.50400001928E-02 0.  1.
       -1    1    3    3    0  502 -0.36982498040E+03  0.58875601969E+03  0.70488788642E+03  0.99008641002E+03  0.50400001928E-02 0. -1.
</event>
<event>
 5   0  0.1711979E-04  0.1858707E+04  0.7818609E-02  0.8675688E-01
       -1   -1    0    0    0  501  0.00000000000E+00  0.00000000000E+00  0.95853383022E+03  0.95853383023E+03  0.50400001928E-02 0.  1.
        1   -1    0    0  501    0  0.00000000000E+00  0.00000000000E+00 -0.90106142625E+03  0.90106142626E+03  0.50400001928E-02 0. -1.
    10030    2    1    2    0    0  0.00000000000E+00  0.00000000000E+00  0.57472403972E+02  0.18595952565E+04  0.18587069271E+04 0.  0.
        4    1    3    3  502    0  0.24395188191E+03 -0.17719787827E+03 -0.85076563826E+03  0.90261586120E+03  0.12699999809E+01 0. -1.
       -4    1    3    3    0  502 -0.24395188191E+03  0.17719787827E+03  0.90823804223E+03  0.95697939529E+03  0.12699999809E+01 0.  1.
</event>
<event>
 5   0  0.1813834E-04  0.1847579E+04  0.7818609E-02  0.8681399E-01
       -1   -1    0    0    0  501  0.00000000000E+00  0.00000000000E+00  0.47436497218E+03  0.47436497220E+03  0.50400001928E-02 0.  1.
        1   -1    0    0  501    0  0.00000000000E+00  0.00000000000E+00 -0.17990094045E+04  0.17990094045E+04  0.50400001928E-02 0. -1.
    10030    2    1    2    0    0  0.00000000000E+00  0.00000000000E+00 -0.13246444323E+04  0.22733743767E+04  0.18475790063E+04 0.  0.
        5    1    3    3  502    0 -0.86881308808E+02  0.82410729186E+03 -0.11646515471E+04  0.14293832608E+04  0.46999998093E+01 0. -1.
       -5    1    3    3    0  502  0.86881308808E+02 -0.82410729186E+03 -0.15999288525E+03  0.84399111586E+03  0.46999998093E+01 0.  1.
</event>
<event>
 5   0  0.1711979E-04  0.1788076E+04  0.7818609E-02  0.8712666E-01
        1   -1    0    0  501    0  0.00000000000E+00  0.00000000000E+00  0.18237975311E+04  0.18237975312E+04  0.50400001928E-02 0.  1.
       -1   -1    0    0    0  501  0.00000000000E+00  0.00000000000E+00 -0.43826361084E+03  0.43826361087E+03  0.50400001928E-02 0. -1.
    10030    2    1    2    0    0  0.00000000000E+00  0.00000000000E+00  0.13855339203E+04  0.22620611420E+04  0.17880761634E+04 0.  0.
        4    1    3    3  502    0 -0.87522022918E+03  0.70422425643E+02  0.47982443906E+03  0.10006012557E+04  0.12699999809E+01 0. -1.
       -4    1    3    3    0  502  0.87522022918E+03 -0.70422425643E+02  0.90570948125E+03  0.12614598864E+04  0.12699999809E+01 0.  1.
</event>
<event>
 5   0  0.1694830E-04  0.1855114E+04  0.7818609E-02  0.8677527E-01
        1   -1    0    0  501    0  0.00000000000E+00  0.00000000000E+00  0.91607418069E+03  0.91607418071E+03  0.50400001928E-02 0.  1.
       -1   -1    0    0    0  501  0.00000000000E+00  0.00000000000E+00 -0.93918362947E+03  0.93918362948E+03  0.50400001928E-02 0. -1.
    10030    2    1    2    0    0  0.00000000000E+00  0.00000000000E+00 -0.23109448774E+02  0.18552578102E+04  0.18551138767E+04 0.  0.
        1    1    3    3  502    0 -0.67154865106E+03 -0.42242351529E+03 -0.49215694530E+03  0.93361537896E+03  0.50400001928E-02 0. -1.
       -1    1    3    3    0  502  0.67154865106E+03  0.42242351529E+03  0.46904749652E+03  0.92164243122E+03  0.50400001928E-02 0.  1.
</event>
<event>
 5   0  0.3516539E-04  0.1887799E+04  0.7818609E-02  0.8660953E-01
        2   -1    0    0  501    0  0.00000000000E+00  0.00000000000E+00  0.10131106934E+04  0.10131106934E+04  0.25500000920E-02 0. -1.
       -2   -1    0    0    0  501  0.00000000000E+00  0.00000000000E+00 -0.87941672365E+03  0.87941672365E+03  0.25500000920E-02 0.  1.
    10030    2    1    2    0    0  0.00000000000E+00  0.00000000000E+00  0.13369396976E+03  0.18925274171E+04  0.18877992337E+04 0.  0.
        4    1    3    3  502    0  0.67379759868E+03  0.41329654727E+03  0.58401464646E+03  0.98279802612E+03  0.12699999809E+01 0. -1.
       -4    1    3    3    0  502 -0.67379759868E+03 -0.41329654727E+03 -0.45032067670E+03  0.90972939094E+03  0.12699999809E+01 0.  1.
</event>
<event>
 5   0  0.1711979E-04  0.1906468E+04  0.7818609E-02  0.8651643E-01
       -1   -1    0    0    0  501  0.00000000000E+00  0.00000000000E+00  0.68477412197E+03  0.68477412199E+03  0.50400001928E-02 0. -1.
        1   -1    0    0  501    0  0.00000000000E+00  0.00000000000E+00 -0.13269415188E+04  0.13269415188E+04  0.50400001928E-02 0.  1.
    10030    2    1    2    0    0  0.00000000000E+00  0.00000000000E+00 -0.64216739683E+03  0.20117156408E+04  0.19064681623E+04 0.  0.
        4    1    3    3  502    0 -0.85458759192E+03  0.34797478998E+03 -0.57355623133E+03  0.10864505374E+04  0.12699999809E+01 0.  1.
       -4    1    3    3    0  502  0.85458759192E+03 -0.34797478998E+03 -0.68611165506E+02  0.92526510345E+03  0.12699999809E+01 0. -1.
</event>
<event>
 5   0  0.1694830E-04  0.1877138E+04  0.7818609E-02  0.8666320E-01
        1   -1    0    0  501    0  0.00000000000E+00  0.00000000000E+00  0.89058507846E+03  0.89058507848E+03  0.50400001928E-02 0.  1.
       -1   -1    0    0    0  501  0.00000000000E+00  0.00000000000E+00 -0.98913874588E+03  0.98913874590E+03  0.50400001928E-02 0. -1.
    10030    2    1    2    0    0  0.00000000000E+00  0.00000000000E+00 -0.98553667418E+02  0.18797238244E+04  0.18771384687E+04 0.  0.
        1    1    3    3  502    0 -0.19137205615E+03  0.19500840456E+03  0.84988004784E+03  0.89271923776E+03  0.50400001928E-02 0.  1.
       -1    1    3    3    0  502  0.19137205615E+03 -0.19500840456E+03 -0.94843371526E+03  0.98700458661E+03  0.50400001928E-02 0. -1.
</event>
<event>
 5   0  0.1782613E-04  0.1908986E+04  0.7818609E-02  0.8650397E-01
       -1   -1    0    0    0  501  0.00000000000E+00  0.00000000000E+00  0.15768360031E+04  0.15768360031E+04  0.50400001928E-02 0.  1.
        1   -1    0    0  501    0  0.00000000000E+00  0.00000000000E+00 -0.57777503756E+03  0.57777503759E+03  0.50400001928E-02 0. -1.
    10030    2    1    2    0    0  0.00000000000E+00  0.00000000000E+00  0.99906096551E+03  0.21546110407E+04  0.19089855745E+04 0.  0.
        3    1    3    3  502    0  0.64474192038E+03 -0.91764532236E+02  0.12871302231E+04  0.14425037590E+04  0.10100000352E+00 0.  1.
       -3    1    3    3    0  502 -0.64474192038E+03  0.91764532236E+02 -0.28806925758E+03  0.71210728169E+03  0.10100000352E+00 0. -1.
</event>
<event>
 5   0  0.1782613E-04  0.1847648E+04  0.7818609E-02  0.8681363E-01
       -1   -1    0    0    0  501  0.00000000000E+00  0.00000000000E+00  0.54103285587E+03  0.54103285590E+03  0.50400001928E-02 0.  1.
        1   -1    0    0  501    0  0.00000000000E+00  0.00000000000E+00 -0.15774479716E+04  0.15774479716E+04  0.50400001928E-02 0. -1.
    10030    2    1    2    0    0  0.00000000000E+00  0.00000000000E+00 -0.10364151157E+04  0.21184808275E+04  0.18476484309E+04 0.  0.
        3    1    3    3  502    0 -0.60113635960E+03 -0.65239322617E+03 -0.81381532396E+03  0.12038593091E+04  0.10100000352E+00 0.  1.
       -3    1    3    3    0  502  0.60113635960E+03  0.65239322617E+03 -0.22259979173E+03  0.91462151837E+03  0.10100000352E+00 0. -1.
</event>
<event>
 5   0  0.3516539E-04  0.1900118E+04  0.7818609E-02  0.8654797E-01
        2   -1    0    0  501    0  0.00000000000E+00  0.00000000000E+00  0.82546419278E+03  0.82546419278E+03  0.25500000920E-02 0. -1.
       -2   -1    0    0    0  501  0.00000000000E+00  0.00000000000E+00 -0.10934605721E+04  0.10934605721E+04  0.25500000920E-02 0.  1.
    10030    2    1    2    0    0  0.00000000000E+00  0.00000000000E+00 -0.26799637928E+03  0.19189247648E+04  0.19001184684E+04 0.  0.
        4    1    3    3  502    0 -0.64901516217E+03 -0.17908967649E+03 -0.81094377871E+03  0.10540043729E+04  0.12699999809E+01 0.  1.
       -4    1    3    3    0  502  0.64901516217E+03  0.17908967649E+03  0.54294739943E+03  0.86492039194E+03  0.12699999809E+01 0. -1.
</event>
<event>
 5   0  0.1758946E-04  0.1902974E+04  0.7818609E-02  0.8653378E-01
        1   -1    0    0  501    0  0.00000000000E+00  0.00000000000E+00  0.24206439652E+04  0.24206439652E+04  0.50400001928E-02 0. -1.
       -1   -1    0    0    0  501  0.00000000000E+00  0.00000000000E+00 -0.37400259450E+03  0.37400259453E+03  0.50400001928E-02 0.  1.
    10030    2    1    2    0    0  0.00000000000E+00  0.00000000000E+00  0.20466413707E+04  0.27946465598E+04  0.19029735925E+04 0.  0.
        2    1    3    3  502    0 -0.61284326754E+03  0.72410555903E+03  0.11314515169E+04  0.14765121964E+04  0.25500000920E-02 0. -1.
       -2    1    3    3    0  502  0.61284326754E+03 -0.72410555903E+03  0.91518985385E+03  0.13181343633E+04  0.25500000920E-02 0.  1.
</event>
<event>
 5   0  0.1711979E-04  0.1871420E+04  0.7818609E-02  0.8669214E-01
       -1   -1    0    0    0  501  0.00000000000E+00  0.00000000000E+00  0.57222153221E+03  0.57222153223E+03  0.50400001928E-02 0.  1.
        1   -1    0    0  501    0  0.00000000000E+00  0.00000000000E+00 -0.15300955371E+04  0.15300955371E+04  0.50400001928E-02 0. -1.
    10030    2    1    2    0    0  0.00000000000E+00  0.00000000000E+00 -0.95787400486E+03  0.21023170693E+04  0.18714204367E+04 0.  0.
        4    1    3    3  502    0 -0.37420014092E+03  0.52192615927E+03 -0.12434296391E+04  0.13994825978E+04  0.12699999809E+01 0. -1.
       -4    1    3    3    0  502  0.37420014092E+03 -0.52192615927E+03  0.28555563426E+03  0.70283447152E+03  0.12699999809E+01 0.  1.
</event>
<event>
 5   0  0.3516539E-04  0.1907601E+04  0.7818609E-02  0.8651082E-01
        2   -1    0    0  501    0  0.00000000000E+00  0.00000000000E+00  0.90629773824E+03  0.90629773824E+03  0.25500000920E-02 0.  1.
       -2   -1    0    0    0  501  0.00000000000E+00  0.00000000000E+00 -0.10037926453E+04  0.10037926454E+04  0.25500000920E-02 0. -1.
    10030    2    1    2    0    0  0.00000000000E+00  0.00000000000E+00 -0.97494907112E+02  0.19100903836E+04  0.19076005915E+04 0.  0.
        4    1    3    3  502    0  0.16465703901E+03  0.23446847902E+03  0.86219045487E+03  0.90854906390E+03  0.12699999809E+01 0.  1.
       -4    1    3    3    0  502 -0.16465703901E+03 -0.23446847902E+03 -0.95968536198E+03  0.10015413197E+04  0.12699999809E+01 0. -1.
</event>
<event>
 5   0  0.3623359E-04  0.1929732E+04  0.7818609E-02  0.8640197E-01
        2   -1    0    0  501    0  0.00000000000E+00  0.00000000000E+00  0.62429822770E+03  0.62429822770E+03  0.25500000920E-02 0.  1.
       -2   -1    0    0    0  501  0.00000000000E+00  0.00000000000E+00 -0.14912214025E+04  0.14912214025E+04  0.25500000920E-02 0. -1.
    10030    2    1    2    0    0  0.00000000000E+00  0.00000000000E+00 -0.86692317480E+03  0.21155196302E+04  0.19297324982E+04 0.  0.
        5    1    3    3  502    0  0.64447789719E+03 -0.60466338407E+03 -0.89107482506E+01  0.88378224662E+03  0.46999998093E+01 0.  1.
       -5    1    3    3    0  502 -0.64447789719E+03  0.60466338407E+03 -0.85801242655E+03  0.12317373836E+04  0.46999998093E+01 0. -1.
</event>
<event>
 5   0  0.1711979E-04  0.1881788E+04  0.7818609E-02  0.8663975E-01
       -1   -1    0    0    0  501  0.00000000000E+00  0.00000000000E+00  0.34320682281E+03  0.34320682284E+03  0.50400001928E-02 0.  1.
        1   -1    0    0  501    0  0.00000000000E+00  0.00000000000E+00 -0.25794390802E+04  0.25794390802E+04  0.50400001928E-02 0. -1.
    10030    2    1    2    0    0  0.00000000000E+00  0.00000000000E+00 -0.22362322573E+04  0.29226459030E+04  0.18817875453E+04 0.  0.
        4    1    3    3  502    0 -0.59257783220E+03  0.51582307425E+03 -0.19222338458E+04  0.20765852985E+04  0.12699999809E+01 0. -1.
       -4    1    3    3    0  502  0.59257783220E+03 -0.51582307425E+03 -0.31399841157E+03  0.84606060452E+03  0.12699999809E+01 0.  1.
</event>
<event>
 5   0  0.3516539E-04  0.1902002E+04  0.7818609E-02  0.8653860E-01
       -2   -1    0    0    0  501  0.00000000000E+00  0.00000000000E+00  0.70741859334E+03  0.70741859335E+03  0.25500000920E-02 0. -1.
        2   -1    0    0  501    0  0.00000000000E+00  0.00000000000E+00 -0.12784555911E+04  0.12784555911E+04  0.25500000920E-02 0.  1.
    10030    2    1    2    0    0  0.00000000000E+00  0.00000000000E+00 -0.57103699771E+03  0.19858741844E+04  0.19020023721E+04 0.  0.
        4    1    3    3  502    0 -0.44844702146E+03 -0.37534115067E+03 -0.10685324202E+04  0.12180923021E+04  0.12699999809E+01 0.  1.
       -4    1    3    3    0  502  0.44844702146E+03  0.37534115067E+03  0.49749542253E+03  0.76778188230E+03  0.12699999809E+01 0. -1.
</event>
<event>
 5   0  0.3459485E-04  0.1920829E+04  0.7818609E-02  0.8644558E-01
        2   -1    0    0  501    0  0.00000000000E+00  0.00000000000E+00  0.18926470181E+04  0.18926470181E+04  0.25500000920E-02 0.  1.
       -2   -1    0    0    0  501  0.00000000000E+00  0.00000000000E+00 -0.48735746643E+03  0.48735746644E+03  0.25500000920E-02 0. -1.
    10030    2    1    2    0    0  0.00000000000E+00  0.00000000000E+00  0.14052895517E+04  0.23800044845E+04  0.19208286291E+04 0.  0.
        3    1    3    3  502    0 -0.55803756791E+03  0.75825507701E+03  0.93786532438E+03  0.13288897870E+04  0.10100000352E+00 0.  1.
       -3    1    3    3    0  502  0.55803756791E+03 -0.75825507701E+03  0.46742422729E+03  0.10511146976E+04  0.10100000352E+00 0. -1.
</event>
<event>
 5   0  0.1813834E-04  0.1886696E+04  0.7818609E-02  0.8661507E-01
       -1   -1    0    0    0  501  0.00000000000E+00  0.00000000000E+00  0.38771433121E+03  0.38771433124E+03  0.50400001928E-02 0.  1.
        1   -1    0    0  501    0  0.00000000000E+00  0.00000000000E+00 -0.22952601927E+04  0.22952601928E+04  0.50400001928E-02 0. -1.
    10030    2    1    2    0    0  0.00000000000E+00  0.00000000000E+00 -0.19075458615E+04  0.26829745240E+04  0.18866958108E+04 0.  0.
        5    1    3    3  502    0 -0.44879299663E+03  0.69318270971E+03 -0.30527203521E+03  0.88041497508E+03  0.46999998093E+01 0.  1.
       -5    1    3    3    0  502  0.44879299663E+03 -0.69318270971E+03 -0.16022738263E+04  0.18025595489E+04  0.46999998093E+01 0. -1.
</event>
<event>
 5   0  0.3535876E-04  0.1888493E+04  0.7818609E-02  0.8660605E-01
       -2   -1    0    0    0  501  0.00000000000E+00  0.00000000000E+00  0.51517434805E+03  0.51517434805E+03  0.25500000920E-02 0. -1.
        2   -1    0    0  501    0  0.00000000000E+00  0.00000000000E+00 -0.17306795174E+04  0.17306795174E+04  0.25500000920E-02 0.  1.
    10030    2    1    2    0    0  0.00000000000E+00  0.00000000000E+00 -0.12155051694E+04  0.22458538655E+04  0.18884932534E+04 0.  0.
        2    1    3    3  502    0 -0.54736867303E+03 -0.76932350091E+03 -0.62134205055E+03  0.11302818485E+04  0.25500000920E-02 0. -1.
       -2    1    3    3    0  502  0.54736867303E+03  0.76932350091E+03 -0.59416311883E+03  0.11155720170E+04  0.25500000920E-02 0.  1.
</event>
<event>
 5   0  0.1287000E-04  0.1943340E+04  0.7818609E-02  0.8633579E-01
       -3   -1    0    0    0  501  0.00000000000E+00  0.00000000000E+00  0.25573355122E+04  0.25573355142E+04  0.10100000352E+00 0.  1.
        3   -1    0    0  501    0  0.00000000000E+00  0.00000000000E+00 -0.36919003065E+03  0.36919004447E+03  0.10100000352E+00 0. -1.
    10030    2    1    2    0    0  0.00000000000E+00  0.00000000000E+00  0.21881454816E+04  0.29265255587E+04  0.19433402165E+04 0.  0.
        2    1    3    3  502    0  0.43780968996E+03 -0.41119537706E+03  0.22442921167E+04  0.23232748584E+04  0.25500000920E-02 0.  1.
       -2    1    3    3    0  502 -0.43780968996E+03  0.41119537706E+03 -0.56146635108E+02  0.60325070028E+03  0.25500000920E-02 0. -1.
</event>
<event>
 5   0  0.3535876E-04  0.1894192E+04  0.7818609E-02  0.8657753E-01
       -2   -1    0    0    0  501  0.00000000000E+00  0.00000000000E+00  0.63529611271E+03  0.63529611272E+03  0.25500000920E-02 0. -1.
        2   -1    0    0  501    0  0.00000000000E+00  0.00000000000E+00 -0.14119257531E+04  0.14119257531E+04  0.25500000920E-02 0.  1.
    10030    2    1    2    0    0  0.00000000000E+00  0.00000000000E+00 -0.77662964039E+03  0.20472218658E+04  0.18941921153E+04 0.  0.
        2    1    3    3  502    0 -0.60019592302E+03  0.13410037947E+03  0.39013302545E+03  0.72830064900E+03  0.25500000920E-02 0. -1.
       -2    1    3    3    0  502  0.60019592302E+03 -0.13410037947E+03 -0.11667626658E+04  0.13189212168E+04  0.25500000920E-02 0.  1.
</event>
<event>
 5   0  0.1782613E-04  0.1890441E+04  0.7818609E-02  0.8659629E-01
       -1   -1    0    0    0  501  0.00000000000E+00  0.00000000000E+00  0.77324041339E+03  0.77324041341E+03  0.50400001928E-02 0. -1.
        1   -1    0    0  501    0  0.00000000000E+00  0.00000000000E+00 -0.11554517365E+04  0.11554517365E+04  0.50400001928E-02 0.  1.
    10030    2    1    2    0    0  0.00000000000E+00  0.00000000000E+00 -0.38221132307E+03  0.19286921499E+04  0.18904411955E+04 0.  0.
        3    1    3    3  502    0 -0.76342892229E+03  0.54934564825E+03 -0.28701636934E+03  0.98335281924E+03  0.10100000352E+00 0. -1.
       -3    1    3    3    0  502  0.76342892229E+03 -0.54934564825E+03 -0.95194953725E+02  0.94533933064E+03  0.10100000352E+00 0.  1.
</event>
<event>
 5   0  0.3459485E-04  0.1907035E+04  0.7818609E-02  0.8651363E-01
        2   -1    0    0  501    0  0.00000000000E+00  0.00000000000E+00  0.10393738489E+04  0.10393738489E+04  0.25500000920E-02 0. -1.
       -2   -1    0    0    0  501  0.00000000000E+00  0.00000000000E+00 -0.87475292177E+03  0.87475292177E+03  0.25500000920E-02 0.  1.
    10030    2    1    2    0    0  0.00000000000E+00  0.00000000000E+00  0.16462092715E+03  0.19141267707E+04  0.19070346732E+04 0.  0.
        3    1    3    3  502    0 -0.40313708431E+03  0.85867300474E+03 -0.14778074908E+02  0.94871346544E+03  0.10100000352E+00 0.  1.
       -3    1    3    3    0  502  0.40313708431E+03 -0.85867300474E+03  0.17939900206E+03  0.96541330525E+03  0.10100000352E+00 0. -1.
</event>
<event>
 5   0  0.1711979E-04  0.1874037E+04  0.7818609E-02  0.8667889E-01
       -1   -1    0    0    0  501  0.00000000000E+00  0.00000000000E+00  0.57402615441E+03  0.57402615443E+03  0.50400001928E-02 0.  1.
        1   -1    0    0  501    0  0.00000000000E+00  0.00000000000E+00 -0.15295527693E+04  0.15295527693E+04  0.50400001928E-02 0. -1.
    10030    2    1    2    0    0  0.00000000000E+00  0.00000000000E+00 -0.95552661490E+03  0.21035789237E+04  0.18740365996E+04 0.  0.
        4    1    3    3  502    0 -0.53659091855E+02  0.21654441304E+02 -0.15275444178E+04  0.15286404986E+04  0.12699999809E+01 0. -1.
       -4    1    3    3    0  502  0.53659091855E+02 -0.21654441304E+02  0.57201780286E+03  0.57493842510E+03  0.12699999809E+01 0.  1.
</event>
<event>
 5   0  0.1694830E-04  0.1909704E+04  0.7818609E-02  0.8650041E-01
        1   -1    0    0  501    0  0.00000000000E+00  0.00000000000E+00  0.96532780946E+03  0.96532780948E+03  0.50400001928E-02 0. -1.
       -1   -1    0    0    0  501  0.00000000000E+00  0.00000000000E+00 -0.94448992831E+03  0.94448992833E+03  0.50400001928E-02 0.  1.
    10030    2    1    2    0    0  0.00000000000E+00  0.00000000000E+00  0.20837881152E+02  0.19098177378E+04  0.19097040541E+04 0.  0.
        1    1    3    3  502    0  0.16619639297E+03 -0.67907588613E+03 -0.63998666680E+03  0.94781234106E+03  0.50400001928E-02 0.  1.
       -1    1    3    3    0  502 -0.16619639297E+03  0.67907588613E+03  0.66082454795E+03  0.96200539674E+03  0.50400001928E-02 0. -1.
</event>
<event>
 5   0  0.3535876E-04  0.1949201E+04  0.7818609E-02  0.8630746E-01
       -2   -1    0    0    0  501  0.00000000000E+00  0.00000000000E+00  0.96007548133E+03  0.96007548133E+03  0.25500000920E-02 0.  1.
        2   -1    0    0  501    0  0.00000000000E+00  0.00000000000E+00 -0.98934577349E+03  0.98934577350E+03  0.25500000920E-02 0. -1.
    10030    2    1    2    0    0  0.00000000000E+00  0.00000000000E+00 -0.29270292164E+02  0.19494212548E+04  0.19492014977E+04 0.  0.
        2    1    3    3  502    0 -0.20165199912E+03 -0.23112024332E+03 -0.93981593749E+03  0.98860208982E+03  0.25500000920E-02 0. -1.
       -2    1    3    3    0  502  0.20165199912E+03  0.23112024332E+03  0.91054564533E+03  0.96081916501E+03  0.25500000920E-02 0.  1.
</event>
<event>
 5   0  0.1782613E-04  0.1797462E+04  0.7818609E-02  0.8707650E-01
       -1   -1    0    0    0  501  0.00000000000E+00  0.00000000000E+00  0.70009342147E+03  0.70009342149E+03  0.50400001928E-02 0. -1.
        1   -1    0    0  501    0  0.00000000000E+00  0.00000000000E+00 -0.11537278862E+04  0.11537278862E+04  0.50400001928E-02 0.  1.
    10030    2    1    2    0    0  0.00000000000E+00  0.00000000000E+00 -0.45363446472E+03  0.18538213077E+04  0.17974618809E+04 0.  0.
        3    1    3    3  502    0 -0.30979036220E+03  0.82104097870E+03 -0.42690790727E+03  0.97587331591E+03  0.10100000352E+00 0.  1.
       -3    1    3    3    0  502  0.30979036220E+03 -0.82104097870E+03 -0.26726557454E+02  0.87794799179E+03  0.10100000352E+00 0. -1.
</event>
<event>
 5   0  0.3516539E-04  0.1845733E+04  0.7818609E-02  0.8682350E-01
       -2   -1    0    0    0  501  0.00000000000E+00  0.00000000000E+00  0.45213934034E+03  0.45213934035E+03  0.25500000920E-02 0.  1.
        2   -1    0    0  501    0  0.00000000000E+00  0.00000000000E+00 -0.18836728842E+04  0.18836728842E+04  0.25500000920E-02 0. -1.
    10030    2    1    2    0    0  0.00000000000E+00  0.00000000000E+00 -0.14315335439E+04  0.23358122246E+04  0.18457330417E+04 0.  0.
        4    1    3    3  502    0  0.67021300412E+03  0.37255677875E+02 -0.15172592600E+04  0.16591114282E+04  0.12699999809E+01 0. -1.
       -4    1    3    3    0  502 -0.67021300412E+03 -0.37255677875E+02  0.85725716115E+02  0.67670079632E+03  0.12699999809E+01 0.  1.
</event>
<event>
 5   0  0.3459485E-04  0.1905741E+04  0.7818609E-02  0.8652004E-01
       -2   -1    0    0    0  501  0.00000000000E+00  0.00000000000E+00  0.71501022936E+03  0.71501022936E+03  0.25500000920E-02 0. -1.
        2   -1    0    0  501    0  0.00000000000E+00  0.00000000000E+00 -0.12698596462E+04  0.12698596462E+04  0.25500000920E-02 0.  1.
    10030    2    1    2    0    0  0.00000000000E+00  0.00000000000E+00 -0.55484941687E+03  0.19848698756E+04  0.19057414692E+04 0.  0.
        3    1    3    3  502    0 -0.38835463099E+03  0.14151571450E+03 -0.11716277749E+04  0.12423999638E+04  0.10100000352E+00 0.  1.
       -3    1    3    3    0  502  0.38835463099E+03 -0.14151571450E+03  0.61677835801E+03  0.74246991183E+03  0.10100000352E+00 0. -1.
</event>
<event>
 5   0  0.3623359E-04  0.1888324E+04  0.7818609E-02  0.8660690E-01
       -2   -1    0    0    0  501  0.00000000000E+00  0.00000000000E+00  0.59976275970E+03  0.59976275970E+03  0.25500000920E-02 0.  1.
        2   -1    0    0  501    0  0.00000000000E+00  0.00000000000E+00 -0.14863247658E+04  0.14863247658E+04  0.25500000920E-02 0. -1.
    10030    2    1    2    0    0  0.00000000000E+00  0.00000000000E+00 -0.88656200611E+03  0.20860875255E+04  0.18883243825E+04 0.  0.
        5    1    3    3  502    0  0.63504831247E+03 -0.37295224526E+03 -0.10959512041E+04  0.13204207163E+04  0.46999998093E+01 0. -1.
       -5    1    3    3    0  502 -0.63504831247E+03  0.37295224526E+03  0.20938919798E+03  0.76566680916E+03  0.46999998093E+01 0.  1.
</event>
<event>
 5   0  0.1711979E-04  0.1825537E+04  0.7818609E-02  0.8692836E-01
       -1   -1    0    0    0  501  0.00000000000E+00  0.00000000000E+00  0.11145462332E+04  0.11145462332E+04  0.50400001928E-02 0.  1.
        1   -1    0    0  501    0  0.00000000000E+00  0.00000000000E+00 -0.74752026182E+03  0.74752026184E+03  0.50400001928E-02 0. -1.
    10030    2    1    2    0    0  0.00000000000E+00  0.00000000000E+00  0.36702597135E+03  0.18620664950E+04  0.18255365152E+04 0.  0.
        4    1    3    3  502    0  0.28081697361E+03 -0.68235131224E+03  0.73155658604E+03  0.10390563688E+04  0.12699999809E+01 0.  1.
       -4    1    3    3    0  502 -0.28081697361E+03  0.68235131224E+03 -0.36453061470E+03  0.82301012626E+03  0.12699999809E+01 0. -1.
</event>
<event>
 5   0  0.1782613E-04  0.1912722E+04  0.7818609E-02  0.8648550E-01
        1   -1    0    0  501    0  0.00000000000E+00  0.00000000000E+00  0.82265450072E+03  0.82265450074E+03  0.50400001928E-02 0.  1.
       -1   -1    0    0    0  501  0.00000000000E+00  0.00000000000E+00 -0.11117991508E+04  0.11117991508E+04  0.50400001928E-02 0. -1.
    10030    2    1    2    0    0  0.00000000000E+00  0.00000000000E+00 -0.28914465008E+03  0.19344536516E+04  0.19127222227E+04 0.  0.
        3    1    3    3  502    0  0.33325380627E+03  0.80697980754E+03  0.25018535200E+03  0.90822201566E+03  0.10100000352E+00 0. -1.
       -3    1    3    3    0  502 -0.33325380627E+03 -0.80697980754E+03 -0.53933000208E+03  0.10262316359E+04  0.10100000352E+00 0.  1.
</event>
<event>
 5   0  0.1813834E-04  0.1908781E+04  0.7818609E-02  0.8650498E-01
        1   -1    0    0  501    0  0.00000000000E+00  0.00000000000E+00  0.14323993187E+04  0.14323993187E+04  0.50400001928E-02 0.  1.
       -1   -1    0    0    0  501  0.00000000000E+00  0.00000000000E+00 -0.63589926386E+03  0.63589926388E+03  0.50400001928E-02 0. -1.
    10030    2    1    2    0    0  0.00000000000E+00  0.00000000000E+00  0.79650005483E+03  0.20682985826E+04  0.19087814671E+04 0.  0.
        5    1    3    3  502    0  0.40765568417E+03  0.64939288680E+03 -0.21752420508E+03  0.79701514921E+03  0.46999998093E+01 0. -1.
       -5    1    3    3    0  502 -0.40765568417E+03 -0.64939288680E+03  0.10140242599E+04  0.12712834334E+04  0.46999998093E+01 0.  1.
</event>
<event>
 5   0  0.3516539E-04  0.1914237E+04  0.7818609E-02  0.8647802E-01
       -2   -1    0    0    0  501  0.00000000000E+00  0.00000000000E+00  0.71221376812E+03  0.71221376813E+03  0.25500000920E-02 0. -1.
        2   -1    0    0  501    0  0.00000000000E+00  0.00000000000E+00 -0.12862373803E+04  0.12862373803E+04  0.25500000920E-02 0.  1.
    10030    2    1    2    0    0  0.00000000000E+00  0.00000000000E+00 -0.57402361215E+03  0.19984511484E+04  0.19142371549E+04 0.  0.
        4    1    3    3  502    0 -0.29959170256E+02  0.71401887587E+03  0.37767176865E+03  0.80830568767E+03  0.12699999809E+01 0. -1.
       -4    1    3    3    0  502  0.29959170256E+02 -0.71401887587E+03 -0.95169538080E+03  0.11901454607E+04  0.12699999809E+01 0.  1.
</event>
<event>
 5   0  0.3720978E-04  0.1905046E+04  0.7818609E-02  0.8652349E-01
        2   -1    0    0  501    0  0.00000000000E+00  0.00000000000E+00  0.12520511965E+04  0.12520511965E+04  0.25500000920E-02 0.  1.
       -2   -1    0    0    0  501  0.00000000000E+00  0.00000000000E+00 -0.72465063388E+03  0.72465063389E+03  0.25500000920E-02 0. -1.
    10030    2    1    2    0    0  0.00000000000E+00  0.00000000000E+00  0.52740056258E+03  0.19767018304E+04  0.19050456091E+04 0.  0.
        1    1    3    3  502    0  0.23491814917E+03 -0.55660853176E+03  0.10278098328E+04  0.11922217272E+04  0.50400001928E-02 0.  1.
       -1    1    3    3    0  502 -0.23491814917E+03  0.55660853176E+03 -0.50040927023E+03  0.78448010312E+03  0.50400001928E-02 0. -1.
</event>
<event>
 5   0  0.3623359E-04  0.1910965E+04  0.7818609E-02  0.8649418E-01
       -2   -1    0    0    0  501  0.00000000000E+00  0.00000000000E+00  0.18227780093E+04  0.18227780093E+04  0.25500000920E-02 0. -1.
        2   -1    0    0  501    0  0.00000000000E+00  0.00000000000E+00 -0.50085470431E+03  0.50085470432E+03  0.25500000920E-02 0.  1.
    10030    2    1    2    0    0  0.00000000000E+00  0.00000000000E+00  0.13219233050E+04  0.23236327137E+04  0.19109651393E+04 0.  0.
        5    1    3    3  502    0 -0.60941007975E+01 -0.92561023868E+03  0.94904979769E+03  0.13257107756E+04  0.46999998093E+01 0. -1.
       -5    1    3    3    0  502  0.60941007975E+01  0.92561023868E+03  0.37287350735E+03  0.99792193808E+03  0.46999998093E+01 0.  1.
</event>
<event>
 5   0  0.3516539E-04  0.1906022E+04  0.7818609E-02  0.8651864E-01
        2   -1    0    0  501    0  0.00000000000E+00  0.00000000000E+00  0.87325055531E+03  0.87325055532E+03  0.25500000920E-02 0.  1.
       -2   -1    0    0    0  501  0.00000000000E+00  0.00000000000E+00 -0.10400568948E+04  0.10400568948E+04  0.25500000920E-02 0. -1.
    10030    2    1    2    0    0  0.00000000000E+00  0.00000000000E+00 -0.16680633952E+03  0.19133074502E+04  0.19060223094E+04 0.  0.
        4    1    3    3  502    0  0.30591946982E+03 -0.24389247859E+03  0.78891678534E+03  0.88060295833E+03  0.12699999809E+01 0.  1.
       -4    1    3    3    0  502 -0.30591946982E+03  0.24389247859E+03 -0.95572312486E+03  0.10327044918E+04  0.12699999809E+01 0. -1.
</event>
<event>
 5   0  0.3535876E-04  0.1924015E+04  0.7818609E-02  0.8642994E-01
        2   -1    0    0  501    0  0.00000000000E+00  0.00000000000E+00  0.18597714739E+04  0.18597714739E+04  0.25500000920E-02 0. -1.
       -2   -1    0    0    0  501  0.00000000000E+00  0.00000000000E+00 -0.49761953601E+03  0.49761953602E+03  0.25500000920E-02 0.  1.
    10030    2    1    2    0    0  0.00000000000E+00  0.00000000000E+00  0.13621519379E+04  0.23573910099E+04  0.19240151953E+04 0.  0.
        2    1    3    3  502    0 -0.44928180317E+03 -0.61067363964E+02  0.17206412063E+04  0.17793789710E+04  0.25500000920E-02 0. -1.
       -2    1    3    3    0  502  0.44928180317E+03  0.61067363964E+02 -0.35848926839E+03  0.57801203894E+03  0.25500000920E-02 0.  1.
</event>
<event>
 5   0  0.3623359E-04  0.2149492E+04  0.7818609E-02  0.8539750E-01
       -2   -1    0    0    0  501  0.00000000000E+00  0.00000000000E+00  0.85520063263E+03  0.85520063263E+03  0.25500000920E-02 0.  1.
        2   -1    0    0  501    0  0.00000000000E+00  0.00000000000E+00 -0.13506527946E+04  0.13506527946E+04  0.25500000920E-02 0. -1.
    10030    2    1    2    0    0  0.00000000000E+00  0.00000000000E+00 -0.49545216199E+03  0.22058534273E+04  0.21494921488E+04 0.  0.
        5    1    3    3  502    0  0.88576336695E+03 -0.60843670475E+03 -0.26505276325E+03  0.11068184238E+04  0.46999998093E+01 0.  1.
       -5    1    3    3    0  502 -0.88576336695E+03  0.60843670475E+03 -0.23039939874E+03  0.10990350035E+04  0.46999998093E+01 0. -1.
</event>
<event>
 5   0  0.3623359E-04  0.1891649E+04  0.7818609E-02  0.8659025E-01
        2   -1    0    0  501    0  0.00000000000E+00  0.00000000000E+00  0.59872848655E+03  0.59872848656E+03  0.25500000920E-02 0. -1.
       -2   -1    0    0    0  501  0.00000000000E+00  0.00000000000E+00 -0.14941389738E+04  0.14941389738E+04  0.25500000920E-02 0.  1.
    10030    2    1    2    0    0  0.00000000000E+00  0.00000000000E+00 -0.89541048725E+03  0.20928674604E+04  0.18916485577E+04 0.  0.
        5    1    3    3  502    0 -0.19705098796E+03 -0.64156281168E+03  0.28961490790E+03  0.73097935543E+03  0.46999998093E+01 0. -1.
       -5    1    3    3    0  502  0.19705098796E+03  0.64156281168E+03 -0.11850253952E+04  0.13618881049E+04  0.46999998093E+01 0.  1.
</event>
<event>
 5   0  0.1758946E-04  0.1907640E+04  0.7818609E-02  0.8651063E-01
        1   -1    0    0  501    0  0.00000000000E+00  0.00000000000E+00  0.20007134835E+04  0.20007134835E+04  0.50400001928E-02 0.  1.
       -1   -1    0    0    0  501  0.00000000000E+00  0.00000000000E+00 -0.45472423761E+03  0.45472423764E+03  0.50400001928E-02 0. -1.
    10030    2    1    2    0    0  0.00000000000E+00  0.00000000000E+00  0.15459892459E+04  0.24554377212E+04  0.19076403367E+04 0.  0.
        2    1    3    3  502    0 -0.91356232194E+03 -0.62872144625E+01  0.11258202544E+04  0.14498644386E+04  0.25500000920E-02 0.  1.
       -2    1    3    3    0  502  0.91356232194E+03  0.62872144625E+01  0.42016899151E+03  0.10055732825E+04  0.25500000920E-02 0. -1.
</event>
<event>
 5   0  0.1758946E-04  0.1812728E+04  0.7818609E-02  0.8699560E-01
       -1   -1    0    0    0  501  0.00000000000E+00  0.00000000000E+00  0.15408090373E+04  0.15408090373E+04  0.50400001928E-02 0. -1.
        1   -1    0    0  501    0  0.00000000000E+00  0.00000000000E+00 -0.53315873290E+03  0.53315873292E+03  0.50400001928E-02 0.  1.
    10030    2    1    2    0    0  0.00000000000E+00  0.00000000000E+00  0.10076503044E+04  0.20739677703E+04  0.18127281032E+04 0.  0.
        2    1    3    3  502    0 -0.16548951760E+03  0.42538975694E+03 -0.39206262443E+03  0.60171116594E+03  0.25500000920E-02 0.  1.
       -2    1    3    3    0  502  0.16548951760E+03 -0.42538975694E+03  0.13997129289E+04  0.14722566043E+04  0.25500000920E-02 0. -1.
</event>
<event>
 5   0  0.1287000E-04  0.1896718E+04  0.7818609E-02  0.8656492E-01
        4   -1    0    0  501    0  0.00000000000E+00  0.00000000000E+00  0.98844040653E+03  0.98844122241E+03  0.12699999809E+01 0. -1.
       -4   -1    0    0    0  501  0.00000000000E+00  0.00000000000E+00 -0.90990173541E+03  0.90990262171E+03  0.12699999809E+01 0.  1.
    10030    2    1    2    0    0  0.00000000000E+00  0.00000000000E+00  0.78538671123E+02  0.18983438441E+04  0.18967184893E+04 0.  0.
        5    1    3    3  502    0 -0.72232619055E+03  0.31368729560E+03  0.56812380600E+03  0.97105179775E+03  0.46999998093E+01 0. -1.
       -5    1    3    3    0  502  0.72232619055E+03 -0.31368729560E+03 -0.48958513488E+03  0.92729204637E+03  0.46999998093E+01 0.  1.
</event>
<event>
 5   0  0.1813834E-04  0.1543853E+04  0.7818609E-02  0.8855804E-01
        1   -1    0    0  501    0  0.00000000000E+00  0.00000000000E+00  0.61752491130E+03  0.61752491132E+03  0.50400001928E-02 0.  1.
       -1   -1    0    0    0  501  0.00000000000E+00  0.00000000000E+00 -0.96493327096E+03  0.96493327097E+03  0.50400001928E-02 0. -1.
    10030    2    1    2    0    0  0.00000000000E+00  0.00000000000E+00 -0.34740835966E+03  0.15824581823E+04  0.15438527554E+04 0.  0.
        5    1    3    3  502    0  0.81518525860E+02 -0.63664230657E+03 -0.61325073966E+03  0.88772589028E+03  0.46999998093E+01 0. -1.
       -5    1    3    3    0  502 -0.81518525860E+02  0.63664230657E+03  0.26584238001E+03  0.69473229202E+03  0.46999998093E+01 0.  1.
</event>
<event>
 5   0  0.3459485E-04  0.2137349E+04  0.7818609E-02  0.8544967E-01
       -2   -1    0    0    0  501  0.00000000000E+00  0.00000000000E+00  0.77490892631E+03  0.77490892632E+03  0.25500000920E-02 0. -1.
        2   -1    0    0  501    0  0.00000000000E+00  0.00000000000E+00 -0.14738055565E+04  0.14738055565E+04  0.25500000920E-02 0.  1.
    10030    2    1    2    0    0  0.00000000000E+00  0.00000000000E+00 -0.69889663023E+03  0.22487144829E+04  0.21373489013E+04 0.  0.
        3    1    3    3  502    0  0.21093060460E+03  0.43790760032E+03  0.65188235483E+03  0.81314537514E+03  0.10100000352E+00 0. -1.
       -3    1    3    3    0  502 -0.21093060460E+03 -0.43790760032E+03 -0.13507789851E+04  0.14355691077E+04  0.10100000352E+00 0.  1.
</event>
<event>
 5   0  0.1694830E-04  0.2168213E+04  0.7818609E-02  0.8531776E-01
       -1   -1    0    0    0  501  0.00000000000E+00  0.00000000000E+00  0.15656898728E+04  0.15656898728E+04  0.50400001928E-02 0. -1.
        1   -1    0    0  501    0  0.00000000000E+00  0.00000000000E+00 -0.75065127527E+03  0.75065127529E+03  0.50400001928E-02 0.  1.
    10030    2    1    2    0    0  0.00000000000E+00  0.00000000000E+00  0.81503859755E+03  0.23163411481E+04  0.21682131812E+04 0.  0.
        1    1    3    3  502    0  0.25013626240E+03 -0.99576679442E+03  0.77939132487E+03  0.12890191992E+04  0.50400001928E-02 0. -1.
       -1    1    3    3    0  502 -0.25013626240E+03  0.99576679442E+03  0.35647272681E+02  0.10273219489E+04  0.50400001928E-02 0.  1.
</event>
<event>
 5   0  0.1758946E-04  0.1914216E+04  0.7818609E-02  0.8647813E-01
       -1   -1    0    0    0  501  0.00000000000E+00  0.00000000000E+00  0.17130920090E+04  0.17130920090E+04  0.50400001928E-02 0. -1.
        1   -1    0    0  501    0  0.00000000000E+00  0.00000000000E+00 -0.53473798045E+03  0.53473798047E+03  0.50400001928E-02 0.  1.
    10030    2    1    2    0    0  0.00000000000E+00  0.00000000000E+00  0.11783540285E+04  0.22478299894E+04  0.19142156213E+04 0.  0.
        2    1    3    3  502    0 -0.12263695244E+03  0.41976291029E+03  0.15889147448E+04  0.16479959918E+04  0.25500000920E-02 0. -1.
       -2    1    3    3    0  502  0.12263695244E+03 -0.41976291029E+03 -0.41056071624E+03  0.59983399761E+03  0.25500000920E-02 0.  1.
</event>
<event>
 5   0  0.1813834E-04  0.1744727E+04  0.7818609E-02  0.8736258E-01
       -1   -1    0    0    0  501  0.00000000000E+00  0.00000000000E+00  0.30469363849E+03  0.30469363853E+03  0.50400001928E-02 0.  1.
        1   -1    0    0  501    0  0.00000000000E+00  0.00000000000E+00 -0.24976486174E+04  0.24976486174E+04  0.50400001928E-02 0. -1.
    10030    2    1    2    0    0  0.00000000000E+00  0.00000000000E+00 -0.21929549789E+04  0.28023422559E+04  0.17447265058E+04 0.  0.
        5    1    3    3  502    0 -0.15654663708E+03 -0.77181830328E+03 -0.49381753231E+03  0.92956343951E+03  0.46999998093E+01 0.  1.
       -5    1    3    3    0  502  0.15654663708E+03  0.77181830328E+03 -0.16991374466E+04  0.18727788164E+04  0.46999998093E+01 0. -1.
</event>
<event>
 5   0  0.3535876E-04  0.2010108E+04  0.7818609E-02  0.8601909E-01
        2   -1    0    0  501    0  0.00000000000E+00  0.00000000000E+00  0.10512834944E+04  0.10512834944E+04  0.25500000920E-02 0. -1.
       -2   -1    0    0    0  501  0.00000000000E+00  0.00000000000E+00 -0.96085765985E+03  0.96085765986E+03  0.25500000920E-02 0.  1.
    10030    2    1    2    0    0  0.00000000000E+00  0.00000000000E+00  0.90425834530E+02  0.20121411542E+04  0.20101082541E+04 0.  0.
        2    1    3    3  502    0  0.24652345690E+03 -0.66488287909E+03  0.75817669256E+03  0.10381112440E+04  0.25500000920E-02 0. -1.
       -2    1    3    3    0  502 -0.24652345690E+03  0.66488287909E+03 -0.66775085803E+03  0.97402991028E+03  0.25500000920E-02 0.  1.
</event>
<event>
 5   0  0.3516539E-04  0.1887760E+04  0.7818609E-02  0.8660973E-01
        2   -1    0    0  501    0  0.00000000000E+00  0.00000000000E+00  0.16441535263E+04  0.16441535263E+04  0.25500000920E-02 0. -1.
       -2   -1    0    0    0  501  0.00000000000E+00  0.00000000000E+00 -0.54186531081E+03  0.54186531081E+03  0.25500000920E-02 0.  1.
    10030    2    1    2    0    0  0.00000000000E+00  0.00000000000E+00  0.11022882155E+04  0.21860188371E+04  0.18877603254E+04 0.  0.
        4    1    3    3  502    0 -0.18333608724E+03 -0.13826528293E+03 -0.50902553881E+03  0.55842458883E+03  0.12699999809E+01 0.  1.
       -4    1    3    3    0  502  0.18333608724E+03  0.13826528293E+03  0.16113137543E+04  0.16275942483E+04  0.12699999809E+01 0. -1.
</event>
<event>
 5   0  0.1782613E-04  0.1895015E+04  0.7818609E-02  0.8657342E-01
        1   -1    0    0  501    0  0.00000000000E+00  0.00000000000E+00  0.71140224837E+03  0.71140224839E+03  0.50400001928E-02 0.  1.
       -1   -1    0    0    0  501  0.00000000000E+00  0.00000000000E+00 -0.12619735286E+04  0.12619735286E+04  0.50400001928E-02 0. -1.
    10030    2    1    2    0    0  0.00000000000E+00  0.00000000000E+00 -0.55057128021E+03  0.19733757770E+04  0.18950153621E+04 0.  0.
        3    1    3    3  502    0  0.91068420590E+03 -0.11121353453E+03 -0.28732509774E+02  0.91789963529E+03  0.10100000352E+00 0.  1.
       -3    1    3    3    0  502 -0.91068420590E+03  0.11121353453E+03 -0.52183877044E+03  0.10554761417E+04  0.10100000352E+00 0. -1.
</event>
<event>
 5   0  0.3535876E-04  0.1894389E+04  0.7818609E-02  0.8657655E-01
        2   -1    0    0  501    0  0.00000000000E+00  0.00000000000E+00  0.76703164588E+03  0.76703164588E+03  0.25500000920E-02 0.  1.
       -2   -1    0    0    0  501  0.00000000000E+00  0.00000000000E+00 -0.11696742292E+04  0.11696742292E+04  0.25500000920E-02 0. -1.
    10030    2    1    2    0    0  0.00000000000E+00  0.00000000000E+00 -0.40264258334E+03  0.19367058751E+04  0.18943887132E+04 0.  0.
        2    1    3    3  502    0 -0.10454213513E+03 -0.56078673571E+03 -0.97436466274E+03  0.11290692259E+04  0.25500000920E-02 0. -1.
       -2    1    3    3    0  502  0.10454213513E+03  0.56078673571E+03  0.57172207940E+03  0.80763664915E+03  0.25500000920E-02 0.  1.
</event>
<event>
 5   0  0.1813834E-04  0.1980612E+04  0.7818609E-02  0.8615739E-01
        1   -1    0    0  501    0  0.00000000000E+00  0.00000000000E+00  0.10459167077E+04  0.10459167077E+04  0.50400001928E-02 0. -1.
       -1   -1    0    0    0  501  0.00000000000E+00  0.00000000000E+00 -0.93765170436E+03  0.93765170437E+03  0.50400001928E-02 0.  1.
    10030    2    1    2    0    0  0.00000000000E+00  0.00000000000E+00  0.10826500335E+03  0.19835684121E+04  0.19806116062E+04 0.  0.
        5    1    3    3  502    0 -0.38157518325E+03  0.30758170140E+03  0.91592708334E+03  0.10388217535E+04  0.46999998093E+01 0. -1.
       -5    1    3    3    0  502  0.38157518325E+03 -0.30758170140E+03 -0.80766207999E+03  0.94474665861E+03  0.46999998093E+01 0.  1.
</event>
<event>
 5   0  0.1711979E-04  0.1858010E+04  0.7818609E-02  0.8676045E-01
        1   -1    0    0  501    0  0.00000000000E+00  0.00000000000E+00  0.88955818063E+03  0.88955818064E+03  0.50400001928E-02 0.  1.
       -1   -1    0    0    0  501  0.00000000000E+00  0.00000000000E+00 -0.97020096241E+03  0.97020096242E+03  0.50400001928E-02 0. -1.
    10030    2    1    2    0    0  0.00000000000E+00  0.00000000000E+00 -0.80642781776E+02  0.18597591431E+04  0.18580099063E+04 0.  0.
        4    1    3    3  502    0  0.19388400282E+03 -0.13079666148E+03  0.85960782123E+03  0.89085688661E+03  0.12699999809E+01 0.  1.
       -4    1    3    3    0  502 -0.19388400282E+03  0.13079666148E+03 -0.94025060301E+03  0.96890225645E+03  0.12699999809E+01 0. -1.
</event>
<event>
 5   0  0.1758946E-04  0.1880019E+04  0.7818609E-02  0.8664867E-01
        1   -1    0    0  501    0  0.00000000000E+00  0.00000000000E+00  0.59251175049E+03  0.59251175052E+03  0.50400001928E-02 0. -1.
       -1   -1    0    0    0  501  0.00000000000E+00  0.00000000000E+00 -0.14913081206E+04  0.14913081206E+04  0.50400001928E-02 0.  1.
    10030    2    1    2    0    0  0.00000000000E+00  0.00000000000E+00 -0.89879637014E+03  0.20838198712E+04  0.18800187075E+04 0.  0.
        2    1    3    3  502    0 -0.91501513000E+03  0.21408311745E+03 -0.42380111675E+03  0.10308693690E+04  0.25500000920E-02 0.  1.
       -2    1    3    3    0  502  0.91501513000E+03 -0.21408311745E+03 -0.47499525340E+03  0.10529505022E+04  0.25500000920E-02 0. -1.
</event>
<event>
 5   0  0.1813834E-04  0.1887310E+04  0.7818609E-02  0.8661199E-01
       -1   -1    0    0    0  501  0.00000000000E+00  0.00000000000E+00  0.72021258969E+03  0.72021258970E+03  0.50400001928E-02 0.  1.
        1   -1    0    0  501    0  0.00000000000E+00  0.00000000000E+00 -0.12364198754E+04  0.12364198754E+04  0.50400001928E-02 0. -1.
    10030    2    1    2    0    0  0.00000000000E+00  0.00000000000E+00 -0.51620728570E+03  0.19566324651E+04  0.18873104254E+04 0.  0.
        5    1    3    3  502    0  0.87350791147E+03 -0.25209275964E+03 -0.52016535016E+03  0.10474544918E+04  0.46999998093E+01 0. -1.
       -5    1    3    3    0  502 -0.87350791147E+03  0.25209275964E+03  0.39580644589E+01  0.90917797331E+03  0.46999998093E+01 0.  1.
</event>
<event>
 5   0  0.1694830E-04  0.1941224E+04  0.7818609E-02  0.8634605E-01
        1   -1    0    0  501    0  0.00000000000E+00  0.00000000000E+00  0.67501857483E+03  0.67501857485E+03  0.50400001928E-02 0.  1.
       -1   -1    0    0    0  501  0.00000000000E+00  0.00000000000E+00 -0.13956462979E+04  0.13956462979E+04  0.50400001928E-02 0. -1.
    10030    2    1    2    0    0  0.00000000000E+00  0.00000000000E+00 -0.72062772310E+03  0.20706648728E+04  0.19412235060E+04 0.  0.
        1    1    3    3  502    0  0.76758232270E+03 -0.59319159369E+03 -0.39451899167E+03  0.10472364221E+04  0.50400001928E-02 0. -1.
       -1    1    3    3    0  502 -0.76758232270E+03  0.59319159369E+03 -0.32610873143E+03  0.10234284507E+04  0.50400001928E-02 0.  1.
</event>
<event>
 5   0  0.3459485E-04  0.1884003E+04  0.7818609E-02  0.8662861E-01
       -2   -1    0    0    0  501  0.00000000000E+00  0.00000000000E+00  0.73727922586E+03  0.73727922587E+03  0.25500000920E-02 0. -1.
        2   -1    0    0  501    0  0.00000000000E+00  0.00000000000E+00 -0.12035690794E+04  0.12035690794E+04  0.25500000920E-02 0.  1.
    10030    2    1    2    0    0  0.00000000000E+00  0.00000000000E+00 -0.46628985351E+03  0.19408483052E+04  0.18840026318E+04 0.  0.
        3    1    3    3  502    0 -0.43714731729E+03  0.76045016408E+02  0.62288210338E+03  0.76476319633E+03  0.10100000352E+00 0. -1.
       -3    1    3    3    0  502  0.43714731729E+03 -0.76045016408E+02 -0.10891719569E+04  0.11760851089E+04  0.10100000352E+00 0.  1.
</event>
<event>
 5   0  0.3459485E-04  0.1910214E+04  0.7818609E-02  0.8649789E-01
        2   -1    0    0  501    0  0.00000000000E+00  0.00000000000E+00  0.97052981650E+03  0.97052981651E+03  0.25500000920E-02 0.  1.
       -2   -1    0    0    0  501  0.00000000000E+00  0.00000000000E+00 -0.93992910012E+03  0.93992910012E+03  0.25500000920E-02 0. -1.
    10030    2    1    2    0    0  0.00000000000E+00  0.00000000000E+00  0.30600716383E+02  0.19104589166E+04  0.19102138279E+04 0.  0.
        3    1    3    3  502    0 -0.41087943998E+03  0.15944577217E+03  0.86274864053E+03  0.96880343487E+03  0.10100000352E+00 0.  1.
       -3    1    3    3    0  502  0.41087943998E+03 -0.15944577217E+03 -0.83214792415E+03  0.94165548176E+03  0.10100000352E+00 0. -1.
</event>
<event>
 5   0  0.1813834E-04  0.1430661E+04  0.7818609E-02  0.8931919E-01
        1   -1    0    0  501    0  0.00000000000E+00  0.00000000000E+00  0.64346731628E+03  0.64346731630E+03  0.50400001928E-02 0.  1.
       -1   -1    0    0    0  501  0.00000000000E+00  0.00000000000E+00 -0.79521892483E+03  0.79521892485E+03  0.50400001928E-02 0. -1.
    10030    2    1    2    0    0  0.00000000000E+00  0.00000000000E+00 -0.15175160855E+03  0.14386862411E+04  0.14306605292E+04 0.  0.
        5    1    3    3  502    0 -0.69251671376E+03 -0.34221663438E+02 -0.25271672954E+03  0.73799617646E+03  0.46999998093E+01 0. -1.
       -5    1    3    3    0  502  0.69251671376E+03  0.34221663438E+02  0.10096512099E+03  0.70069006468E+03  0.46999998093E+01 0.  1.
</event>
<event>
 5   0  0.1782613E-04  0.1903070E+04  0.7818609E-02  0.8653330E-01
        1   -1    0    0  501    0  0.00000000000E+00  0.00000000000E+00  0.13919653937E+04  0.13919653937E+04  0.50400001928E-02 0.  1.
       -1   -1    0    0    0  501  0.00000000000E+00  0.00000000000E+00 -0.65046050158E+03  0.65046050160E+03  0.50400001928E-02 0. -1.
    10030    2    1    2    0    0  0.00000000000E+00  0.00000000000E+00  0.74150489214E+03  0.20424258953E+04  0.19030696343E+04 0.  0.
        3    1    3    3  502    0 -0.53677025984E+03 -0.47642931802E+03  0.10412499817E+04  0.12646377906E+04  0.10100000352E+00 0.  1.
       -3    1    3    3    0  502  0.53677025984E+03  0.47642931802E+03 -0.29974508953E+03  0.77778810471E+03  0.10100000352E+00 0. -1.
</event>
<event>
 5   0  0.1782613E-04  0.2034076E+04  0.7818609E-02  0.8590853E-01
        1   -1    0    0  501    0  0.00000000000E+00  0.00000000000E+00  0.11655935506E+04  0.11655935506E+04  0.50400001928E-02 0.  1.
       -1   -1    0    0    0  501  0.00000000000E+00  0.00000000000E+00 -0.88741560343E+03  0.88741560344E+03  0.50400001928E-02 0. -1.
    10030    2    1    2    0    0  0.00000000000E+00  0.00000000000E+00  0.27817794720E+03  0.20530091541E+04  0.20340756172E+04 0.  0.
        3    1    3    3  502    0  0.95948799362E+03 -0.31252211503E+03  0.26707072952E+03  0.10438458062E+04  0.10100000352E+00 0. -1.
       -3    1    3    3    0  502 -0.95948799362E+03  0.31252211503E+03  0.11107217676E+02  0.10091633479E+04  0.10100000352E+00 0.  1.
</event>
<event>
 5   0  0.3535876E-04  0.1904591E+04  0.7818609E-02  0.8652575E-01
        2   -1    0    0  501    0  0.00000000000E+00  0.00000000000E+00  0.60175373943E+03  0.60175373944E+03  0.25500000920E-02 0. -1.
       -2   -1    0    0    0  501  0.00000000000E+00  0.00000000000E+00 -0.15070395892E+04  0.15070395892E+04  0.25500000920E-02 0.  1.
    10030    2    1    2    0    0  0.00000000000E+00  0.00000000000E+00 -0.90528584973E+03  0.21087933286E+04  0.19045909884E+04 0.  0.
        2    1    3    3  502    0 -0.34294008874E+03  0.81535697181E+03 -0.62042324463E+02  0.88671536920E+03  0.25500000920E-02 0. -1.
       -2    1    3    3    0  502  0.34294008874E+03 -0.81535697181E+03 -0.84324352527E+03  0.12220779594E+04  0.25500000920E-02 0.  1.
</event>
<event>
 5   0  0.3535876E-04  0.1822758E+04  0.7818609E-02  0.8694290E-01
       -2   -1    0    0    0  501  0.00000000000E+00  0.00000000000E+00  0.78769909748E+03  0.78769909748E+03  0.25500000920E-02 0.  1.
        2   -1    0    0  501    0  0.00000000000E+00  0.00000000000E+00 -0.10544788067E+04  0.10544788067E+04  0.25500000920E-02 0. -1.
    10030    2    1    2    0    0  0.00000000000E+00  0.00000000000E+00 -0.26677970918E+03  0.18421779041E+04  0.18227583541E+04 0.  0.
        2    1    3    3  502    0 -0.39905425169E+03 -0.53776694516E+03  0.49139900875E+03  0.83060855336E+03  0.25500000920E-02 0.  1.
       -2    1    3    3    0  502  0.39905425169E+03  0.53776694516E+03 -0.75817871793E+03  0.10115693508E+04  0.25500000920E-02 0. -1.
</event>
<event>
 5   0  0.1711979E-04  0.1964375E+04  0.7818609E-02  0.8623460E-01
        1   -1    0    0  501    0  0.00000000000E+00  0.00000000000E+00  0.21660831553E+04  0.21660831553E+04  0.50400001928E-02 0. -1.
       -1   -1    0    0    0  501  0.00000000000E+00  0.00000000000E+00 -0.44536243128E+03  0.44536243130E+03  0.50400001928E-02 0.  1.
    10030    2    1    2    0    0  0.00000000000E+00  0.00000000000E+00  0.17207207241E+04  0.26114455866E+04  0.19643747712E+04 0.  0.
        4    1    3    3  502    0 -0.63773677173E+03 -0.81164988820E+02 -0.12680031931E+03  0.65526779206E+03  0.12699999809E+01 0.  1.
       -4    1    3    3    0  502  0.63773677173E+03  0.81164988820E+02  0.18475210434E+04  0.19561777946E+04  0.12699999809E+01 0. -1.
</event>
<event>
 5   0  0.3720978E-04  0.2030788E+04  0.7818609E-02  0.8592360E-01
        2   -1    0    0  501    0  0.00000000000E+00  0.00000000000E+00  0.12844972697E+04  0.12844972697E+04  0.25500000920E-02 0.  1.
       -2   -1    0    0    0  501  0.00000000000E+00  0.00000000000E+00 -0.80266804476E+03  0.80266804476E+03  0.25500000920E-02 0. -1.
    10030    2    1    2    0    0  0.00000000000E+00  0.00000000000E+00  0.48182922493E+03  0.20871653145E+04  0.20307879377E+04 0.  0.
        1    1    3    3  502    0 -0.47085884230E+03 -0.76686992826E+03  0.72432024617E+03  0.11551784950E+04  0.50400001928E-02 0.  1.
       -1    1    3    3    0  502  0.47085884230E+03  0.76686992826E+03 -0.24249102125E+03  0.93198681946E+03  0.50400001928E-02 0. -1.
</event>
<event>
 5   0  0.1287000E-04  0.1889000E+04  0.7818609E-02  0.8660351E-01
        3   -1    0    0  501    0  0.00000000000E+00  0.00000000000E+00  0.69440278826E+03  0.69440279561E+03  0.10100000352E+00 0.  1.
       -3   -1    0    0    0  501  0.00000000000E+00  0.00000000000E+00 -0.12846724862E+04  0.12846724901E+04  0.10100000352E+00 0. -1.
    10030    2    1    2    0    0  0.00000000000E+00  0.00000000000E+00 -0.59026969789E+03  0.19790752857E+04  0.18889999127E+04 0.  0.
        5    1    3    3  502    0 -0.78877690946E+03 -0.33712190109E+03  0.11898262678E+03  0.86602490990E+03  0.46999998093E+01 0. -1.
       -5    1    3    3    0  502  0.78877690946E+03  0.33712190109E+03 -0.70925232466E+03  0.11130503758E+04  0.46999998093E+01 0.  1.
</event>
<event>
 5   0  0.3623359E-04  0.1897503E+04  0.7818609E-02  0.8656100E-01
        2   -1    0    0  501    0  0.00000000000E+00  0.00000000000E+00  0.20951043821E+04  0.20951043821E+04  0.25500000920E-02 0. -1.
       -2   -1    0    0    0  501  0.00000000000E+00  0.00000000000E+00 -0.42963463904E+03  0.42963463904E+03  0.25500000920E-02 0.  1.
    10030    2    1    2    0    0  0.00000000000E+00  0.00000000000E+00  0.16654697430E+04  0.25247390211E+04  0.18975030065E+04 0.  0.
        5    1    3    3  502    0 -0.36580076655E+03 -0.26545347251E+03  0.19426405839E+04  0.19945300888E+04  0.46999998093E+01 0. -1.
       -5    1    3    3    0  502  0.36580076655E+03  0.26545347251E+03 -0.27717084088E+03  0.53020893231E+03  0.46999998093E+01 0.  1.
</event>
<event>
 5   0  0.3623359E-04  0.1721061E+04  0.7818609E-02  0.8749443E-01
        2   -1    0    0  501    0  0.00000000000E+00  0.00000000000E+00  0.16625623816E+04  0.16625623816E+04  0.25500000920E-02 0.  1.
       -2   -1    0    0    0  501  0.00000000000E+00  0.00000000000E+00 -0.44540440812E+03  0.44540440813E+03  0.25500000920E-02 0. -1.
    10030    2    1    2    0    0  0.00000000000E+00  0.00000000000E+00  0.12171579735E+04  0.21079667898E+04  0.17210608514E+04 0.  0.
        5    1    3    3  502    0  0.59748612310E+03  0.58834535415E+03  0.37186913527E+03  0.91730511108E+03  0.46999998093E+01 0. -1.
       -5    1    3    3    0  502 -0.59748612310E+03 -0.58834535415E+03  0.84528883824E+03  0.11906616787E+04  0.46999998093E+01 0.  1.
</event>
<event>
 5   0  0.3535876E-04  0.1929936E+04  0.7818609E-02  0.8640097E-01
        2   -1    0    0  501    0  0.00000000000E+00  0.00000000000E+00  0.70044943701E+03  0.70044943701E+03  0.25500000920E-02 0.  1.
       -2   -1    0    0    0  501  0.00000000000E+00  0.00000000000E+00 -0.13293802359E+04  0.13293802359E+04  0.25500000920E-02 0. -1.
    10030    2    1    2    0    0  0.00000000000E+00  0.00000000000E+00 -0.62893079891E+03  0.20298296729E+04  0.19299364112E+04 0.  0.
        2    1    3    3  502    0  0.65922150919E+03  0.68599163251E+03 -0.48407654067E+03  0.10674678521E+04  0.25500000920E-02 0.  1.
       -2    1    3    3    0  502 -0.65922150919E+03 -0.68599163251E+03 -0.14485425824E+03  0.96236182083E+03  0.25500000920E-02 0. -1.
</event>
<event>
 5   0  0.1813834E-04  0.1899314E+04  0.7818609E-02  0.8655198E-01
       -1   -1    0    0    0  501  0.00000000000E+00  0.00000000000E+00  0.13091966226E+04  0.13091966226E+04  0.50400001928E-02 0. -1.
        1   -1    0    0  501    0  0.00000000000E+00  0.00000000000E+00 -0.68885626875E+03  0.68885626876E+03  0.50400001928E-02 0.  1.
    10030    2    1    2    0    0  0.00000000000E+00  0.00000000000E+00  0.62034035387E+03  0.19980528914E+04  0.18993138767E+04 0.  0.
        5    1    3    3  502    0  0.59863069519E+03  0.66903759301E+03 -0.15531762318E+02  0.89790497032E+03  0.46999998093E+01 0.  1.
       -5    1    3    3    0  502 -0.59863069519E+03 -0.66903759301E+03  0.63587211619E+03  0.11001479211E+04  0.46999998093E+01 0. -1.
</event>
<event>
 5   0  0.3459485E-04  0.1914292E+04  0.7818609E-02  0.8647775E-01
        2   -1    0    0  501    0  0.00000000000E+00  0.00000000000E+00  0.97363179207E+03  0.97363179208E+03  0.25500000920E-02 0. -1.
       -2   -1    0    0    0  501  0.00000000000E+00  0.00000000000E+00 -0.94093967100E+03  0.94093967101E+03  0.25500000920E-02 0.  1.
    10030    2    1    2    0    0  0.00000000000E+00  0.00000000000E+00  0.32692121070E+02  0.19145714631E+04  0.19142923268E+04 0.  0.
        3    1    3    3  502    0 -0.39428382866E+03 -0.84917601749E+03  0.21529495406E+03  0.96068286842E+03  0.10100000352E+00 0. -1.
       -3    1    3    3    0  502  0.39428382866E+03  0.84917601749E+03 -0.18260283299E+03  0.95388859467E+03  0.10100000352E+00 0.  1.
</event>
<event>
 5   0  0.1782613E-04  0.1358568E+04  0.7818609E-02  0.8984368E-01
       -1   -1    0    0    0  501  0.00000000000E+00  0.00000000000E+00  0.96442983819E+03  0.96442983820E+03  0.50400001928E-02 0. -1.
        1   -1    0    0  501    0  0.00000000000E+00  0.00000000000E+00 -0.47844488359E+03  0.47844488362E+03  0.50400001928E-02 0.  1.
    10030    2    1    2    0    0  0.00000000000E+00  0.00000000000E+00  0.48598495460E+03  0.14428747218E+04  0.13585676600E+04 0.  0.
        3    1    3    3  502    0 -0.33197561690E+03 -0.58747109158E+03  0.32591733126E+03  0.74936787406E+03  0.10100000352E+00 0. -1.
       -3    1    3    3    0  502  0.33197561690E+03  0.58747109158E+03  0.16006762334E+03  0.69350684776E+03  0.10100000352E+00 0.  1.
</event>
<event>
 5   0  0.3516539E-04  0.1895677E+04  0.7818609E-02  0.8657011E-01
       -2   -1    0    0    0  501  0.00000000000E+00  0.00000000000E+00  0.88957122957E+03  0.88957122957E+03  0.25500000920E-02 0.  1.
        2   -1    0    0  501    0  0.00000000000E+00  0.00000000000E+00 -0.10099226771E+04  0.10099226771E+04  0.25500000920E-02 0. -1.
    10030    2    1    2    0    0  0.00000000000E+00  0.00000000000E+00 -0.12035144754E+03  0.18994939067E+04  0.18956773540E+04 0.  0.
        4    1    3    3  502    0  0.21704840548E+03  0.39342740946E+03  0.77607110160E+03  0.89676256862E+03  0.12699999809E+01 0.  1.
       -4    1    3    3    0  502 -0.21704840548E+03 -0.39342740946E+03 -0.89642254914E+03  0.10027313381E+04  0.12699999809E+01 0. -1.
</event>
<event>
 5   0  0.1758946E-04  0.1920489E+04  0.7818609E-02  0.8644724E-01
        1   -1    0    0  501    0  0.00000000000E+00  0.00000000000E+00  0.61863509165E+03  0.61863509167E+03  0.50400001928E-02 0. -1.
       -1   -1    0    0    0  501  0.00000000000E+00  0.00000000000E+00 -0.14904908325E+04  0.14904908325E+04  0.50400001928E-02 0.  1.
    10030    2    1    2    0    0  0.00000000000E+00  0.00000000000E+00 -0.87185574086E+03  0.21091259242E+04  0.19204894509E+04 0.  0.
        2    1    3    3  502    0  0.51632913225E+03 -0.40967240298E+03  0.33097690052E+03  0.73754522523E+03  0.25500000920E-02 0. -1.
       -2    1    3    3    0  502 -0.51632913225E+03  0.40967240298E+03 -0.12028326414E+04  0.13715806990E+04  0.25500000920E-02 0.  1.
</event>
<event>
 5   0  0.1694830E-04  0.1527515E+04  0.7818609E-02  0.8866359E-01
       -1   -1    0    0    0  501  0.00000000000E+00  0.00000000000E+00  0.63276880812E+03  0.63276880814E+03  0.50400001928E-02 0. -1.
        1   -1    0    0  501    0  0.00000000000E+00  0.00000000000E+00 -0.92186211607E+03  0.92186211608E+03  0.50400001928E-02 0.  1.
    10030    2    1    2    0    0  0.00000000000E+00  0.00000000000E+00 -0.28909330794E+03  0.15546309242E+04  0.15275150964E+04 0.  0.
        1    1    3    3  502    0  0.51466913197E+03  0.44585922350E+03 -0.49659284414E+03  0.84278064493E+03  0.50400001928E-02 0. -1.
       -1    1    3    3    0  502 -0.51466913197E+03 -0.44585922350E+03  0.20749953620E+03  0.71185027930E+03  0.50400001928E-02 0.  1.
</event>
<event>
 5   0  0.3623359E-04  0.1898228E+04  0.7818609E-02  0.8655739E-01
        2   -1    0    0  501    0  0.00000000000E+00  0.00000000000E+00  0.20835756146E+04  0.20835756146E+04  0.25500000920E-02 0. -1.
       -2   -1    0    0    0  501  0.00000000000E+00  0.00000000000E+00 -0.43234221917E+03  0.43234221918E+03  0.25500000920E-02 0.  1.
    10030    2    1    2    0    0  0.00000000000E+00  0.00000000000E+00  0.16512333954E+04  0.25159178338E+04  0.18982283372E+04 0.  0.
        5    1    3    3  502    0 -0.61677016289E+03  0.15444219417E+03 -0.10833443816E+03  0.64499322916E+03  0.46999998093E+01 0.  1.
       -5    1    3    3    0  502  0.61677016289E+03 -0.15444219417E+03  0.17595678336E+04  0.18709246046E+04  0.46999998093E+01 0. -1.
</event>
<event>
 5   0  0.1813834E-04  0.1915212E+04  0.7818609E-02  0.8647321E-01
       -1   -1    0    0    0  501  0.00000000000E+00  0.00000000000E+00  0.30775879690E+03  0.30775879694E+03  0.50400001928E-02 0.  1.
        1   -1    0    0  501    0  0.00000000000E+00  0.00000000000E+00 -0.29796354518E+04  0.29796354518E+04  0.50400001928E-02 0. -1.
    10030    2    1    2    0    0  0.00000000000E+00  0.00000000000E+00 -0.26718766549E+04  0.32873942488E+04  0.19152117605E+04 0.  0.
        5    1    3    3  502    0  0.35793108277E+03  0.25117429666E+03 -0.27982454982E+04  0.28322081749E+04  0.46999998093E+01 0. -1.
       -5    1    3    3    0  502 -0.35793108277E+03 -0.25117429666E+03  0.12636884332E+03  0.45518607391E+03  0.46999998093E+01 0.  1.
</event>
<event>
 5   0  0.3459485E-04  0.1869891E+04  0.7818609E-02  0.8669991E-01
       -2   -1    0    0    0  501  0.00000000000E+00  0.00000000000E+00  0.43267757723E+03  0.43267757724E+03  0.25500000920E-02 0. -1.
        2   -1    0    0  501    0  0.00000000000E+00  0.00000000000E+00 -0.20202633088E+04  0.20202633088E+04  0.25500000920E-02 0.  1.
    10030    2    1    2    0    0  0.00000000000E+00  0.00000000000E+00 -0.15875857316E+04  0.24529408861E+04  0.18698905143E+04 0.  0.
        3    1    3    3  502    0 -0.27525500121E+03 -0.87119961990E+03 -0.53351004522E+03  0.10580109035E+04  0.10100000352E+00 0. -1.
       -3    1    3    3    0  502  0.27525500121E+03  0.87119961990E+03 -0.10540756864E+04  0.13949299825E+04  0.10100000352E+00 0.  1.
</event>
<event>
 5   0  0.3720978E-04  0.1897284E+04  0.7818609E-02  0.8656209E-01
        2   -1    0    0  501    0  0.00000000000E+00  0.00000000000E+00  0.12809012501E+04  0.12809012501E+04  0.25500000920E-02 0. -1.
       -2   -1    0    0    0  501  0.00000000000E+00  0.00000000000E+00 -0.70256940529E+03  0.70256940530E+03  0.25500000920E-02 0.  1.
    10030    2    1    2    0    0  0.00000000000E+00  0.00000000000E+00  0.57833184477E+03  0.19834706554E+04  0.18972844062E+04 0.  0.
        1    1    3    3  502    0  0.84751152267E+03 -0.27699729617E+03  0.62779160124E+03  0.10904703470E+04  0.50400001928E-02 0. -1.
       -1    1    3    3    0  502 -0.84751152267E+03  0.27699729617E+03 -0.49459756473E+02  0.89300030833E+03  0.50400001928E-02 0.  1.
</event>
<event>
 5   0  0.1758946E-04  0.1724087E+04  0.7818609E-02  0.8747745E-01
        1   -1    0    0  501    0  0.00000000000E+00  0.00000000000E+00  0.98115056436E+03  0.98115056437E+03  0.50400001928E-02 0. -1.
       -1   -1    0    0    0  501  0.00000000000E+00  0.00000000000E+00 -0.75739550733E+03  0.75739550734E+03  0.50400001928E-02 0.  1.
    10030    2    1    2    0    0  0.00000000000E+00  0.00000000000E+00  0.22375505703E+03  0.17385460717E+04  0.17240870390E+04 0.  0.
        2    1    3    3  502    0 -0.24156866349E+03  0.38025959774E+03 -0.62924623589E+03  0.77388862651E+03  0.25500000920E-02 0.  1.
       -2    1    3    3    0  502  0.24156866349E+03 -0.38025959774E+03  0.85300129292E+03  0.96465744520E+03  0.25500000920E-02 0. -1.
</event>
<event>
 5   0  0.1758946E-04  0.1880605E+04  0.7818609E-02  0.8664571E-01
       -1   -1    0    0    0  501  0.00000000000E+00  0.00000000000E+00  0.94489641493E+03  0.94489641495E+03  0.50400001928E-02 0.  1.
        1   -1    0    0  501    0  0.00000000000E+00  0.00000000000E+00 -0.93573056138E+03  0.93573056140E+03  0.50400001928E-02 0. -1.
    10030    2    1    2    0    0  0.00000000000E+00  0.00000000000E+00  0.91658535503E+01  0.18806269763E+04  0.18806046398E+04 0.  0.
        2    1    3    3  502    0  0.36915220400E+03 -0.57778673891E+03  0.64806363610E+03  0.94344970286E+03  0.25500000920E-02 0.  1.
       -2    1    3    3    0  502 -0.36915220400E+03  0.57778673891E+03 -0.63889778255E+03  0.93717727349E+03  0.25500000920E-02 0. -1.
</event>
<event>
 5   0  0.3459485E-04  0.1870320E+04  0.7818609E-02  0.8669773E-01
       -2   -1    0    0    0  501  0.00000000000E+00  0.00000000000E+00  0.37530932740E+03  0.37530932741E+03  0.25500000920E-02 0. -1.
        2   -1    0    0  501    0  0.00000000000E+00  0.00000000000E+00 -0.23301427938E+04  0.23301427938E+04  0.25500000920E-02 0.  1.
    10030    2    1    2    0    0  0.00000000000E+00  0.00000000000E+00 -0.19548334664E+04  0.27054521212E+04  0.18703201060E+04 0.  0.
        3    1    3    3  502    0  0.61070347306E+03 -0.43842309362E+03 -0.17287326533E+03  0.77140049073E+03  0.10100000352E+00 0. -1.
       -3    1    3    3    0  502 -0.61070347306E+03  0.43842309362E+03 -0.17819602011E+04  0.19340516305E+04  0.10100000352E+00 0.  1.
</event>
<event>
 5   0  0.3459485E-04  0.1727049E+04  0.7818609E-02  0.8746086E-01
       -2   -1    0    0    0  501  0.00000000000E+00  0.00000000000E+00  0.11466621490E+04  0.11466621490E+04  0.25500000920E-02 0. -1.
        2   -1    0    0  501    0  0.00000000000E+00  0.00000000000E+00 -0.65030000674E+03  0.65030000674E+03  0.25500000920E-02 0.  1.
    10030    2    1    2    0    0  0.00000000000E+00  0.00000000000E+00  0.49636214229E+03  0.17969621558E+04  0.17270488160E+04 0.  0.
        3    1    3    3  502    0 -0.42779297841E+03  0.12865320951E+03  0.10170932381E+04  0.11108722455E+04  0.10100000352E+00 0. -1.
       -3    1    3    3    0  502  0.42779297841E+03 -0.12865320951E+03 -0.52073109576E+03  0.68608991028E+03  0.10100000352E+00 0.  1.
</event>
<event>
 5   0  0.1711979E-04  0.1407682E+04  0.7818609E-02  0.8948277E-01
        1   -1    0    0  501    0  0.00000000000E+00  0.00000000000E+00  0.12413343107E+04  0.12413343107E+04  0.50400001928E-02 0.  1.
       -1   -1    0    0    0  501  0.00000000000E+00  0.00000000000E+00 -0.39908036188E+03  0.39908036192E+03  0.50400001928E-02 0. -1.
    10030    2    1    2    0    0  0.00000000000E+00  0.00000000000E+00  0.84225394883E+03  0.16404146726E+04  0.14076819896E+04 0.  0.
        4    1    3    3  502    0 -0.41842306810E+03  0.35669917167E+03 -0.90927190604E+02  0.55729842085E+03  0.12699999809E+01 0. -1.
       -4    1    3    3    0  502  0.41842306810E+03 -0.35669917167E+03  0.93318113943E+03  0.10831162518E+04  0.12699999809E+01 0.  1.
</event>
<event>
 5   0  0.1711979E-04  0.1921631E+04  0.7818609E-02  0.8644164E-01
        1   -1    0    0  501    0  0.00000000000E+00  0.00000000000E+00  0.19412055453E+04  0.19412055453E+04  0.50400001928E-02 0. -1.
       -1   -1    0    0    0  501  0.00000000000E+00  0.00000000000E+00 -0.47556322042E+03  0.47556322045E+03  0.50400001928E-02 0.  1.
    10030    2    1    2    0    0  0.00000000000E+00  0.00000000000E+00  0.14656423248E+04  0.24167687657E+04  0.19216305167E+04 0.  0.
        4    1    3    3  502    0 -0.71097095704E+02 -0.24026092415E+03 -0.43375053482E+03  0.50092040091E+03  0.12699999809E+01 0.  1.
       -4    1    3    3    0  502  0.71097095704E+02  0.24026092415E+03  0.18993928597E+04  0.19158483648E+04  0.12699999809E+01 0. -1.
</event>
<event>
 5   0  0.1694830E-04  0.1906604E+04  0.7818609E-02  0.8651576E-01
       -1   -1    0    0    0  501  0.00000000000E+00  0.00000000000E+00  0.82929382587E+03  0.82929382589E+03  0.50400001928E-02 0.  1.
        1   -1    0    0  501    0  0.00000000000E+00  0.00000000000E+00 -0.10958532939E+04  0.10958532939E+04  0.50400001928E-02 0. -1.
    10030    2    1    2    0    0  0.00000000000E+00  0.00000000000E+00 -0.26655946804E+03  0.19251471198E+04  0.19066036512E+04 0.  0.
        1    1    3    3  502    0 -0.20077202611E+03  0.25444917656E+02 -0.10739127378E+04  0.10928153635E+04  0.50400001928E-02 0. -1.
       -1    1    3    3    0  502  0.20077202611E+03 -0.25444917656E+02  0.80735326977E+03  0.83233175629E+03  0.50400001928E-02 0.  1.
</event>
<event>
 5   0  0.1694830E-04  0.1883931E+04  0.7818609E-02  0.8662897E-01
        1   -1    0    0  501    0  0.00000000000E+00  0.00000000000E+00  0.16439288167E+04  0.16439288167E+04  0.50400001928E-02 0.  1.
       -1   -1    0    0    0  501  0.00000000000E+00  0.00000000000E+00 -0.53974290578E+03  0.53974290580E+03  0.50400001928E-02 0. -1.
    10030    2    1    2    0    0  0.00000000000E+00  0.00000000000E+00  0.11041859109E+04  0.21836717225E+04  0.18839309079E+04 0.  0.
        1    1    3    3  502    0  0.67557395934E+03 -0.15727571176E+03  0.12908006240E+04  0.14653675563E+04  0.50400001928E-02 0.  1.
       -1    1    3    3    0  502 -0.67557395934E+03  0.15727571176E+03 -0.18661471309E+03  0.71830416622E+03  0.50400001928E-02 0. -1.
</event>
<event>
 5   0  0.1758946E-04  0.1916706E+04  0.7818609E-02  0.8646585E-01
       -1   -1    0    0    0  501  0.00000000000E+00  0.00000000000E+00  0.50035691616E+03  0.50035691619E+03  0.50400001928E-02 0.  1.
        1   -1    0    0  501    0  0.00000000000E+00  0.00000000000E+00 -0.18355706431E+04  0.18355706431E+04  0.50400001928E-02 0. -1.
    10030    2    1    2    0    0  0.00000000000E+00  0.00000000000E+00 -0.13352137270E+04  0.23359275593E+04  0.19167059936E+04 0.  0.
        2    1    3    3  502    0 -0.45185018948E+03  0.72894233213E+03 -0.11888357423E+04  0.14658976566E+04  0.25500000920E-02 0. -1.
       -2    1    3    3    0  502  0.45185018948E+03 -0.72894233213E+03 -0.14637798466E+03  0.87002990276E+03  0.25500000920E-02 0.  1.
</event>
<event>
 5   0  0.1813834E-04  0.1814075E+04  0.7818609E-02  0.8698850E-01
       -1   -1    0    0    0  501  0.00000000000E+00  0.00000000000E+00  0.11799056700E+04  0.11799056701E+04  0.50400001928E-02 0.  1.
        1   -1    0    0  501    0  0.00000000000E+00  0.00000000000E+00 -0.69727371220E+03  0.69727371221E+03  0.50400001928E-02 0. -1.
    10030    2    1    2    0    0  0.00000000000E+00  0.00000000000E+00  0.48263195785E+03  0.18771793823E+04  0.18140751987E+04 0.  0.
        5    1    3    3  502    0 -0.50373382818E+03  0.32033701393E+03 -0.46532348278E+03  0.75690924540E+03  0.46999998093E+01 0. -1.
       -5    1    3    3    0  502  0.50373382818E+03 -0.32033701393E+03  0.94795544062E+03  0.11202701369E+04  0.46999998093E+01 0.  1.
</event>
<event>
 5   0  0.1758946E-04  0.1541826E+04  0.7818609E-02  0.8857106E-01
       -1   -1    0    0    0  501  0.00000000000E+00  0.00000000000E+00  0.51966358959E+03  0.51966358962E+03  0.50400001928E-02 0. -1.
        1   -1    0    0  501    0  0.00000000000E+00  0.00000000000E+00 -0.11436381058E+04  0.11436381059E+04  0.50400001928E-02 0.  1.
    10030    2    1    2    0    0  0.00000000000E+00  0.00000000000E+00 -0.62397451625E+03  0.16633016955E+04  0.15418262980E+04 0.  0.
        2    1    3    3  502    0 -0.77703047015E+02  0.34567869561E+03  0.42662763712E+03  0.55456529361E+03  0.25500000920E-02 0. -1.
       -2    1    3    3    0  502  0.77703047015E+02 -0.34567869561E+03 -0.10506021534E+04  0.11087364019E+04  0.25500000920E-02 0.  1.
</event>
<event>
 5   0  0.3720978E-04  0.1698113E+04  0.7818609E-02  0.8762441E-01
        2   -1    0    0  501    0  0.00000000000E+00  0.00000000000E+00  0.11785409257E+04  0.11785409257E+04  0.25500000920E-02 0. -1.
       -2   -1    0    0    0  501  0.00000000000E+00  0.00000000000E+00 -0.61168576379E+03  0.61168576379E+03  0.25500000920E-02 0.  1.
    10030    2    1    2    0    0  0.00000000000E+00  0.00000000000E+00  0.56685516188E+03  0.17902266895E+04  0.16981127245E+04 0.  0.
        1    1    3    3  502    0  0.47218249813E+03 -0.69979651522E+03  0.18781487948E+03  0.86483865735E+03  0.50400001928E-02 0. -1.
       -1    1    3    3    0  502 -0.47218249813E+03  0.69979651522E+03  0.37904028240E+03  0.92538803211E+03  0.50400001928E-02 0.  1.
</event>
<event>
 5   0  0.3720978E-04  0.1897111E+04  0.7818609E-02  0.8656296E-01
       -2   -1    0    0    0  501  0.00000000000E+00  0.00000000000E+00  0.71818365438E+03  0.71818365438E+03  0.25500000920E-02 0. -1.
        2   -1    0    0  501    0  0.00000000000E+00  0.00000000000E+00 -0.12528231605E+04  0.12528231605E+04  0.25500000920E-02 0.  1.
    10030    2    1    2    0    0  0.00000000000E+00  0.00000000000E+00 -0.53463950610E+03  0.19710068149E+04  0.18971105563E+04 0.  0.
        1    1    3    3  502    0  0.41362501121E+03 -0.71584156027E+03 -0.75045179086E+03  0.11165539305E+04  0.50400001928E-02 0.  1.
       -1    1    3    3    0  502 -0.41362501121E+03  0.71584156027E+03  0.21581228476E+03  0.85445288436E+03  0.50400001928E-02 0. -1.
</event>
<event>
 5   0  0.3535876E-04  0.1905928E+04  0.7818609E-02  0.8651911E-01
        2   -1    0    0  501    0  0.00000000000E+00  0.00000000000E+00  0.10573977749E+04  0.10573977749E+04  0.25500000920E-02 0. -1.
       -2   -1    0    0    0  501  0.00000000000E+00  0.00000000000E+00 -0.85884497473E+03  0.85884497474E+03  0.25500000920E-02 0.  1.
    10030    2    1    2    0    0  0.00000000000E+00  0.00000000000E+00  0.19855280017E+03  0.19162427496E+04  0.19059283987E+04 0.  0.
        2    1    3    3  502    0 -0.29330384717E+03 -0.45274537024E+03  0.88910729874E+03  0.10399602424E+04  0.25500000920E-02 0. -1.
       -2    1    3    3    0  502  0.29330384717E+03  0.45274537024E+03 -0.69055449858E+03  0.87628250727E+03  0.25500000920E-02 0.  1.
</event>
<event>
 5   0  0.1711979E-04  0.1851529E+04  0.7818609E-02  0.8679367E-01
       -1   -1    0    0    0  501  0.00000000000E+00  0.00000000000E+00  0.56152955589E+03  0.56152955591E+03  0.50400001928E-02 0.  1.
        1   -1    0    0  501    0  0.00000000000E+00  0.00000000000E+00 -0.15262591104E+04  0.15262591104E+04  0.50400001928E-02 0. -1.
    10030    2    1    2    0    0  0.00000000000E+00  0.00000000000E+00 -0.96472955455E+03  0.20877886664E+04  0.18515286663E+04 0.  0.
        4    1    3    3  502    0  0.82656773757E+03 -0.42853431074E+02 -0.14732647249E+02  0.82780994506E+03  0.12699999809E+01 0.  1.
       -4    1    3    3    0  502 -0.82656773757E+03  0.42853431074E+02 -0.94999690730E+03  0.12599787213E+04  0.12699999809E+01 0. -1.
</event>
<event>
 5   0  0.1711979E-04  0.1881655E+04  0.7818609E-02  0.8664042E-01
        1   -1    0    0  501    0  0.00000000000E+00  0.00000000000E+00  0.95344297766E+03  0.95344297767E+03  0.50400001928E-02 0. -1.
       -1   -1    0    0    0  501  0.00000000000E+00  0.00000000000E+00 -0.92837935791E+03  0.92837935793E+03  0.50400001928E-02 0.  1.
    10030    2    1    2    0    0  0.00000000000E+00  0.00000000000E+00  0.25063619747E+02  0.18818223356E+04  0.18816554195E+04 0.  0.
        4    1    3    3  502    0  0.57139210714E+03 -0.69284103696E+03 -0.26791689481E+03  0.93717592693E+03  0.12699999809E+01 0. -1.
       -4    1    3    3    0  502 -0.57139210714E+03  0.69284103696E+03  0.29298051456E+03  0.94464640867E+03  0.12699999809E+01 0.  1.
</event>
<event>
 5   0  0.1694830E-04  0.1875046E+04  0.7818609E-02  0.8667378E-01
       -1   -1    0    0    0  501  0.00000000000E+00  0.00000000000E+00  0.40992534397E+03  0.40992534400E+03  0.50400001928E-02 0.  1.
        1   -1    0    0  501    0  0.00000000000E+00  0.00000000000E+00 -0.21441698393E+04  0.21441698393E+04  0.50400001928E-02 0. -1.
    10030    2    1    2    0    0  0.00000000000E+00  0.00000000000E+00 -0.17342444953E+04  0.25540951833E+04  0.18750461957E+04 0.  0.
        1    1    3    3  502    0  0.54861931887E+02 -0.28989292967E+03 -0.20792845562E+04  0.21001123798E+04  0.50400001928E-02 0. -1.
       -1    1    3    3    0  502 -0.54861931887E+02  0.28989292967E+03  0.34504006085E+03  0.45398280349E+03  0.50400001928E-02 0.  1.
</event>
<event>
 5   0  0.1758946E-04  0.1945227E+04  0.7818609E-02  0.8632666E-01
        1   -1    0    0  501    0  0.00000000000E+00  0.00000000000E+00  0.62302143538E+03  0.62302143540E+03  0.50400001928E-02 0.  1.
       -1   -1    0    0    0  501  0.00000000000E+00  0.00000000000E+00 -0.15183692078E+04  0.15183692078E+04  0.50400001928E-02 0. -1.
    10030    2    1    2    0    0  0.00000000000E+00  0.00000000000E+00 -0.89534777244E+03  0.21413906432E+04  0.19452265301E+04 0.  0.
        2    1    3    3  502    0 -0.55144589680E+03  0.34775114225E+03 -0.12422308570E+04  0.14029115924E+04  0.25500000920E-02 0. -1.
       -2    1    3    3    0  502  0.55144589680E+03 -0.34775114225E+03  0.34688308460E+03  0.73847905077E+03  0.25500000920E-02 0.  1.
</event>
<event>
 5   0  0.1758946E-04  0.1480532E+04  0.7818609E-02  0.8897503E-01
        1   -1    0    0  501    0  0.00000000000E+00  0.00000000000E+00  0.94269139372E+03  0.94269139374E+03  0.50400001928E-02 0. -1.
       -1   -1    0    0    0  501  0.00000000000E+00  0.00000000000E+00 -0.58130741443E+03  0.58130741445E+03  0.50400001928E-02 0.  1.
    10030    2    1    2    0    0  0.00000000000E+00  0.00000000000E+00  0.36138397929E+03  0.15239988082E+04  0.14805316568E+04 0.  0.
        2    1    3    3  502    0 -0.53469186010E+03 -0.47181857374E+03 -0.23851140421E+02  0.71349634104E+03  0.25500000920E-02 0.  1.
       -2    1    3    3    0  502  0.53469186010E+03  0.47181857374E+03  0.38523511971E+03  0.81050246714E+03  0.25500000920E-02 0. -1.
</event>
<event>
 5   0  0.3459485E-04  0.1600390E+04  0.7818609E-02  0.8820308E-01
        2   -1    0    0  501    0  0.00000000000E+00  0.00000000000E+00  0.12348439608E+04  0.12348439608E+04  0.25500000920E-02 0.  1.
       -2   -1    0    0    0  501  0.00000000000E+00  0.00000000000E+00 -0.51853687336E+03  0.51853687337E+03  0.25500000920E-02 0. -1.
    10030    2    1    2    0    0  0.00000000000E+00  0.00000000000E+00  0.71630708739E+03  0.17533808341E+04  0.16003901106E+04 0.  0.
        3    1    3    3  502    0 -0.14039205441E+03  0.71209840674E+03  0.72728652511E+03  0.10274919803E+04  0.10100000352E+00 0.  1.
       -3    1    3    3    0  502  0.14039205441E+03 -0.71209840674E+03 -0.10979437722E+02  0.72588885380E+03  0.10100000352E+00 0. -1.
</event>
<event>
 5   0  0.3720978E-04  0.1901578E+04  0.7818609E-02  0.8654071E-01
        2   -1    0    0  501    0  0.00000000000E+00  0.00000000000E+00  0.10808971812E+04  0.10808971812E+04  0.25500000920E-02 0. -1.
       -2   -1    0    0    0  501  0.00000000000E+00  0.00000000000E+00 -0.83634172272E+03  0.83634172272E+03  0.25500000920E-02 0.  1.
    10030    2    1    2    0    0  0.00000000000E+00  0.00000000000E+00  0.24455545844E+03  0.19172389039E+04  0.19015776719E+04 0.  0.
        1    1    3    3  502    0  0.29507517601E+03 -0.26025275915E+03  0.99496899300E+03  0.10699365192E+04  0.50400001928E-02 0. -1.
       -1    1    3    3    0  502 -0.29507517601E+03  0.26025275915E+03 -0.75041353456E+03  0.84730238465E+03  0.50400001928E-02 0.  1.
</event>
<event>
 5   0  0.3459485E-04  0.1944163E+04  0.7818609E-02  0.8633181E-01
       -2   -1    0    0    0  501  0.00000000000E+00  0.00000000000E+00  0.53135027239E+03  0.53135027240E+03  0.25500000920E-02 0. -1.
        2   -1    0    0  501    0  0.00000000000E+00  0.00000000000E+00 -0.17783790199E+04  0.17783790199E+04  0.25500000920E-02 0.  1.
    10030    2    1    2    0    0  0.00000000000E+00  0.00000000000E+00 -0.12470287475E+04  0.23097292923E+04  0.19441627264E+04 0.  0.
        3    1    3    3  502    0 -0.46641152573E+03  0.43254738586E+03 -0.14967833847E+04  0.16263448168E+04  0.10100000352E+00 0.  1.
       -3    1    3    3    0  502  0.46641152573E+03 -0.43254738586E+03  0.24975463717E+03  0.68338447548E+03  0.10100000352E+00 0. -1.
</event>
<event>
 5   0  0.1694830E-04  0.1853381E+04  0.7818609E-02  0.8678416E-01
       -1   -1    0    0    0  501  0.00000000000E+00  0.00000000000E+00  0.38418773412E+03  0.38418773416E+03  0.50400001928E-02 0. -1.
        1   -1    0    0  501    0  0.00000000000E+00  0.00000000000E+00 -0.22352501260E+04  0.22352501260E+04  0.50400001928E-02 0.  1.
    10030    2    1    2    0    0  0.00000000000E+00  0.00000000000E+00 -0.18510623918E+04  0.26194378601E+04  0.18533814299E+04 0.  0.
        1    1    3    3  502    0  0.33477239230E+03  0.47081227435E+03  0.98541468885E+02  0.58604366172E+03  0.50400001928E-02 0. -1.
       -1    1    3    3    0  502 -0.33477239230E+03 -0.47081227435E+03 -0.19496038607E+04  0.20333941984E+04  0.50400001928E-02 0.  1.
</event>
<event>
 5   0  0.3535876E-04  0.1920940E+04  0.7818609E-02  0.8644503E-01
        2   -1    0    0  501    0  0.00000000000E+00  0.00000000000E+00  0.26684694409E+04  0.26684694409E+04  0.25500000920E-02 0.  1.
       -2   -1    0    0    0  501  0.00000000000E+00  0.00000000000E+00 -0.34570474452E+03  0.34570474453E+03  0.25500000920E-02 0. -1.
    10030    2    1    2    0    0  0.00000000000E+00  0.00000000000E+00  0.23227646964E+04  0.30141741854E+04  0.19209399224E+04 0.  0.
        2    1    3    3  502    0 -0.20980651961E+03  0.70733093256E+03  0.19645143850E+03  0.76349786609E+03  0.25500000920E-02 0. -1.
       -2    1    3    3    0  502  0.20980651961E+03 -0.70733093256E+03  0.21263132579E+04  0.22506763193E+04  0.25500000920E-02 0.  1.
</event>
<event>
 5   0  0.3535876E-04  0.1911976E+04  0.7818609E-02  0.8648918E-01
       -2   -1    0    0    0  501  0.00000000000E+00  0.00000000000E+00  0.77411039088E+03  0.77411039088E+03  0.25500000920E-02 0.  1.
        2   -1    0    0  501    0  0.00000000000E+00  0.00000000000E+00 -0.11805976152E+04  0.11805976152E+04  0.25500000920E-02 0. -1.
    10030    2    1    2    0    0  0.00000000000E+00  0.00000000000E+00 -0.40648722436E+03  0.19547080061E+04  0.19119758172E+04 0.  0.
        2    1    3    3  502    0  0.33451951365E+03 -0.74216859381E+03  0.30915187805E+03  0.87079986815E+03  0.25500000920E-02 0.  1.
       -2    1    3    3    0  502 -0.33451951365E+03  0.74216859381E+03 -0.71563910241E+03  0.10839081380E+04  0.25500000920E-02 0. -1.
</event>
<event>
 5   0  0.1694830E-04  0.1921296E+04  0.7818609E-02  0.8644328E-01
        1   -1    0    0  501    0  0.00000000000E+00  0.00000000000E+00  0.16472850645E+04  0.16472850646E+04  0.50400001928E-02 0.  1.
       -1   -1    0    0    0  501  0.00000000000E+00  0.00000000000E+00 -0.56022164646E+03  0.56022164648E+03  0.50400001928E-02 0. -1.
    10030    2    1    2    0    0  0.00000000000E+00  0.00000000000E+00  0.10870634181E+04  0.22075067110E+04  0.19212961782E+04 0.  0.
        1    1    3    3  502    0  0.19463338077E+03  0.91834145787E+03  0.30915484557E+03  0.98833693886E+03  0.50400001928E-02 0. -1.
       -1    1    3    3    0  502 -0.19463338077E+03 -0.91834145787E+03  0.77790857252E+03  0.12191697722E+04  0.50400001928E-02 0.  1.
</event>
<event>
 5   0  0.1711979E-04  0.1877260E+04  0.7818609E-02  0.8666259E-01
       -1   -1    0    0    0  501  0.00000000000E+00  0.00000000000E+00  0.99719289767E+03  0.99719289768E+03  0.50400001928E-02 0. -1.
        1   -1    0    0  501    0  0.00000000000E+00  0.00000000000E+00 -0.88350667742E+03  0.88350667743E+03  0.50400001928E-02 0.  1.
    10030    2    1    2    0    0  0.00000000000E+00  0.00000000000E+00  0.11368622025E+03  0.18806995751E+04  0.18772603270E+04 0.  0.
        4    1    3    3  502    0 -0.36329128146E+03  0.40808270691E+03  0.82146672281E+03  0.98657044374E+03  0.12699999809E+01 0. -1.
       -4    1    3    3    0  502  0.36329128146E+03 -0.40808270691E+03 -0.70778050256E+03  0.89412913137E+03  0.12699999809E+01 0.  1.
</event>
<event>
 5   0  0.1813834E-04  0.1918109E+04  0.7818609E-02  0.8645894E-01
        1   -1    0    0  501    0  0.00000000000E+00  0.00000000000E+00  0.16769378243E+04  0.16769378243E+04  0.50400001928E-02 0. -1.
       -1   -1    0    0    0  501  0.00000000000E+00  0.00000000000E+00 -0.54849135201E+03  0.54849135203E+03  0.50400001928E-02 0.  1.
    10030    2    1    2    0    0  0.00000000000E+00  0.00000000000E+00  0.11284464723E+04  0.22254291764E+04  0.19181093759E+04 0.  0.
        5    1    3    3  502    0 -0.10791934406E+03  0.48000233176E+03 -0.39090998831E+03  0.62839599957E+03  0.46999998093E+01 0.  1.
       -5    1    3    3    0  502  0.10791934406E+03 -0.48000233176E+03  0.15193564606E+04  0.15970331768E+04  0.46999998093E+01 0. -1.
</event>
<event>
 5   0  0.3516539E-04  0.1917532E+04  0.7818609E-02  0.8646179E-01
       -2   -1    0    0    0  501  0.00000000000E+00  0.00000000000E+00  0.45160653720E+03  0.45160653721E+03  0.25500000920E-02 0. -1.
        2   -1    0    0  501    0  0.00000000000E+00  0.00000000000E+00 -0.20354711788E+04  0.20354711788E+04  0.25500000920E-02 0.  1.
    10030    2    1    2    0    0  0.00000000000E+00  0.00000000000E+00 -0.15838646416E+04  0.24870777160E+04  0.19175318413E+04 0.  0.
        4    1    3    3  502    0  0.64940903984E+03 -0.47209152814E+03 -0.14716352663E+04  0.16763992609E+04  0.12699999809E+01 0.  1.
       -4    1    3    3    0  502 -0.64940903984E+03  0.47209152814E+03 -0.11222937527E+03  0.81067845509E+03  0.12699999809E+01 0. -1.
</event>
<event>
 5   0  0.1813834E-04  0.1901941E+04  0.7818609E-02  0.8653891E-01
       -1   -1    0    0    0  501  0.00000000000E+00  0.00000000000E+00  0.76778909401E+03  0.76778909403E+03  0.50400001928E-02 0.  1.
        1   -1    0    0  501    0  0.00000000000E+00  0.00000000000E+00 -0.11778559568E+04  0.11778559569E+04  0.50400001928E-02 0. -1.
    10030    2    1    2    0    0  0.00000000000E+00  0.00000000000E+00 -0.41006686283E+03  0.19456450509E+04  0.19019410695E+04 0.  0.
        5    1    3    3  502    0 -0.14189131425E+03  0.52983326024E+03 -0.99971496005E+03  0.11403107121E+04  0.46999998093E+01 0. -1.
       -5    1    3    3    0  502  0.14189131425E+03 -0.52983326024E+03  0.58964809722E+03  0.80533433881E+03  0.46999998093E+01 0.  1.
</event>
<event>
 5   0  0.3720978E-04  0.1884201E+04  0.7818609E-02  0.8662761E-01
       -2   -1    0    0    0  501  0.00000000000E+00  0.00000000000E+00  0.65285555524E+03  0.65285555524E+03  0.25500000920E-02 0.  1.
        2   -1    0    0  501    0  0.00000000000E+00  0.00000000000E+00 -0.13594945566E+04  0.13594945566E+04  0.25500000920E-02 0. -1.
    10030    2    1    2    0    0  0.00000000000E+00  0.00000000000E+00 -0.70663900138E+03  0.20123501119E+04  0.18842012351E+04 0.  0.
        1    1    3    3  502    0  0.24066222109E+03 -0.32031800430E+03 -0.12639724853E+04  0.13259518740E+04  0.50400001928E-02 0. -1.
       -1    1    3    3    0  502 -0.24066222109E+03  0.32031800430E+03  0.55733348395E+03  0.68639823783E+03  0.50400001928E-02 0.  1.
</event>
<event>
 5   0  0.1813834E-04  0.1900260E+04  0.7818609E-02  0.8654727E-01
        1   -1    0    0  501    0  0.00000000000E+00  0.00000000000E+00  0.12129300132E+04  0.12129300132E+04  0.50400001928E-02 0. -1.
       -1   -1    0    0    0  501  0.00000000000E+00  0.00000000000E+00 -0.74426963691E+03  0.74426963693E+03  0.50400001928E-02 0.  1.
    10030    2    1    2    0    0  0.00000000000E+00  0.00000000000E+00  0.46866037633E+03  0.19571996502E+04  0.19002599618E+04 0.  0.
        5    1    3    3  502    0 -0.77755614316E+03 -0.27518629257E+03 -0.25139793731E+03  0.86229001170E+03  0.46999998093E+01 0.  1.
       -5    1    3    3    0  502  0.77755614316E+03  0.27518629257E+03  0.72005831364E+03  0.10949096385E+04  0.46999998093E+01 0. -1.
</event>
<event>
 5   0  0.1782613E-04  0.1878301E+04  0.7818609E-02  0.8665733E-01
        1   -1    0    0  501    0  0.00000000000E+00  0.00000000000E+00  0.17761976457E+04  0.17761976457E+04  0.50400001928E-02 0. -1.
       -1   -1    0    0    0  501  0.00000000000E+00  0.00000000000E+00 -0.49656865669E+03  0.49656865672E+03  0.50400001928E-02 0.  1.
    10030    2    1    2    0    0  0.00000000000E+00  0.00000000000E+00  0.12796289890E+04  0.22727663024E+04  0.18783014444E+04 0.  0.
        3    1    3    3  502    0 -0.38104485947E+02 -0.17123540994E+02 -0.49544384755E+03  0.49720195473E+03  0.10100000352E+00 0.  1.
       -3    1    3    3    0  502  0.38104485947E+02  0.17123540994E+02  0.17750728366E+04  0.17755643477E+04  0.10100000352E+00 0. -1.
</event>
<event>
 5   0  0.1782613E-04  0.2052371E+04  0.7818609E-02  0.8582519E-01
        1   -1    0    0  501    0  0.00000000000E+00  0.00000000000E+00  0.14265888432E+04  0.14265888433E+04  0.50400001928E-02 0.  1.
       -1   -1    0    0    0  501  0.00000000000E+00  0.00000000000E+00 -0.73816424729E+03  0.73816424730E+03  0.50400001928E-02 0. -1.
    10030    2    1    2    0    0  0.00000000000E+00  0.00000000000E+00  0.68842459596E+03  0.21647530906E+04  0.20523711942E+04 0.  0.
        3    1    3    3  502    0  0.70612081621E+03 -0.63279282370E+03  0.75816045980E+03  0.12140183927E+04  0.10100000352E+00 0. -1.
       -3    1    3    3    0  502 -0.70612081621E+03  0.63279282370E+03 -0.69735863839E+02  0.95073469786E+03  0.10100000352E+00 0.  1.
</event>
<event>
 5   0  0.1813834E-04  0.1969882E+04  0.7818609E-02  0.8620833E-01
        1   -1    0    0  501    0  0.00000000000E+00  0.00000000000E+00  0.11486833624E+04  0.11486833624E+04  0.50400001928E-02 0.  1.
       -1   -1    0    0    0  501  0.00000000000E+00  0.00000000000E+00 -0.84453999270E+03  0.84453999271E+03  0.50400001928E-02 0. -1.
    10030    2    1    2    0    0  0.00000000000E+00  0.00000000000E+00  0.30414336974E+03  0.19932233552E+04  0.19698822691E+04 0.  0.
        5    1    3    3  502    0  0.57766368975E+03 -0.15013172907E+03  0.94484232868E+03  0.11175795232E+04  0.46999998093E+01 0.  1.
       -5    1    3    3    0  502 -0.57766368975E+03  0.15013172907E+03 -0.64069895894E+03  0.87564383200E+03  0.46999998093E+01 0. -1.
</event>
<event>
 5   0  0.3516539E-04  0.1935449E+04  0.7818609E-02  0.8637409E-01
        2   -1    0    0  501    0  0.00000000000E+00  0.00000000000E+00  0.79367952871E+03  0.79367952871E+03  0.25500000920E-02 0. -1.
       -2   -1    0    0    0  501  0.00000000000E+00  0.00000000000E+00 -0.11799358391E+04  0.11799358391E+04  0.25500000920E-02 0.  1.
    10030    2    1    2    0    0  0.00000000000E+00  0.00000000000E+00 -0.38625631036E+03  0.19736153678E+04  0.19354492199E+04 0.  0.
        4    1    3    3  502    0 -0.15352708126E+03 -0.49022172602E+03 -0.10294233880E+04  0.11504790437E+04  0.12699999809E+01 0.  1.
       -4    1    3    3    0  502  0.15352708126E+03  0.49022172602E+03  0.64316707764E+03  0.82313632407E+03  0.12699999809E+01 0. -1.
</event>
<event>
 5   0  0.3459485E-04  0.1849541E+04  0.7818609E-02  0.8680389E-01
       -2   -1    0    0    0  501  0.00000000000E+00  0.00000000000E+00  0.14643330759E+04  0.14643330759E+04  0.25500000920E-02 0.  1.
        2   -1    0    0  501    0  0.00000000000E+00  0.00000000000E+00 -0.58402030612E+03  0.58402030613E+03  0.25500000920E-02 0. -1.
    10030    2    1    2    0    0  0.00000000000E+00  0.00000000000E+00  0.88031276980E+03  0.20483533820E+04  0.18495407552E+04 0.  0.
        3    1    3    3  502    0  0.52774500125E+03 -0.32294191380E+03  0.12013465225E+04  0.13513103801E+04  0.10100000352E+00 0.  1.
       -3    1    3    3    0  502 -0.52774500125E+03  0.32294191380E+03 -0.32103375269E+03  0.69704300197E+03  0.10100000352E+00 0. -1.
</event>
<event>
 5   0  0.3535876E-04  0.1880019E+04  0.7818609E-02  0.8664866E-01
        2   -1    0    0  501    0  0.00000000000E+00  0.00000000000E+00  0.12744499124E+04  0.12744499124E+04  0.25500000920E-02 0.  1.
       -2   -1    0    0    0  501  0.00000000000E+00  0.00000000000E+00 -0.69333297643E+03  0.69333297644E+03  0.25500000920E-02 0. -1.
    10030    2    1    2    0    0  0.00000000000E+00  0.00000000000E+00  0.58111693599E+03  0.19677828889E+04  0.18800193096E+04 0.  0.
        2    1    3    3  502    0  0.52910496394E+03 -0.41198282023E+02  0.11026441574E+04  0.12237129970E+04  0.25500000920E-02 0.  1.
       -2    1    3    3    0  502 -0.52910496394E+03  0.41198282023E+02 -0.52152722137E+03  0.74406989184E+03  0.25500000920E-02 0. -1.
</event>
<event>
 5   0  0.3720978E-04  0.1238878E+04  0.7818609E-02  0.9079491E-01
        2   -1    0    0  501    0  0.00000000000E+00  0.00000000000E+00  0.11769071000E+04  0.11769071000E+04  0.25500000920E-02 0.  1.
       -2   -1    0    0    0  501  0.00000000000E+00  0.00000000000E+00 -0.32602801247E+03  0.32602801248E+03  0.25500000920E-02 0. -1.
    10030    2    1    2    0    0  0.00000000000E+00  0.00000000000E+00  0.85087908749E+03  0.15029351125E+04  0.12388780128E+04 0.  0.
        1    1    3    3  502    0  0.16258864854E+03  0.29711504789E+03 -0.20375011970E+03  0.39525502100E+03  0.50400001928E-02 0. -1.
       -1    1    3    3    0  502 -0.16258864854E+03 -0.29711504789E+03  0.10546292072E+04  0.11076800915E+04  0.50400001928E-02 0.  1.
</event>
<event>
 5   0  0.3623359E-04  0.1908196E+04  0.7818609E-02  0.8650788E-01
        2   -1    0    0  501    0  0.00000000000E+00  0.00000000000E+00  0.85080969462E+03  0.85080969462E+03  0.25500000920E-02 0.  1.
       -2   -1    0    0    0  501  0.00000000000E+00  0.00000000000E+00 -0.10699251233E+04  0.10699251233E+04  0.25500000920E-02 0. -1.
    10030    2    1    2    0    0  0.00000000000E+00  0.00000000000E+00 -0.21911542865E+03  0.19207348179E+04  0.19081956581E+04 0.  0.
        5    1    3    3  502    0 -0.75704669463E+03 -0.45061824506E+03  0.25905091330E+03  0.91831692041E+03  0.46999998093E+01 0.  1.
       -5    1    3    3    0  502  0.75704669463E+03  0.45061824506E+03 -0.47816634195E+03  0.10024178975E+04  0.46999998093E+01 0. -1.
</event>
<event>
 5   0  0.3459485E-04  0.1898720E+04  0.7818609E-02  0.8655494E-01
        2   -1    0    0  501    0  0.00000000000E+00  0.00000000000E+00  0.97709411966E+03  0.97709411966E+03  0.25500000920E-02 0.  1.
       -2   -1    0    0    0  501  0.00000000000E+00  0.00000000000E+00 -0.92241314012E+03  0.92241314012E+03  0.25500000920E-02 0. -1.
    10030    2    1    2    0    0  0.00000000000E+00  0.00000000000E+00  0.54680979542E+02  0.18995072598E+04  0.18987200479E+04 0.  0.
        3    1    3    3  502    0  0.47944320284E+03 -0.58818164108E+03  0.59806892461E+03  0.96618314850E+03  0.10100000352E+00 0.  1.
       -3    1    3    3    0  502 -0.47944320284E+03  0.58818164108E+03 -0.54338794507E+03  0.93332411128E+03  0.10100000352E+00 0. -1.
</event>
<event>
 5   0  0.1694830E-04  0.1924673E+04  0.7818609E-02  0.8642672E-01
        1   -1    0    0  501    0  0.00000000000E+00  0.00000000000E+00  0.13103603164E+04  0.13103603164E+04  0.50400001928E-02 0. -1.
       -1   -1    0    0    0  501  0.00000000000E+00  0.00000000000E+00 -0.70674548904E+03  0.70674548906E+03  0.50400001928E-02 0.  1.
    10030    2    1    2    0    0  0.00000000000E+00  0.00000000000E+00  0.60361482736E+03  0.20171058055E+04  0.19246726918E+04 0.  0.
        1    1    3    3  502    0 -0.92052146283E+03  0.27236911928E+03  0.23114110645E+03  0.98740615341E+03  0.50400001928E-02 0. -1.
       -1    1    3    3    0  502  0.92052146283E+03 -0.27236911928E+03  0.37247372091E+03  0.10296996521E+04  0.50400001928E-02 0.  1.
</event>
<event>
 5   0  0.1782613E-04  0.1850377E+04  0.7818609E-02  0.8679959E-01
       -1   -1    0    0    0  501  0.00000000000E+00  0.00000000000E+00  0.31557151530E+03  0.31557151534E+03  0.50400001928E-02 0.  1.
        1   -1    0    0  501    0  0.00000000000E+00  0.00000000000E+00 -0.27124548733E+04  0.27124548733E+04  0.50400001928E-02 0. -1.
    10030    2    1    2    0    0  0.00000000000E+00  0.00000000000E+00 -0.23968833580E+04  0.30280263887E+04  0.18503767126E+04 0.  0.
        3    1    3    3  502    0  0.55050774140E+03  0.74155532253E+03 -0.11086548436E+04  0.14429409697E+04  0.10100000352E+00 0.  1.
       -3    1    3    3    0  502 -0.55050774140E+03 -0.74155532253E+03 -0.12882285144E+04  0.15850854189E+04  0.10100000352E+00 0. -1.
</event>
<event>
 5   0  0.1813834E-04  0.1886849E+04  0.7818609E-02  0.8661431E-01
       -1   -1    0    0    0  501  0.00000000000E+00  0.00000000000E+00  0.11645249933E+04  0.11645249933E+04  0.50400001928E-02 0. -1.
        1   -1    0    0  501    0  0.00000000000E+00  0.00000000000E+00 -0.76430250358E+03  0.76430250360E+03  0.50400001928E-02 0.  1.
    10030    2    1    2    0    0  0.00000000000E+00  0.00000000000E+00  0.40022248974E+03  0.19288274969E+04  0.18868485556E+04 0.  0.
        5    1    3    3  502    0 -0.23644297290E+03  0.62614528406E+03  0.87978258856E+03  0.11054423048E+04  0.46999998093E+01 0. -1.
       -5    1    3    3    0  502  0.23644297290E+03 -0.62614528406E+03 -0.47956009882E+03  0.82338519209E+03  0.46999998093E+01 0.  1.
</event>
<event>
 5   0  0.1782613E-04  0.1858890E+04  0.7818609E-02  0.8675595E-01
        1   -1    0    0  501    0  0.00000000000E+00  0.00000000000E+00  0.19629197837E+04  0.19629197837E+04  0.50400001928E-02 0. -1.
       -1   -1    0    0    0  501  0.00000000000E+00  0.00000000000E+00 -0.44009326588E+03  0.44009326591E+03  0.50400001928E-02 0.  1.
    10030    2    1    2    0    0  0.00000000000E+00  0.00000000000E+00  0.15228265178E+04  0.24030130496E+04  0.18588897528E+04 0.  0.
        3    1    3    3  502    0  0.35076962976E+03  0.85512060718E+03  0.88805426832E+03  0.12817608902E+04  0.10100000352E+00 0. -1.
       -3    1    3    3    0  502 -0.35076962976E+03 -0.85512060718E+03  0.63477224947E+03  0.11212521594E+04  0.10100000352E+00 0.  1.
</event>
<event>
 5   0  0.3535876E-04  0.1895153E+04  0.7818609E-02  0.8657273E-01
       -2   -1    0    0    0  501  0.00000000000E+00  0.00000000000E+00  0.10497573649E+04  0.10497573649E+04  0.25500000920E-02 0.  1.
        2   -1    0    0  501    0  0.00000000000E+00  0.00000000000E+00 -0.85534185066E+03  0.85534185067E+03  0.25500000920E-02 0. -1.
    10030    2    1    2    0    0  0.00000000000E+00  0.00000000000E+00  0.19441551427E+03  0.19050992156E+04  0.18951531941E+04 0.  0.
        2    1    3    3  502    0 -0.64261672486E+02  0.56462938354E+03 -0.66503651762E+03  0.87476252382E+03  0.25500000920E-02 0. -1.
       -2    1    3    3    0  502  0.64261672486E+02 -0.56462938354E+03  0.85945203189E+03  0.10303366918E+04  0.25500000920E-02 0.  1.
</event>
<event>
 5   0  0.3459485E-04  0.2134553E+04  0.7818609E-02  0.8546174E-01
       -2   -1    0    0    0  501  0.00000000000E+00  0.00000000000E+00  0.59059390861E+03  0.59059390861E+03  0.25500000920E-02 0. -1.
        2   -1    0    0  501    0  0.00000000000E+00  0.00000000000E+00 -0.19287004385E+04  0.19287004385E+04  0.25500000920E-02 0.  1.
    10030    2    1    2    0    0  0.00000000000E+00  0.00000000000E+00 -0.13381065299E+04  0.25192943471E+04  0.21345526281E+04 0.  0.
        3    1    3    3  502    0 -0.68727228836E+03 -0.57079884235E+03  0.20076427221E+02  0.89362049546E+03  0.10100000352E+00 0. -1.
       -3    1    3    3    0  502  0.68727228836E+03  0.57079884235E+03 -0.13581829572E+04  0.16256738517E+04  0.10100000352E+00 0.  1.
</event>
<event>
 5   0  0.1782613E-04  0.1909104E+04  0.7818609E-02  0.8650338E-01
       -1   -1    0    0    0  501  0.00000000000E+00  0.00000000000E+00  0.97955322077E+03  0.97955322078E+03  0.50400001928E-02 0.  1.
        1   -1    0    0  501    0  0.00000000000E+00  0.00000000000E+00 -0.93018927042E+03  0.93018927043E+03  0.50400001928E-02 0. -1.
    10030    2    1    2    0    0  0.00000000000E+00  0.00000000000E+00  0.49363950352E+02  0.19097424912E+04  0.19091043929E+04 0.  0.
        3    1    3    3  502    0 -0.93262073556E+03 -0.38769397088E+02  0.22446197931E+03  0.96003525607E+03  0.10100000352E+00 0.  1.
       -3    1    3    3    0  502  0.93262073556E+03  0.38769397088E+02 -0.17509802895E+03  0.94970723515E+03  0.10100000352E+00 0. -1.
</event>
<event>
 5   0  0.1758946E-04  0.1924384E+04  0.7818609E-02  0.8642813E-01
       -1   -1    0    0    0  501  0.00000000000E+00  0.00000000000E+00  0.53727888771E+03  0.53727888774E+03  0.50400001928E-02 0. -1.
        1   -1    0    0  501    0  0.00000000000E+00  0.00000000000E+00 -0.17231527925E+04  0.17231527926E+04  0.50400001928E-02 0.  1.
    10030    2    1    2    0    0  0.00000000000E+00  0.00000000000E+00 -0.11858739048E+04  0.22604316803E+04  0.19243841776E+04 0.  0.
        2    1    3    3  502    0  0.35668845682E+03  0.89331500667E+03 -0.56476405802E+03  0.11154356986E+04  0.25500000920E-02 0. -1.
       -2    1    3    3    0  502 -0.35668845682E+03 -0.89331500667E+03 -0.62110984681E+03  0.11449959817E+04  0.25500000920E-02 0.  1.
</event>
<event>
 5   0  0.3535876E-04  0.1836312E+04  0.7818609E-02  0.8687224E-01
       -2   -1    0    0    0  501  0.00000000000E+00  0.00000000000E+00  0.96596564647E+03  0.96596564647E+03  0.25500000920E-02 0. -1.
        2   -1    0    0  501    0  0.00000000000E+00  0.00000000000E+00 -0.87271270523E+03  0.87271270523E+03  0.25500000920E-02 0.  1.
    10030    2    1    2    0    0  0.00000000000E+00  0.00000000000E+00  0.93252941240E+02  0.18386783517E+04  0.18363120568E+04 0.  0.
        2    1    3    3  502    0 -0.42596171856E+03  0.60422814767E+03 -0.49857076772E+03  0.89168820254E+03  0.25500000920E-02 0.  1.
       -2    1    3    3    0  502  0.42596171856E+03 -0.60422814767E+03  0.59182370896E+03  0.94699014916E+03  0.25500000920E-02 0. -1.
</event>
<event>
 5   0  0.1711979E-04  0.1755492E+04  0.7818609E-02  0.8730333E-01
       -1   -1    0    0    0  501  0.00000000000E+00  0.00000000000E+00  0.74937973062E+03  0.74937973063E+03  0.50400001928E-02 0.  1.
        1   -1    0    0  501    0  0.00000000000E+00  0.00000000000E+00 -0.10281014668E+04  0.10281014668E+04  0.50400001928E-02 0. -1.
    10030    2    1    2    0    0  0.00000000000E+00  0.00000000000E+00 -0.27872173615E+03  0.17774811974E+04  0.17554924098E+04 0.  0.
        4    1    3    3  502    0 -0.44932011049E+03  0.51634305278E+03  0.41701079434E+03  0.80149755168E+03  0.12699999809E+01 0.  1.
       -4    1    3    3    0  502  0.44932011049E+03 -0.51634305278E+03 -0.69573253049E+03  0.97598364573E+03  0.12699999809E+01 0. -1.
</event>
<event>
 5   0  0.3720978E-04  0.1899470E+04  0.7818609E-02  0.8655120E-01
        2   -1    0    0  501    0  0.00000000000E+00  0.00000000000E+00  0.63860776717E+03  0.63860776718E+03  0.25500000920E-02 0.  1.
       -2   -1    0    0    0  501  0.00000000000E+00  0.00000000000E+00 -0.14124426648E+04  0.14124426648E+04  0.25500000920E-02 0. -1.
    10030    2    1    2    0    0  0.00000000000E+00  0.00000000000E+00 -0.77383489758E+03  0.20510504319E+04  0.18994703013E+04 0.  0.
        1    1    3    3  502    0 -0.16469598618E+03  0.49531946982E+03 -0.12436638569E+04  0.13487645955E+04  0.50400001928E-02 0. -1.
       -1    1    3    3    0  502  0.16469598618E+03 -0.49531946982E+03  0.46982895931E+03  0.70228583645E+03  0.50400001928E-02 0.  1.
</event>
<event>
 5   0  0.1711979E-04  0.1370211E+04  0.7818609E-02  0.8975668E-01
       -1   -1    0    0    0  501  0.00000000000E+00  0.00000000000E+00  0.66780087299E+03  0.66780087301E+03  0.50400001928E-02 0.  1.
        1   -1    0    0  501    0  0.00000000000E+00  0.00000000000E+00 -0.70285853465E+03  0.70285853467E+03  0.50400001928E-02 0. -1.
    10030    2    1    2    0    0  0.00000000000E+00  0.00000000000E+00 -0.35057661664E+02  0.13706594077E+04  0.13702109955E+04 0.  0.
        4    1    3    3  502    0  0.40991753197E+03 -0.54886111889E+03 -0.26860297812E+02  0.68556837685E+03  0.12699999809E+01 0.  1.
       -4    1    3    3    0  502 -0.40991753197E+03  0.54886111889E+03 -0.81973638514E+01  0.68509103083E+03  0.12699999809E+01 0. -1.
</event>
<event>
 5   0  0.1782613E-04  0.1893189E+04  0.7818609E-02  0.8658254E-01
        1   -1    0    0  501    0  0.00000000000E+00  0.00000000000E+00  0.26106314104E+04  0.26106314104E+04  0.50400001928E-02 0.  1.
       -1   -1    0    0    0  501  0.00000000000E+00  0.00000000000E+00 -0.34322791006E+03  0.34322791010E+03  0.50400001928E-02 0. -1.
    10030    2    1    2    0    0  0.00000000000E+00  0.00000000000E+00  0.22674035003E+04  0.29538593205E+04  0.18931894390E+04 0.  0.
        3    1    3    3  502    0 -0.85144273394E+03  0.14112609383E+03  0.17403387559E+04  0.19425885563E+04  0.10100000352E+00 0.  1.
       -3    1    3    3    0  502  0.85144273394E+03 -0.14112609383E+03  0.52706474446E+03  0.10112707642E+04  0.10100000352E+00 0. -1.
</event>
<event>
 5   0  0.1758946E-04  0.1905417E+04  0.7818609E-02  0.8652165E-01
       -1   -1    0    0    0  501  0.00000000000E+00  0.00000000000E+00  0.15551103359E+04  0.15551103359E+04  0.50400001928E-02 0.  1.
        1   -1    0    0  501    0  0.00000000000E+00  0.00000000000E+00 -0.58365853603E+03  0.58365853605E+03  0.50400001928E-02 0. -1.
    10030    2    1    2    0    0  0.00000000000E+00  0.00000000000E+00  0.97145179988E+03  0.21387688720E+04  0.19054169329E+04 0.  0.
        2    1    3    3  502    0 -0.56891293924E+03  0.36917246391E+03 -0.26532422833E+03  0.72824939869E+03  0.25500000920E-02 0. -1.
       -2    1    3    3    0  502  0.56891293924E+03 -0.36917246391E+03  0.12367760282E+04  0.14105194733E+04  0.25500000920E-02 0.  1.
</event>
<event>
 5   0  0.3720978E-04  0.1633388E+04  0.7818609E-02  0.8800295E-01
        2   -1    0    0  501    0  0.00000000000E+00  0.00000000000E+00  0.92320845988E+03  0.92320845989E+03  0.25500000920E-02 0. -1.
       -2   -1    0    0    0  501  0.00000000000E+00  0.00000000000E+00 -0.72246871427E+03  0.72246871427E+03  0.25500000920E-02 0.  1.
    10030    2    1    2    0    0  0.00000000000E+00  0.00000000000E+00  0.20073974562E+03  0.16456771742E+04  0.16333881707E+04 0.  0.
        1    1    3    3  502    0 -0.19925232116E+02 -0.32697671352E+03 -0.65337527464E+03  0.73089673388E+03  0.50400001928E-02 0.  1.
       -1    1    3    3    0  502  0.19925232116E+02  0.32697671352E+03  0.85411502026E+03  0.91478044028E+03  0.50400001928E-02 0. -1.
</event>
<event>
 5   0  0.3623359E-04  0.1898959E+04  0.7818609E-02  0.8655375E-01
        2   -1    0    0  501    0  0.00000000000E+00  0.00000000000E+00  0.10721747984E+04  0.10721747984E+04  0.25500000920E-02 0. -1.
       -2   -1    0    0    0  501  0.00000000000E+00  0.00000000000E+00 -0.84082466932E+03  0.84082466932E+03  0.25500000920E-02 0.  1.
    10030    2    1    2    0    0  0.00000000000E+00  0.00000000000E+00  0.23135012909E+03  0.19129994677E+04  0.18989586834E+04 0.  0.
        5    1    3    3  502    0  0.26671110862E+03 -0.44017874446E+03  0.91944462490E+03  0.10537042521E+04  0.46999998093E+01 0. -1.
       -5    1    3    3    0  502 -0.26671110862E+03  0.44017874446E+03 -0.68809449581E+03  0.85929521568E+03  0.46999998093E+01 0.  1.
</event>
<event>
 5   0  0.1813834E-04  0.1919362E+04  0.7818609E-02  0.8645278E-01
        1   -1    0    0  501    0  0.00000000000E+00  0.00000000000E+00  0.69239069994E+03  0.69239069996E+03  0.50400001928E-02 0.  1.
       -1   -1    0    0    0  501  0.00000000000E+00  0.00000000000E+00 -0.13301562758E+04  0.13301562758E+04  0.50400001928E-02 0. -1.
    10030    2    1    2    0    0  0.00000000000E+00  0.00000000000E+00 -0.63776557587E+03  0.20225469758E+04  0.19193622221E+04 0.  0.
        5    1    3    3  502    0 -0.44890146946E+03 -0.18947922733E+03  0.55233570389E+03  0.73655395366E+03  0.46999998093E+01 0.  1.
       -5    1    3    3    0  502  0.44890146946E+03  0.18947922733E+03 -0.11901012798E+04  0.12859930221E+04  0.46999998093E+01 0. -1.
</event>
<event>
 5   0  0.3516539E-04  0.1890282E+04  0.7818609E-02  0.8659709E-01
        2   -1    0    0  501    0  0.00000000000E+00  0.00000000000E+00  0.72413457734E+03  0.72413457734E+03  0.25500000920E-02 0.  1.
       -2   -1    0    0    0  501  0.00000000000E+00  0.00000000000E+00 -0.12335991636E+04  0.12335991636E+04  0.25500000920E-02 0. -1.
    10030    2    1    2    0    0  0.00000000000E+00  0.00000000000E+00 -0.50946458630E+03  0.19577337410E+04  0.18902823164E+04 0.  0.
        4    1    3    3  502    0 -0.61077679810E+03 -0.69969742397E+03 -0.43609641167E+03  0.10260635825E+04  0.12699999809E+01 0.  1.
       -4    1    3    3    0  502  0.61077679810E+03  0.69969742397E+03 -0.73368174628E+02  0.93167015845E+03  0.12699999809E+01 0. -1.
</event>
<event>
 5   0  0.1694830E-04  0.1911419E+04  0.7818609E-02  0.8649193E-01
        1   -1    0    0  501    0  0.00000000000E+00  0.00000000000E+00  0.89421215761E+03  0.89421215763E+03  0.50400001928E-02 0.  1.
       -1   -1    0    0    0  501  0.00000000000E+00  0.00000000000E+00 -0.10214358464E+04  0.10214358465E+04  0.50400001928E-02 0. -1.
    10030    2    1    2    0    0  0.00000000000E+00  0.00000000000E+00 -0.12722368884E+03  0.19156480041E+04  0.19114186900E+04 0.  0.
        1    1    3    3  502    0 -0.60629909044E+02  0.30946857066E+03  0.84056704642E+03  0.89777488362E+03  0.50400001928E-02 0.  1.
       -1    1    3    3    0  502  0.60629909044E+02 -0.30946857066E+03 -0.96779073526E+03  0.10178731205E+04  0.50400001928E-02 0. -1.
</event>
<event>
 5   0  0.1813834E-04  0.1947068E+04  0.7818609E-02  0.8631776E-01
       -1   -1    0    0    0  501  0.00000000000E+00  0.00000000000E+00  0.51492819199E+03  0.51492819201E+03  0.50400001928E-02 0.  1.
        1   -1    0    0  501    0  0.00000000000E+00  0.00000000000E+00 -0.18405830029E+04  0.18405830029E+04  0.50400001928E-02 0. -1.
    10030    2    1    2    0    0  0.00000000000E+00  0.00000000000E+00 -0.13256548109E+04  0.23555111949E+04  0.19470676187E+04 0.  0.
        5    1    3    3  502    0 -0.33447816687E+02  0.80566353833E+03 -0.13227181999E+04  0.15491346035E+04  0.46999998093E+01 0. -1.
       -5    1    3    3    0  502  0.33447816687E+02 -0.80566353833E+03 -0.29366109691E+01  0.80637659137E+03  0.46999998093E+01 0.  1.
</event>
<event>
 5   0  0.1758946E-04  0.1832138E+04  0.7818609E-02  0.8689393E-01
        1   -1    0    0  501    0  0.00000000000E+00  0.00000000000E+00  0.50248110055E+03  0.50248110058E+03  0.50400001928E-02 0.  1.
       -1   -1    0    0    0  501  0.00000000000E+00  0.00000000000E+00 -0.16700771929E+04  0.16700771929E+04  0.50400001928E-02 0. -1.
    10030    2    1    2    0    0  0.00000000000E+00  0.00000000000E+00 -0.11675960923E+04  0.21725582935E+04  0.18321377960E+04 0.  0.
        2    1    3    3  502    0 -0.78433671278E+03 -0.23990130833E+03 -0.10001644776E+03  0.82628082792E+03  0.25500000920E-02 0.  1.
       -2    1    3    3    0  502  0.78433671278E+03  0.23990130833E+03 -0.10675796446E+04  0.13462774656E+04  0.25500000920E-02 0. -1.
</event>
<event>
 5   0  0.1758946E-04  0.1907414E+04  0.7818609E-02  0.8651175E-01
       -1   -1    0    0    0  501  0.00000000000E+00  0.00000000000E+00  0.53290420331E+03  0.53290420334E+03  0.50400001928E-02 0.  1.
        1   -1    0    0  501    0  0.00000000000E+00  0.00000000000E+00 -0.17067929874E+04  0.17067929874E+04  0.50400001928E-02 0. -1.
    10030    2    1    2    0    0  0.00000000000E+00  0.00000000000E+00 -0.11738887840E+04  0.22396971907E+04  0.19074141209E+04 0.  0.
        2    1    3    3  502    0 -0.59867210720E+03 -0.50374980342E+03  0.53385596977E+02  0.78423349734E+03  0.25500000920E-02 0.  1.
       -2    1    3    3    0  502  0.59867210720E+03  0.50374980342E+03 -0.12272743810E+04  0.14554636934E+04  0.25500000920E-02 0. -1.
</event>
<event>
 5   0  0.1813834E-04  0.1911322E+04  0.7818609E-02  0.8649241E-01
       -1   -1    0    0    0  501  0.00000000000E+00  0.00000000000E+00  0.82673537503E+03  0.82673537504E+03  0.50400001928E-02 0. -1.
        1   -1    0    0  501    0  0.00000000000E+00  0.00000000000E+00 -0.11046925562E+04  0.11046925562E+04  0.50400001928E-02 0.  1.
    10030    2    1    2    0    0  0.00000000000E+00  0.00000000000E+00 -0.27795718113E+03  0.19314279312E+04  0.19113224895E+04 0.  0.
        5    1    3    3  502    0  0.93016149683E+03  0.21507986613E+03 -0.96027774294E+02  0.95953279383E+03  0.46999998093E+01 0.  1.
       -5    1    3    3    0  502 -0.93016149683E+03 -0.21507986613E+03 -0.18192940684E+03  0.97189513738E+03  0.46999998093E+01 0. -1.
</event>
<event>
 5   0  0.1813834E-04  0.1898276E+04  0.7818609E-02  0.8655715E-01
       -1   -1    0    0    0  501  0.00000000000E+00  0.00000000000E+00  0.15453768030E+04  0.15453768030E+04  0.50400001928E-02 0.  1.
        1   -1    0    0  501    0  0.00000000000E+00  0.00000000000E+00 -0.58294077283E+03  0.58294077285E+03  0.50400001928E-02 0. -1.
    10030    2    1    2    0    0  0.00000000000E+00  0.00000000000E+00  0.96243603016E+03  0.21283175758E+04  0.18982762158E+04 0.  0.
        5    1    3    3  502    0  0.19581076609E+03  0.91870419354E+03  0.32879546086E+03  0.99523253384E+03  0.46999998093E+01 0. -1.
       -5    1    3    3    0  502 -0.19581076609E+03 -0.91870419354E+03  0.63364056929E+03  0.11330850420E+04  0.46999998093E+01 0.  1.
</event>
<event>
 5   0  0.1758946E-04  0.1860540E+04  0.7818609E-02  0.8674751E-01
       -1   -1    0    0    0  501  0.00000000000E+00  0.00000000000E+00  0.11294043026E+04  0.11294043027E+04  0.50400001928E-02 0.  1.
        1   -1    0    0  501    0  0.00000000000E+00  0.00000000000E+00 -0.76624668169E+03  0.76624668171E+03  0.50400001928E-02 0. -1.
    10030    2    1    2    0    0  0.00000000000E+00  0.00000000000E+00  0.36315762095E+03  0.18956509844E+04  0.18605400283E+04 0.  0.
        2    1    3    3  502    0 -0.82104108142E+01  0.71393246946E+03 -0.42602684057E+03  0.83142398973E+03  0.25500000920E-02 0. -1.
       -2    1    3    3    0  502  0.82104108142E+01 -0.71393246946E+03  0.78918446152E+03  0.10642269946E+04  0.25500000920E-02 0.  1.
</event>
<event>
 5   0  0.1758946E-04  0.1869679E+04  0.7818609E-02  0.8670098E-01
        1   -1    0    0  501    0  0.00000000000E+00  0.00000000000E+00  0.12272594800E+04  0.12272594800E+04  0.50400001928E-02 0.  1.
       -1   -1    0    0    0  501  0.00000000000E+00  0.00000000000E+00 -0.71209431160E+03  0.71209431162E+03  0.50400001928E-02 0. -1.
    10030    2    1    2    0    0  0.00000000000E+00  0.00000000000E+00  0.51516516837E+03  0.19393537916E+04  0.18696785762E+04 0.  0.
        2    1    3    3  502    0 -0.50525629348E+03 -0.45142677796E+03  0.92567718402E+03  0.11471479011E+04  0.25500000920E-02 0.  1.
       -2    1    3    3    0  502  0.50525629348E+03  0.45142677796E+03 -0.41051201565E+03  0.79220589051E+03  0.25500000920E-02 0. -1.
</event>
<event>
 5   0  0.1287000E-04  0.1912027E+04  0.7818609E-02  0.8648893E-01
       -4   -1    0    0    0  501  0.00000000000E+00  0.00000000000E+00  0.12539661916E+04  0.12539668347E+04  0.12699999809E+01 0.  1.
        4   -1    0    0  501    0  0.00000000000E+00  0.00000000000E+00 -0.72885577986E+03  0.72885688632E+03  0.12699999809E+01 0. -1.
    10030    2    1    2    0    0  0.00000000000E+00  0.00000000000E+00  0.52511041173E+03  0.19828237210E+04  0.19120274486E+04 0.  0.
        5    1    3    3  502    0  0.19100979329E+02  0.66676773181E+02 -0.72623205183E+03  0.72955172716E+03  0.46999998093E+01 0. -1.
       -5    1    3    3    0  502 -0.19100979329E+02 -0.66676773181E+02  0.12513424636E+04  0.12532719939E+04  0.46999998093E+01 0.  1.
</event>
<event>
 5   0  0.3720978E-04  0.1882887E+04  0.7818609E-02  0.8663422E-01
        2   -1    0    0  501    0  0.00000000000E+00  0.00000000000E+00  0.15138860246E+04  0.15138860246E+04  0.25500000920E-02 0. -1.
       -2   -1    0    0    0  501  0.00000000000E+00  0.00000000000E+00 -0.58545746517E+03  0.58545746518E+03  0.25500000920E-02 0.  1.
    10030    2    1    2    0    0  0.00000000000E+00  0.00000000000E+00  0.92842855941E+03  0.20993434898E+04  0.18828870115E+04 0.  0.
        1    1    3    3  502    0  0.45070783873E+03 -0.34953720376E+03  0.12993200254E+04  0.14189948348E+04  0.50400001928E-02 0. -1.
       -1    1    3    3    0  502 -0.45070783873E+03  0.34953720376E+03 -0.37089146602E+03  0.68034865495E+03  0.50400001928E-02 0.  1.
</event>
<event>
 5   0  0.1813834E-04  0.1891850E+04  0.7818609E-02  0.8658924E-01
       -1   -1    0    0    0  501  0.00000000000E+00  0.00000000000E+00  0.50871533006E+03  0.50871533009E+03  0.50400001928E-02 0. -1.
        1   -1    0    0  501    0  0.00000000000E+00  0.00000000000E+00 -0.17588901195E+04  0.17588901195E+04  0.50400001928E-02 0.  1.
    10030    2    1    2    0    0  0.00000000000E+00  0.00000000000E+00 -0.12501747894E+04  0.22676054496E+04  0.18918502771E+04 0.  0.
        5    1    3    3  502    0 -0.35634600550E+03 -0.54780309123E+03 -0.14447891395E+04  0.15857201677E+04  0.46999998093E+01 0.  1.
       -5    1    3    3    0  502  0.35634600550E+03  0.54780309123E+03  0.19461435014E+03  0.68188528190E+03  0.46999998093E+01 0. -1.
</event>
<event>
 5   0  0.1758946E-04  0.1922514E+04  0.7818609E-02  0.8643730E-01
        1   -1    0    0  501    0  0.00000000000E+00  0.00000000000E+00  0.68364315132E+03  0.68364315134E+03  0.50400001928E-02 0. -1.
       -1   -1    0    0    0  501  0.00000000000E+00  0.00000000000E+00 -0.13516048814E+04  0.13516048814E+04  0.50400001928E-02 0.  1.
    10030    2    1    2    0    0  0.00000000000E+00  0.00000000000E+00 -0.66796173006E+03  0.20352480327E+04  0.19225144166E+04 0.  0.
        2    1    3    3  502    0  0.68567706781E+03  0.59673956931E+03 -0.29733838419E+01  0.90898844653E+03  0.25500000920E-02 0.  1.
       -2    1    3    3    0  502 -0.68567706781E+03 -0.59673956931E+03 -0.66498834622E+03  0.11262595862E+04  0.25500000920E-02 0. -1.
</event>
<event>
 5   0  0.1694830E-04  0.1907609E+04  0.7818609E-02  0.8651078E-01
        1   -1    0    0  501    0  0.00000000000E+00  0.00000000000E+00  0.12145689577E+04  0.12145689577E+04  0.50400001928E-02 0. -1.
       -1   -1    0    0    0  501  0.00000000000E+00  0.00000000000E+00 -0.74902551076E+03  0.74902551077E+03  0.50400001928E-02 0.  1.
    10030    2    1    2    0    0  0.00000000000E+00  0.00000000000E+00  0.46554344692E+03  0.19635944685E+04  0.19076091150E+04 0.  0.
        1    1    3    3  502    0  0.42429059270E+03  0.34352607461E+02  0.11113678177E+04  0.11901012709E+04  0.50400001928E-02 0. -1.
       -1    1    3    3    0  502 -0.42429059270E+03 -0.34352607461E+02 -0.64582437082E+03  0.77349319755E+03  0.50400001928E-02 0.  1.
</event>
<event>
 5   0  0.3623359E-04  0.1940608E+04  0.7818609E-02  0.8634903E-01
       -2   -1    0    0    0  501  0.00000000000E+00  0.00000000000E+00  0.54463254584E+03  0.54463254584E+03  0.25500000920E-02 0.  1.
        2   -1    0    0  501    0  0.00000000000E+00  0.00000000000E+00 -0.17286706158E+04  0.17286706158E+04  0.25500000920E-02 0. -1.
    10030    2    1    2    0    0  0.00000000000E+00  0.00000000000E+00 -0.11840380699E+04  0.22733031616E+04  0.19406084390E+04 0.  0.
        5    1    3    3  502    0  0.28321518626E+03  0.13667432749E+03  0.48326788416E+03  0.57659400915E+03  0.46999998093E+01 0.  1.
       -5    1    3    3    0  502 -0.28321518626E+03 -0.13667432749E+03 -0.16673059541E+04  0.16967091525E+04  0.46999998093E+01 0. -1.
</event>
<event>
 5   0  0.3623359E-04  0.1741144E+04  0.7818609E-02  0.8738240E-01
        2   -1    0    0  501    0  0.00000000000E+00  0.00000000000E+00  0.44863852095E+03  0.44863852096E+03  0.25500000920E-02 0. -1.
       -2   -1    0    0    0  501  0.00000000000E+00  0.00000000000E+00 -0.16893243381E+04  0.16893243381E+04  0.25500000920E-02 0.  1.
    10030    2    1    2    0    0  0.00000000000E+00  0.00000000000E+00 -0.12406858171E+04  0.21379628591E+04  0.17411444196E+04 0.  0.
        5    1    3    3  502    0  0.42128624934E+03 -0.75464923586E+03 -0.74851842447E+03  0.11433632384E+04  0.46999998093E+01 0.  1.
       -5    1    3    3    0  502 -0.42128624934E+03  0.75464923586E+03 -0.49216739267E+03  0.99459962069E+03  0.46999998093E+01 0. -1.
</event>
<event>
 5   0  0.3516539E-04  0.1951953E+04  0.7818609E-02  0.8629420E-01
       -2   -1    0    0    0  501  0.00000000000E+00  0.00000000000E+00  0.14967639901E+04  0.14967639901E+04  0.25500000920E-02 0. -1.
        2   -1    0    0  501    0  0.00000000000E+00  0.00000000000E+00 -0.63639268309E+03  0.63639268310E+03  0.25500000920E-02 0.  1.
    10030    2    1    2    0    0  0.00000000000E+00  0.00000000000E+00  0.86037130699E+03  0.21331566732E+04  0.19519525113E+04 0.  0.
        4    1    3    3  502    0  0.32657189089E+03 -0.35481302510E+03 -0.49710461069E+03  0.69257208258E+03  0.12699999809E+01 0.  1.
       -4    1    3    3    0  502 -0.32657189089E+03  0.35481302510E+03  0.13574759177E+04  0.14405845906E+04  0.12699999809E+01 0. -1.
</event>
<event>
 5   0  0.1813834E-04  0.1897403E+04  0.7818609E-02  0.8656150E-01
       -1   -1    0    0    0  501  0.00000000000E+00  0.00000000000E+00  0.13439609295E+04  0.13439609295E+04  0.50400001928E-02 0.  1.
        1   -1    0    0  501    0  0.00000000000E+00  0.00000000000E+00 -0.66968820246E+03  0.66968820248E+03  0.50400001928E-02 0. -1.
    10030    2    1    2    0    0  0.00000000000E+00  0.00000000000E+00  0.67427272701E+03  0.20136491320E+04  0.18974032561E+04 0.  0.
        5    1    3    3  502    0  0.14475392188E+02 -0.72501438496E+03 -0.31202290993E+03  0.78945283690E+03  0.46999998093E+01 0. -1.
       -5    1    3    3    0  502 -0.14475392188E+02  0.72501438496E+03  0.98629563694E+03  0.12241962951E+04  0.46999998093E+01 0.  1.
</event>
<event>
 5   0  0.3535876E-04  0.1888178E+04  0.7818609E-02  0.8660763E-01
       -2   -1    0    0    0  501  0.00000000000E+00  0.00000000000E+00  0.82799203210E+03  0.82799203210E+03  0.25500000920E-02 0. -1.
        2   -1    0    0  501    0  0.00000000000E+00  0.00000000000E+00 -0.10764646066E+04  0.10764646066E+04  0.25500000920E-02 0.  1.
    10030    2    1    2    0    0  0.00000000000E+00  0.00000000000E+00 -0.24847257448E+03  0.19044566387E+04  0.18881780817E+04 0.  0.
        2    1    3    3  502    0 -0.72915605287E+03 -0.55799545866E+03  0.97377428717E+02  0.92331459696E+03  0.25500000920E-02 0. -1.
       -2    1    3    3    0  502  0.72915605287E+03  0.55799545866E+03 -0.34585000320E+03  0.98114204172E+03  0.25500000920E-02 0.  1.
</event>
<event>
 5   0  0.1758946E-04  0.1888008E+04  0.7818609E-02  0.8660849E-01
       -1   -1    0    0    0  501  0.00000000000E+00  0.00000000000E+00  0.69239349661E+03  0.69239349663E+03  0.50400001928E-02 0.  1.
        1   -1    0    0  501    0  0.00000000000E+00  0.00000000000E+00 -0.12870477271E+04  0.12870477271E+04  0.50400001928E-02 0. -1.
    10030    2    1    2    0    0  0.00000000000E+00  0.00000000000E+00 -0.59465423047E+03  0.19794412237E+04  0.18880079196E+04 0.  0.
        2    1    3    3  502    0  0.59895690932E+03 -0.50026676158E+03 -0.85420673936E+03  0.11570157153E+04  0.25500000920E-02 0. -1.
       -2    1    3    3    0  502 -0.59895690932E+03  0.50026676158E+03  0.25955250889E+03  0.82242550838E+03  0.25500000920E-02 0.  1.
</event>
<event>
 5   0  0.3535876E-04  0.1894957E+04  0.7818609E-02  0.8657371E-01
        2   -1    0    0  501    0  0.00000000000E+00  0.00000000000E+00  0.19273949548E+04  0.19273949548E+04  0.25500000920E-02 0.  1.
       -2   -1    0    0    0  501  0.00000000000E+00  0.00000000000E+00 -0.46576624569E+03  0.46576624570E+03  0.25500000920E-02 0. -1.
    10030    2    1    2    0    0  0.00000000000E+00  0.00000000000E+00  0.14616287091E+04  0.23931612005E+04  0.18949570043E+04 0.  0.
        2    1    3    3  502    0 -0.38671601741E+03 -0.26291358003E+03  0.17715037514E+04  0.18321840437E+04  0.25500000920E-02 0.  1.
       -2    1    3    3    0  502  0.38671601741E+03  0.26291358003E+03 -0.30987504226E+03  0.56097715685E+03  0.25500000920E-02 0. -1.
</event>
<event>
 5   0  0.1813834E-04  0.1930570E+04  0.7818609E-02  0.8639787E-01
        1   -1    0    0  501    0  0.00000000000E+00  0.00000000000E+00  0.90194829708E+03  0.90194829710E+03  0.50400001928E-02 0.  1.
       -1   -1    0    0    0  501  0.00000000000E+00  0.00000000000E+00 -0.10330695847E+04  0.10330695847E+04  0.50400001928E-02 0. -1.
    10030    2    1    2    0    0  0.00000000000E+00  0.00000000000E+00 -0.13112128758E+03  0.19350178818E+04  0.19305702294E+04 0.  0.
        5    1    3    3  502    0  0.29050909044E+03 -0.14685847350E+03  0.84526294954E+03  0.90578942737E+03  0.46999998093E+01 0.  1.
       -5    1    3    3    0  502 -0.29050909044E+03  0.14685847350E+03 -0.97638423712E+03  0.10292284544E+04  0.46999998093E+01 0. -1.
</event>
<event>
 5   0  0.3516539E-04  0.1931492E+04  0.7818609E-02  0.8639338E-01
        2   -1    0    0  501    0  0.00000000000E+00  0.00000000000E+00  0.19370014417E+04  0.19370014417E+04  0.25500000920E-02 0.  1.
       -2   -1    0    0    0  501  0.00000000000E+00  0.00000000000E+00 -0.48149965607E+03  0.48149965608E+03  0.25500000920E-02 0. -1.
    10030    2    1    2    0    0  0.00000000000E+00  0.00000000000E+00  0.14555017856E+04  0.24185010978E+04  0.19314921983E+04 0.  0.
        4    1    3    3  502    0 -0.80784152385E+03 -0.61476797102E+02  0.69600151567E+02  0.81316241812E+03  0.12699999809E+01 0. -1.
       -4    1    3    3    0  502  0.80784152385E+03  0.61476797102E+02  0.13859016341E+04  0.16053386797E+04  0.12699999809E+01 0.  1.
</event>
<event>
 5   0  0.1694830E-04  0.1859388E+04  0.7818609E-02  0.8675340E-01
       -1   -1    0    0    0  501  0.00000000000E+00  0.00000000000E+00  0.56292255985E+03  0.56292255988E+03  0.50400001928E-02 0.  1.
        1   -1    0    0  501    0  0.00000000000E+00  0.00000000000E+00 -0.15354350391E+04  0.15354350392E+04  0.50400001928E-02 0. -1.
    10030    2    1    2    0    0  0.00000000000E+00  0.00000000000E+00 -0.97251247929E+03  0.20983575990E+04  0.18593880959E+04 0.  0.
        1    1    3    3  502    0  0.50978963955E+02  0.38439069647E+03 -0.14398233217E+04  0.14911224833E+04  0.50400001928E-02 0. -1.
       -1    1    3    3    0  502 -0.50978963955E+02 -0.38439069647E+03  0.46731084245E+03  0.60723511574E+03  0.50400001928E-02 0.  1.
</event>
<event>
 5   0  0.1813834E-04  0.1940228E+04  0.7818609E-02  0.8635087E-01
       -1   -1    0    0    0  501  0.00000000000E+00  0.00000000000E+00  0.10223615779E+04  0.10223615780E+04  0.50400001928E-02 0. -1.
        1   -1    0    0  501    0  0.00000000000E+00  0.00000000000E+00 -0.92053652629E+03  0.92053652630E+03  0.50400001928E-02 0.  1.
    10030    2    1    2    0    0  0.00000000000E+00  0.00000000000E+00  0.10182505166E+03  0.19428981043E+04  0.19402280027E+04 0.  0.
        5    1    3    3  502    0 -0.69903220981E+03  0.17034093818E+03 -0.60070336752E+03  0.93729861374E+03  0.46999998093E+01 0.  1.
       -5    1    3    3    0  502  0.69903220981E+03 -0.17034093818E+03  0.70252841918E+03  0.10055994905E+04  0.46999998093E+01 0. -1.
</event>
<event>
 5   0  0.1694830E-04  0.1912197E+04  0.7818609E-02  0.8648809E-01
        1   -1    0    0  501    0  0.00000000000E+00  0.00000000000E+00  0.15230754432E+04  0.15230754432E+04  0.50400001928E-02 0. -1.
       -1   -1    0    0    0  501  0.00000000000E+00  0.00000000000E+00 -0.60018325971E+03  0.60018325973E+03  0.50400001928E-02 0.  1.
    10030    2    1    2    0    0  0.00000000000E+00  0.00000000000E+00  0.92289218346E+03  0.21232587029E+04  0.19121970445E+04 0.  0.
        1    1    3    3  502    0 -0.50750793276E+03 -0.48369654672E+03  0.11832743033E+04  0.13753780310E+04  0.50400001928E-02 0. -1.
       -1    1    3    3    0  502  0.50750793276E+03  0.48369654672E+03 -0.26038211985E+03  0.74788067195E+03  0.50400001928E-02 0.  1.
</event>
<event>
 5   0  0.3535876E-04  0.1925836E+04  0.7818609E-02  0.8642102E-01
        2   -1    0    0  501    0  0.00000000000E+00  0.00000000000E+00  0.16908697662E+04  0.16908697662E+04  0.25500000920E-02 0. -1.
       -2   -1    0    0    0  501  0.00000000000E+00  0.00000000000E+00 -0.54836323966E+03  0.54836323967E+03  0.25500000920E-02 0.  1.
    10030    2    1    2    0    0  0.00000000000E+00  0.00000000000E+00  0.11425065265E+04  0.22392330059E+04  0.19258357384E+04 0.  0.
        2    1    3    3  502    0 -0.41696588724E+03 -0.25723758226E+03 -0.39260908511E+03  0.62783247652E+03  0.25500000920E-02 0.  1.
       -2    1    3    3    0  502  0.41696588724E+03  0.25723758226E+03  0.15351156116E+04  0.16114005293E+04  0.25500000920E-02 0. -1.
</event>
<event>
 5   0  0.3459485E-04  0.1880567E+04  0.7818609E-02  0.8664590E-01
       -2   -1    0    0    0  501  0.00000000000E+00  0.00000000000E+00  0.50058442946E+03  0.50058442946E+03  0.25500000920E-02 0.  1.
        2   -1    0    0  501    0  0.00000000000E+00  0.00000000000E+00 -0.17662023497E+04  0.17662023497E+04  0.25500000920E-02 0. -1.
    10030    2    1    2    0    0  0.00000000000E+00  0.00000000000E+00 -0.12656179202E+04  0.22667867791E+04  0.18805673564E+04 0.  0.
        3    1    3    3  502    0  0.72092946273E+03  0.54126521364E+03 -0.31066489416E+03  0.95353028709E+03  0.10100000352E+00 0.  1.
       -3    1    3    3    0  502 -0.72092946273E+03 -0.54126521364E+03 -0.95495302605E+03  0.13132564920E+04  0.10100000352E+00 0. -1.
</event>
<event>
 5   0  0.1813834E-04  0.1749005E+04  0.7818609E-02  0.8733898E-01
       -1   -1    0    0    0  501  0.00000000000E+00  0.00000000000E+00  0.73494573046E+03  0.73494573048E+03  0.50400001928E-02 0. -1.
        1   -1    0    0  501    0  0.00000000000E+00  0.00000000000E+00 -0.10405596995E+04  0.10405596996E+04  0.50400001928E-02 0.  1.
    10030    2    1    2    0    0  0.00000000000E+00  0.00000000000E+00 -0.30561396908E+03  0.17755054300E+04  0.17490053270E+04 0.  0.
        5    1    3    3  502    0  0.86089787196E+02  0.67312268547E+03 -0.71273204449E+03  0.98413142334E+03  0.46999998093E+01 0.  1.
       -5    1    3    3    0  502 -0.86089787196E+02 -0.67312268547E+03  0.40711807541E+03  0.79137400670E+03  0.46999998093E+01 0. -1.
</event>
<event>
 5   0  0.3623359E-04  0.2024312E+04  0.7818609E-02  0.8595338E-01
       -2   -1    0    0    0  501  0.00000000000E+00  0.00000000000E+00  0.88706339518E+03  0.88706339518E+03  0.25500000920E-02 0.  1.
        2   -1    0    0  501    0  0.00000000000E+00  0.00000000000E+00 -0.11548892429E+04  0.11548892429E+04  0.25500000920E-02 0. -1.
    10030    2    1    2    0    0  0.00000000000E+00  0.00000000000E+00 -0.26782584768E+03  0.20419526380E+04  0.20243122020E+04 0.  0.
        5    1    3    3  502    0 -0.94084473128E+03  0.28400318173E+03  0.11025275498E+03  0.98895114925E+03  0.46999998093E+01 0.  1.
       -5    1    3    3    0  502  0.94084473128E+03 -0.28400318173E+03 -0.37807860266E+03  0.10530014888E+04  0.46999998093E+01 0. -1.
</event>
<event>
 5   0  0.3623359E-04  0.1885160E+04  0.7818609E-02  0.8662279E-01
       -2   -1    0    0    0  501  0.00000000000E+00  0.00000000000E+00  0.67238916318E+03  0.67238916318E+03  0.25500000920E-02 0. -1.
        2   -1    0    0  501    0  0.00000000000E+00  0.00000000000E+00 -0.13213438736E+04  0.13213438736E+04  0.25500000920E-02 0.  1.
    10030    2    1    2    0    0  0.00000000000E+00  0.00000000000E+00 -0.64895471039E+03  0.19937330368E+04  0.18851602600E+04 0.  0.
        5    1    3    3  502    0 -0.36247136654E+02 -0.39735761213E+03  0.57865308792E+03  0.70290000212E+03  0.46999998093E+01 0. -1.
       -5    1    3    3    0  502  0.36247136654E+02  0.39735761213E+03 -0.12276077983E+04  0.12908330346E+04  0.46999998093E+01 0.  1.
</event>
<event>
 5   0  0.3623359E-04  0.1880229E+04  0.7818609E-02  0.8664761E-01
        2   -1    0    0  501    0  0.00000000000E+00  0.00000000000E+00  0.14420751528E+04  0.14420751528E+04  0.25500000920E-02 0. -1.
       -2   -1    0    0    0  501  0.00000000000E+00  0.00000000000E+00 -0.61287752479E+03  0.61287752479E+03  0.25500000920E-02 0.  1.
    10030    2    1    2    0    0  0.00000000000E+00  0.00000000000E+00  0.82919762803E+03  0.20549526776E+04  0.18802291884E+04 0.  0.
        5    1    3    3  502    0 -0.71548181798E+03 -0.54036836022E+03  0.72349548381E+03  0.11521197862E+04  0.46999998093E+01 0. -1.
       -5    1    3    3    0  502  0.71548181798E+03  0.54036836022E+03  0.10570214421E+03  0.90283289145E+03  0.46999998093E+01 0.  1.
</event>
<event>
 5   0  0.1694830E-04  0.1920421E+04  0.7818609E-02  0.8644758E-01
        1   -1    0    0  501    0  0.00000000000E+00  0.00000000000E+00  0.12202280936E+04  0.12202280936E+04  0.50400001928E-02 0.  1.
       -1   -1    0    0    0  501  0.00000000000E+00  0.00000000000E+00 -0.75559974725E+03  0.75559974726E+03  0.50400001928E-02 0. -1.
    10030    2    1    2    0    0  0.00000000000E+00  0.00000000000E+00  0.46462834637E+03  0.19758278409E+04  0.19204208280E+04 0.  0.
        1    1    3    3  502    0 -0.56516289868E+03 -0.48310070050E+03 -0.39284214824E+03  0.84090447871E+03  0.50400001928E-02 0. -1.
       -1    1    3    3    0  502  0.56516289868E+03  0.48310070050E+03  0.85747049460E+03  0.11349233622E+04  0.50400001928E-02 0.  1.
</event>
<event>
 5   0  0.3516539E-04  0.1884602E+04  0.7818609E-02  0.8662559E-01
        2   -1    0    0  501    0  0.00000000000E+00  0.00000000000E+00  0.25221107901E+04  0.25221107901E+04  0.25500000920E-02 0.  1.
       -2   -1    0    0    0  501  0.00000000000E+00  0.00000000000E+00 -0.35205865218E+03  0.35205865219E+03  0.25500000920E-02 0. -1.
    10030    2    1    2    0    0  0.00000000000E+00  0.00000000000E+00  0.21700521379E+04  0.28741694423E+04  0.18846017356E+04 0.  0.
        4    1    3    3  502    0  0.46806361609E+03  0.70394418663E+03  0.45013017314E+03  0.95772634519E+03  0.12699999809E+01 0. -1.
       -4    1    3    3    0  502 -0.46806361609E+03 -0.70394418663E+03  0.17199219648E+04  0.19164430971E+04  0.12699999809E+01 0.  1.
</event>
<event>
 5   0  0.1694830E-04  0.1939095E+04  0.7818609E-02  0.8635637E-01
       -1   -1    0    0    0  501  0.00000000000E+00  0.00000000000E+00  0.46425840642E+03  0.46425840645E+03  0.50400001928E-02 0. -1.
        1   -1    0    0  501    0  0.00000000000E+00  0.00000000000E+00 -0.20247834616E+04  0.20247834616E+04  0.50400001928E-02 0.  1.
    10030    2    1    2    0    0  0.00000000000E+00  0.00000000000E+00 -0.15605250552E+04  0.24890418681E+04  0.19390954007E+04 0.  0.
        1    1    3    3  502    0  0.36478747990E+03  0.57166939709E+03  0.10918453981E+03  0.68687485674E+03  0.50400001928E-02 0. -1.
       -1    1    3    3    0  502 -0.36478747990E+03 -0.57166939709E+03 -0.16697095950E+04  0.18021670114E+04  0.50400001928E-02 0.  1.
</event>
<event>
 5   0  0.1694830E-04  0.1885703E+04  0.7818609E-02  0.8662006E-01
       -1   -1    0    0    0  501  0.00000000000E+00  0.00000000000E+00  0.12563567703E+04  0.12563567703E+04  0.50400001928E-02 0.  1.
        1   -1    0    0  501    0  0.00000000000E+00  0.00000000000E+00 -0.70757660798E+03  0.70757660800E+03  0.50400001928E-02 0. -1.
    10030    2    1    2    0    0  0.00000000000E+00  0.00000000000E+00  0.54878016232E+03  0.19639333783E+04  0.18857026934E+04 0.  0.
        1    1    3    3  502    0  0.51667891963E+03  0.78634875313E+03  0.21132042009E+03  0.96434318969E+03  0.50400001928E-02 0. -1.
       -1    1    3    3    0  502 -0.51667891963E+03 -0.78634875313E+03  0.33745974224E+03  0.99959018862E+03  0.50400001928E-02 0.  1.
</event>
<event>
 5   0  0.1758946E-04  0.1417858E+04  0.7818609E-02  0.8940992E-01
       -1   -1    0    0    0  501  0.00000000000E+00  0.00000000000E+00  0.79871759726E+03  0.79871759728E+03  0.50400001928E-02 0.  1.
        1   -1    0    0  501    0  0.00000000000E+00  0.00000000000E+00 -0.62923440441E+03  0.62923440443E+03  0.50400001928E-02 0. -1.
    10030    2    1    2    0    0  0.00000000000E+00  0.00000000000E+00  0.16948319285E+03  0.14279520017E+04  0.14178583732E+04 0.  0.
        2    1    3    3  502    0  0.32109110241E+03 -0.54018266625E+03  0.41522975913E+03  0.75320154131E+03  0.25500000920E-02 0.  1.
       -2    1    3    3    0  502 -0.32109110241E+03  0.54018266625E+03 -0.24574656628E+03  0.67475046040E+03  0.25500000920E-02 0. -1.
</event>
<event>
 5   0  0.3516539E-04  0.1927117E+04  0.7818609E-02  0.8641475E-01
       -2   -1    0    0    0  501  0.00000000000E+00  0.00000000000E+00  0.86350492257E+03  0.86350492258E+03  0.25500000920E-02 0.  1.
        2   -1    0    0  501    0  0.00000000000E+00  0.00000000000E+00 -0.10752057451E+04  0.10752057451E+04  0.25500000920E-02 0. -1.
    10030    2    1    2    0    0  0.00000000000E+00  0.00000000000E+00 -0.21170082252E+03  0.19387106677E+04  0.19271174886E+04 0.  0.
        4    1    3    3  502    0 -0.61057737530E+03  0.56619584321E+03 -0.59359835260E+03  0.10226158033E+04  0.12699999809E+01 0. -1.
       -4    1    3    3    0  502  0.61057737530E+03 -0.56619584321E+03  0.38189753009E+03  0.91609486435E+03  0.12699999809E+01 0.  1.
</event>
<event>
 5   0  0.1711979E-04  0.1872792E+04  0.7818609E-02  0.8668520E-01
       -1   -1    0    0    0  501  0.00000000000E+00  0.00000000000E+00  0.50199941396E+03  0.50199941398E+03  0.50400001928E-02 0. -1.
        1   -1    0    0  501    0  0.00000000000E+00  0.00000000000E+00 -0.17466894813E+04  0.17466894813E+04  0.50400001928E-02 0.  1.
    10030    2    1    2    0    0  0.00000000000E+00  0.00000000000E+00 -0.12446900674E+04  0.22486888953E+04  0.18727916019E+04 0.  0.
        4    1    3    3  502    0  0.58750511125E+03 -0.31344794215E+03 -0.14128347183E+04  0.15618948179E+04  0.12699999809E+01 0.  1.
       -4    1    3    3    0  502 -0.58750511125E+03  0.31344794215E+03  0.16814465093E+03  0.68679407738E+03  0.12699999809E+01 0. -1.
</event>
<event>
 5   0  0.1782613E-04  0.1936421E+04  0.7818609E-02  0.8636937E-01
        1   -1    0    0  501    0  0.00000000000E+00  0.00000000000E+00  0.15364646472E+04  0.15364646472E+04  0.50400001928E-02 0.  1.
       -1   -1    0    0    0  501  0.00000000000E+00  0.00000000000E+00 -0.61012241022E+03  0.61012241024E+03  0.50400001928E-02 0. -1.
    10030    2    1    2    0    0  0.00000000000E+00  0.00000000000E+00  0.92634223699E+03  0.21465870575E+04  0.19364209396E+04 0.  0.
        3    1    3    3  502    0  0.53910913987E+03 -0.64108653995E+03 -0.75125254604E+02  0.84099609421E+03  0.10100000352E+00 0. -1.
       -3    1    3    3    0  502 -0.53910913987E+03  0.64108653995E+03  0.10014674916E+04  0.13055909632E+04  0.10100000352E+00 0.  1.
</event>
<event>
 5   0  0.3720978E-04  0.1969714E+04  0.7818609E-02  0.8620913E-01
        2   -1    0    0  501    0  0.00000000000E+00  0.00000000000E+00  0.38851316734E+03  0.38851316735E+03  0.25500000920E-02 0. -1.
       -2   -1    0    0    0  501  0.00000000000E+00  0.00000000000E+00 -0.24965521077E+04  0.24965521077E+04  0.25500000920E-02 0.  1.
    10030    2    1    2    0    0  0.00000000000E+00  0.00000000000E+00 -0.21080389403E+04  0.28850652750E+04  0.19697140572E+04 0.  0.
        1    1    3    3  502    0  0.35529726562E+03  0.91773742816E+03 -0.11100862704E+04  0.14834991276E+04  0.50400001928E-02 0.  1.
       -1    1    3    3    0  502 -0.35529726562E+03 -0.91773742816E+03 -0.99795266999E+03  0.14015661474E+04  0.50400001928E-02 0. -1.
</event>
<event>
 5   0  0.3623359E-04  0.1911275E+04  0.7818609E-02  0.8649264E-01
        2   -1    0    0  501    0  0.00000000000E+00  0.00000000000E+00  0.11889259529E+04  0.11889259529E+04  0.25500000920E-02 0. -1.
       -2   -1    0    0    0  501  0.00000000000E+00  0.00000000000E+00 -0.76812431998E+03  0.76812431998E+03  0.25500000920E-02 0.  1.
    10030    2    1    2    0    0  0.00000000000E+00  0.00000000000E+00  0.42080163288E+03  0.19570502728E+04  0.19112749034E+04 0.  0.
        5    1    3    3  502    0 -0.45768348986E+03 -0.53841410828E+03 -0.44832386414E+03  0.83688727200E+03  0.46999998093E+01 0.  1.
       -5    1    3    3    0  502  0.45768348986E+03  0.53841410828E+03  0.86912549702E+03  0.11201630008E+04  0.46999998093E+01 0. -1.
</event>
<event>
 5   0  0.1711979E-04  0.1768046E+04  0.7818609E-02  0.8723479E-01
       -1   -1    0    0    0  501  0.00000000000E+00  0.00000000000E+00  0.69559878931E+03  0.69559878933E+03  0.50400001928E-02 0.  1.
        1   -1    0    0  501    0  0.00000000000E+00  0.00000000000E+00 -0.11234879195E+04  0.11234879195E+04  0.50400001928E-02 0. -1.
    10030    2    1    2    0    0  0.00000000000E+00  0.00000000000E+00 -0.42788913015E+03  0.18190867088E+04  0.17680461947E+04 0.  0.
        4    1    3    3  502    0  0.23193029321E+03  0.15384097083E+03  0.64934677849E+03  0.70647827769E+03  0.12699999809E+01 0.  1.
       -4    1    3    3    0  502 -0.23193029321E+03 -0.15384097083E+03 -0.10772359086E+04  0.11126084311E+04  0.12699999809E+01 0. -1.
</event>
<event>
 5   0  0.3516539E-04  0.1864655E+04  0.7818609E-02  0.8672652E-01
        2   -1    0    0  501    0  0.00000000000E+00  0.00000000000E+00  0.10614707126E+04  0.10614707126E+04  0.25500000920E-02 0.  1.
       -2   -1    0    0    0  501  0.00000000000E+00  0.00000000000E+00 -0.81889666391E+03  0.81889666391E+03  0.25500000920E-02 0. -1.
    10030    2    1    2    0    0  0.00000000000E+00  0.00000000000E+00  0.24257404871E+03  0.18803673765E+04  0.18646552769E+04 0.  0.
        4    1    3    3  502    0  0.42157599186E+03 -0.10943668533E+03 -0.70999546587E+03  0.83294530401E+03  0.12699999809E+01 0. -1.
       -4    1    3    3    0  502 -0.42157599186E+03  0.10943668533E+03  0.95256951458E+03  0.10474220725E+04  0.12699999809E+01 0.  1.
</event>
<event>
 5   0  0.3535876E-04  0.1998345E+04  0.7818609E-02  0.8607395E-01
        2   -1    0    0  501    0  0.00000000000E+00  0.00000000000E+00  0.13807421970E+04  0.13807421970E+04  0.25500000920E-02 0. -1.
       -2   -1    0    0    0  501  0.00000000000E+00  0.00000000000E+00 -0.72305004570E+03  0.72305004571E+03  0.25500000920E-02 0.  1.
    10030    2    1    2    0    0  0.00000000000E+00  0.00000000000E+00  0.65769215129E+03  0.21037922427E+04  0.19983450239E+04 0.  0.
        2    1    3    3  502    0  0.65839353745E+03  0.55637423965E+03  0.86079195479E+03  0.12181942104E+04  0.25500000920E-02 0. -1.
       -2    1    3    3    0  502 -0.65839353745E+03 -0.55637423965E+03 -0.20309980351E+03  0.88559803234E+03  0.25500000920E-02 0.  1.
</event>
<event>
 5   0  0.1694830E-04  0.2227806E+04  0.7818609E-02  0.8506943E-01
       -1   -1    0    0    0  501  0.00000000000E+00  0.00000000000E+00  0.76548528379E+03  0.76548528381E+03  0.50400001928E-02 0. -1.
        1   -1    0    0  501    0  0.00000000000E+00  0.00000000000E+00 -0.16209056951E+04  0.16209056952E+04  0.50400001928E-02 0.  1.
    10030    2    1    2    0    0  0.00000000000E+00  0.00000000000E+00 -0.85542041136E+03  0.23863909790E+04  0.22278056074E+04 0.  0.
        1    1    3    3  502    0  0.91967099222E+03  0.20562668879E+03  0.20845293920E+03  0.96515786116E+03  0.50400001928E-02 0. -1.
       -1    1    3    3    0  502 -0.91967099222E+03 -0.20562668879E+03 -0.10638733506E+04  0.14212331178E+04  0.50400001928E-02 0.  1.
</event>
<event>
 5   0  0.3535876E-04  0.1889437E+04  0.7818609E-02  0.8660132E-01
       -2   -1    0    0    0  501  0.00000000000E+00  0.00000000000E+00  0.15872797324E+04  0.15872797324E+04  0.25500000920E-02 0.  1.
        2   -1    0    0  501    0  0.00000000000E+00  0.00000000000E+00 -0.56227843649E+03  0.56227843650E+03  0.25500000920E-02 0. -1.
    10030    2    1    2    0    0  0.00000000000E+00  0.00000000000E+00  0.10250012959E+04  0.21495581689E+04  0.18894371291E+04 0.  0.
        2    1    3    3  502    0  0.62107683997E+03 -0.39295700028E+03  0.11878036323E+04  0.13967924378E+04  0.25500000920E-02 0.  1.
       -2    1    3    3    0  502 -0.62107683997E+03  0.39295700028E+03 -0.16280233642E+03  0.75276573114E+03  0.25500000920E-02 0. -1.
</event>
<event>
 5   0  0.1758946E-04  0.1966836E+04  0.7818609E-02  0.8622285E-01
        1   -1    0    0  501    0  0.00000000000E+00  0.00000000000E+00  0.64508638327E+03  0.64508638329E+03  0.50400001928E-02 0.  1.
       -1   -1    0    0    0  501  0.00000000000E+00  0.00000000000E+00 -0.14991957136E+04  0.14991957136E+04  0.50400001928E-02 0. -1.
    10030    2    1    2    0    0  0.00000000000E+00  0.00000000000E+00 -0.85410933032E+03  0.21442820969E+04  0.19668357743E+04 0.  0.
        2    1    3    3  502    0 -0.27939485243E+03  0.94159765635E+03 -0.48094183751E+03  0.10936053589E+04  0.25500000920E-02 0.  1.
       -2    1    3    3    0  502  0.27939485243E+03 -0.94159765635E+03 -0.37316749281E+03  0.10506767380E+04  0.25500000920E-02 0. -1.
</event>
<event>
 5   0  0.1711979E-04  0.1881090E+04  0.7818609E-02  0.8664327E-01
       -1   -1    0    0    0  501  0.00000000000E+00  0.00000000000E+00  0.83003276581E+03  0.83003276583E+03  0.50400001928E-02 0. -1.
        1   -1    0    0  501    0  0.00000000000E+00  0.00000000000E+00 -0.10657714022E+04  0.10657714022E+04  0.50400001928E-02 0.  1.
    10030    2    1    2    0    0  0.00000000000E+00  0.00000000000E+00 -0.23573863639E+03  0.18958041680E+04  0.18810903059E+04 0.  0.
        4    1    3    3  502    0  0.83190527777E+03 -0.18835731007E+03  0.28156234039E+03  0.89823372897E+03  0.12699999809E+01 0.  1.
       -4    1    3    3    0  502 -0.83190527777E+03  0.18835731007E+03 -0.51730097678E+03  0.99757043907E+03  0.12699999809E+01 0. -1.
</event>
<event>
 5   0  0.3720978E-04  0.1835597E+04  0.7818609E-02  0.8687595E-01
        2   -1    0    0  501    0  0.00000000000E+00  0.00000000000E+00  0.16294296963E+04  0.16294296963E+04  0.25500000920E-02 0. -1.
       -2   -1    0    0    0  501  0.00000000000E+00  0.00000000000E+00 -0.51696254216E+03  0.51696254216E+03  0.25500000920E-02 0.  1.
    10030    2    1    2    0    0  0.00000000000E+00  0.00000000000E+00  0.11124671541E+04  0.21463922385E+04  0.18355970343E+04 0.  0.
        1    1    3    3  502    0 -0.80562208056E+03  0.40305751282E+03  0.35078039233E+03  0.96671049389E+03  0.50400001928E-02 0.  1.
       -1    1    3    3    0  502  0.80562208056E+03 -0.40305751282E+03  0.76168676181E+03  0.11796817446E+04  0.50400001928E-02 0. -1.
</event>
<event>
 5   0  0.3535876E-04  0.1920576E+04  0.7818609E-02  0.8644682E-01
        2   -1    0    0  501    0  0.00000000000E+00  0.00000000000E+00  0.11363636453E+04  0.11363636453E+04  0.25500000920E-02 0. -1.
       -2   -1    0    0    0  501  0.00000000000E+00  0.00000000000E+00 -0.81149472236E+03  0.81149472236E+03  0.25500000920E-02 0.  1.
    10030    2    1    2    0    0  0.00000000000E+00  0.00000000000E+00  0.32486892297E+03  0.19478583677E+04  0.19205760603E+04 0.  0.
        2    1    3    3  502    0  0.78725392492E+03  0.53414469526E+03  0.29495738203E+03  0.99603170381E+03  0.25500000920E-02 0. -1.
       -2    1    3    3    0  502 -0.78725392492E+03 -0.53414469526E+03  0.29911540938E+02  0.95182666388E+03  0.25500000920E-02 0.  1.
</event>
<event>
 5   0  0.1694830E-04  0.1904958E+04  0.7818609E-02  0.8652392E-01
       -1   -1    0    0    0  501  0.00000000000E+00  0.00000000000E+00  0.47150885294E+03  0.47150885297E+03  0.50400001928E-02 0. -1.
        1   -1    0    0  501    0  0.00000000000E+00  0.00000000000E+00 -0.19240713457E+04  0.19240713457E+04  0.50400001928E-02 0.  1.
    10030    2    1    2    0    0  0.00000000000E+00  0.00000000000E+00 -0.14525624927E+04  0.23955801986E+04  0.19049584491E+04 0.  0.
        1    1    3    3  502    0  0.43559893133E+03 -0.35999995027E+03  0.23791616187E+03  0.61314801906E+03  0.50400001928E-02 0. -1.
       -1    1    3    3    0  502 -0.43559893133E+03  0.35999995027E+03 -0.16904786546E+04  0.17824321796E+04  0.50400001928E-02 0.  1.
</event>
<event>
 5   0  0.1758946E-04  0.1888991E+04  0.7818609E-02  0.8660356E-01
        1   -1    0    0  501    0  0.00000000000E+00  0.00000000000E+00  0.17856113832E+04  0.17856113832E+04  0.50400001928E-02 0.  1.
       -1   -1    0    0    0  501  0.00000000000E+00  0.00000000000E+00 -0.49958904088E+03  0.49958904091E+03  0.50400001928E-02 0. -1.
    10030    2    1    2    0    0  0.00000000000E+00  0.00000000000E+00  0.12860223423E+04  0.22852004241E+04  0.18889911364E+04 0.  0.
        2    1    3    3  502    0 -0.47749229378E+03 -0.35572250378E+03 -0.24393557071E+03  0.64346091799E+03  0.25500000920E-02 0. -1.
       -2    1    3    3    0  502  0.47749229378E+03  0.35572250378E+03  0.15299579131E+04  0.16417395061E+04  0.25500000920E-02 0.  1.
</event>
<event>
 5   0  0.3720978E-04  0.1861302E+04  0.7818609E-02  0.8674362E-01
        2   -1    0    0  501    0  0.00000000000E+00  0.00000000000E+00  0.24049297469E+04  0.24049297469E+04  0.25500000920E-02 0.  1.
       -2   -1    0    0    0  501  0.00000000000E+00  0.00000000000E+00 -0.36013987687E+03  0.36013987688E+03  0.25500000920E-02 0. -1.
    10030    2    1    2    0    0  0.00000000000E+00  0.00000000000E+00  0.20447898700E+04  0.27650696238E+04  0.18613018057E+04 0.  0.
        1    1    3    3  502    0  0.18287245933E+03  0.62220379279E+03  0.20139762560E+04  0.21158166877E+04  0.50400001928E-02 0.  1.
       -1    1    3    3    0  502 -0.18287245933E+03 -0.62220379279E+03  0.30813613996E+02  0.64925293606E+03  0.50400001928E-02 0. -1.
</event>
<event>
 5   0  0.1758946E-04  0.1927007E+04  0.7818609E-02  0.8641529E-01
        1   -1    0    0  501    0  0.00000000000E+00  0.00000000000E+00  0.20758299326E+04  0.20758299327E+04  0.50400001928E-02 0. -1.
       -1   -1    0    0    0  501  0.00000000000E+00  0.00000000000E+00 -0.44721351216E+03  0.44721351219E+03  0.50400001928E-02 0.  1.
    10030    2    1    2    0    0  0.00000000000E+00  0.00000000000E+00  0.16286164205E+04  0.25230434448E+04  0.19270072079E+04 0.  0.
        2    1    3    3  502    0 -0.90911609323E+03 -0.19337707602E+03  0.11467082284E+04  0.14760848640E+04  0.25500000920E-02 0.  1.
       -2    1    3    3    0  502  0.90911609323E+03  0.19337707602E+03  0.48190819209E+03  0.10469585809E+04  0.25500000920E-02 0. -1.
</event>
<event>
 5   0  0.1782613E-04  0.1811016E+04  0.7818609E-02  0.8700463E-01
       -1   -1    0    0    0  501  0.00000000000E+00  0.00000000000E+00  0.64418134955E+03  0.64418134957E+03  0.50400001928E-02 0. -1.
        1   -1    0    0  501    0  0.00000000000E+00  0.00000000000E+00 -0.12728478629E+04  0.12728478629E+04  0.50400001928E-02 0.  1.
    10030    2    1    2    0    0  0.00000000000E+00  0.00000000000E+00 -0.62866651337E+03  0.19170292125E+04  0.18110161282E+04 0.  0.
        3    1    3    3  502    0 -0.81670000376E+03  0.36502776095E+03 -0.16575781220E+03  0.90979108861E+03  0.10100000352E+00 0. -1.
       -3    1    3    3    0  502  0.81670000376E+03 -0.36502776095E+03 -0.46290870117E+03  0.10072381239E+04  0.10100000352E+00 0.  1.
</event>
<event>
 5   0  0.3516539E-04  0.1897378E+04  0.7818609E-02  0.8656162E-01
       -2   -1    0    0    0  501  0.00000000000E+00  0.00000000000E+00  0.84339595571E+03  0.84339595571E+03  0.25500000920E-02 0. -1.
        2   -1    0    0  501    0  0.00000000000E+00  0.00000000000E+00 -0.10671277594E+04  0.10671277594E+04  0.25500000920E-02 0.  1.
    10030    2    1    2    0    0  0.00000000000E+00  0.00000000000E+00 -0.22373180372E+03  0.19105237151E+04  0.18973784404E+04 0.  0.
        4    1    3    3  502    0  0.68443665156E+03  0.50860710614E+03  0.30679697072E+03  0.90623435852E+03  0.12699999809E+01 0. -1.
       -4    1    3    3    0  502 -0.68443665156E+03 -0.50860710614E+03 -0.53052877444E+03  0.10042893566E+04  0.12699999809E+01 0.  1.
</event>
<event>
 5   0  0.3516539E-04  0.1901349E+04  0.7818609E-02  0.8654185E-01
       -2   -1    0    0    0  501  0.00000000000E+00  0.00000000000E+00  0.12822911815E+04  0.12822911815E+04  0.25500000920E-02 0. -1.
        2   -1    0    0  501    0  0.00000000000E+00  0.00000000000E+00 -0.70481793625E+03  0.70481793625E+03  0.25500000920E-02 0.  1.
    10030    2    1    2    0    0  0.00000000000E+00  0.00000000000E+00  0.57747324522E+03  0.19871091177E+04  0.19013488099E+04 0.  0.
        4    1    3    3  502    0 -0.22880959025E+03 -0.56129478595E+03 -0.47667314284E+03  0.77111903318E+03  0.12699999809E+01 0.  1.
       -4    1    3    3    0  502  0.22880959025E+03  0.56129478595E+03  0.10541463881E+04  0.12159900845E+04  0.12699999809E+01 0. -1.
</event>
<event>
 5   0  0.3516539E-04  0.1862988E+04  0.7818609E-02  0.8673502E-01
       -2   -1    0    0    0  501  0.00000000000E+00  0.00000000000E+00  0.39244802370E+03  0.39244802371E+03  0.25500000920E-02 0.  1.
        2   -1    0    0  501    0  0.00000000000E+00  0.00000000000E+00 -0.22109446969E+04  0.22109446969E+04  0.25500000920E-02 0. -1.
    10030    2    1    2    0    0  0.00000000000E+00  0.00000000000E+00 -0.18184966732E+04  0.26033927206E+04  0.18629877904E+04 0.  0.
        4    1    3    3  502    0 -0.33245456154E+02  0.91680297725E+03 -0.68371916013E+03  0.11441619039E+04  0.12699999809E+01 0.  1.
       -4    1    3    3    0  502  0.33245456154E+02 -0.91680297725E+03 -0.11347775131E+04  0.14592308168E+04  0.12699999809E+01 0. -1.
</event>
<event>
 5   0  0.3459485E-04  0.1893769E+04  0.7818609E-02  0.8657964E-01
       -2   -1    0    0    0  501  0.00000000000E+00  0.00000000000E+00  0.83433895260E+03  0.83433895260E+03  0.25500000920E-02 0.  1.
        2   -1    0    0  501    0  0.00000000000E+00  0.00000000000E+00 -0.10746113120E+04  0.10746113121E+04  0.25500000920E-02 0. -1.
    10030    2    1    2    0    0  0.00000000000E+00  0.00000000000E+00 -0.24027235945E+03  0.19089502647E+04  0.18937688101E+04 0.  0.
        3    1    3    3  502    0  0.66674789101E+03  0.54480694658E+02 -0.79563450125E+03  0.10394975546E+04  0.10100000352E+00 0. -1.
       -3    1    3    3    0  502 -0.66674789101E+03 -0.54480694658E+02  0.55536214181E+03  0.86945271005E+03  0.10100000352E+00 0.  1.
</event>
<event>
 5   0  0.1694830E-04  0.1965277E+04  0.7818609E-02  0.8623029E-01
       -1   -1    0    0    0  501  0.00000000000E+00  0.00000000000E+00  0.87281610245E+03  0.87281610246E+03  0.50400001928E-02 0.  1.
        1   -1    0    0  501    0  0.00000000000E+00  0.00000000000E+00 -0.11062797051E+04  0.11062797051E+04  0.50400001928E-02 0. -1.
    10030    2    1    2    0    0  0.00000000000E+00  0.00000000000E+00 -0.23346360264E+03  0.19790958076E+04  0.19652773244E+04 0.  0.
        1    1    3    3  502    0 -0.72095050924E+02  0.39649493896E+03  0.78576874560E+03  0.88308462481E+03  0.50400001928E-02 0.  1.
       -1    1    3    3    0  502  0.72095050924E+02 -0.39649493896E+03 -0.10192323482E+04  0.10960111827E+04  0.50400001928E-02 0. -1.
</event>
<event>
 5   0  0.3535876E-04  0.1763352E+04  0.7818609E-02  0.8726035E-01
        2   -1    0    0  501    0  0.00000000000E+00  0.00000000000E+00  0.11923941550E+04  0.11923941550E+04  0.25500000920E-02 0.  1.
       -2   -1    0    0    0  501  0.00000000000E+00  0.00000000000E+00 -0.65192598284E+03  0.65192598285E+03  0.25500000920E-02 0. -1.
    10030    2    1    2    0    0  0.00000000000E+00  0.00000000000E+00  0.54046817219E+03  0.18443201379E+04  0.17633521843E+04 0.  0.
        2    1    3    3  502    0  0.56868834825E+03 -0.34145901088E+03  0.87772378372E+03  0.11001816823E+04  0.25500000920E-02 0.  1.
       -2    1    3    3    0  502 -0.56868834825E+03  0.34145901088E+03 -0.33725561154E+03  0.74413845558E+03  0.25500000920E-02 0. -1.
</event>
<event>
 5   0  0.3720978E-04  0.1798450E+04  0.7818609E-02  0.8707124E-01
        2   -1    0    0  501    0  0.00000000000E+00  0.00000000000E+00  0.14324878796E+04  0.14324878796E+04  0.25500000920E-02 0. -1.
       -2   -1    0    0    0  501  0.00000000000E+00  0.00000000000E+00 -0.56447656859E+03  0.56447656860E+03  0.25500000920E-02 0.  1.
    10030    2    1    2    0    0  0.00000000000E+00  0.00000000000E+00  0.86801131099E+03  0.19969644482E+04  0.17984502693E+04 0.  0.
        1    1    3    3  502    0  0.79926620292E+03 -0.28125027891E+03  0.99639699360E+02  0.85314491866E+03  0.50400001928E-02 0. -1.
       -1    1    3    3    0  502 -0.79926620292E+03  0.28125027891E+03  0.76837161163E+03  0.11438195295E+04  0.50400001928E-02 0.  1.
</event>
<event>
 5   0  0.1758946E-04  0.1808984E+04  0.7818609E-02  0.8701536E-01
        1   -1    0    0  501    0  0.00000000000E+00  0.00000000000E+00  0.97717922913E+03  0.97717922914E+03  0.50400001928E-02 0. -1.
       -1   -1    0    0    0  501  0.00000000000E+00  0.00000000000E+00 -0.83721198334E+03  0.83721198336E+03  0.50400001928E-02 0.  1.
    10030    2    1    2    0    0  0.00000000000E+00  0.00000000000E+00  0.13996724579E+03  0.18143912125E+04  0.18089844228E+04 0.  0.
        2    1    3    3  502    0 -0.46032631857E+03  0.42679953845E+03  0.72311961013E+03  0.95758035493E+03  0.25500000920E-02 0. -1.
       -2    1    3    3    0  502  0.46032631857E+03 -0.42679953845E+03 -0.58315236435E+03  0.85681085756E+03  0.25500000920E-02 0.  1.
</event>
<event>
 5   0  0.1758946E-04  0.1848948E+04  0.7818609E-02  0.8680694E-01
       -1   -1    0    0    0  501  0.00000000000E+00  0.00000000000E+00  0.83883717091E+03  0.83883717093E+03  0.50400001928E-02 0. -1.
        1   -1    0    0  501    0  0.00000000000E+00  0.00000000000E+00 -0.10188531217E+04  0.10188531218E+04  0.50400001928E-02 0.  1.
    10030    2    1    2    0    0  0.00000000000E+00  0.00000000000E+00 -0.18001595083E+03  0.18576902927E+04  0.18489476685E+04 0.  0.
        2    1    3    3  502    0  0.14921096418E+03 -0.21579458331E+03  0.80064887514E+03  0.84253773523E+03  0.25500000920E-02 0. -1.
       -2    1    3    3    0  502 -0.14921096418E+03  0.21579458331E+03 -0.98066482596E+03  0.10151525575E+04  0.25500000920E-02 0.  1.
</event>
<event>
 5   0  0.3516539E-04  0.1900629E+04  0.7818609E-02  0.8654543E-01
        2   -1    0    0  501    0  0.00000000000E+00  0.00000000000E+00  0.16830573381E+04  0.16830573381E+04  0.25500000920E-02 0.  1.
       -2   -1    0    0    0  501  0.00000000000E+00  0.00000000000E+00 -0.53658179173E+03  0.53658179173E+03  0.25500000920E-02 0. -1.
    10030    2    1    2    0    0  0.00000000000E+00  0.00000000000E+00  0.11464755464E+04  0.22196391298E+04  0.19006292874E+04 0.  0.
        4    1    3    3  502    0 -0.57208446040E+03 -0.39442218305E+03  0.13303097544E+04  0.15008581359E+04  0.12699999809E+01 0.  1.
       -4    1    3    3    0  502  0.57208446040E+03  0.39442218305E+03 -0.18383420809E+03  0.71878099396E+03  0.12699999809E+01 0. -1.
</event>
<event>
 5   0  0.3516539E-04  0.1835138E+04  0.7818609E-02  0.8687834E-01
       -2   -1    0    0    0  501  0.00000000000E+00  0.00000000000E+00  0.76241921417E+03  0.76241921418E+03  0.25500000920E-02 0.  1.
        2   -1    0    0  501    0  0.00000000000E+00  0.00000000000E+00 -0.11042909615E+04  0.11042909615E+04  0.25500000920E-02 0. -1.
    10030    2    1    2    0    0  0.00000000000E+00  0.00000000000E+00 -0.34187174732E+03  0.18667101757E+04  0.18351377573E+04 0.  0.
        4    1    3    3  502    0 -0.42889603456E+03 -0.77820541599E+03  0.61858536753E+02  0.89072081451E+03  0.12699999809E+01 0.  1.
       -4    1    3    3    0  502  0.42889603456E+03  0.77820541599E+03 -0.40373028407E+03  0.97598936116E+03  0.12699999809E+01 0. -1.
</event>
<event>
 5   0  0.3516539E-04  0.1914718E+04  0.7818609E-02  0.8647565E-01
        2   -1    0    0  501    0  0.00000000000E+00  0.00000000000E+00  0.14582425759E+04  0.14582425759E+04  0.25500000920E-02 0.  1.
       -2   -1    0    0    0  501  0.00000000000E+00  0.00000000000E+00 -0.62852111017E+03  0.62852111017E+03  0.25500000920E-02 0. -1.
    10030    2    1    2    0    0  0.00000000000E+00  0.00000000000E+00  0.82972146577E+03  0.20867636861E+04  0.19147179873E+04 0.  0.
        4    1    3    3  502    0 -0.10094157939E+03 -0.62260420615E+03  0.11997900043E+04  0.13554788332E+04  0.12699999809E+01 0.  1.
       -4    1    3    3    0  502  0.10094157939E+03  0.62260420615E+03 -0.37006853853E+03  0.73128485290E+03  0.12699999809E+01 0. -1.
</event>
<event>
 5   0  0.1782613E-04  0.1939282E+04  0.7818609E-02  0.8635547E-01
        1   -1    0    0  501    0  0.00000000000E+00  0.00000000000E+00  0.23900038496E+04  0.23900038496E+04  0.50400001928E-02 0. -1.
       -1   -1    0    0    0  501  0.00000000000E+00  0.00000000000E+00 -0.39339000605E+03  0.39339000608E+03  0.50400001928E-02 0.  1.
    10030    2    1    2    0    0  0.00000000000E+00  0.00000000000E+00  0.19966138436E+04  0.27833938557E+04  0.19392819588E+04 0.  0.
        3    1    3    3  502    0  0.75899344270E+03 -0.53210173676E+02  0.13558975671E+03  0.77284342591E+03  0.10100000352E+00 0.  1.
       -3    1    3    3    0  502 -0.75899344270E+03  0.53210173676E+02  0.18610240869E+04  0.20105504298E+04  0.10100000352E+00 0. -1.
</event>
<event>
 5   0  0.1813834E-04  0.1897101E+04  0.7818609E-02  0.8656301E-01
        1   -1    0    0  501    0  0.00000000000E+00  0.00000000000E+00  0.79654297263E+03  0.79654297265E+03  0.50400001928E-02 0.  1.
       -1   -1    0    0    0  501  0.00000000000E+00  0.00000000000E+00 -0.11295661837E+04  0.11295661837E+04  0.50400001928E-02 0. -1.
    10030    2    1    2    0    0  0.00000000000E+00  0.00000000000E+00 -0.33302321110E+03  0.19261091564E+04  0.18971009523E+04 0.  0.
        5    1    3    3  502    0 -0.76738329908E+03 -0.53013347331E+03 -0.34179940536E+03  0.99336174213E+03  0.46999998093E+01 0. -1.
       -5    1    3    3    0  502  0.76738329908E+03  0.53013347331E+03  0.87761942523E+01  0.93274741426E+03  0.46999998093E+01 0.  1.
</event>
<event>
 5   0  0.3535876E-04  0.1959403E+04  0.7818609E-02  0.8625840E-01
        2   -1    0    0  501    0  0.00000000000E+00  0.00000000000E+00  0.10212839418E+04  0.10212839418E+04  0.25500000920E-02 0. -1.
       -2   -1    0    0    0  501  0.00000000000E+00  0.00000000000E+00 -0.93981231453E+03  0.93981231453E+03  0.25500000920E-02 0.  1.
    10030    2    1    2    0    0  0.00000000000E+00  0.00000000000E+00  0.81471627301E+02  0.19610962564E+04  0.19594032001E+04 0.  0.
        2    1    3    3  502    0 -0.10160216751E+03  0.44807766849E+03  0.90676876527E+03  0.10165265324E+04  0.25500000920E-02 0. -1.
       -2    1    3    3    0  502  0.10160216751E+03 -0.44807766849E+03 -0.82529713797E+03  0.94456972394E+03  0.25500000920E-02 0.  1.
</event>
<event>
 5   0  0.1758946E-04  0.1876974E+04  0.7818609E-02  0.8666404E-01
        1   -1    0    0  501    0  0.00000000000E+00  0.00000000000E+00  0.17584930236E+04  0.17584930236E+04  0.50400001928E-02 0.  1.
       -1   -1    0    0    0  501  0.00000000000E+00  0.00000000000E+00 -0.50085929687E+03  0.50085929690E+03  0.50400001928E-02 0. -1.
    10030    2    1    2    0    0  0.00000000000E+00  0.00000000000E+00  0.12576337268E+04  0.22593523205E+04  0.18769737126E+04 0.  0.
        2    1    3    3  502    0  0.40390880853E+03 -0.82395393053E+03  0.86566303977E+03  0.12615129423E+04  0.25500000920E-02 0.  1.
       -2    1    3    3    0  502 -0.40390880853E+03  0.82395393053E+03  0.39197068699E+03  0.99783937821E+03  0.25500000920E-02 0. -1.
</event>
<event>
 5   0  0.1758946E-04  0.1890128E+04  0.7818609E-02  0.8659786E-01
       -1   -1    0    0    0  501  0.00000000000E+00  0.00000000000E+00  0.76160747242E+03  0.76160747244E+03  0.50400001928E-02 0. -1.
        1   -1    0    0  501    0  0.00000000000E+00  0.00000000000E+00 -0.11727116763E+04  0.11727116763E+04  0.50400001928E-02 0.  1.
    10030    2    1    2    0    0  0.00000000000E+00  0.00000000000E+00 -0.41110420384E+03  0.19343191487E+04  0.18901280122E+04 0.  0.
        2    1    3    3  502    0 -0.42537689184E+03  0.23849406431E+03 -0.10339976607E+04  0.11432305459E+04  0.25500000920E-02 0.  1.
       -2    1    3    3    0  502  0.42537689184E+03 -0.23849406431E+03  0.62289345686E+03  0.79108860277E+03  0.25500000920E-02 0. -1.
</event>
<event>
 5   0  0.1694830E-04  0.1907012E+04  0.7818609E-02  0.8651374E-01
       -1   -1    0    0    0  501  0.00000000000E+00  0.00000000000E+00  0.13202873915E+04  0.13202873915E+04  0.50400001928E-02 0. -1.
        1   -1    0    0  501    0  0.00000000000E+00  0.00000000000E+00 -0.68861806572E+03  0.68861806574E+03  0.50400001928E-02 0.  1.
    10030    2    1    2    0    0  0.00000000000E+00  0.00000000000E+00  0.63166932579E+03  0.20089054573E+04  0.19070120605E+04 0.  0.
        1    1    3    3  502    0 -0.82172910889E+03 -0.10643997989E+03  0.81285488010E+03  0.11607330674E+04  0.50400001928E-02 0.  1.
       -1    1    3    3    0  502  0.82172910889E+03  0.10643997989E+03 -0.18118555431E+03  0.84817238981E+03  0.50400001928E-02 0. -1.
</event>
<event>
 5   0  0.3535876E-04  0.1867967E+04  0.7818609E-02  0.8670968E-01
        2   -1    0    0  501    0  0.00000000000E+00  0.00000000000E+00  0.24452895101E+04  0.24452895101E+04  0.25500000920E-02 0.  1.
       -2   -1    0    0    0  501  0.00000000000E+00  0.00000000000E+00 -0.35673686503E+03  0.35673686504E+03  0.25500000920E-02 0. -1.
    10030    2    1    2    0    0  0.00000000000E+00  0.00000000000E+00  0.20885526451E+04  0.28020263751E+04  0.18679667170E+04 0.  0.
        2    1    3    3  502    0 -0.16617675657E+03  0.23006612421E+03 -0.29049014611E+03  0.40611532958E+03  0.25500000920E-02 0. -1.
       -2    1    3    3    0  502  0.16617675657E+03 -0.23006612421E+03  0.23790427912E+04  0.23959110456E+04  0.25500000920E-02 0.  1.
</event>
<event>
 5   0  0.3516539E-04  0.1892246E+04  0.7818609E-02  0.8658725E-01
        2   -1    0    0  501    0  0.00000000000E+00  0.00000000000E+00  0.14049467263E+04  0.14049467263E+04  0.25500000920E-02 0.  1.
       -2   -1    0    0    0  501  0.00000000000E+00  0.00000000000E+00 -0.63714097286E+03  0.63714097286E+03  0.25500000920E-02 0. -1.
    10030    2    1    2    0    0  0.00000000000E+00  0.00000000000E+00  0.76780575346E+03  0.20420876992E+04  0.18922464153E+04 0.  0.
        4    1    3    3  502    0 -0.46838416610E+03 -0.70304375189E+03  0.84365840207E+03  0.11939075996E+04  0.12699999809E+01 0.  1.
       -4    1    3    3    0  502  0.46838416610E+03  0.70304375189E+03 -0.75852648606E+02  0.84818009958E+03  0.12699999809E+01 0. -1.
</event>
<event>
 5   0  0.1694830E-04  0.1859256E+04  0.7818609E-02  0.8675407E-01
        1   -1    0    0  501    0  0.00000000000E+00  0.00000000000E+00  0.16028385007E+04  0.16028385007E+04  0.50400001928E-02 0.  1.
       -1   -1    0    0    0  501  0.00000000000E+00  0.00000000000E+00 -0.53917349247E+03  0.53917349250E+03  0.50400001928E-02 0. -1.
    10030    2    1    2    0    0  0.00000000000E+00  0.00000000000E+00  0.10636650082E+04  0.21420119932E+04  0.18592557998E+04 0.  0.
        1    1    3    3  502    0  0.79454689634E+01  0.44742113371E+03 -0.40692508254E+03  0.60484446282E+03  0.50400001928E-02 0. -1.
       -1    1    3    3    0  502 -0.79454689634E+01 -0.44742113371E+03  0.14705900907E+04  0.15371675303E+04  0.50400001928E-02 0.  1.
</event>
<event>
 5   0  0.3720978E-04  0.1954130E+04  0.7818609E-02  0.8628372E-01
       -2   -1    0    0    0  501  0.00000000000E+00  0.00000000000E+00  0.45837002594E+03  0.45837002595E+03  0.25500000920E-02 0. -1.
        2   -1    0    0  501    0  0.00000000000E+00  0.00000000000E+00 -0.20827197057E+04  0.20827197057E+04  0.25500000920E-02 0.  1.
    10030    2    1    2    0    0  0.00000000000E+00  0.00000000000E+00 -0.16243496798E+04  0.25410897317E+04  0.19541302777E+04 0.  0.
        1    1    3    3  502    0 -0.62406267662E+03 -0.34638252845E+02 -0.17887527730E+04  0.18948061948E+04  0.50400001928E-02 0.  1.
       -1    1    3    3    0  502  0.62406267662E+03  0.34638252845E+02  0.16440309325E+03  0.64628353685E+03  0.50400001928E-02 0. -1.
</event>
<event>
 5   0  0.1758946E-04  0.1868424E+04  0.7818609E-02  0.8670735E-01
        1   -1    0    0  501    0  0.00000000000E+00  0.00000000000E+00  0.12545544544E+04  0.12545544545E+04  0.50400001928E-02 0. -1.
       -1   -1    0    0    0  501  0.00000000000E+00  0.00000000000E+00 -0.69566719697E+03  0.69566719698E+03  0.50400001928E-02 0.  1.
    10030    2    1    2    0    0  0.00000000000E+00  0.00000000000E+00  0.55888725748E+03  0.19502216514E+04  0.18684243424E+04 0.  0.
        2    1    3    3  502    0  0.34044712337E+03  0.78255005417E+03 -0.11727957084E+03  0.86141936874E+03  0.25500000920E-02 0. -1.
       -2    1    3    3    0  502 -0.34044712337E+03 -0.78255005417E+03  0.67616682832E+03  0.10888022827E+04  0.25500000920E-02 0.  1.
</event>
<event>
 5   0  0.1694830E-04  0.1898798E+04  0.7818609E-02  0.8655455E-01
       -1   -1    0    0    0  501  0.00000000000E+00  0.00000000000E+00  0.40120037428E+03  0.40120037431E+03  0.50400001928E-02 0. -1.
        1   -1    0    0  501    0  0.00000000000E+00  0.00000000000E+00 -0.22466533547E+04  0.22466533547E+04  0.50400001928E-02 0.  1.
    10030    2    1    2    0    0  0.00000000000E+00  0.00000000000E+00 -0.18454529804E+04  0.26478537290E+04  0.18987976899E+04 0.  0.
        1    1    3    3  502    0  0.25619938979E+03 -0.16227838375E+03  0.33183824847E+03  0.44954312845E+03  0.50400001928E-02 0. -1.
       -1    1    3    3    0  502 -0.25619938979E+03  0.16227838375E+03 -0.21772912289E+04  0.21983106006E+04  0.50400001928E-02 0.  1.
</event>
<event>
 5   0  0.1694830E-04  0.1848832E+04  0.7818609E-02  0.8680753E-01
       -1   -1    0    0    0  501  0.00000000000E+00  0.00000000000E+00  0.98242793768E+03  0.98242793769E+03  0.50400001928E-02 0. -1.
        1   -1    0    0  501    0  0.00000000000E+00  0.00000000000E+00 -0.86983010004E+03  0.86983010005E+03  0.50400001928E-02 0.  1.
    10030    2    1    2    0    0  0.00000000000E+00  0.00000000000E+00  0.11259783764E+03  0.18522580377E+04  0.18488324871E+04 0.  0.
        1    1    3    3  502    0 -0.46287376366E+01 -0.92272945920E+03  0.11202851805E+03  0.92951679327E+03  0.50400001928E-02 0. -1.
       -1    1    3    3    0  502  0.46287376366E+01  0.92272945920E+03  0.56931958725E+00  0.92274124447E+03  0.50400001928E-02 0.  1.
</event>
<event>
 5   0  0.1694830E-04  0.1875564E+04  0.7818609E-02  0.8667116E-01
       -1   -1    0    0    0  501  0.00000000000E+00  0.00000000000E+00  0.11708511502E+04  0.11708511502E+04  0.50400001928E-02 0. -1.
        1   -1    0    0  501    0  0.00000000000E+00  0.00000000000E+00 -0.75110740627E+03  0.75110740628E+03  0.50400001928E-02 0.  1.
    10030    2    1    2    0    0  0.00000000000E+00  0.00000000000E+00  0.41974374390E+03  0.19219585565E+04  0.18755638838E+04 0.  0.
        1    1    3    3  502    0  0.54826551199E+03  0.61353117490E+03 -0.25116771770E+03  0.86029111157E+03  0.50400001928E-02 0.  1.
       -1    1    3    3    0  502 -0.54826551199E+03 -0.61353117490E+03  0.67091146160E+03  0.10616674449E+04  0.50400001928E-02 0. -1.
</event>
<event>
 5   0  0.1694830E-04  0.1890378E+04  0.7818609E-02  0.8659661E-01
        1   -1    0    0  501    0  0.00000000000E+00  0.00000000000E+00  0.16935538772E+04  0.16935538772E+04  0.50400001928E-02 0. -1.
       -1   -1    0    0    0  501  0.00000000000E+00  0.00000000000E+00 -0.52751943659E+03  0.52751943661E+03  0.50400001928E-02 0.  1.
    10030    2    1    2    0    0  0.00000000000E+00  0.00000000000E+00  0.11660344406E+04  0.22210733138E+04  0.18903783613E+04 0.  0.
        1    1    3    3  502    0  0.72324697930E+03  0.59753923986E+03  0.44780639598E+03  0.10395527425E+04  0.50400001928E-02 0.  1.
       -1    1    3    3    0  502 -0.72324697930E+03 -0.59753923986E+03  0.71822804466E+03  0.11815205713E+04  0.50400001928E-02 0. -1.
</event>
<event>
 5   0  0.1758946E-04  0.1899152E+04  0.7818609E-02  0.8655278E-01
        1   -1    0    0  501    0  0.00000000000E+00  0.00000000000E+00  0.53941530310E+03  0.53941530312E+03  0.50400001928E-02 0.  1.
       -1   -1    0    0    0  501  0.00000000000E+00  0.00000000000E+00 -0.16716156142E+04  0.16716156142E+04  0.50400001928E-02 0. -1.
    10030    2    1    2    0    0  0.00000000000E+00  0.00000000000E+00 -0.11322003111E+04  0.22110309173E+04  0.18991524881E+04 0.  0.
        2    1    3    3  502    0 -0.81457452668E+03 -0.31459120067E+03 -0.10004583130E+04  0.13279367904E+04  0.25500000920E-02 0. -1.
       -2    1    3    3    0  502  0.81457452668E+03  0.31459120067E+03 -0.13174199808E+03  0.88309412699E+03  0.25500000920E-02 0.  1.
</event>
<event>
 5   0  0.1694830E-04  0.1895867E+04  0.7818609E-02  0.8656916E-01
        1   -1    0    0  501    0  0.00000000000E+00  0.00000000000E+00  0.53571773806E+03  0.53571773809E+03  0.50400001928E-02 0.  1.
       -1   -1    0    0    0  501  0.00000000000E+00  0.00000000000E+00 -0.16773348753E+04  0.16773348753E+04  0.50400001928E-02 0. -1.
    10030    2    1    2    0    0  0.00000000000E+00  0.00000000000E+00 -0.11416171372E+04  0.22130526134E+04  0.18958671318E+04 0.  0.
        1    1    3    3  502    0  0.68274333946E+03 -0.54560007223E+03 -0.99932212591E+03  0.13275777257E+04  0.50400001928E-02 0. -1.
       -1    1    3    3    0  502 -0.68274333946E+03  0.54560007223E+03 -0.14229501128E+03  0.88547488765E+03  0.50400001928E-02 0.  1.
</event>
<event>
 5   0  0.3535876E-04  0.1884787E+04  0.7818609E-02  0.8662466E-01
       -2   -1    0    0    0  501  0.00000000000E+00  0.00000000000E+00  0.12655014292E+04  0.12655014292E+04  0.25500000920E-02 0. -1.
        2   -1    0    0  501    0  0.00000000000E+00  0.00000000000E+00 -0.70178171341E+03  0.70178171341E+03  0.25500000920E-02 0.  1.
    10030    2    1    2    0    0  0.00000000000E+00  0.00000000000E+00  0.56371971580E+03  0.19672831426E+04  0.18847872679E+04 0.  0.
        2    1    3    3  502    0 -0.75959704740E+02  0.92891480118E+03  0.42743921498E+03  0.10253569462E+04  0.25500000920E-02 0. -1.
       -2    1    3    3    0  502  0.75959704740E+02 -0.92891480118E+03  0.13628050082E+03  0.94192619643E+03  0.25500000920E-02 0.  1.
</event>
<event>
 5   0  0.1758946E-04  0.1896149E+04  0.7818609E-02  0.8656775E-01
       -1   -1    0    0    0  501  0.00000000000E+00  0.00000000000E+00  0.55611617111E+03  0.55611617114E+03  0.50400001928E-02 0.  1.
        1   -1    0    0  501    0  0.00000000000E+00  0.00000000000E+00 -0.16162910423E+04  0.16162910423E+04  0.50400001928E-02 0. -1.
    10030    2    1    2    0    0  0.00000000000E+00  0.00000000000E+00 -0.10601748712E+04  0.21724072134E+04  0.18961493463E+04 0.  0.
        2    1    3    3  502    0  0.69123091318E+03 -0.78739409691E+00  0.21333017491E+03  0.72340207275E+03  0.25500000920E-02 0.  1.
       -2    1    3    3    0  502 -0.69123091318E+03  0.78739409691E+00 -0.12735050461E+04  0.14490051407E+04  0.25500000920E-02 0. -1.
</event>
<event>
 5   0  0.1813834E-04  0.1857672E+04  0.7818609E-02  0.8676218E-01
       -1   -1    0    0    0  501  0.00000000000E+00  0.00000000000E+00  0.40487036222E+03  0.40487036225E+03  0.50400001928E-02 0.  1.
        1   -1    0    0  501    0  0.00000000000E+00  0.00000000000E+00 -0.21308944187E+04  0.21308944187E+04  0.50400001928E-02 0. -1.
    10030    2    1    2    0    0  0.00000000000E+00  0.00000000000E+00 -0.17260240565E+04  0.25357647809E+04  0.18576716558E+04 0.  0.
        5    1    3    3  502    0 -0.56970785097E+03 -0.98945267478E+02  0.12919802257E+03  0.59251280192E+03  0.46999998093E+01 0.  1.
       -5    1    3    3    0  502  0.56970785097E+03  0.98945267478E+02 -0.18552220790E+04  0.19432519790E+04  0.46999998093E+01 0. -1.
</event>
<event>
 5   0  0.3720978E-04  0.1785020E+04  0.7818609E-02  0.8714307E-01
        2   -1    0    0  501    0  0.00000000000E+00  0.00000000000E+00  0.13086728916E+04  0.13086728916E+04  0.25500000920E-02 0. -1.
       -2   -1    0    0    0  501  0.00000000000E+00  0.00000000000E+00 -0.60868828077E+03  0.60868828078E+03  0.25500000920E-02 0.  1.
    10030    2    1    2    0    0  0.00000000000E+00  0.00000000000E+00  0.69998461085E+03  0.19173611724E+04  0.17850197226E+04 0.  0.
        1    1    3    3  502    0  0.75045009430E+03  0.24543506092E+03  0.79696899298E+03  0.11218615284E+04  0.50400001928E-02 0. -1.
       -1    1    3    3    0  502 -0.75045009430E+03 -0.24543506092E+03 -0.96984382128E+02  0.79549964398E+03  0.50400001928E-02 0.  1.
</event>
<event>
 5   0  0.3720978E-04  0.1976384E+04  0.7818609E-02  0.8617742E-01
        2   -1    0    0  501    0  0.00000000000E+00  0.00000000000E+00  0.14562788643E+04  0.14562788643E+04  0.25500000920E-02 0.  1.
       -2   -1    0    0    0  501  0.00000000000E+00  0.00000000000E+00 -0.67056088979E+03  0.67056088980E+03  0.25500000920E-02 0. -1.
    10030    2    1    2    0    0  0.00000000000E+00  0.00000000000E+00  0.78571797453E+03  0.21268397541E+04  0.19763842248E+04 0.  0.
        1    1    3    3  502    0 -0.59406219808E+03 -0.52006906718E+03 -0.24663730131E+03  0.82717089422E+03  0.50400001928E-02 0. -1.
       -1    1    3    3    0  502  0.59406219808E+03  0.52006906718E+03  0.10323552758E+04  0.12996688599E+04  0.50400001928E-02 0.  1.
</event>
<event>
 5   0  0.3535876E-04  0.1890548E+04  0.7818609E-02  0.8659576E-01
       -2   -1    0    0    0  501  0.00000000000E+00  0.00000000000E+00  0.42602193208E+03  0.42602193209E+03  0.25500000920E-02 0. -1.
        2   -1    0    0  501    0  0.00000000000E+00  0.00000000000E+00 -0.20974096370E+04  0.20974096370E+04  0.25500000920E-02 0.  1.
    10030    2    1    2    0    0  0.00000000000E+00  0.00000000000E+00 -0.16713877049E+04  0.25234315691E+04  0.18905475460E+04 0.  0.
        2    1    3    3  502    0 -0.14156708045E+01 -0.53626685486E+03  0.20332952590E+03  0.57352161237E+03  0.25500000920E-02 0. -1.
       -2    1    3    3    0  502  0.14156708045E+01  0.53626685486E+03 -0.18747172308E+04  0.19499099567E+04  0.25500000920E-02 0.  1.
</event>
<event>
 5   0  0.3623359E-04  0.1938994E+04  0.7818609E-02  0.8635686E-01
        2   -1    0    0  501    0  0.00000000000E+00  0.00000000000E+00  0.81369688524E+03  0.81369688524E+03  0.25500000920E-02 0. -1.
       -2   -1    0    0    0  501  0.00000000000E+00  0.00000000000E+00 -0.11551284223E+04  0.11551284223E+04  0.25500000920E-02 0.  1.
    10030    2    1    2    0    0  0.00000000000E+00  0.00000000000E+00 -0.34143153710E+03  0.19688253076E+04  0.19389939652E+04 0.  0.
        5    1    3    3  502    0 -0.84636589988E+02  0.14168652498E+02  0.80982135926E+03  0.81436897473E+03  0.46999998093E+01 0. -1.
       -5    1    3    3    0  502  0.84636589988E+02 -0.14168652498E+02 -0.11512528964E+04  0.11544563329E+04  0.46999998093E+01 0.  1.
</event>
<event>
 5   0  0.1711979E-04  0.1898099E+04  0.7818609E-02  0.8655803E-01
        1   -1    0    0  501    0  0.00000000000E+00  0.00000000000E+00  0.88078083216E+03  0.88078083218E+03  0.50400001928E-02 0.  1.
       -1   -1    0    0    0  501  0.00000000000E+00  0.00000000000E+00 -0.10226096451E+04  0.10226096451E+04  0.50400001928E-02 0. -1.
    10030    2    1    2    0    0  0.00000000000E+00  0.00000000000E+00 -0.14182881290E+03  0.19033904773E+04  0.18980990219E+04 0.  0.
        4    1    3    3  502    0  0.44731893518E+03 -0.74037347824E+01  0.76840416685E+03  0.88915444192E+03  0.12699999809E+01 0.  1.
       -4    1    3    3    0  502 -0.44731893518E+03  0.74037347824E+01 -0.91023297975E+03  0.10142360353E+04  0.12699999809E+01 0. -1.
</event>
<event>
 5   0  0.3720978E-04  0.1887334E+04  0.7818609E-02  0.8661187E-01
       -2   -1    0    0    0  501  0.00000000000E+00  0.00000000000E+00  0.58845166429E+03  0.58845166430E+03  0.25500000920E-02 0.  1.
        2   -1    0    0  501    0  0.00000000000E+00  0.00000000000E+00 -0.15133054372E+04  0.15133054372E+04  0.25500000920E-02 0. -1.
    10030    2    1    2    0    0  0.00000000000E+00  0.00000000000E+00 -0.92485377287E+03  0.21017571015E+04  0.18873336781E+04 0.  0.
        1    1    3    3  502    0 -0.20829412714E+02  0.75177522563E+03  0.17233893470E+03  0.77155723232E+03  0.50400001928E-02 0.  1.
       -1    1    3    3    0  502  0.20829412714E+02 -0.75177522563E+03 -0.10971927076E+04  0.13301998691E+04  0.50400001928E-02 0. -1.
</event>
<event>
 5   0  0.1694830E-04  0.1908265E+04  0.7818609E-02  0.8650753E-01
       -1   -1    0    0    0  501  0.00000000000E+00  0.00000000000E+00  0.87525198215E+03  0.87525198217E+03  0.50400001928E-02 0. -1.
        1   -1    0    0  501    0  0.00000000000E+00  0.00000000000E+00 -0.10401214966E+04  0.10401214966E+04  0.50400001928E-02 0.  1.
    10030    2    1    2    0    0  0.00000000000E+00  0.00000000000E+00 -0.16486951444E+03  0.19153734788E+04  0.19082645536E+04 0.  0.
        1    1    3    3  502    0 -0.66370543329E+02 -0.26273733238E+03 -0.10006829642E+04  0.10367267479E+04  0.50400001928E-02 0.  1.
       -1    1    3    3    0  502  0.66370543329E+02  0.26273733238E+03  0.83581344978E+03  0.87864673090E+03  0.50400001928E-02 0. -1.
</event>
<event>
 5   0  0.1758946E-04  0.1890977E+04  0.7818609E-02  0.8659361E-01
        1   -1    0    0  501    0  0.00000000000E+00  0.00000000000E+00  0.12697515287E+04  0.12697515287E+04  0.50400001928E-02 0. -1.
       -1   -1    0    0    0  501  0.00000000000E+00  0.00000000000E+00 -0.70403434165E+03  0.70403434167E+03  0.50400001928E-02 0.  1.
    10030    2    1    2    0    0  0.00000000000E+00  0.00000000000E+00  0.56571718704E+03  0.19737858704E+04  0.18909771882E+04 0.  0.
        2    1    3    3  502    0  0.72580361713E+03 -0.13488989054E+03  0.89945804055E+03  0.11636197575E+04  0.25500000920E-02 0. -1.
       -2    1    3    3    0  502 -0.72580361713E+03  0.13488989054E+03 -0.33374085351E+03  0.81016611292E+03  0.25500000920E-02 0.  1.
</event>
<event>
 5   0  0.1694830E-04  0.1845316E+04  0.7818609E-02  0.8682565E-01
       -1   -1    0    0    0  501  0.00000000000E+00  0.00000000000E+00  0.59009937771E+03  0.59009937773E+03  0.50400001928E-02 0. -1.
        1   -1    0    0  501    0  0.00000000000E+00  0.00000000000E+00 -0.14426341470E+04  0.14426341470E+04  0.50400001928E-02 0.  1.
    10030    2    1    2    0    0  0.00000000000E+00  0.00000000000E+00 -0.85253476931E+03  0.20327335248E+04  0.18453157046E+04 0.  0.
        1    1    3    3  502    0 -0.29444061013E+03 -0.80281914305E+03 -0.44541389787E+02  0.85626969161E+03  0.50400001928E-02 0. -1.
       -1    1    3    3    0  502  0.29444061013E+03  0.80281914305E+03 -0.80799337952E+03  0.11764638331E+04  0.50400001928E-02 0.  1.
</event>
<event>
 5   0  0.1813834E-04  0.2038422E+04  0.7818609E-02  0.8588865E-01
        1   -1    0    0  501    0  0.00000000000E+00  0.00000000000E+00  0.13298236963E+04  0.13298236963E+04  0.50400001928E-02 0.  1.
       -1   -1    0    0    0  501  0.00000000000E+00  0.00000000000E+00 -0.78114945393E+03  0.78114945395E+03  0.50400001928E-02 0. -1.
    10030    2    1    2    0    0  0.00000000000E+00  0.00000000000E+00  0.54867424236E+03  0.21109731502E+04  0.20384219918E+04 0.  0.
        5    1    3    3  502    0 -0.22801526959E+03 -0.89664719715E+03 -0.16843355741E+03  0.94040369660E+03  0.46999998093E+01 0. -1.
       -5    1    3    3    0  502  0.22801526959E+03  0.89664719715E+03  0.71710779976E+03  0.11705694536E+04  0.46999998093E+01 0.  1.
</event>
<event>
 5   0  0.1758946E-04  0.1887024E+04  0.7818609E-02  0.8661342E-01
       -1   -1    0    0    0  501  0.00000000000E+00  0.00000000000E+00  0.61433815275E+03  0.61433815277E+03  0.50400001928E-02 0. -1.
        1   -1    0    0  501    0  0.00000000000E+00  0.00000000000E+00 -0.14490631745E+04  0.14490631745E+04  0.50400001928E-02 0.  1.
    10030    2    1    2    0    0  0.00000000000E+00  0.00000000000E+00 -0.83472502178E+03  0.20634013273E+04  0.18870238937E+04 0.  0.
        2    1    3    3  502    0 -0.51807809553E+03  0.12109946172E+03  0.43466270222E+03  0.68702376772E+03  0.25500000920E-02 0. -1.
       -2    1    3    3    0  502  0.51807809553E+03 -0.12109946172E+03 -0.12693877240E+04  0.13763775596E+04  0.25500000920E-02 0.  1.
</event>
<event>
 5   0  0.3720978E-04  0.1915464E+04  0.7818609E-02  0.8647197E-01
        2   -1    0    0  501    0  0.00000000000E+00  0.00000000000E+00  0.12741299641E+04  0.12741299641E+04  0.25500000920E-02 0. -1.
       -2   -1    0    0    0  501  0.00000000000E+00  0.00000000000E+00 -0.71990329807E+03  0.71990329808E+03  0.25500000920E-02 0.  1.
    10030    2    1    2    0    0  0.00000000000E+00  0.00000000000E+00  0.55422666600E+03  0.19940332622E+04  0.19154637698E+04 0.  0.
        1    1    3    3  502    0 -0.49082042230E+03  0.52033514749E+03 -0.38587491351E+03  0.81274399509E+03  0.50400001928E-02 0.  1.
       -1    1    3    3    0  502  0.49082042230E+03 -0.52033514749E+03  0.94010157951E+03  0.11812892671E+04  0.50400001928E-02 0. -1.
</event>
<event>
 5   0  0.3459485E-04  0.1774222E+04  0.7818609E-02  0.8720129E-01
        2   -1    0    0  501    0  0.00000000000E+00  0.00000000000E+00  0.12140293584E+04  0.12140293584E+04  0.25500000920E-02 0. -1.
       -2   -1    0    0    0  501  0.00000000000E+00  0.00000000000E+00 -0.64822640262E+03  0.64822640263E+03  0.25500000920E-02 0.  1.
    10030    2    1    2    0    0  0.00000000000E+00  0.00000000000E+00  0.56580295574E+03  0.18622557610E+04  0.17742219519E+04 0.  0.
        3    1    3    3  502    0  0.71929032337E+03 -0.32601155894E+03  0.70706125323E+03  0.10599989301E+04  0.10100000352E+00 0. -1.
       -3    1    3    3    0  502 -0.71929032337E+03  0.32601155894E+03 -0.14125829749E+03  0.80225683086E+03  0.10100000352E+00 0.  1.
</event>
<event>
 5   0  0.1694830E-04  0.1870174E+04  0.7818609E-02  0.8669847E-01
       -1   -1    0    0    0  501  0.00000000000E+00  0.00000000000E+00  0.62376013219E+03  0.62376013221E+03  0.50400001928E-02 0.  1.
        1   -1    0    0  501    0  0.00000000000E+00  0.00000000000E+00 -0.14018005050E+04  0.14018005050E+04  0.50400001928E-02 0. -1.
    10030    2    1    2    0    0  0.00000000000E+00  0.00000000000E+00 -0.77804037281E+03  0.20255606372E+04  0.18701735410E+04 0.  0.
        1    1    3    3  502    0 -0.23476413734E+03 -0.46619158167E+03  0.45128954510E+03  0.69000800325E+03  0.50400001928E-02 0.  1.
       -1    1    3    3    0  502  0.23476413734E+03  0.46619158167E+03 -0.12293299179E+04  0.13355526340E+04  0.50400001928E-02 0. -1.
</event>
<event>
 5   0  0.1758946E-04  0.1885824E+04  0.7818609E-02  0.8661945E-01
       -1   -1    0    0    0  501  0.00000000000E+00  0.00000000000E+00  0.56178876003E+03  0.56178876005E+03  0.50400001928E-02 0.  1.
        1   -1    0    0  501    0  0.00000000000E+00  0.00000000000E+00 -0.15825924820E+04  0.15825924821E+04  0.50400001928E-02 0. -1.
    10030    2    1    2    0    0  0.00000000000E+00  0.00000000000E+00 -0.10208037220E+04  0.21443812421E+04  0.18858236059E+04 0.  0.
        2    1    3    3  502    0  0.55928441233E+03  0.11281898415E+03 -0.13640310850E+04  0.14785492815E+04  0.25500000920E-02 0. -1.
       -2    1    3    3    0  502 -0.55928441233E+03 -0.11281898415E+03  0.34322736296E+03  0.66583196060E+03  0.25500000920E-02 0.  1.
</event>
<event>
 5   0  0.1694830E-04  0.1699247E+04  0.7818609E-02  0.8761794E-01
        1   -1    0    0  501    0  0.00000000000E+00  0.00000000000E+00  0.83625437485E+03  0.83625437487E+03  0.50400001928E-02 0.  1.
       -1   -1    0    0    0  501  0.00000000000E+00  0.00000000000E+00 -0.86320658027E+03  0.86320658029E+03  0.50400001928E-02 0. -1.
    10030    2    1    2    0    0  0.00000000000E+00  0.00000000000E+00 -0.26952205418E+02  0.16994609552E+04  0.16992472206E+04 0.  0.
        1    1    3    3  502    0  0.78274966685E+03  0.28374245141E+03 -0.18277072194E+03  0.85241536618E+03  0.50400001928E-02 0.  1.
       -1    1    3    3    0  502 -0.78274966685E+03 -0.28374245141E+03  0.15581851652E+03  0.84704558897E+03  0.50400001928E-02 0. -1.
</event>
<event>
 5   0  0.1758946E-04  0.1926843E+04  0.7818609E-02  0.8641609E-01
       -1   -1    0    0    0  501  0.00000000000E+00  0.00000000000E+00  0.79848567031E+03  0.79848567032E+03  0.50400001928E-02 0. -1.
        1   -1    0    0  501    0  0.00000000000E+00  0.00000000000E+00 -0.11624262252E+04  0.11624262252E+04  0.50400001928E-02 0.  1.
    10030    2    1    2    0    0  0.00000000000E+00  0.00000000000E+00 -0.36394055490E+03  0.19609118955E+04  0.19268426855E+04 0.  0.
        2    1    3    3  502    0  0.86170822483E+03 -0.23168210305E+03 -0.55166048642E+03  0.10490695658E+04  0.25500000920E-02 0.  1.
       -2    1    3    3    0  502 -0.86170822483E+03  0.23168210305E+03  0.18771993152E+03  0.91184232974E+03  0.25500000920E-02 0. -1.
</event>
<event>
 5   0  0.1782613E-04  0.1995491E+04  0.7818609E-02  0.8608732E-01
       -1   -1    0    0    0  501  0.00000000000E+00  0.00000000000E+00  0.12141697376E+04  0.12141697377E+04  0.50400001928E-02 0. -1.
        1   -1    0    0  501    0  0.00000000000E+00  0.00000000000E+00 -0.81989884673E+03  0.81989884674E+03  0.50400001928E-02 0.  1.
    10030    2    1    2    0    0  0.00000000000E+00  0.00000000000E+00  0.39427089092E+03  0.20340685844E+04  0.19954912855E+04 0.  0.
        3    1    3    3  502    0  0.73659602956E+03  0.10477752597E+02  0.88305808060E+03  0.11499891643E+04  0.10100000352E+00 0. -1.
       -3    1    3    3    0  502 -0.73659602956E+03 -0.10477752597E+02 -0.48878718969E+03  0.88407942011E+03  0.10100000352E+00 0.  1.
</event>
<event>
 5   0  0.3720978E-04  0.1899671E+04  0.7818609E-02  0.8655020E-01
       -2   -1    0    0    0  501  0.00000000000E+00  0.00000000000E+00  0.16663306903E+04  0.16663306903E+04  0.25500000920E-02 0. -1.
        2   -1    0    0  501    0  0.00000000000E+00  0.00000000000E+00 -0.54142181095E+03  0.54142181096E+03  0.25500000920E-02 0.  1.
    10030    2    1    2    0    0  0.00000000000E+00  0.00000000000E+00  0.11249088794E+04  0.22077525013E+04  0.18996713189E+04 0.  0.
        1    1    3    3  502    0  0.13052352248E+03  0.15377680050E+03  0.16411542201E+04  0.16535026062E+04  0.50400001928E-02 0. -1.
       -1    1    3    3    0  502 -0.13052352248E+03 -0.15377680050E+03 -0.51624534079E+03  0.55424989509E+03  0.50400001928E-02 0.  1.
</event>
<event>
 5   0  0.1813834E-04  0.1864432E+04  0.7818609E-02  0.8672766E-01
       -1   -1    0    0    0  501  0.00000000000E+00  0.00000000000E+00  0.71742416613E+03  0.71742416615E+03  0.50400001928E-02 0. -1.
        1   -1    0    0  501    0  0.00000000000E+00  0.00000000000E+00 -0.12113146927E+04  0.12113146927E+04  0.50400001928E-02 0.  1.
    10030    2    1    2    0    0  0.00000000000E+00  0.00000000000E+00 -0.49389052660E+03  0.19287388589E+04  0.18644317455E+04 0.  0.
        5    1    3    3  502    0  0.16115425310E+03  0.76732309900E+03 -0.76856797539E+03  0.10979409157E+04  0.46999998093E+01 0.  1.
       -5    1    3    3    0  502 -0.16115425310E+03 -0.76732309900E+03  0.27467744879E+03  0.83079794320E+03  0.46999998093E+01 0. -1.
</event>
<event>
 5   0  0.3535876E-04  0.1895267E+04  0.7818609E-02  0.8657216E-01
        2   -1    0    0  501    0  0.00000000000E+00  0.00000000000E+00  0.15824112270E+04  0.15824112270E+04  0.25500000920E-02 0. -1.
       -2   -1    0    0    0  501  0.00000000000E+00  0.00000000000E+00 -0.56749413377E+03  0.56749413378E+03  0.25500000920E-02 0.  1.
    10030    2    1    2    0    0  0.00000000000E+00  0.00000000000E+00  0.10149170932E+04  0.21499053607E+04  0.18952668293E+04 0.  0.
        2    1    3    3  502    0 -0.75344854641E+03 -0.15832863710E+02 -0.14425153535E+03  0.76729648580E+03  0.25500000920E-02 0.  1.
       -2    1    3    3    0  502  0.75344854641E+03  0.15832863710E+02  0.11591686285E+04  0.13826088749E+04  0.25500000920E-02 0. -1.
</event>
<event>
 5   0  0.1758946E-04  0.1298783E+04  0.7818609E-02  0.9030531E-01
       -1   -1    0    0    0  501  0.00000000000E+00  0.00000000000E+00  0.82211045681E+03  0.82211045682E+03  0.50400001928E-02 0. -1.
        1   -1    0    0  501    0  0.00000000000E+00  0.00000000000E+00 -0.51295944384E+03  0.51295944387E+03  0.50400001928E-02 0.  1.
    10030    2    1    2    0    0  0.00000000000E+00  0.00000000000E+00  0.30915101296E+03  0.13350699007E+04  0.12987830038E+04 0.  0.
        2    1    3    3  502    0 -0.62087847598E+03 -0.33107734663E+02 -0.38072244676E+02  0.62292511577E+03  0.25500000920E-02 0. -1.
       -2    1    3    3    0  502  0.62087847598E+03  0.33107734663E+02  0.34722325764E+03  0.71214478492E+03  0.25500000920E-02 0.  1.
</event>
<event>
 5   0  0.3459485E-04  0.1908896E+04  0.7818609E-02  0.8650441E-01
       -2   -1    0    0    0  501  0.00000000000E+00  0.00000000000E+00  0.40971372817E+03  0.40971372818E+03  0.25500000920E-02 0.  1.
        2   -1    0    0  501    0  0.00000000000E+00  0.00000000000E+00 -0.22234324859E+04  0.22234324859E+04  0.25500000920E-02 0. -1.
    10030    2    1    2    0    0  0.00000000000E+00  0.00000000000E+00 -0.18137187577E+04  0.26331462141E+04  0.19088958203E+04 0.  0.
        3    1    3    3  502    0  0.79678894531E+02  0.38984509985E+03  0.28984595207E+03  0.49227900041E+03  0.10100000352E+00 0.  1.
       -3    1    3    3    0  502 -0.79678894531E+02 -0.38984509985E+03 -0.21035647098E+04  0.21408672137E+04  0.10100000352E+00 0. -1.
</event>
<event>
 5   0  0.1694830E-04  0.1907383E+04  0.7818609E-02  0.8651190E-01
        1   -1    0    0  501    0  0.00000000000E+00  0.00000000000E+00  0.11739397855E+04  0.11739397855E+04  0.50400001928E-02 0. -1.
       -1   -1    0    0    0  501  0.00000000000E+00  0.00000000000E+00 -0.77476523733E+03  0.77476523735E+03  0.50400001928E-02 0.  1.
    10030    2    1    2    0    0  0.00000000000E+00  0.00000000000E+00  0.39917454817E+03  0.19487050229E+04  0.19073832720E+04 0.  0.
        1    1    3    3  502    0 -0.56027981268E+03 -0.21429290597E+03 -0.55788748670E+03  0.81919067737E+03  0.50400001928E-02 0.  1.
       -1    1    3    3    0  502  0.56027981268E+03  0.21429290597E+03  0.95706203488E+03  0.11295143455E+04  0.50400001928E-02 0. -1.
</event>
<event>
 5   0  0.3459485E-04  0.1903240E+04  0.7818609E-02  0.8653245E-01
       -2   -1    0    0    0  501  0.00000000000E+00  0.00000000000E+00  0.81510103419E+03  0.81510103419E+03  0.25500000920E-02 0. -1.
        2   -1    0    0  501    0  0.00000000000E+00  0.00000000000E+00 -0.11110044695E+04  0.11110044695E+04  0.25500000920E-02 0.  1.
    10030    2    1    2    0    0  0.00000000000E+00  0.00000000000E+00 -0.29590343526E+03  0.19261055036E+04  0.19032402812E+04 0.  0.
        3    1    3    3  502    0 -0.70173185488E+03 -0.64091790831E+03 -0.19729733495E+03  0.97063361261E+03  0.10100000352E+00 0.  1.
       -3    1    3    3    0  502  0.70173185488E+03  0.64091790831E+03 -0.98606100319E+02  0.95547189104E+03  0.10100000352E+00 0. -1.
</event>
<event>
 5   0  0.1782613E-04  0.1880195E+04  0.7818609E-02  0.8664778E-01
       -1   -1    0    0    0  501  0.00000000000E+00  0.00000000000E+00  0.46575199739E+03  0.46575199742E+03  0.50400001928E-02 0. -1.
        1   -1    0    0  501    0  0.00000000000E+00  0.00000000000E+00 -0.18975413174E+04  0.18975413174E+04  0.50400001928E-02 0.  1.
    10030    2    1    2    0    0  0.00000000000E+00  0.00000000000E+00 -0.14317893201E+04  0.23632933149E+04  0.18801953715E+04 0.  0.
        3    1    3    3  502    0  0.13694031507E+03  0.53515533148E+03 -0.16720287150E+04  0.17609156461E+04  0.10100000352E+00 0.  1.
       -3    1    3    3    0  502 -0.13694031507E+03 -0.53515533148E+03  0.24023939497E+03  0.60237766874E+03  0.10100000352E+00 0. -1.
</event>
<event>
 5   0  0.1813834E-04  0.1170784E+04  0.7818609E-02  0.9138821E-01
        1   -1    0    0  501    0  0.00000000000E+00  0.00000000000E+00  0.10951541788E+04  0.10951541788E+04  0.50400001928E-02 0.  1.
       -1   -1    0    0    0  501  0.00000000000E+00  0.00000000000E+00 -0.31290899699E+03  0.31290899703E+03  0.50400001928E-02 0. -1.
    10030    2    1    2    0    0  0.00000000000E+00  0.00000000000E+00  0.78224518182E+03  0.14080631759E+04  0.11707836618E+04 0.  0.
        5    1    3    3  502    0 -0.11170571237E+03 -0.62088222339E+02 -0.29590300604E+03  0.32235662319E+03  0.46999998093E+01 0. -1.
       -5    1    3    3    0  502  0.11170571237E+03  0.62088222339E+02  0.10781481879E+04  0.10857065527E+04  0.46999998093E+01 0.  1.
</event>
<event>
 5   0  0.1782613E-04  0.1892040E+04  0.7818609E-02  0.8658829E-01
       -1   -1    0    0    0  501  0.00000000000E+00  0.00000000000E+00  0.65845024935E+03  0.65845024937E+03  0.50400001928E-02 0.  1.
        1   -1    0    0  501    0  0.00000000000E+00  0.00000000000E+00 -0.13591828363E+04  0.13591828363E+04  0.50400001928E-02 0. -1.
    10030    2    1    2    0    0  0.00000000000E+00  0.00000000000E+00 -0.70073258693E+03  0.20176330857E+04  0.18920404620E+04 0.  0.
        3    1    3    3  502    0 -0.51151432915E+03 -0.63951969519E+03  0.15469911599E+03  0.83340516926E+03  0.10100000352E+00 0.  1.
       -3    1    3    3    0  502  0.51151432915E+03  0.63951969519E+03 -0.85543170292E+03  0.11842279164E+04  0.10100000352E+00 0. -1.
</event>
<event>
 5   0  0.3623359E-04  0.1910939E+04  0.7818609E-02  0.8649430E-01
        2   -1    0    0  501    0  0.00000000000E+00  0.00000000000E+00  0.96805165647E+03  0.96805165647E+03  0.25500000920E-02 0.  1.
       -2   -1    0    0    0  501  0.00000000000E+00  0.00000000000E+00 -0.94305097369E+03  0.94305097369E+03  0.25500000920E-02 0. -1.
    10030    2    1    2    0    0  0.00000000000E+00  0.00000000000E+00  0.25000682776E+02  0.19111026302E+04  0.19109390961E+04 0.  0.
        5    1    3    3  502    0  0.71195580404E+03 -0.55759491604E+03 -0.29591997034E+03  0.95151661896E+03  0.46999998093E+01 0.  1.
       -5    1    3    3    0  502 -0.71195580404E+03  0.55759491604E+03  0.32092065312E+03  0.95958601121E+03  0.46999998093E+01 0. -1.
</event>
<event>
 5   0  0.3720978E-04  0.1803131E+04  0.7818609E-02  0.8704636E-01
        2   -1    0    0  501    0  0.00000000000E+00  0.00000000000E+00  0.16026649192E+04  0.16026649192E+04  0.25500000920E-02 0.  1.
       -2   -1    0    0    0  501  0.00000000000E+00  0.00000000000E+00 -0.50716772771E+03  0.50716772771E+03  0.25500000920E-02 0. -1.
    10030    2    1    2    0    0  0.00000000000E+00  0.00000000000E+00  0.10954971915E+04  0.21098326469E+04  0.18031305281E+04 0.  0.
        1    1    3    3  502    0  0.61949295494E+03 -0.64389554819E+03  0.40710868475E+03  0.98189127678E+03  0.50400001928E-02 0. -1.
       -1    1    3    3    0  502 -0.61949295494E+03  0.64389554819E+03  0.68838850673E+03  0.11279413701E+04  0.50400001928E-02 0.  1.
</event>
<event>
 5   0  0.3720978E-04  0.1804322E+04  0.7818609E-02  0.8704004E-01
        2   -1    0    0  501    0  0.00000000000E+00  0.00000000000E+00  0.67263580006E+03  0.67263580007E+03  0.25500000920E-02 0. -1.
       -2   -1    0    0    0  501  0.00000000000E+00  0.00000000000E+00 -0.12100079000E+04  0.12100079000E+04  0.25500000920E-02 0.  1.
    10030    2    1    2    0    0  0.00000000000E+00  0.00000000000E+00 -0.53737209994E+03  0.18826437001E+04  0.18043221796E+04 0.  0.
        1    1    3    3  502    0 -0.17206221482E+02 -0.90097703418E+03 -0.22394147462E+03  0.92855018941E+03  0.50400001928E-02 0. -1.
       -1    1    3    3    0  502  0.17206221482E+02  0.90097703418E+03 -0.31343062532E+03  0.95409351066E+03  0.50400001928E-02 0.  1.
</event>
<event>
 5   0  0.1758946E-04  0.1859914E+04  0.7818609E-02  0.8675071E-01
        1   -1    0    0  501    0  0.00000000000E+00  0.00000000000E+00  0.13167029384E+04  0.13167029384E+04  0.50400001928E-02 0.  1.
       -1   -1    0    0    0  501  0.00000000000E+00  0.00000000000E+00 -0.65680722156E+03  0.65680722158E+03  0.50400001928E-02 0. -1.
    10030    2    1    2    0    0  0.00000000000E+00  0.00000000000E+00  0.65989571686E+03  0.19735101600E+04  0.18599139750E+04 0.  0.
        2    1    3    3  502    0 -0.13290625199E+03 -0.44156857349E+03 -0.52694782868E+03  0.70022917039E+03  0.25500000920E-02 0. -1.
       -2    1    3    3    0  502  0.13290625199E+03  0.44156857349E+03  0.11868435455E+04  0.12732809896E+04  0.25500000920E-02 0.  1.
</event>
<event>
 5   0  0.1287000E-04  0.1907149E+04  0.7818609E-02  0.8651306E-01
       -4   -1    0    0    0  501  0.00000000000E+00  0.00000000000E+00  0.76914188839E+03  0.76914293690E+03  0.12699999809E+01 0. -1.
        4   -1    0    0  501    0  0.00000000000E+00  0.00000000000E+00 -0.11822303467E+04  0.11822310288E+04  0.12699999809E+01 0.  1.
    10030    2    1    2    0    0  0.00000000000E+00  0.00000000000E+00 -0.41308845831E+03  0.19513739657E+04  0.19071492547E+04 0.  0.
        1    1    3    3  502    0  0.37915060654E+03 -0.68791428946E+03  0.34666262667E+03  0.85857802723E+03  0.50400001928E-02 0. -1.
       -1    1    3    3    0  502 -0.37915060654E+03  0.68791428946E+03 -0.75975108497E+03  0.10927959385E+04  0.50400001928E-02 0.  1.
</event>
<event>
 5   0  0.3535876E-04  0.1873406E+04  0.7818609E-02  0.8668209E-01
       -2   -1    0    0    0  501  0.00000000000E+00  0.00000000000E+00  0.54152058324E+03  0.54152058325E+03  0.25500000920E-02 0. -1.
        2   -1    0    0  501    0  0.00000000000E+00  0.00000000000E+00 -0.16202746954E+04  0.16202746954E+04  0.25500000920E-02 0.  1.
    10030    2    1    2    0    0  0.00000000000E+00  0.00000000000E+00 -0.10787541121E+04  0.21617952786E+04  0.18734055600E+04 0.  0.
        2    1    3    3  502    0 -0.68012105409E+03  0.15398480052E+03 -0.12610604745E+04  0.14410237637E+04  0.25500000920E-02 0. -1.
       -2    1    3    3    0  502  0.68012105409E+03 -0.15398480052E+03  0.18230636240E+03  0.72077151496E+03  0.25500000920E-02 0.  1.
</event>
<event>
 5   0  0.1813834E-04  0.1900870E+04  0.7818609E-02  0.8654423E-01
        1   -1    0    0  501    0  0.00000000000E+00  0.00000000000E+00  0.13130272607E+04  0.13130272607E+04  0.50400001928E-02 0. -1.
       -1   -1    0    0    0  501  0.00000000000E+00  0.00000000000E+00 -0.68797248867E+03  0.68797248869E+03  0.50400001928E-02 0.  1.
    10030    2    1    2    0    0  0.00000000000E+00  0.00000000000E+00  0.62505477207E+03  0.20009997494E+04  0.19008699401E+04 0.  0.
        5    1    3    3  502    0 -0.61181721746E+03  0.72719727779E+03  0.32618598646E+03  0.10047664287E+04  0.46999998093E+01 0.  1.
       -5    1    3    3    0  502  0.61181721746E+03 -0.72719727779E+03  0.29886878560E+03  0.99623332077E+03  0.46999998093E+01 0. -1.
</event>
<event>
 5   0  0.1711979E-04  0.1760837E+04  0.7818609E-02  0.8727408E-01
       -1   -1    0    0    0  501  0.00000000000E+00  0.00000000000E+00  0.70584197752E+03  0.70584197754E+03  0.50400001928E-02 0. -1.
        1   -1    0    0  501    0  0.00000000000E+00  0.00000000000E+00 -0.10981733442E+04  0.10981733442E+04  0.50400001928E-02 0.  1.
    10030    2    1    2    0    0  0.00000000000E+00  0.00000000000E+00 -0.39233136671E+03  0.18040153218E+04  0.17608371248E+04 0.  0.
        4    1    3    3  502    0 -0.49652152016E+03  0.57462544935E+03  0.26018610340E+03  0.80276176312E+03  0.12699999809E+01 0.  1.
       -4    1    3    3    0  502  0.49652152016E+03 -0.57462544935E+03 -0.65251747011E+03  0.10012535587E+04  0.12699999809E+01 0. -1.
</event>
<event>
 5   0  0.1782613E-04  0.1844397E+04  0.7818609E-02  0.8683039E-01
       -1   -1    0    0    0  501  0.00000000000E+00  0.00000000000E+00  0.94246543112E+03  0.94246543113E+03  0.50400001928E-02 0.  1.
        1   -1    0    0  501    0  0.00000000000E+00  0.00000000000E+00 -0.90236765119E+03  0.90236765120E+03  0.50400001928E-02 0. -1.
    10030    2    1    2    0    0  0.00000000000E+00  0.00000000000E+00  0.40097779930E+02  0.18448330823E+04  0.18443972646E+04 0.  0.
        3    1    3    3  502    0  0.91542470990E+03 -0.11075533505E+03  0.33511769373E+02  0.92270915928E+03  0.10100000352E+00 0. -1.
       -3    1    3    3    0  502 -0.91542470990E+03  0.11075533505E+03  0.65860105562E+01  0.92212392306E+03  0.10100000352E+00 0.  1.
</event>
<event>
 5   0  0.1813834E-04  0.1892749E+04  0.7818609E-02  0.8658474E-01
       -1   -1    0    0    0  501  0.00000000000E+00  0.00000000000E+00  0.16833204303E+04  0.16833204303E+04  0.50400001928E-02 0. -1.
        1   -1    0    0  501    0  0.00000000000E+00  0.00000000000E+00 -0.53205827023E+03  0.53205827025E+03  0.50400001928E-02 0.  1.
    10030    2    1    2    0    0  0.00000000000E+00  0.00000000000E+00  0.11512621601E+04  0.22153787006E+04  0.18927488544E+04 0.  0.
        5    1    3    3  502    0  0.12718142937E+03  0.20352928673E+03  0.16470956560E+04  0.16644955621E+04  0.46999998093E+01 0. -1.
       -5    1    3    3    0  502 -0.12718142937E+03 -0.20352928673E+03 -0.49583349589E+03  0.55088313841E+03  0.46999998093E+01 0.  1.
</event>
<event>
 5   0  0.3535876E-04  0.1652578E+04  0.7818609E-02  0.8788883E-01
       -2   -1    0    0    0  501  0.00000000000E+00  0.00000000000E+00  0.66052358315E+03  0.66052358315E+03  0.25500000920E-02 0. -1.
        2   -1    0    0  501    0  0.00000000000E+00  0.00000000000E+00 -0.10336550813E+04  0.10336550813E+04  0.25500000920E-02 0.  1.
    10030    2    1    2    0    0  0.00000000000E+00  0.00000000000E+00 -0.37313149819E+03  0.16941786645E+04  0.16525780563E+04 0.  0.
        2    1    3    3  502    0  0.30077460321E+03 -0.66630514793E+03 -0.58139139151E+03  0.93404703427E+03  0.25500000920E-02 0.  1.
       -2    1    3    3    0  502 -0.30077460321E+03  0.66630514793E+03  0.20825989332E+03  0.76013163023E+03  0.25500000920E-02 0. -1.
</event>
<event>
 5   0  0.3535876E-04  0.1254053E+04  0.7818609E-02  0.9066817E-01
        2   -1    0    0  501    0  0.00000000000E+00  0.00000000000E+00  0.78197657872E+03  0.78197657873E+03  0.25500000920E-02 0. -1.
       -2   -1    0    0    0  501  0.00000000000E+00  0.00000000000E+00 -0.50277984939E+03  0.50277984940E+03  0.25500000920E-02 0.  1.
    10030    2    1    2    0    0  0.00000000000E+00  0.00000000000E+00  0.27919672933E+03  0.12847564281E+04  0.12540527365E+04 0.  0.
        2    1    3    3  502    0  0.52142104138E+03  0.29245389652E+03  0.33331215097E+03  0.68447510837E+03  0.25500000920E-02 0. -1.
       -2    1    3    3    0  502 -0.52142104138E+03 -0.29245389652E+03 -0.54115421640E+02  0.60028131976E+03  0.25500000920E-02 0.  1.
</event>
<event>
 5   0  0.1711979E-04  0.1895107E+04  0.7818609E-02  0.8657296E-01
        1   -1    0    0  501    0  0.00000000000E+00  0.00000000000E+00  0.16595407277E+04  0.16595407277E+04  0.50400001928E-02 0. -1.
       -1   -1    0    0    0  501  0.00000000000E+00  0.00000000000E+00 -0.54102780695E+03  0.54102780697E+03  0.50400001928E-02 0.  1.
    10030    2    1    2    0    0  0.00000000000E+00  0.00000000000E+00  0.11185129207E+04  0.22005685347E+04  0.18951070476E+04 0.  0.
        4    1    3    3  502    0  0.61407653641E+02 -0.47257248576E+03  0.15102659793E+04  0.15836668196E+04  0.12699999809E+01 0. -1.
       -4    1    3    3    0  502 -0.61407653641E+02  0.47257248576E+03 -0.39175305861E+03  0.61690171507E+03  0.12699999809E+01 0.  1.
</event>
<event>
 5   0  0.1694830E-04  0.1900017E+04  0.7818609E-02  0.8654848E-01
       -1   -1    0    0    0  501  0.00000000000E+00  0.00000000000E+00  0.81242742093E+03  0.81242742094E+03  0.50400001928E-02 0.  1.
        1   -1    0    0  501    0  0.00000000000E+00  0.00000000000E+00 -0.11108886504E+04  0.11108886504E+04  0.50400001928E-02 0. -1.
    10030    2    1    2    0    0  0.00000000000E+00  0.00000000000E+00 -0.29846122943E+03  0.19233160713E+04  0.19000172643E+04 0.  0.
        1    1    3    3  502    0  0.76905328279E+03  0.11230646026E+03  0.40378411134E+03  0.87584091100E+03  0.50400001928E-02 0.  1.
       -1    1    3    3    0  502 -0.76905328279E+03 -0.11230646026E+03 -0.70224534077E+03  0.10474751603E+04  0.50400001928E-02 0. -1.
</event>
<event>
 5   0  0.1694830E-04  0.1827544E+04  0.7818609E-02  0.8691788E-01
       -1   -1    0    0    0  501  0.00000000000E+00  0.00000000000E+00  0.31759978688E+03  0.31759978692E+03  0.50400001928E-02 0. -1.
        1   -1    0    0  501    0  0.00000000000E+00  0.00000000000E+00 -0.26290285183E+04  0.26290285183E+04  0.50400001928E-02 0.  1.
    10030    2    1    2    0    0  0.00000000000E+00  0.00000000000E+00 -0.23114287314E+04  0.29466283052E+04  0.18275435942E+04 0.  0.
        1    1    3    3  502    0 -0.17160850281E+03 -0.88858791787E+03 -0.13592846830E+04  0.16330011682E+04  0.50400001928E-02 0.  1.
       -1    1    3    3    0  502  0.17160850281E+03  0.88858791787E+03 -0.95214404838E+03  0.13136271369E+04  0.50400001928E-02 0. -1.
</event>
<event>
 5   0  0.1813834E-04  0.1889032E+04  0.7818609E-02  0.8660335E-01
        1   -1    0    0  501    0  0.00000000000E+00  0.00000000000E+00  0.93576400942E+03  0.93576400943E+03  0.50400001928E-02 0.  1.
       -1   -1    0    0    0  501  0.00000000000E+00  0.00000000000E+00 -0.95334978594E+03  0.95334978595E+03  0.50400001928E-02 0. -1.
    10030    2    1    2    0    0  0.00000000000E+00  0.00000000000E+00 -0.17585776520E+02  0.18891137954E+04  0.18890319405E+04 0.  0.
        5    1    3    3  502    0 -0.37595787820E+03 -0.70003737561E+03  0.50180897968E+03  0.93980370053E+03  0.46999998093E+01 0.  1.
       -5    1    3    3    0  502  0.37595787820E+03  0.70003737561E+03 -0.51939475620E+03  0.94931009486E+03  0.46999998093E+01 0. -1.
</event>
<event>
 5   0  0.3516539E-04  0.1911755E+04  0.7818609E-02  0.8649027E-01
       -2   -1    0    0    0  501  0.00000000000E+00  0.00000000000E+00  0.67002009351E+03  0.67002009352E+03  0.25500000920E-02 0.  1.
        2   -1    0    0  501    0  0.00000000000E+00  0.00000000000E+00 -0.13636927888E+04  0.13636927888E+04  0.25500000920E-02 0. -1.
    10030    2    1    2    0    0  0.00000000000E+00  0.00000000000E+00 -0.69367269527E+03  0.20337128823E+04  0.19117547645E+04 0.  0.
        4    1    3    3  502    0 -0.20510278520E+03 -0.11747707630E+03 -0.13321138468E+04  0.13529216273E+04  0.12699999809E+01 0. -1.
       -4    1    3    3    0  502  0.20510278520E+03  0.11747707630E+03  0.63844115154E+03  0.68079125496E+03  0.12699999809E+01 0.  1.
</event>
<event>
 5   0  0.3459485E-04  0.1897509E+04  0.7818609E-02  0.8656098E-01
       -2   -1    0    0    0  501  0.00000000000E+00  0.00000000000E+00  0.84918682765E+03  0.84918682765E+03  0.25500000920E-02 0. -1.
        2   -1    0    0  501    0  0.00000000000E+00  0.00000000000E+00 -0.10599960005E+04  0.10599960005E+04  0.25500000920E-02 0.  1.
    10030    2    1    2    0    0  0.00000000000E+00  0.00000000000E+00 -0.21080917289E+03  0.19091828282E+04  0.18975085149E+04 0.  0.
        3    1    3    3  502    0  0.17943548129E+03  0.34555766025E+03 -0.97590232974E+03  0.10507105005E+04  0.10100000352E+00 0.  1.
       -3    1    3    3    0  502 -0.17943548129E+03 -0.34555766025E+03  0.76509315685E+03  0.85847232767E+03  0.10100000352E+00 0. -1.
</event>
<event>
 5   0  0.3720978E-04  0.1905628E+04  0.7818609E-02  0.8652060E-01
        2   -1    0    0  501    0  0.00000000000E+00  0.00000000000E+00  0.23242982265E+04  0.23242982265E+04  0.25500000920E-02 0. -1.
       -2   -1    0    0    0  501  0.00000000000E+00  0.00000000000E+00 -0.39059303164E+03  0.39059303165E+03  0.25500000920E-02 0.  1.
    10030    2    1    2    0    0  0.00000000000E+00  0.00000000000E+00  0.19337051948E+04  0.27148912581E+04  0.19056281807E+04 0.  0.
        1    1    3    3  502    0 -0.39544395621E+03  0.68420897953E+03  0.20850939901E+03  0.81730901113E+03  0.50400001928E-02 0.  1.
       -1    1    3    3    0  502  0.39544395621E+03 -0.68420897953E+03  0.17251957958E+04  0.18975822470E+04  0.50400001928E-02 0. -1.
</event>
<event>
 5   0  0.3459485E-04  0.1908584E+04  0.7818609E-02  0.8650595E-01
       -2   -1    0    0    0  501  0.00000000000E+00  0.00000000000E+00  0.64909929614E+03  0.64909929615E+03  0.25500000920E-02 0.  1.
        2   -1    0    0  501    0  0.00000000000E+00  0.00000000000E+00 -0.14029801604E+04  0.14029801604E+04  0.25500000920E-02 0. -1.
    10030    2    1    2    0    0  0.00000000000E+00  0.00000000000E+00 -0.75388086422E+03  0.20520794565E+04  0.19085842236E+04 0.  0.
        3    1    3    3  502    0 -0.54356469235E+03  0.45509279902E+02  0.46496358369E+03  0.71674598965E+03  0.10100000352E+00 0.  1.
       -3    1    3    3    0  502  0.54356469235E+03 -0.45509279902E+02 -0.12188444479E+04  0.13353334669E+04  0.10100000352E+00 0. -1.
</event>
<event>
 5   0  0.3623359E-04  0.1902386E+04  0.7818609E-02  0.8653669E-01
       -2   -1    0    0    0  501  0.00000000000E+00  0.00000000000E+00  0.65709775016E+03  0.65709775017E+03  0.25500000920E-02 0.  1.
        2   -1    0    0  501    0  0.00000000000E+00  0.00000000000E+00 -0.13769161944E+04  0.13769161944E+04  0.25500000920E-02 0. -1.
    10030    2    1    2    0    0  0.00000000000E+00  0.00000000000E+00 -0.71981844421E+03  0.20340139445E+04  0.19023864313E+04 0.  0.
        5    1    3    3  502    0 -0.11191533525E+03 -0.81068911799E+03  0.15840523970E+03  0.83358034901E+03  0.46999998093E+01 0.  1.
       -5    1    3    3    0  502  0.11191533525E+03  0.81068911799E+03 -0.87822368390E+03  0.12004335955E+04  0.46999998093E+01 0. -1.
</event>
<event>
 5   0  0.1287000E-04  0.1767551E+04  0.7818609E-02  0.8723748E-01
        4   -1    0    0  501    0  0.00000000000E+00  0.00000000000E+00  0.19747501063E+04  0.19747505146E+04  0.12699999809E+01 0.  1.
       -4   -1    0    0    0  501  0.00000000000E+00  0.00000000000E+00 -0.39552173385E+03  0.39552377280E+03  0.12699999809E+01 0. -1.
    10030    2    1    2    0    0  0.00000000000E+00  0.00000000000E+00  0.15792283724E+04  0.23702742874E+04  0.17675513983E+04 0.  0.
        4    1    3    3  502    0  0.78091551451E+02  0.48573830801E+03  0.17741423390E+04  0.18410927859E+04  0.12699999809E+01 0.  1.
       -4    1    3    3    0  502 -0.78091551451E+02 -0.48573830801E+03 -0.19491396662E+03  0.52918150153E+03  0.12699999809E+01 0. -1.
</event>
<event>
 5   0  0.1694830E-04  0.1910556E+04  0.7818609E-02  0.8649620E-01
       -1   -1    0    0    0  501  0.00000000000E+00  0.00000000000E+00  0.67427774156E+03  0.67427774158E+03  0.50400001928E-02 0.  1.
        1   -1    0    0  501    0  0.00000000000E+00  0.00000000000E+00 -0.13533830176E+04  0.13533830176E+04  0.50400001928E-02 0. -1.
    10030    2    1    2    0    0  0.00000000000E+00  0.00000000000E+00 -0.67910527607E+03  0.20276607592E+04  0.19105559867E+04 0.  0.
        1    1    3    3  502    0 -0.35450511157E+03 -0.23873790862E+02 -0.12806467109E+04  0.13290221331E+04  0.50400001928E-02 0. -1.
       -1    1    3    3    0  502  0.35450511157E+03  0.23873790862E+02  0.60154143486E+03  0.69863862612E+03  0.50400001928E-02 0.  1.
</event>
<event>
 5   0  0.3720978E-04  0.1906071E+04  0.7818609E-02  0.8651841E-01
        2   -1    0    0  501    0  0.00000000000E+00  0.00000000000E+00  0.19583853469E+04  0.19583853469E+04  0.25500000920E-02 0.  1.
       -2   -1    0    0    0  501  0.00000000000E+00  0.00000000000E+00 -0.46378831087E+03  0.46378831087E+03  0.25500000920E-02 0. -1.
    10030    2    1    2    0    0  0.00000000000E+00  0.00000000000E+00  0.14945970361E+04  0.24221736578E+04  0.19060705465E+04 0.  0.
        1    1    3    3  502    0 -0.44182118802E+03  0.16027231258E+03  0.18008741501E+04  0.18611934024E+04  0.50400001928E-02 0.  1.
       -1    1    3    3    0  502  0.44182118802E+03 -0.16027231258E+03 -0.30627711407E+03  0.56098025544E+03  0.50400001928E-02 0. -1.
</event>
<event>
 5   0  0.1782613E-04  0.1913935E+04  0.7818609E-02  0.8647951E-01
       -1   -1    0    0    0  501  0.00000000000E+00  0.00000000000E+00  0.80886512074E+03  0.80886512076E+03  0.50400001928E-02 0. -1.
        1   -1    0    0  501    0  0.00000000000E+00  0.00000000000E+00 -0.11321872432E+04  0.11321872432E+04  0.50400001928E-02 0.  1.
    10030    2    1    2    0    0  0.00000000000E+00  0.00000000000E+00 -0.32332212246E+03  0.19410523640E+04  0.19139349740E+04 0.  0.
        3    1    3    3  502    0 -0.70726761425E+03 -0.60133332782E+03  0.73917643587E+02  0.93128571209E+03  0.10100000352E+00 0. -1.
       -3    1    3    3    0  502  0.70726761425E+03  0.60133332782E+03 -0.39723976605E+03  0.10097666519E+04  0.10100000352E+00 0.  1.
</event>
<event>
 5   0  0.1758946E-04  0.1878672E+04  0.7818609E-02  0.8665546E-01
       -1   -1    0    0    0  501  0.00000000000E+00  0.00000000000E+00  0.75522232968E+03  0.75522232970E+03  0.50400001928E-02 0.  1.
        1   -1    0    0  501    0  0.00000000000E+00  0.00000000000E+00 -0.11683338123E+04  0.11683338123E+04  0.50400001928E-02 0. -1.
    10030    2    1    2    0    0  0.00000000000E+00  0.00000000000E+00 -0.41311148266E+03  0.19235561420E+04  0.18786716409E+04 0.  0.
        2    1    3    3  502    0 -0.82815139147E+03  0.31595982274E+03  0.11181766719E+03  0.89340278009E+03  0.25500000920E-02 0. -1.
       -2    1    3    3    0  502  0.82815139147E+03 -0.31595982274E+03 -0.52492914984E+03  0.10301533620E+04  0.25500000920E-02 0.  1.
</event>
<event>
 5   0  0.1711979E-04  0.1889490E+04  0.7818609E-02  0.8660106E-01
        1   -1    0    0  501    0  0.00000000000E+00  0.00000000000E+00  0.21030040447E+04  0.21030040447E+04  0.50400001928E-02 0. -1.
       -1   -1    0    0    0  501  0.00000000000E+00  0.00000000000E+00 -0.42441349560E+03  0.42441349563E+03  0.50400001928E-02 0.  1.
    10030    2    1    2    0    0  0.00000000000E+00  0.00000000000E+00  0.16785905491E+04  0.25274175403E+04  0.18894901936E+04 0.  0.
        4    1    3    3  502    0  0.23966621786E+03  0.39656799856E+03  0.19405671386E+04  0.19951211757E+04  0.12699999809E+01 0. -1.
       -4    1    3    3    0  502 -0.23966621786E+03 -0.39656799856E+03 -0.26197658948E+03  0.53229636464E+03  0.12699999809E+01 0.  1.
</event>
<event>
 5   0  0.3516539E-04  0.1887059E+04  0.7818609E-02  0.8661325E-01
       -2   -1    0    0    0  501  0.00000000000E+00  0.00000000000E+00  0.84870615876E+03  0.84870615876E+03  0.25500000920E-02 0. -1.
        2   -1    0    0  501    0  0.00000000000E+00  0.00000000000E+00 -0.10489470524E+04  0.10489470524E+04  0.25500000920E-02 0.  1.
    10030    2    1    2    0    0  0.00000000000E+00  0.00000000000E+00 -0.20024089360E+03  0.18976532111E+04  0.18870589006E+04 0.  0.
        4    1    3    3  502    0  0.81504079397E+03 -0.43616545406E+03 -0.29016400051E+03  0.96888005410E+03  0.12699999809E+01 0.  1.
       -4    1    3    3    0  502 -0.81504079397E+03  0.43616545406E+03  0.89923106909E+02  0.92877315702E+03  0.12699999809E+01 0. -1.
</event>
<event>
 5   0  0.1813834E-04  0.1942915E+04  0.7818609E-02  0.8633785E-01
        1   -1    0    0  501    0  0.00000000000E+00  0.00000000000E+00  0.76242523341E+03  0.76242523343E+03  0.50400001928E-02 0. -1.
       -1   -1    0    0    0  501  0.00000000000E+00  0.00000000000E+00 -0.12377999936E+04  0.12377999937E+04  0.50400001928E-02 0.  1.
    10030    2    1    2    0    0  0.00000000000E+00  0.00000000000E+00 -0.47537476024E+03  0.20002252271E+04  0.19429152829E+04 0.  0.
        5    1    3    3  502    0 -0.91676763640E+03 -0.31967208195E+03 -0.20425297360E+03  0.99216657188E+03  0.46999998093E+01 0.  1.
       -5    1    3    3    0  502  0.91676763640E+03  0.31967208195E+03 -0.27112178664E+03  0.10080586552E+04  0.46999998093E+01 0. -1.
</event>
<event>
 5   0  0.1813834E-04  0.1890451E+04  0.7818609E-02  0.8659624E-01
        1   -1    0    0  501    0  0.00000000000E+00  0.00000000000E+00  0.10478206526E+04  0.10478206526E+04  0.50400001928E-02 0.  1.
       -1   -1    0    0    0  501  0.00000000000E+00  0.00000000000E+00 -0.85267580487E+03  0.85267580488E+03  0.50400001928E-02 0. -1.
    10030    2    1    2    0    0  0.00000000000E+00  0.00000000000E+00  0.19514484770E+03  0.19004964575E+04  0.18904510767E+04 0.  0.
        5    1    3    3  502    0  0.48171045105E+03 -0.32852037183E+03  0.84547358169E+03  0.10270434561E+04  0.46999998093E+01 0.  1.
       -5    1    3    3    0  502 -0.48171045105E+03  0.32852037183E+03 -0.65032873400E+03  0.87345300137E+03  0.46999998093E+01 0. -1.
</event>
<event>
 5   0  0.1813834E-04  0.1944154E+04  0.7818609E-02  0.8633185E-01
       -1   -1    0    0    0  501  0.00000000000E+00  0.00000000000E+00  0.28520466621E+03  0.28520466626E+03  0.50400001928E-02 0. -1.
        1   -1    0    0  501    0  0.00000000000E+00  0.00000000000E+00 -0.33131766667E+04  0.33131766667E+04  0.50400001928E-02 0.  1.
    10030    2    1    2    0    0  0.00000000000E+00  0.00000000000E+00 -0.30279720004E+04  0.35983813329E+04  0.19441537443E+04 0.  0.
        5    1    3    3  502    0 -0.42911182856E+03 -0.51880136594E+03 -0.28117363232E+04  0.28912237997E+04  0.46999998093E+01 0.  1.
       -5    1    3    3    0  502  0.42911182856E+03  0.51880136594E+03 -0.21623567726E+03  0.70715753325E+03  0.46999998093E+01 0. -1.
</event>
<event>
 5   0  0.3623359E-04  0.1894890E+04  0.7818609E-02  0.8657404E-01
        2   -1    0    0  501    0  0.00000000000E+00  0.00000000000E+00  0.13254547503E+04  0.13254547503E+04  0.25500000920E-02 0.  1.
       -2   -1    0    0    0  501  0.00000000000E+00  0.00000000000E+00 -0.67724087318E+03  0.67724087319E+03  0.25500000920E-02 0. -1.
    10030    2    1    2    0    0  0.00000000000E+00  0.00000000000E+00  0.64821387707E+03  0.20026956234E+04  0.18948901102E+04 0.  0.
        5    1    3    3  502    0 -0.46684392655E+03  0.82186588345E+03  0.39279082220E+03  0.10235787718E+04  0.46999998093E+01 0. -1.
       -5    1    3    3    0  502  0.46684392655E+03 -0.82186588345E+03  0.25542305487E+03  0.97911685161E+03  0.46999998093E+01 0.  1.
</event>
<event>
 5   0  0.3720978E-04  0.1628795E+04  0.7818609E-02  0.8803051E-01
        2   -1    0    0  501    0  0.00000000000E+00  0.00000000000E+00  0.21138299882E+04  0.21138299882E+04  0.25500000920E-02 0. -1.
       -2   -1    0    0    0  501  0.00000000000E+00  0.00000000000E+00 -0.31376373000E+03  0.31376373001E+03  0.25500000920E-02 0.  1.
    10030    2    1    2    0    0  0.00000000000E+00  0.00000000000E+00  0.18000662582E+04  0.24275937182E+04  0.16287948695E+04 0.  0.
        1    1    3    3  502    0  0.52126991052E+03  0.40235350209E+03  0.16142437588E+04  0.17433856639E+04  0.50400001928E-02 0. -1.
       -1    1    3    3    0  502 -0.52126991052E+03 -0.40235350209E+03  0.18582249938E+03  0.68420805429E+03  0.50400001928E-02 0.  1.
</event>
<event>
 5   0  0.1758946E-04  0.1838110E+04  0.7818609E-02  0.8686291E-01
       -1   -1    0    0    0  501  0.00000000000E+00  0.00000000000E+00  0.54250100093E+03  0.54250100095E+03  0.50400001928E-02 0. -1.
        1   -1    0    0  501    0  0.00000000000E+00  0.00000000000E+00 -0.15569787635E+04  0.15569787636E+04  0.50400001928E-02 0.  1.
    10030    2    1    2    0    0  0.00000000000E+00  0.00000000000E+00 -0.10144777626E+04  0.20994797645E+04  0.18381104838E+04 0.  0.
        2    1    3    3  502    0 -0.15628695801E+03 -0.90557087403E+03 -0.49198656200E+03  0.10423698952E+04  0.25500000920E-02 0. -1.
       -2    1    3    3    0  502  0.15628695801E+03  0.90557087403E+03 -0.52249120062E+03  0.10571098693E+04  0.25500000920E-02 0.  1.
</event>
<event>
 5   0  0.1287000E-04  0.1894956E+04  0.7818609E-02  0.8657371E-01
        4   -1    0    0  501    0  0.00000000000E+00  0.00000000000E+00  0.97910844512E+03  0.97910926877E+03  0.12699999809E+01 0. -1.
       -4   -1    0    0    0  501  0.00000000000E+00  0.00000000000E+00 -0.91686800468E+03  0.91686888425E+03  0.12699999809E+01 0.  1.
    10030    2    1    2    0    0  0.00000000000E+00  0.00000000000E+00  0.62240440442E+02  0.18959781530E+04  0.18949562750E+04 0.  0.
        4    1    3    3  502    0  0.64292987359E+03 -0.36966659682E+03  0.62109996396E+03  0.96735670427E+03  0.12699999809E+01 0. -1.
       -4    1    3    3    0  502 -0.64292987359E+03  0.36966659682E+03 -0.55885952352E+03  0.92862144875E+03  0.12699999809E+01 0.  1.
</event>
<event>
 5   0  0.3720978E-04  0.1868384E+04  0.7818609E-02  0.8670756E-01
       -2   -1    0    0    0  501  0.00000000000E+00  0.00000000000E+00  0.42124909493E+03  0.42124909494E+03  0.25500000920E-02 0. -1.
        2   -1    0    0  501    0  0.00000000000E+00  0.00000000000E+00 -0.20717302285E+04  0.20717302285E+04  0.25500000920E-02 0.  1.
    10030    2    1    2    0    0  0.00000000000E+00  0.00000000000E+00 -0.16504811336E+04  0.24929793235E+04  0.18683837761E+04 0.  0.
        1    1    3    3  502    0  0.39591858737E+02  0.43580969185E+03  0.27603318897E+03  0.51738952852E+03  0.50400001928E-02 0. -1.
       -1    1    3    3    0  502 -0.39591858737E+02 -0.43580969185E+03 -0.19265143226E+04  0.19755897949E+04  0.50400001928E-02 0.  1.
</event>
<event>
 5   0  0.1287000E-04  0.1505681E+04  0.7818609E-02  0.8880684E-01
       -3   -1    0    0    0  501  0.00000000000E+00  0.00000000000E+00  0.10396862697E+04  0.10396862746E+04  0.10100000352E+00 0.  1.
        3   -1    0    0  501    0  0.00000000000E+00  0.00000000000E+00 -0.54513456912E+03  0.54513457848E+03  0.10100000352E+00 0. -1.
    10030    2    1    2    0    0  0.00000000000E+00  0.00000000000E+00  0.49455170054E+03  0.15848208530E+04  0.15056811587E+04 0.  0.
        5    1    3    3  502    0 -0.69255612514E+03  0.15599324556E+03 -0.16450940523E+02  0.71011309139E+03  0.46999998093E+01 0.  1.
       -5    1    3    3    0  502  0.69255612514E+03 -0.15599324556E+03  0.51100264106E+03  0.87470776165E+03  0.46999998093E+01 0. -1.
</event>
<event>
 5   0  0.3720978E-04  0.1911220E+04  0.7818609E-02  0.8649291E-01
       -2   -1    0    0    0  501  0.00000000000E+00  0.00000000000E+00  0.93593287863E+03  0.93593287864E+03  0.25500000920E-02 0. -1.
        2   -1    0    0  501    0  0.00000000000E+00  0.00000000000E+00 -0.97570111365E+03  0.97570111366E+03  0.25500000920E-02 0.  1.
    10030    2    1    2    0    0  0.00000000000E+00  0.00000000000E+00 -0.39768235020E+02  0.19116339923E+04  0.19112202929E+04 0.  0.
        1    1    3    3  502    0 -0.18758973349E+03  0.69852402218E+03  0.60480293867E+03  0.94282146365E+03  0.50400001928E-02 0. -1.
       -1    1    3    3    0  502  0.18758973349E+03 -0.69852402218E+03 -0.64457117369E+03  0.96881252864E+03  0.50400001928E-02 0.  1.
</event>
<event>
 5   0  0.3459485E-04  0.1836864E+04  0.7818609E-02  0.8686938E-01
        2   -1    0    0  501    0  0.00000000000E+00  0.00000000000E+00  0.19961265925E+04  0.19961265925E+04  0.25500000920E-02 0.  1.
       -2   -1    0    0    0  501  0.00000000000E+00  0.00000000000E+00 -0.42257712746E+03  0.42257712747E+03  0.25500000920E-02 0. -1.
    10030    2    1    2    0    0  0.00000000000E+00  0.00000000000E+00  0.15735494650E+04  0.24187037199E+04  0.18368641120E+04 0.  0.
        3    1    3    3  502    0  0.11091571881E+03  0.83369472789E+03  0.30087848174E+03  0.89323964699E+03  0.10100000352E+00 0. -1.
       -3    1    3    3    0  502 -0.11091571881E+03 -0.83369472789E+03  0.12726709833E+04  0.15254640730E+04  0.10100000352E+00 0.  1.
</event>
<event>
 5   0  0.1711979E-04  0.1873293E+04  0.7818609E-02  0.8668265E-01
        1   -1    0    0  501    0  0.00000000000E+00  0.00000000000E+00  0.18710060480E+04  0.18710060480E+04  0.50400001928E-02 0. -1.
       -1   -1    0    0    0  501  0.00000000000E+00  0.00000000000E+00 -0.46889589005E+03  0.46889589008E+03  0.50400001928E-02 0.  1.
    10030    2    1    2    0    0  0.00000000000E+00  0.00000000000E+00  0.14021101580E+04  0.23399019381E+04  0.18732934060E+04 0.  0.
        4    1    3    3  502    0  0.31551035955E+03  0.43107047926E+03  0.16620687267E+04  0.17458071515E+04  0.12699999809E+01 0. -1.
       -4    1    3    3    0  502 -0.31551035955E+03 -0.43107047926E+03 -0.25995856876E+03  0.59409478658E+03  0.12699999809E+01 0.  1.
</event>
<event>
 5   0  0.1711979E-04  0.1916711E+04  0.7818609E-02  0.8646583E-01
        1   -1    0    0  501    0  0.00000000000E+00  0.00000000000E+00  0.53655824576E+03  0.53655824578E+03  0.50400001928E-02 0. -1.
       -1   -1    0    0    0  501  0.00000000000E+00  0.00000000000E+00 -0.17117341817E+04  0.17117341817E+04  0.50400001928E-02 0.  1.
    10030    2    1    2    0    0  0.00000000000E+00  0.00000000000E+00 -0.11751759359E+04  0.22482924275E+04  0.19167108178E+04 0.  0.
        4    1    3    3  502    0  0.40925327451E+03 -0.16272935053E+03  0.41081927618E+03  0.60228164077E+03  0.12699999809E+01 0. -1.
       -4    1    3    3    0  502 -0.40925327451E+03  0.16272935053E+03 -0.15859952121E+04  0.16460107867E+04  0.12699999809E+01 0.  1.
</event>
<event>
 5   0  0.1694830E-04  0.1923728E+04  0.7818609E-02  0.8643135E-01
       -1   -1    0    0    0  501  0.00000000000E+00  0.00000000000E+00  0.98201397040E+03  0.98201397042E+03  0.50400001928E-02 0. -1.
        1   -1    0    0  501    0  0.00000000000E+00  0.00000000000E+00 -0.94212703365E+03  0.94212703366E+03  0.50400001928E-02 0.  1.
    10030    2    1    2    0    0  0.00000000000E+00  0.00000000000E+00  0.39886936757E+02  0.19241410041E+04  0.19237275368E+04 0.  0.
        1    1    3    3  502    0 -0.39215975088E+03 -0.49907138655E+03 -0.70292923058E+03  0.94708554118E+03  0.50400001928E-02 0.  1.
       -1    1    3    3    0  502  0.39215975088E+03  0.49907138655E+03  0.74281616734E+03  0.97705546289E+03  0.50400001928E-02 0. -1.
</event>
<event>
 5   0  0.3623359E-04  0.1832288E+04  0.7818609E-02  0.8689315E-01
        2   -1    0    0  501    0  0.00000000000E+00  0.00000000000E+00  0.90791427198E+03  0.90791427199E+03  0.25500000920E-02 0.  1.
       -2   -1    0    0    0  501  0.00000000000E+00  0.00000000000E+00 -0.92444877470E+03  0.92444877470E+03  0.25500000920E-02 0. -1.
    10030    2    1    2    0    0  0.00000000000E+00  0.00000000000E+00 -0.16534502714E+02  0.18323630467E+04  0.18322884448E+04 0.  0.
        5    1    3    3  502    0 -0.43607806560E+02 -0.61689460913E+03 -0.68419235657E+03  0.92228079800E+03  0.46999998093E+01 0. -1.
       -5    1    3    3    0  502  0.43607806560E+02  0.61689460913E+03  0.66765785386E+03  0.91008224869E+03  0.46999998093E+01 0.  1.
</event>
<event>
 5   0  0.1694830E-04  0.1868818E+04  0.7818609E-02  0.8670535E-01
       -1   -1    0    0    0  501  0.00000000000E+00  0.00000000000E+00  0.99436920097E+03  0.99436920098E+03  0.50400001928E-02 0.  1.
        1   -1    0    0  501    0  0.00000000000E+00  0.00000000000E+00 -0.87806444745E+03  0.87806444746E+03  0.50400001928E-02 0. -1.
    10030    2    1    2    0    0  0.00000000000E+00  0.00000000000E+00  0.11630475352E+03  0.18724336484E+04  0.18688180682E+04 0.  0.
        1    1    3    3  502    0 -0.31945063415E+03  0.59679002110E+03 -0.58723139624E+03  0.89612931527E+03  0.50400001928E-02 0. -1.
       -1    1    3    3    0  502  0.31945063415E+03 -0.59679002110E+03  0.70353614975E+03  0.97630433317E+03  0.50400001928E-02 0.  1.
</event>
<event>
 5   0  0.3623359E-04  0.1855053E+04  0.7818609E-02  0.8677558E-01
       -2   -1    0    0    0  501  0.00000000000E+00  0.00000000000E+00  0.49780309766E+03  0.49780309767E+03  0.25500000920E-02 0. -1.
        2   -1    0    0  501    0  0.00000000000E+00  0.00000000000E+00 -0.17282046795E+04  0.17282046795E+04  0.25500000920E-02 0.  1.
    10030    2    1    2    0    0  0.00000000000E+00  0.00000000000E+00 -0.12304015818E+04  0.22260077771E+04  0.18550532530E+04 0.  0.
        5    1    3    3  502    0  0.49107752787E+03 -0.30315354935E+03  0.25609982658E+03  0.63140195125E+03  0.46999998093E+01 0. -1.
       -5    1    3    3    0  502 -0.49107752787E+03  0.30315354935E+03 -0.14865014084E+04  0.15946058259E+04  0.46999998093E+01 0.  1.
</event>
<event>
 5   0  0.3720978E-04  0.1948556E+04  0.7818609E-02  0.8631058E-01
        2   -1    0    0  501    0  0.00000000000E+00  0.00000000000E+00  0.13829015194E+04  0.13829015194E+04  0.25500000920E-02 0. -1.
       -2   -1    0    0    0  501  0.00000000000E+00  0.00000000000E+00 -0.68639545915E+03  0.68639545915E+03  0.25500000920E-02 0.  1.
    10030    2    1    2    0    0  0.00000000000E+00  0.00000000000E+00  0.69650606028E+03  0.20692969786E+04  0.19485556942E+04 0.  0.
        1    1    3    3  502    0 -0.14079843352E+03 -0.85777111624E+03 -0.11903770222E+03  0.87736278774E+03  0.50400001928E-02 0. -1.
       -1    1    3    3    0  502  0.14079843352E+03  0.85777111624E+03  0.81554376251E+03  0.11919341909E+04  0.50400001928E-02 0.  1.
</event>
<event>
 5   0  0.3516539E-04  0.1954806E+04  0.7818609E-02  0.8628047E-01
       -2   -1    0    0    0  501  0.00000000000E+00  0.00000000000E+00  0.69595834525E+03  0.69595834525E+03  0.25500000920E-02 0. -1.
        2   -1    0    0  501    0  0.00000000000E+00  0.00000000000E+00 -0.13726640571E+04  0.13726640571E+04  0.25500000920E-02 0.  1.
    10030    2    1    2    0    0  0.00000000000E+00  0.00000000000E+00 -0.67670571188E+03  0.20686224024E+04  0.19548063902E+04 0.  0.
        4    1    3    3  502    0 -0.48689618071E+03 -0.12899078172E+03 -0.12247431915E+04  0.13242748999E+04  0.12699999809E+01 0.  1.
       -4    1    3    3    0  502  0.48689618071E+03  0.12899078172E+03  0.54803747957E+03  0.74434750250E+03  0.12699999809E+01 0. -1.
</event>
<event>
 5   0  0.3623359E-04  0.1911427E+04  0.7818609E-02  0.8649189E-01
       -2   -1    0    0    0  501  0.00000000000E+00  0.00000000000E+00  0.80526964706E+03  0.80526964707E+03  0.25500000920E-02 0.  1.
        2   -1    0    0  501    0  0.00000000000E+00  0.00000000000E+00 -0.11342636474E+04  0.11342636474E+04  0.25500000920E-02 0. -1.
    10030    2    1    2    0    0  0.00000000000E+00  0.00000000000E+00 -0.32899400033E+03  0.19395332945E+04  0.19114267833E+04 0.  0.
        5    1    3    3  502    0  0.51381360319E+02  0.62021627900E+02 -0.11308021843E+04  0.11336764955E+04  0.46999998093E+01 0. -1.
       -5    1    3    3    0  502 -0.51381360319E+02 -0.62021627900E+02  0.80180818396E+03  0.80585679893E+03  0.46999998093E+01 0.  1.
</event>
<event>
 5   0  0.1711979E-04  0.1909829E+04  0.7818609E-02  0.8649979E-01
        1   -1    0    0  501    0  0.00000000000E+00  0.00000000000E+00  0.94870244334E+03  0.94870244335E+03  0.50400001928E-02 0.  1.
       -1   -1    0    0    0  501  0.00000000000E+00  0.00000000000E+00 -0.96116718906E+03  0.96116718907E+03  0.50400001928E-02 0. -1.
    10030    2    1    2    0    0  0.00000000000E+00  0.00000000000E+00 -0.12464745719E+02  0.19098696324E+04  0.19098289565E+04 0.  0.
        4    1    3    3  502    0 -0.64442890799E+03  0.57955311283E+03  0.39463726266E+03  0.95231854440E+03  0.12699999809E+01 0.  1.
       -4    1    3    3    0  502  0.64442890799E+03 -0.57955311283E+03 -0.40710200838E+03  0.95755108802E+03  0.12699999809E+01 0. -1.
</event>
<event>
 5   0  0.3720978E-04  0.1893150E+04  0.7818609E-02  0.8658274E-01
        2   -1    0    0  501    0  0.00000000000E+00  0.00000000000E+00  0.15689298790E+04  0.15689298791E+04  0.25500000920E-02 0.  1.
       -2   -1    0    0    0  501  0.00000000000E+00  0.00000000000E+00 -0.57109251965E+03  0.57109251965E+03  0.25500000920E-02 0. -1.
    10030    2    1    2    0    0  0.00000000000E+00  0.00000000000E+00  0.99783735940E+03  0.21400223987E+04  0.18931498808E+04 0.  0.
        1    1    3    3  502    0  0.21825049555E+03 -0.66993242632E+03 -0.21561889969E+03  0.73684071859E+03  0.50400001928E-02 0. -1.
       -1    1    3    3    0  502 -0.21825049555E+03  0.66993242632E+03  0.12134562591E+04  0.14031816801E+04  0.50400001928E-02 0.  1.
</event>
<event>
 5   0  0.1711979E-04  0.1885551E+04  0.7818609E-02  0.8662082E-01
        1   -1    0    0  501    0  0.00000000000E+00  0.00000000000E+00  0.91526700232E+03  0.91526700233E+03  0.50400001928E-02 0. -1.
       -1   -1    0    0    0  501  0.00000000000E+00  0.00000000000E+00 -0.97111075673E+03  0.97111075675E+03  0.50400001928E-02 0.  1.
    10030    2    1    2    0    0  0.00000000000E+00  0.00000000000E+00 -0.55843754413E+02  0.18863777591E+04  0.18855509871E+04 0.  0.
        4    1    3    3  502    0 -0.37162980022E+03 -0.36773600594E+02 -0.89395900931E+03  0.96882677984E+03  0.12699999809E+01 0.  1.
       -4    1    3    3    0  502  0.37162980022E+03  0.36773600594E+02  0.83811525490E+03  0.91755097924E+03  0.12699999809E+01 0. -1.
</event>
<event>
 5   0  0.1758946E-04  0.1717052E+04  0.7818609E-02  0.8751699E-01
        1   -1    0    0  501    0  0.00000000000E+00  0.00000000000E+00  0.83718539616E+03  0.83718539618E+03  0.50400001928E-02 0.  1.
       -1   -1    0    0    0  501  0.00000000000E+00  0.00000000000E+00 -0.88041015718E+03  0.88041015720E+03  0.50400001928E-02 0. -1.
    10030    2    1    2    0    0  0.00000000000E+00  0.00000000000E+00 -0.43224761022E+02  0.17175955534E+04  0.17170515732E+04 0.  0.
        2    1    3    3  502    0 -0.35079591371E+03 -0.76948373235E+03 -0.16965770996E+03  0.86252346402E+03  0.25500000920E-02 0. -1.
       -2    1    3    3    0  502  0.35079591371E+03  0.76948373235E+03  0.12643294894E+03  0.85507208936E+03  0.25500000920E-02 0.  1.
</event>
<event>
 5   0  0.1758946E-04  0.1895635E+04  0.7818609E-02  0.8657032E-01
       -1   -1    0    0    0  501  0.00000000000E+00  0.00000000000E+00  0.14170739308E+04  0.14170739308E+04  0.50400001928E-02 0.  1.
        1   -1    0    0  501    0  0.00000000000E+00  0.00000000000E+00 -0.63395311696E+03  0.63395311698E+03  0.50400001928E-02 0. -1.
    10030    2    1    2    0    0  0.00000000000E+00  0.00000000000E+00  0.78312081382E+03  0.20510270478E+04  0.18956354453E+04 0.  0.
        2    1    3    3  502    0 -0.53314634058E+03 -0.10346966276E+03 -0.44890897853E+03  0.70460645938E+03  0.25500000920E-02 0. -1.
       -2    1    3    3    0  502  0.53314634058E+03  0.10346966276E+03  0.12320297923E+04  0.13464205884E+04  0.25500000920E-02 0.  1.
</event>
<event>
 5   0  0.1694830E-04  0.1905012E+04  0.7818609E-02  0.8652366E-01
        1   -1    0    0  501    0  0.00000000000E+00  0.00000000000E+00  0.15587212699E+04  0.15587212699E+04  0.50400001928E-02 0. -1.
       -1   -1    0    0    0  501  0.00000000000E+00  0.00000000000E+00 -0.58205890728E+03  0.58205890730E+03  0.50400001928E-02 0.  1.
    10030    2    1    2    0    0  0.00000000000E+00  0.00000000000E+00  0.97666236265E+03  0.21407801772E+04  0.19050119151E+04 0.  0.
        1    1    3    3  502    0 -0.54896164432E+02 -0.33698142051E+03 -0.51093127371E+03  0.61450861110E+03  0.50400001928E-02 0.  1.
       -1    1    3    3    0  502  0.54896164432E+02  0.33698142051E+03  0.14875936364E+04  0.15262715661E+04  0.50400001928E-02 0. -1.
</event>
<event>
 5   0  0.1711979E-04  0.1910673E+04  0.7818609E-02  0.8649562E-01
        1   -1    0    0  501    0  0.00000000000E+00  0.00000000000E+00  0.14212823802E+04  0.14212823803E+04  0.50400001928E-02 0. -1.
       -1   -1    0    0    0  501  0.00000000000E+00  0.00000000000E+00 -0.64214394890E+03  0.64214394892E+03  0.50400001928E-02 0.  1.
    10030    2    1    2    0    0  0.00000000000E+00  0.00000000000E+00  0.77913843134E+03  0.20634263292E+04  0.19106730544E+04 0.  0.
        4    1    3    3  502    0 -0.87273601349E+03 -0.30766533550E+03  0.13323202256E+03  0.93492165054E+03  0.12699999809E+01 0.  1.
       -4    1    3    3    0  502  0.87273601349E+03  0.30766533550E+03  0.64590640878E+03  0.11285046786E+04  0.12699999809E+01 0. -1.
</event>
<event>
 5   0  0.3516539E-04  0.1879205E+04  0.7818609E-02  0.8665277E-01
        2   -1    0    0  501    0  0.00000000000E+00  0.00000000000E+00  0.86653438232E+03  0.86653438233E+03  0.25500000920E-02 0.  1.
       -2   -1    0    0    0  501  0.00000000000E+00  0.00000000000E+00 -0.10188314628E+04  0.10188314628E+04  0.25500000920E-02 0. -1.
    10030    2    1    2    0    0  0.00000000000E+00  0.00000000000E+00 -0.15229708048E+03  0.18853658451E+04  0.18792046108E+04 0.  0.
        4    1    3    3  502    0 -0.30001280942E+03  0.81423001399E+03 -0.43770861181E+03  0.97188921346E+03  0.12699999809E+01 0. -1.
       -4    1    3    3    0  502  0.30001280942E+03 -0.81423001399E+03  0.28541153133E+03  0.91347663167E+03  0.12699999809E+01 0.  1.
</event>
<event>
 5   0  0.3516539E-04  0.1904766E+04  0.7818609E-02  0.8652488E-01
       -2   -1    0    0    0  501  0.00000000000E+00  0.00000000000E+00  0.63092393792E+03  0.63092393793E+03  0.25500000920E-02 0.  1.
        2   -1    0    0  501    0  0.00000000000E+00  0.00000000000E+00 -0.14376275803E+04  0.14376275803E+04  0.25500000920E-02 0. -1.
    10030    2    1    2    0    0  0.00000000000E+00  0.00000000000E+00 -0.80670364242E+03  0.20685515183E+04  0.19047662894E+04 0.  0.
        4    1    3    3  502    0  0.58509181789E+03  0.19794006924E+03 -0.11906132880E+04  0.13412957619E+04  0.12699999809E+01 0. -1.
       -4    1    3    3    0  502 -0.58509181789E+03 -0.19794006924E+03  0.38390964557E+03  0.72725575641E+03  0.12699999809E+01 0.  1.
</event>
<event>
 5   0  0.1813834E-04  0.1926991E+04  0.7818609E-02  0.8641537E-01
       -1   -1    0    0    0  501  0.00000000000E+00  0.00000000000E+00  0.60702220542E+03  0.60702220544E+03  0.50400001928E-02 0. -1.
        1   -1    0    0  501    0  0.00000000000E+00  0.00000000000E+00 -0.15293076893E+04  0.15293076893E+04  0.50400001928E-02 0.  1.
    10030    2    1    2    0    0  0.00000000000E+00  0.00000000000E+00 -0.92228548388E+03  0.21363298947E+04  0.19269911534E+04 0.  0.
        5    1    3    3  502    0 -0.26279888871E+03  0.43896118832E+03  0.44397574947E+03  0.67741179269E+03  0.46999998093E+01 0. -1.
       -5    1    3    3    0  502  0.26279888871E+03 -0.43896118832E+03 -0.13662612333E+04  0.14589181021E+04  0.46999998093E+01 0.  1.
</event>
<event>
 5   0  0.3535876E-04  0.1842546E+04  0.7818609E-02  0.8683995E-01
       -2   -1    0    0    0  501  0.00000000000E+00  0.00000000000E+00  0.11414836116E+04  0.11414836116E+04  0.25500000920E-02 0. -1.
        2   -1    0    0  501    0  0.00000000000E+00  0.00000000000E+00 -0.74354475492E+03  0.74354475492E+03  0.25500000920E-02 0.  1.
    10030    2    1    2    0    0  0.00000000000E+00  0.00000000000E+00  0.39793885670E+03  0.18850283665E+04  0.18425462298E+04 0.  0.
        2    1    3    3  502    0  0.33660134956E+03  0.25264945679E+03  0.10373837720E+04  0.11195076181E+04  0.25500000920E-02 0. -1.
       -2    1    3    3    0  502 -0.33660134956E+03 -0.25264945679E+03 -0.63944491532E+03  0.76552074843E+03  0.25500000920E-02 0.  1.
</event>
<event>
 5   0  0.1813834E-04  0.1870892E+04  0.7818609E-02  0.8669482E-01
        1   -1    0    0  501    0  0.00000000000E+00  0.00000000000E+00  0.14103876891E+04  0.14103876891E+04  0.50400001928E-02 0.  1.
       -1   -1    0    0    0  501  0.00000000000E+00  0.00000000000E+00 -0.62043892421E+03  0.62043892424E+03  0.50400001928E-02 0. -1.
    10030    2    1    2    0    0  0.00000000000E+00  0.00000000000E+00  0.78994876488E+03  0.20308266133E+04  0.18708922156E+04 0.  0.
        5    1    3    3  502    0  0.13133880509E+03  0.51288551812E+03  0.12320913664E+04  0.13410341761E+04  0.46999998093E+01 0.  1.
       -5    1    3    3    0  502 -0.13133880509E+03 -0.51288551812E+03 -0.44214260148E+03  0.68979243723E+03  0.46999998093E+01 0. -1.
</event>
<event>
 5   0  0.3720978E-04  0.1870563E+04  0.7818609E-02  0.8669649E-01
        2   -1    0    0  501    0  0.00000000000E+00  0.00000000000E+00  0.10462049436E+04  0.10462049436E+04  0.25500000920E-02 0. -1.
       -2   -1    0    0    0  501  0.00000000000E+00  0.00000000000E+00 -0.83611879565E+03  0.83611879566E+03  0.25500000920E-02 0.  1.
    10030    2    1    2    0    0  0.00000000000E+00  0.00000000000E+00  0.21008614798E+03  0.18823237393E+04  0.18705631425E+04 0.  0.
        1    1    3    3  502    0 -0.68888189610E+03  0.24744347149E+03 -0.48082445171E+03  0.87577319652E+03  0.50400001928E-02 0.  1.
       -1    1    3    3    0  502  0.68888189610E+03 -0.24744347149E+03  0.69091059969E+03  0.10065505428E+04  0.50400001928E-02 0. -1.
</event>
<event>
 5   0  0.3516539E-04  0.1891572E+04  0.7818609E-02  0.8659063E-01
        2   -1    0    0  501    0  0.00000000000E+00  0.00000000000E+00  0.10614017382E+04  0.10614017382E+04  0.25500000920E-02 0. -1.
       -2   -1    0    0    0  501  0.00000000000E+00  0.00000000000E+00 -0.84276388915E+03  0.84276388915E+03  0.25500000920E-02 0.  1.
    10030    2    1    2    0    0  0.00000000000E+00  0.00000000000E+00  0.21863784901E+03  0.19041656273E+04  0.18915718932E+04 0.  0.
        4    1    3    3  502    0  0.51918373700E+03  0.22928082005E+03 -0.65228141323E+03  0.86463524226E+03  0.12699999809E+01 0.  1.
       -4    1    3    3    0  502 -0.51918373700E+03 -0.22928082005E+03  0.87091926225E+03  0.10395303851E+04  0.12699999809E+01 0. -1.
</event>
<event>
 5   0  0.1782613E-04  0.1886919E+04  0.7818609E-02  0.8661395E-01
        1   -1    0    0  501    0  0.00000000000E+00  0.00000000000E+00  0.16895750942E+04  0.16895750942E+04  0.50400001928E-02 0.  1.
       -1   -1    0    0    0  501  0.00000000000E+00  0.00000000000E+00 -0.52682840847E+03  0.52682840849E+03  0.50400001928E-02 0. -1.
    10030    2    1    2    0    0  0.00000000000E+00  0.00000000000E+00  0.11627466857E+04  0.22164035027E+04  0.18869193495E+04 0.  0.
        3    1    3    3  502    0  0.63941010218E+03  0.34848776854E+03 -0.12322635202E+03  0.73856194569E+03  0.10100000352E+00 0. -1.
       -3    1    3    3    0  502 -0.63941010218E+03 -0.34848776854E+03  0.12859730378E+04  0.14778415570E+04  0.10100000352E+00 0.  1.
</event>
<event>
 5   0  0.3516539E-04  0.1904338E+04  0.7818609E-02  0.8652700E-01
        2   -1    0    0  501    0  0.00000000000E+00  0.00000000000E+00  0.12197371633E+04  0.12197371633E+04  0.25500000920E-02 0. -1.
       -2   -1    0    0    0  501  0.00000000000E+00  0.00000000000E+00 -0.74329621779E+03  0.74329621780E+03  0.25500000920E-02 0.  1.
    10030    2    1    2    0    0  0.00000000000E+00  0.00000000000E+00  0.47644094552E+03  0.19630333811E+04  0.19043382265E+04 0.  0.
        4    1    3    3  502    0 -0.89957103753E+03 -0.26952842603E+03  0.76047651013E+02  0.94215629390E+03  0.12699999809E+01 0.  1.
       -4    1    3    3    0  502  0.89957103753E+03  0.26952842603E+03  0.40039329451E+03  0.10208770872E+04  0.12699999809E+01 0. -1.
</event>
<event>
 5   0  0.3623359E-04  0.1885518E+04  0.7818609E-02  0.8662099E-01
        2   -1    0    0  501    0  0.00000000000E+00  0.00000000000E+00  0.14928123515E+04  0.14928123515E+04  0.25500000920E-02 0.  1.
       -2   -1    0    0    0  501  0.00000000000E+00  0.00000000000E+00 -0.59538251635E+03  0.59538251636E+03  0.25500000920E-02 0. -1.
    10030    2    1    2    0    0  0.00000000000E+00  0.00000000000E+00  0.89742983516E+03  0.20881948679E+04  0.18855178326E+04 0.  0.
        5    1    3    3  502    0  0.30373581082E+03  0.12962146691E+03 -0.52921640603E+03  0.62381829235E+03  0.46999998093E+01 0. -1.
       -5    1    3    3    0  502 -0.30373581082E+03 -0.12962146691E+03  0.14266462412E+04  0.14643765755E+04  0.46999998093E+01 0.  1.
</event>
<event>
 5   0  0.3720978E-04  0.1911541E+04  0.7818609E-02  0.8649133E-01
       -2   -1    0    0    0  501  0.00000000000E+00  0.00000000000E+00  0.99760431935E+03  0.99760431935E+03  0.25500000920E-02 0.  1.
        2   -1    0    0  501    0  0.00000000000E+00  0.00000000000E+00 -0.91569134104E+03  0.91569134105E+03  0.25500000920E-02 0. -1.
    10030    2    1    2    0    0  0.00000000000E+00  0.00000000000E+00  0.81912978305E+02  0.19132956604E+04  0.19115414063E+04 0.  0.
        1    1    3    3  502    0 -0.50693436363E+03  0.79106195604E+03  0.21643472077E+03  0.96416049271E+03  0.50400001928E-02 0.  1.
       -1    1    3    3    0  502  0.50693436363E+03 -0.79106195604E+03 -0.13452174247E+03  0.94913516769E+03  0.50400001928E-02 0. -1.
</event>
<event>
 5   0  0.1711979E-04  0.1951233E+04  0.7818609E-02  0.8629767E-01
        1   -1    0    0  501    0  0.00000000000E+00  0.00000000000E+00  0.59523768168E+03  0.59523768170E+03  0.50400001928E-02 0. -1.
       -1   -1    0    0    0  501  0.00000000000E+00  0.00000000000E+00 -0.15990706425E+04  0.15990706425E+04  0.50400001928E-02 0.  1.
    10030    2    1    2    0    0  0.00000000000E+00  0.00000000000E+00 -0.10038329608E+04  0.21943083242E+04  0.19512325357E+04 0.  0.
        4    1    3    3  502    0  0.63594586611E+02 -0.79090030705E+03  0.13647991010E+03  0.80510617058E+03  0.12699999809E+01 0. -1.
       -4    1    3    3    0  502 -0.63594586611E+02  0.79090030705E+03 -0.11403128709E+04  0.13892021536E+04  0.12699999809E+01 0.  1.
</event>
<event>
 5   0  0.3720978E-04  0.1848239E+04  0.7818609E-02  0.8681059E-01
       -2   -1    0    0    0  501  0.00000000000E+00  0.00000000000E+00  0.63735102908E+03  0.63735102908E+03  0.25500000920E-02 0. -1.
        2   -1    0    0  501    0  0.00000000000E+00  0.00000000000E+00 -0.13399163664E+04  0.13399163664E+04  0.25500000920E-02 0.  1.
    10030    2    1    2    0    0  0.00000000000E+00  0.00000000000E+00 -0.70256533737E+03  0.19772673955E+04  0.18482392432E+04 0.  0.
        1    1    3    3  502    0  0.60102140876E+03  0.50045238473E+03  0.17534034409E+03  0.80151329338E+03  0.50400001928E-02 0. -1.
       -1    1    3    3    0  502 -0.60102140876E+03 -0.50045238473E+03 -0.87790568146E+03  0.11757541022E+04  0.50400001928E-02 0.  1.
</event>
<event>
 5   0  0.1758946E-04  0.1905941E+04  0.7818609E-02  0.8651905E-01
        1   -1    0    0  501    0  0.00000000000E+00  0.00000000000E+00  0.85403822357E+03  0.85403822359E+03  0.50400001928E-02 0. -1.
       -1   -1    0    0    0  501  0.00000000000E+00  0.00000000000E+00 -0.10633630726E+04  0.10633630726E+04  0.50400001928E-02 0.  1.
    10030    2    1    2    0    0  0.00000000000E+00  0.00000000000E+00 -0.20932484902E+03  0.19174012962E+04  0.19059409325E+04 0.  0.
        2    1    3    3  502    0 -0.52092486289E+02  0.70095218970E+02  0.85000399294E+03  0.85447864507E+03  0.25500000920E-02 0. -1.
       -2    1    3    3    0  502  0.52092486289E+02 -0.70095218970E+02 -0.10593288420E+04  0.10629226511E+04  0.25500000920E-02 0.  1.
</event>
<event>
 5   0  0.3459485E-04  0.1828881E+04  0.7818609E-02  0.8691090E-01
        2   -1    0    0  501    0  0.00000000000E+00  0.00000000000E+00  0.10058959953E+04  0.10058959954E+04  0.25500000920E-02 0.  1.
       -2   -1    0    0    0  501  0.00000000000E+00  0.00000000000E+00 -0.83130010714E+03  0.83130010714E+03  0.25500000920E-02 0. -1.
    10030    2    1    2    0    0  0.00000000000E+00  0.00000000000E+00  0.17459588821E+03  0.18371961025E+04  0.18288810226E+04 0.  0.
        3    1    3    3  502    0 -0.62135383276E+03 -0.19852755855E+03 -0.55648054926E+03  0.85741727816E+03  0.10100000352E+00 0. -1.
       -3    1    3    3    0  502  0.62135383276E+03  0.19852755855E+03  0.73107643746E+03  0.97977882433E+03  0.10100000352E+00 0.  1.
</event>
<event>
 5   0  0.1711979E-04  0.1783554E+04  0.7818609E-02  0.8715094E-01
       -1   -1    0    0    0  501  0.00000000000E+00  0.00000000000E+00  0.86636328276E+03  0.86636328278E+03  0.50400001928E-02 0. -1.
        1   -1    0    0  501    0  0.00000000000E+00  0.00000000000E+00 -0.91793646648E+03  0.91793646649E+03  0.50400001928E-02 0.  1.
    10030    2    1    2    0    0  0.00000000000E+00  0.00000000000E+00 -0.51573183714E+02  0.17842997493E+04  0.17835542610E+04 0.  0.
        4    1    3    3  502    0  0.52140946744E+03 -0.25853216625E+03 -0.70175986579E+03  0.91168812422E+03  0.12699999809E+01 0. -1.
       -4    1    3    3    0  502 -0.52140946744E+03  0.25853216625E+03  0.65018668207E+03  0.87261162505E+03  0.12699999809E+01 0.  1.
</event>
<event>
 5   0  0.1711979E-04  0.1744210E+04  0.7818609E-02  0.8736544E-01
        1   -1    0    0  501    0  0.00000000000E+00  0.00000000000E+00  0.14449108946E+04  0.14449108946E+04  0.50400001928E-02 0. -1.
       -1   -1    0    0    0  501  0.00000000000E+00  0.00000000000E+00 -0.52637677935E+03  0.52637677938E+03  0.50400001928E-02 0.  1.
    10030    2    1    2    0    0  0.00000000000E+00  0.00000000000E+00  0.91853411526E+03  0.19712876740E+04  0.17442104726E+04 0.  0.
        4    1    3    3  502    0 -0.32833524966E+03 -0.48586541126E+03 -0.27029316169E+03  0.64570058091E+03  0.12699999809E+01 0.  1.
       -4    1    3    3    0  502  0.32833524966E+03  0.48586541126E+03  0.11888272770E+04  0.13255870931E+04  0.12699999809E+01 0. -1.
</event>
<event>
 5   0  0.3720978E-04  0.1730541E+04  0.7818609E-02  0.8744135E-01
       -2   -1    0    0    0  501  0.00000000000E+00  0.00000000000E+00  0.10994607885E+04  0.10994607885E+04  0.25500000920E-02 0. -1.
        2   -1    0    0  501    0  0.00000000000E+00  0.00000000000E+00 -0.68096350313E+03  0.68096350313E+03  0.25500000920E-02 0.  1.
    10030    2    1    2    0    0  0.00000000000E+00  0.00000000000E+00  0.41849728534E+03  0.17804242916E+04  0.17305405746E+04 0.  0.
        1    1    3    3  502    0  0.74052553249E+03 -0.15899071312E+03 -0.22118490065E+03  0.78903667305E+03  0.50400001928E-02 0.  1.
       -1    1    3    3    0  502 -0.74052553249E+03  0.15899071312E+03  0.63968218599E+03  0.99138761855E+03  0.50400001928E-02 0. -1.
</event>
<event>
 5   0  0.3516539E-04  0.1884416E+04  0.7818609E-02  0.8662653E-01
       -2   -1    0    0    0  501  0.00000000000E+00  0.00000000000E+00  0.73627511029E+03  0.73627511030E+03  0.25500000920E-02 0. -1.
        2   -1    0    0  501    0  0.00000000000E+00  0.00000000000E+00 -0.12057393082E+04  0.12057393082E+04  0.25500000920E-02 0.  1.
    10030    2    1    2    0    0  0.00000000000E+00  0.00000000000E+00 -0.46946419789E+03  0.19420144185E+04  0.18844159224E+04 0.  0.
        4    1    3    3  502    0  0.14002184776E+00  0.91995864801E+03 -0.44449790762E+03  0.10217161722E+04  0.12699999809E+01 0.  1.
       -4    1    3    3    0  502 -0.14002184776E+00 -0.91995864801E+03 -0.24966290269E+02  0.92029824633E+03  0.12699999809E+01 0. -1.
</event>
<event>
 5   0  0.1813834E-04  0.1860303E+04  0.7818609E-02  0.8674872E-01
        1   -1    0    0  501    0  0.00000000000E+00  0.00000000000E+00  0.16270864181E+04  0.16270864181E+04  0.50400001928E-02 0. -1.
       -1   -1    0    0    0  501  0.00000000000E+00  0.00000000000E+00 -0.53173713586E+03  0.53173713589E+03  0.50400001928E-02 0.  1.
    10030    2    1    2    0    0  0.00000000000E+00  0.00000000000E+00  0.10953492823E+04  0.21588235540E+04  0.18603034933E+04 0.  0.
        5    1    3    3  502    0 -0.63934352303E+03  0.64101218905E+03  0.30012896709E+03  0.95381143516E+03  0.46999998093E+01 0. -1.
       -5    1    3    3    0  502  0.63934352303E+03 -0.64101218905E+03  0.79522031518E+03  0.12050121189E+04  0.46999998093E+01 0.  1.
</event>
<event>
 5   0  0.3720978E-04  0.1798422E+04  0.7818609E-02  0.8707139E-01
       -2   -1    0    0    0  501  0.00000000000E+00  0.00000000000E+00  0.54789852171E+03  0.54789852171E+03  0.25500000920E-02 0.  1.
        2   -1    0    0  501    0  0.00000000000E+00  0.00000000000E+00 -0.14757852083E+04  0.14757852083E+04  0.25500000920E-02 0. -1.
    10030    2    1    2    0    0  0.00000000000E+00  0.00000000000E+00 -0.92788668659E+03  0.20236837300E+04  0.17984221240E+04 0.  0.
        1    1    3    3  502    0  0.31159058176E+03  0.16579526908E+03 -0.13945802078E+04  0.14385516042E+04  0.50400001928E-02 0. -1.
       -1    1    3    3    0  502 -0.31159058176E+03 -0.16579526908E+03  0.46669352122E+03  0.58513212582E+03  0.50400001928E-02 0.  1.
</event>
<event>
 5   0  0.3459485E-04  0.1910171E+04  0.7818609E-02  0.8649810E-01
       -2   -1    0    0    0  501  0.00000000000E+00  0.00000000000E+00  0.61440045256E+03  0.61440045256E+03  0.25500000920E-02 0.  1.
        2   -1    0    0  501    0  0.00000000000E+00  0.00000000000E+00 -0.14846810444E+04  0.14846810444E+04  0.25500000920E-02 0. -1.
    10030    2    1    2    0    0  0.00000000000E+00  0.00000000000E+00 -0.87028059180E+03  0.20990814969E+04  0.19101714117E+04 0.  0.
        3    1    3    3  502    0 -0.92612476722E+03  0.12943202592E+03 -0.22169116762E+03  0.96104459719E+03  0.10100000352E+00 0.  1.
       -3    1    3    3    0  502  0.92612476722E+03 -0.12943202592E+03 -0.64858942417E+03  0.11380368997E+04  0.10100000352E+00 0. -1.
</event>
<event>
 5   0  0.1694830E-04  0.1880313E+04  0.7818609E-02  0.8664718E-01
       -1   -1    0    0    0  501  0.00000000000E+00  0.00000000000E+00  0.50707566772E+03  0.50707566774E+03  0.50400001928E-02 0.  1.
        1   -1    0    0  501    0  0.00000000000E+00  0.00000000000E+00 -0.17431206719E+04  0.17431206719E+04  0.50400001928E-02 0. -1.
    10030    2    1    2    0    0  0.00000000000E+00  0.00000000000E+00 -0.12360450042E+04  0.22501963396E+04  0.18803128236E+04 0.  0.
        1    1    3    3  502    0 -0.44860617447E+03  0.53653570963E+03  0.13388719062E+03  0.71207011405E+03  0.50400001928E-02 0.  1.
       -1    1    3    3    0  502  0.44860617447E+03 -0.53653570963E+03 -0.13699321948E+04  0.15381262256E+04  0.50400001928E-02 0. -1.
</event>
<event>
 5   0  0.1694830E-04  0.1902422E+04  0.7818609E-02  0.8653652E-01
       -1   -1    0    0    0  501  0.00000000000E+00  0.00000000000E+00  0.55228344086E+03  0.55228344088E+03  0.50400001928E-02 0. -1.
        1   -1    0    0  501    0  0.00000000000E+00  0.00000000000E+00 -0.16382929952E+04  0.16382929952E+04  0.50400001928E-02 0.  1.
    10030    2    1    2    0    0  0.00000000000E+00  0.00000000000E+00 -0.10860095544E+04  0.21905764361E+04  0.19024217120E+04 0.  0.
        1    1    3    3  502    0 -0.38979721603E+03  0.86429583877E+03 -0.63109711477E+03  0.11389612526E+04  0.50400001928E-02 0. -1.
       -1    1    3    3    0  502  0.38979721603E+03 -0.86429583877E+03 -0.45491243960E+03  0.10516151835E+04  0.50400001928E-02 0.  1.
</event>
<event>
 5   0  0.1782613E-04  0.1898705E+04  0.7818609E-02  0.8655501E-01
       -1   -1    0    0    0  501  0.00000000000E+00  0.00000000000E+00  0.55950840593E+03  0.55950840596E+03  0.50400001928E-02 0. -1.
        1   -1    0    0  501    0  0.00000000000E+00  0.00000000000E+00 -0.16108246352E+04  0.16108246352E+04  0.50400001928E-02 0.  1.
    10030    2    1    2    0    0  0.00000000000E+00  0.00000000000E+00 -0.10513162293E+04  0.21703330412E+04  0.18987047416E+04 0.  0.
        3    1    3    3  502    0 -0.82811265150E+03  0.17448381867E+03 -0.33936767857E+02  0.84697513598E+03  0.10100000352E+00 0. -1.
       -3    1    3    3    0  502  0.82811265150E+03 -0.17448381867E+03 -0.10173794614E+04  0.13233579052E+04  0.10100000352E+00 0.  1.
</event>
<event>
 5   0  0.1813834E-04  0.1927006E+04  0.7818609E-02  0.8641529E-01
       -1   -1    0    0    0  501  0.00000000000E+00  0.00000000000E+00  0.72835600696E+03  0.72835600698E+03  0.50400001928E-02 0.  1.
        1   -1    0    0  501    0  0.00000000000E+00  0.00000000000E+00 -0.12745668443E+04  0.12745668443E+04  0.50400001928E-02 0. -1.
    10030    2    1    2    0    0  0.00000000000E+00  0.00000000000E+00 -0.54621083729E+03  0.20029228512E+04  0.19270064009E+04 0.  0.
        5    1    3    3  502    0 -0.26984009527E+03 -0.32405450963E+03  0.62733276339E+03  0.75590574032E+03  0.46999998093E+01 0.  1.
       -5    1    3    3    0  502  0.26984009527E+03  0.32405450963E+03 -0.11735436007E+04  0.12470171109E+04  0.46999998093E+01 0. -1.
</event>
<event>
 5   0  0.1782613E-04  0.1979351E+04  0.7818609E-02  0.8616336E-01
        1   -1    0    0  501    0  0.00000000000E+00  0.00000000000E+00  0.65617597612E+03  0.65617597614E+03  0.50400001928E-02 0.  1.
       -1   -1    0    0    0  501  0.00000000000E+00  0.00000000000E+00 -0.14926745880E+04  0.14926745880E+04  0.50400001928E-02 0. -1.
    10030    2    1    2    0    0  0.00000000000E+00  0.00000000000E+00 -0.83649861186E+03  0.21488505641E+04  0.19793506055E+04 0.  0.
        3    1    3    3  502    0  0.46684042618E+03 -0.56300949409E+02 -0.13636536458E+04  0.14424496720E+04  0.10100000352E+00 0. -1.
       -3    1    3    3    0  502 -0.46684042618E+03  0.56300949409E+02  0.52715503391E+03  0.70640089213E+03  0.10100000352E+00 0.  1.
</event>
<event>
 5   0  0.3516539E-04  0.1172813E+04  0.7818609E-02  0.9136992E-01
        2   -1    0    0  501    0  0.00000000000E+00  0.00000000000E+00  0.98216230973E+03  0.98216230973E+03  0.25500000920E-02 0. -1.
       -2   -1    0    0    0  501  0.00000000000E+00  0.00000000000E+00 -0.35011782986E+03  0.35011782987E+03  0.25500000920E-02 0.  1.
    10030    2    1    2    0    0  0.00000000000E+00  0.00000000000E+00  0.63204447987E+03  0.13322801396E+04  0.11728129202E+04 0.  0.
        4    1    3    3  502    0  0.56026553912E+03 -0.70869641775E+02  0.49545853568E+03  0.75126610061E+03  0.12699999809E+01 0. -1.
       -4    1    3    3    0  502 -0.56026553912E+03  0.70869641775E+02  0.13658594419E+03  0.58101403899E+03  0.12699999809E+01 0.  1.
</event>
<event>
 5   0  0.3720978E-04  0.1890806E+04  0.7818609E-02  0.8659447E-01
       -2   -1    0    0    0  501  0.00000000000E+00  0.00000000000E+00  0.61010491629E+03  0.61010491629E+03  0.25500000920E-02 0.  1.
        2   -1    0    0  501    0  0.00000000000E+00  0.00000000000E+00 -0.14649717172E+04  0.14649717172E+04  0.25500000920E-02 0. -1.
    10030    2    1    2    0    0  0.00000000000E+00  0.00000000000E+00 -0.85486680092E+03  0.20750766335E+04  0.18908055922E+04 0.  0.
        1    1    3    3  502    0  0.34497834492E+03  0.41316352651E+03 -0.12803993975E+04  0.13889336828E+04  0.50400001928E-02 0. -1.
       -1    1    3    3    0  502 -0.34497834492E+03 -0.41316352651E+03  0.42553259654E+03  0.68614295073E+03  0.50400001928E-02 0.  1.
</event>
<event>
 5   0  0.1758946E-04  0.1762605E+04  0.7818609E-02  0.8726443E-01
        1   -1    0    0  501    0  0.00000000000E+00  0.00000000000E+00  0.98860883627E+03  0.98860883628E+03  0.50400001928E-02 0.  1.
       -1   -1    0    0    0  501  0.00000000000E+00  0.00000000000E+00 -0.78564320121E+03  0.78564320122E+03  0.50400001928E-02 0. -1.
    10030    2    1    2    0    0  0.00000000000E+00  0.00000000000E+00  0.20296563506E+03  0.17742520375E+04  0.17626046759E+04 0.  0.
        2    1    3    3  502    0  0.10579575330E+02  0.41069294534E+03  0.88632290460E+03  0.97690783290E+03  0.25500000920E-02 0.  1.
       -2    1    3    3    0  502 -0.10579575330E+02 -0.41069294534E+03 -0.68335726954E+03  0.79734420460E+03  0.25500000920E-02 0. -1.
</event>
<event>
 5   0  0.3623359E-04  0.1898261E+04  0.7818609E-02  0.8655722E-01
       -2   -1    0    0    0  501  0.00000000000E+00  0.00000000000E+00  0.39367070467E+03  0.39367070468E+03  0.25500000920E-02 0.  1.
        2   -1    0    0  501    0  0.00000000000E+00  0.00000000000E+00 -0.22883314285E+04  0.22883314285E+04  0.25500000920E-02 0. -1.
    10030    2    1    2    0    0  0.00000000000E+00  0.00000000000E+00 -0.18946607239E+04  0.26820021332E+04  0.18982613582E+04 0.  0.
        5    1    3    3  502    0 -0.24946203175E+02 -0.30403966391E+03 -0.22171601190E+04  0.22380535099E+04  0.46999998093E+01 0. -1.
       -5    1    3    3    0  502  0.24946203175E+02  0.30403966391E+03  0.32249939508E+03  0.44394862328E+03  0.46999998093E+01 0.  1.
</event>
<event>
 5   0  0.1758946E-04  0.1610822E+04  0.7818609E-02  0.8813927E-01
        1   -1    0    0  501    0  0.00000000000E+00  0.00000000000E+00  0.11291621673E+04  0.11291621673E+04  0.50400001928E-02 0.  1.
       -1   -1    0    0    0  501  0.00000000000E+00  0.00000000000E+00 -0.57448527172E+03  0.57448527174E+03  0.50400001928E-02 0. -1.
    10030    2    1    2    0    0  0.00000000000E+00  0.00000000000E+00  0.55467689557E+03  0.17036474390E+04  0.16108221932E+04 0.  0.
        2    1    3    3  502    0  0.11653095953E+03  0.63848125449E+03 -0.22706074411E+03  0.68760043513E+03  0.25500000920E-02 0. -1.
       -2    1    3    3    0  502 -0.11653095953E+03 -0.63848125449E+03  0.78173763968E+03  0.10160470039E+04  0.25500000920E-02 0.  1.
</event>
<event>
 5   0  0.3535876E-04  0.1909725E+04  0.7818609E-02  0.8650031E-01
       -2   -1    0    0    0  501  0.00000000000E+00  0.00000000000E+00  0.87266033485E+03  0.87266033485E+03  0.25500000920E-02 0. -1.
        2   -1    0    0  501    0  0.00000000000E+00  0.00000000000E+00 -0.10448076602E+04  0.10448076602E+04  0.25500000920E-02 0.  1.
    10030    2    1    2    0    0  0.00000000000E+00  0.00000000000E+00 -0.17214732532E+03  0.19174679950E+04  0.19097247996E+04 0.  0.
        2    1    3    3  502    0 -0.26794508317E+03  0.29678883954E+03 -0.95670192912E+03  0.10368976632E+04  0.25500000920E-02 0.  1.
       -2    1    3    3    0  502  0.26794508317E+03 -0.29678883954E+03  0.78455460379E+03  0.88057033178E+03  0.25500000920E-02 0. -1.
</event>
<event>
 5   0  0.3459485E-04  0.1951838E+04  0.7818609E-02  0.8629475E-01
       -2   -1    0    0    0  501  0.00000000000E+00  0.00000000000E+00  0.47136350942E+03  0.47136350942E+03  0.25500000920E-02 0.  1.
        2   -1    0    0  501    0  0.00000000000E+00  0.00000000000E+00 -0.20205584051E+04  0.20205584051E+04  0.25500000920E-02 0. -1.
    10030    2    1    2    0    0  0.00000000000E+00  0.00000000000E+00 -0.15491948957E+04  0.24919219145E+04  0.19518375965E+04 0.  0.
        3    1    3    3  502    0 -0.21633585209E+03 -0.61688028893E+03  0.15052968881E+03  0.67082165229E+03  0.10100000352E+00 0.  1.
       -3    1    3    3    0  502  0.21633585209E+03  0.61688028893E+03 -0.16997245845E+04  0.18211002622E+04  0.10100000352E+00 0. -1.
</event>
<event>
 5   0  0.1287000E-04  0.1896290E+04  0.7818609E-02  0.8656706E-01
        3   -1    0    0  501    0  0.00000000000E+00  0.00000000000E+00  0.15392981799E+04  0.15392981832E+04  0.10100000352E+00 0.  1.
       -3   -1    0    0    0  501  0.00000000000E+00  0.00000000000E+00 -0.58401841929E+03  0.58401842802E+03  0.10100000352E+00 0. -1.
    10030    2    1    2    0    0  0.00000000000E+00  0.00000000000E+00  0.95527976062E+03  0.21233166112E+04  0.18962895376E+04 0.  0.
        5    1    3    3  502    0  0.48898839027E+03  0.67247415154E+03  0.98785136058E+03  0.12912023586E+04  0.46999998093E+01 0.  1.
       -5    1    3    3    0  502 -0.48898839027E+03 -0.67247415154E+03 -0.32571599959E+02  0.83211425263E+03  0.46999998093E+01 0. -1.
</event>
<event>
 5   0  0.3720978E-04  0.1858522E+04  0.7818609E-02  0.8675783E-01
        2   -1    0    0  501    0  0.00000000000E+00  0.00000000000E+00  0.96705833843E+03  0.96705833843E+03  0.25500000920E-02 0.  1.
       -2   -1    0    0    0  501  0.00000000000E+00  0.00000000000E+00 -0.89294058404E+03  0.89294058404E+03  0.25500000920E-02 0. -1.
    10030    2    1    2    0    0  0.00000000000E+00  0.00000000000E+00  0.74117754388E+02  0.18599989225E+04  0.18585216033E+04 0.  0.
        1    1    3    3  502    0  0.63137507710E+03  0.90518568273E+02 -0.63927231013E+03  0.90304882798E+03  0.50400001928E-02 0. -1.
       -1    1    3    3    0  502 -0.63137507710E+03 -0.90518568273E+02  0.71339006452E+03  0.95695009450E+03  0.50400001928E-02 0.  1.
</event>
<event>
 5   0  0.3516539E-04  0.1890607E+04  0.7818609E-02  0.8659546E-01
       -2   -1    0    0    0  501  0.00000000000E+00  0.00000000000E+00  0.71216604972E+03  0.71216604972E+03  0.25500000920E-02 0.  1.
        2   -1    0    0  501    0  0.00000000000E+00  0.00000000000E+00 -0.12547613799E+04  0.12547613799E+04  0.25500000920E-02 0. -1.
    10030    2    1    2    0    0  0.00000000000E+00  0.00000000000E+00 -0.54259533018E+03  0.19669274296E+04  0.18906067336E+04 0.  0.
        4    1    3    3  502    0 -0.71478994983E+03  0.24618203145E+03  0.31912084631E+03  0.82059124565E+03  0.12699999809E+01 0.  1.
       -4    1    3    3    0  502  0.71478994983E+03 -0.24618203145E+03 -0.86171617649E+03  0.11463361840E+04  0.12699999809E+01 0. -1.
</event>
<event>
 5   0  0.1813834E-04  0.1884834E+04  0.7818609E-02  0.8662443E-01
       -1   -1    0    0    0  501  0.00000000000E+00  0.00000000000E+00  0.94822557653E+03  0.94822557654E+03  0.50400001928E-02 0.  1.
        1   -1    0    0  501    0  0.00000000000E+00  0.00000000000E+00 -0.93664370216E+03  0.93664370217E+03  0.50400001928E-02 0. -1.
    10030    2    1    2    0    0  0.00000000000E+00  0.00000000000E+00  0.11581874367E+02  0.18848692787E+04  0.18848336951E+04 0.  0.
        5    1    3    3  502    0 -0.49643684755E+03  0.24903807343E+03 -0.75557612655E+03  0.93775630024E+03  0.46999998093E+01 0. -1.
       -5    1    3    3    0  502  0.49643684755E+03 -0.24903807343E+03  0.76715800092E+03  0.94711297847E+03  0.46999998093E+01 0.  1.
</event>
<event>
 5   0  0.1711979E-04  0.1816568E+04  0.7818609E-02  0.8697538E-01
       -1   -1    0    0    0  501  0.00000000000E+00  0.00000000000E+00  0.58516404824E+03  0.58516404826E+03  0.50400001928E-02 0. -1.
        1   -1    0    0  501    0  0.00000000000E+00  0.00000000000E+00 -0.14098272396E+04  0.14098272396E+04  0.50400001928E-02 0.  1.
    10030    2    1    2    0    0  0.00000000000E+00  0.00000000000E+00 -0.82466319136E+03  0.19949912879E+04  0.18165684296E+04 0.  0.
        4    1    3    3  502    0  0.24131903090E+03 -0.87478995803E+03 -0.36999302988E+03  0.97999428591E+03  0.12699999809E+01 0.  1.
       -4    1    3    3    0  502 -0.24131903090E+03  0.87478995803E+03 -0.45467016147E+03  0.10149970020E+04  0.12699999809E+01 0. -1.
</event>
<event>
 5   0  0.1813834E-04  0.1917836E+04  0.7818609E-02  0.8646029E-01
        1   -1    0    0  501    0  0.00000000000E+00  0.00000000000E+00  0.91013073796E+03  0.91013073798E+03  0.50400001928E-02 0.  1.
       -1   -1    0    0    0  501  0.00000000000E+00  0.00000000000E+00 -0.10103203873E+04  0.10103203874E+04  0.50400001928E-02 0. -1.
    10030    2    1    2    0    0  0.00000000000E+00  0.00000000000E+00 -0.10018964938E+03  0.19204511253E+04  0.19178359051E+04 0.  0.
        5    1    3    3  502    0 -0.16159120878E+03  0.38779686267E+03  0.81305705690E+03  0.91519505747E+03  0.46999998093E+01 0.  1.
       -5    1    3    3    0  502  0.16159120878E+03 -0.38779686267E+03 -0.91324670628E+03  0.10052560679E+04  0.46999998093E+01 0. -1.
</event>
<event>
 5   0  0.3459485E-04  0.1892444E+04  0.7818609E-02  0.8658627E-01
       -2   -1    0    0    0  501  0.00000000000E+00  0.00000000000E+00  0.54510375870E+03  0.54510375871E+03  0.25500000920E-02 0. -1.
        2   -1    0    0  501    0  0.00000000000E+00  0.00000000000E+00 -0.16425061968E+04  0.16425061968E+04  0.25500000920E-02 0.  1.
    10030    2    1    2    0    0  0.00000000000E+00  0.00000000000E+00 -0.10974024381E+04  0.21876099555E+04  0.18924442413E+04 0.  0.
        3    1    3    3  502    0  0.15899420896E+03  0.68505093715E+03  0.18309515635E+03  0.72670337240E+03  0.10100000352E+00 0. -1.
       -3    1    3    3    0  502 -0.15899420896E+03 -0.68505093715E+03 -0.12804975944E+04  0.14609065831E+04  0.10100000352E+00 0.  1.
</event>
<event>
 5   0  0.3535876E-04  0.1903824E+04  0.7818609E-02  0.8652955E-01
        2   -1    0    0  501    0  0.00000000000E+00  0.00000000000E+00  0.99514681923E+03  0.99514681924E+03  0.25500000920E-02 0.  1.
       -2   -1    0    0    0  501  0.00000000000E+00  0.00000000000E+00 -0.91055584779E+03  0.91055584780E+03  0.25500000920E-02 0. -1.
    10030    2    1    2    0    0  0.00000000000E+00  0.00000000000E+00  0.84590971439E+02  0.19057026670E+04  0.19038243151E+04 0.  0.
        2    1    3    3  502    0  0.27879063616E+03  0.51823532216E+03  0.79126140023E+03  0.98609668463E+03  0.25500000920E-02 0.  1.
       -2    1    3    3    0  502 -0.27879063616E+03 -0.51823532216E+03 -0.70667042879E+03  0.91960598240E+03  0.25500000920E-02 0. -1.
</event>
<event>
 5   0  0.3623359E-04  0.1953107E+04  0.7818609E-02  0.8628864E-01
        2   -1    0    0  501    0  0.00000000000E+00  0.00000000000E+00  0.22308556895E+04  0.22308556895E+04  0.25500000920E-02 0.  1.
       -2   -1    0    0    0  501  0.00000000000E+00  0.00000000000E+00 -0.42748466009E+03  0.42748466010E+03  0.25500000920E-02 0. -1.
    10030    2    1    2    0    0  0.00000000000E+00  0.00000000000E+00  0.18033710294E+04  0.26583403496E+04  0.19531068441E+04 0.  0.
        5    1    3    3  502    0  0.14473382314E+03 -0.14944439310E+03 -0.39695662990E+03  0.44819433531E+03  0.46999998093E+01 0. -1.
       -5    1    3    3    0  502 -0.14473382314E+03  0.14944439310E+03  0.22003276593E+04  0.22101460143E+04  0.46999998093E+01 0.  1.
</event>
<event>
 5   0  0.1711979E-04  0.1907600E+04  0.7818609E-02  0.8651082E-01
        1   -1    0    0  501    0  0.00000000000E+00  0.00000000000E+00  0.18971709533E+04  0.18971709533E+04  0.50400001928E-02 0. -1.
       -1   -1    0    0    0  501  0.00000000000E+00  0.00000000000E+00 -0.47952179849E+03  0.47952179851E+03  0.50400001928E-02 0.  1.
    10030    2    1    2    0    0  0.00000000000E+00  0.00000000000E+00  0.14176491548E+04  0.23766927518E+04  0.19076004064E+04 0.  0.
        4    1    3    3  502    0 -0.92313408636E+03 -0.21871089880E+03  0.83167262807E+03  0.12616227534E+04  0.12699999809E+01 0. -1.
       -4    1    3    3    0  502  0.92313408636E+03  0.21871089880E+03  0.58597652676E+03  0.11150699985E+04  0.12699999809E+01 0.  1.
</event>
<event>
 5   0  0.1694830E-04  0.1911225E+04  0.7818609E-02  0.8649289E-01
       -1   -1    0    0    0  501  0.00000000000E+00  0.00000000000E+00  0.52507966273E+03  0.52507966276E+03  0.50400001928E-02 0. -1.
        1   -1    0    0  501    0  0.00000000000E+00  0.00000000000E+00 -0.17391553754E+04  0.17391553754E+04  0.50400001928E-02 0.  1.
    10030    2    1    2    0    0  0.00000000000E+00  0.00000000000E+00 -0.12140757126E+04  0.22642350381E+04  0.19112248617E+04 0.  0.
        1    1    3    3  502    0 -0.34291814522E+03 -0.11240811086E+03  0.44125194547E+03  0.57002782135E+03  0.50400001928E-02 0. -1.
       -1    1    3    3    0  502  0.34291814522E+03  0.11240811086E+03 -0.16553276581E+04  0.16942072168E+04  0.50400001928E-02 0.  1.
</event>
<event>
 5   0  0.3535876E-04  0.1934386E+04  0.7818609E-02  0.8637927E-01
       -2   -1    0    0    0  501  0.00000000000E+00  0.00000000000E+00  0.10841321521E+04  0.10841321521E+04  0.25500000920E-02 0.  1.
        2   -1    0    0  501    0  0.00000000000E+00  0.00000000000E+00 -0.86286711479E+03  0.86286711480E+03  0.25500000920E-02 0. -1.
    10030    2    1    2    0    0  0.00000000000E+00  0.00000000000E+00  0.22126503726E+03  0.19469992669E+04  0.19343856721E+04 0.  0.
        2    1    3    3  502    0  0.45442409240E+03  0.83138597176E+03  0.30621400539E+03  0.99572632128E+03  0.25500000920E-02 0.  1.
       -2    1    3    3    0  502 -0.45442409240E+03 -0.83138597176E+03 -0.84948968130E+02  0.95127294558E+03  0.25500000920E-02 0. -1.
</event>
<event>
 5   0  0.1287000E-04  0.1867494E+04  0.7818609E-02  0.8671208E-01
       -3   -1    0    0    0  501  0.00000000000E+00  0.00000000000E+00  0.42520431013E+03  0.42520432213E+03  0.10100000352E+00 0. -1.
        3   -1    0    0  501    0  0.00000000000E+00  0.00000000000E+00 -0.20505056441E+04  0.20505056466E+04  0.10100000352E+00 0.  1.
    10030    2    1    2    0    0  0.00000000000E+00  0.00000000000E+00 -0.16253013340E+04  0.24757099688E+04  0.18674944238E+04 0.  0.
        3    1    3    3  502    0 -0.29929527080E+03  0.71403591332E+03 -0.12067479459E+03  0.78357345596E+03  0.10100000352E+00 0. -1.
       -3    1    3    3    0  502  0.29929527080E+03 -0.71403591332E+03 -0.15046265394E+04  0.16921365128E+04  0.10100000352E+00 0.  1.
</event>
<event>
 5   0  0.1711979E-04  0.1867815E+04  0.7818609E-02  0.8671045E-01
       -1   -1    0    0    0  501  0.00000000000E+00  0.00000000000E+00  0.56241326030E+03  0.56241326032E+03  0.50400001928E-02 0. -1.
        1   -1    0    0  501    0  0.00000000000E+00  0.00000000000E+00 -0.15507874077E+04  0.15507874077E+04  0.50400001928E-02 0.  1.
    10030    2    1    2    0    0  0.00000000000E+00  0.00000000000E+00 -0.98837414742E+03  0.21132006680E+04  0.18678151965E+04 0.  0.
        4    1    3    3  502    0  0.87861684982E+03 -0.29371644510E+03 -0.36058473110E+03  0.99411260937E+03  0.12699999809E+01 0.  1.
       -4    1    3    3    0  502 -0.87861684982E+03  0.29371644510E+03 -0.62778941632E+03  0.11190880587E+04  0.12699999809E+01 0. -1.
</event>
<event>
 5   0  0.3516539E-04  0.1908063E+04  0.7818609E-02  0.8650853E-01
        2   -1    0    0  501    0  0.00000000000E+00  0.00000000000E+00  0.16767380018E+04  0.16767380018E+04  0.25500000920E-02 0. -1.
       -2   -1    0    0    0  501  0.00000000000E+00  0.00000000000E+00 -0.54282536087E+03  0.54282536088E+03  0.25500000920E-02 0.  1.
    10030    2    1    2    0    0  0.00000000000E+00  0.00000000000E+00  0.11339126409E+04  0.22195633626E+04  0.19080627987E+04 0.  0.
        4    1    3    3  502    0 -0.17558485064E+02 -0.12889638842E+03  0.16663717141E+04  0.16714421563E+04  0.12699999809E+01 0. -1.
       -4    1    3    3    0  502  0.17558485064E+02  0.12889638842E+03 -0.53245907320E+03  0.54812120637E+03  0.12699999809E+01 0.  1.
</event>
<event>
 5   0  0.1813834E-04  0.1903276E+04  0.7818609E-02  0.8653227E-01
       -1   -1    0    0    0  501  0.00000000000E+00  0.00000000000E+00  0.13063907019E+04  0.13063907019E+04  0.50400001928E-02 0.  1.
        1   -1    0    0  501    0  0.00000000000E+00  0.00000000000E+00 -0.69321892685E+03  0.69321892687E+03  0.50400001928E-02 0. -1.
    10030    2    1    2    0    0  0.00000000000E+00  0.00000000000E+00  0.61317177508E+03  0.19996096288E+04  0.19032758712E+04 0.  0.
        5    1    3    3  502    0 -0.74547037992E+03 -0.15834432952E+03 -0.29216648418E+03  0.81619995008E+03  0.46999998093E+01 0. -1.
       -5    1    3    3    0  502  0.74547037992E+03  0.15834432952E+03  0.90533825926E+03  0.11834096787E+04  0.46999998093E+01 0.  1.
</event>
<event>
 5   0  0.3459485E-04  0.1866950E+04  0.7818609E-02  0.8671485E-01
        2   -1    0    0  501    0  0.00000000000E+00  0.00000000000E+00  0.98395558507E+03  0.98395558507E+03  0.25500000920E-02 0. -1.
       -2   -1    0    0    0  501  0.00000000000E+00  0.00000000000E+00 -0.88558397990E+03  0.88558397991E+03  0.25500000920E-02 0.  1.
    10030    2    1    2    0    0  0.00000000000E+00  0.00000000000E+00  0.98371605169E+02  0.18695395650E+04  0.18669497080E+04 0.  0.
        3    1    3    3  502    0  0.38169911465E+03  0.71771164557E+03 -0.41033099977E+03  0.91059088502E+03  0.10100000352E+00 0.  1.
       -3    1    3    3    0  502 -0.38169911465E+03 -0.71771164557E+03  0.50870260494E+03  0.95894867996E+03  0.10100000352E+00 0. -1.
</event>
<event>
 5   0  0.3720978E-04  0.1872196E+04  0.7818609E-02  0.8668821E-01
        2   -1    0    0  501    0  0.00000000000E+00  0.00000000000E+00  0.87661198484E+03  0.87661198485E+03  0.25500000920E-02 0.  1.
       -2   -1    0    0    0  501  0.00000000000E+00  0.00000000000E+00 -0.99962101713E+03  0.99962101713E+03  0.25500000920E-02 0. -1.
    10030    2    1    2    0    0  0.00000000000E+00  0.00000000000E+00 -0.12300903229E+03  0.18762330020E+04  0.18721963187E+04 0.  0.
        1    1    3    3  502    0  0.48178188924E+02 -0.36319337791E+03 -0.92478462297E+03  0.99471461563E+03  0.50400001928E-02 0. -1.
       -1    1    3    3    0  502 -0.48178188924E+02  0.36319337791E+03  0.80177559068E+03  0.88151838635E+03  0.50400001928E-02 0.  1.
</event>
<event>
 5   0  0.1782613E-04  0.1787732E+04  0.7818609E-02  0.8712851E-01
        1   -1    0    0  501    0  0.00000000000E+00  0.00000000000E+00  0.19502093381E+04  0.19502093382E+04  0.50400001928E-02 0. -1.
       -1   -1    0    0    0  501  0.00000000000E+00  0.00000000000E+00 -0.40969783713E+03  0.40969783716E+03  0.50400001928E-02 0.  1.
    10030    2    1    2    0    0  0.00000000000E+00  0.00000000000E+00  0.15405115010E+04  0.23599071753E+04  0.17877321363E+04 0.  0.
        3    1    3    3  502    0 -0.76115007301E+03 -0.22468027130E+03  0.22731947503E+03  0.82553304712E+03  0.10100000352E+00 0.  1.
       -3    1    3    3    0  502  0.76115007301E+03  0.22468027130E+03  0.13131920260E+04  0.15343741282E+04  0.10100000352E+00 0. -1.
</event>
<event>
 5   0  0.1711979E-04  0.1478694E+04  0.7818609E-02  0.8898746E-01
       -1   -1    0    0    0  501  0.00000000000E+00  0.00000000000E+00  0.13029097538E+04  0.13029097538E+04  0.50400001928E-02 0. -1.
        1   -1    0    0  501    0  0.00000000000E+00  0.00000000000E+00 -0.41954889047E+03  0.41954889050E+03  0.50400001928E-02 0.  1.
    10030    2    1    2    0    0  0.00000000000E+00  0.00000000000E+00  0.88336086337E+03  0.17224586443E+04  0.14786944805E+04 0.  0.
        4    1    3    3  502    0 -0.64650029805E+02 -0.67246277603E+03  0.79161475269E+03  0.10406927217E+04  0.12699999809E+01 0.  1.
       -4    1    3    3    0  502  0.64650029805E+02  0.67246277603E+03  0.91746110674E+02  0.68176592260E+03  0.12699999809E+01 0. -1.
</event>
<event>
 5   0  0.1711979E-04  0.1889114E+04  0.7818609E-02  0.8660294E-01
        1   -1    0    0  501    0  0.00000000000E+00  0.00000000000E+00  0.10855446213E+04  0.10855446213E+04  0.50400001928E-02 0. -1.
       -1   -1    0    0    0  501  0.00000000000E+00  0.00000000000E+00 -0.82188041379E+03  0.82188041381E+03  0.50400001928E-02 0.  1.
    10030    2    1    2    0    0  0.00000000000E+00  0.00000000000E+00  0.26366420746E+03  0.19074250351E+04  0.18891139325E+04 0.  0.
        4    1    3    3  502    0 -0.14217208875E+03 -0.45422085628E+02 -0.80989817516E+03  0.82353672396E+03  0.12699999809E+01 0.  1.
       -4    1    3    3    0  502  0.14217208875E+03  0.45422085628E+02  0.10735623826E+04  0.10838883111E+04  0.12699999809E+01 0. -1.
</event>
<event>
 5   0  0.1711979E-04  0.1875043E+04  0.7818609E-02  0.8667380E-01
       -1   -1    0    0    0  501  0.00000000000E+00  0.00000000000E+00  0.11762996600E+04  0.11762996600E+04  0.50400001928E-02 0. -1.
        1   -1    0    0  501    0  0.00000000000E+00  0.00000000000E+00 -0.74721331531E+03  0.74721331533E+03  0.50400001928E-02 0.  1.
    10030    2    1    2    0    0  0.00000000000E+00  0.00000000000E+00  0.42908634466E+03  0.19235129753E+04  0.18750432195E+04 0.  0.
        4    1    3    3  502    0  0.51848249837E+03  0.74547720552E+03 -0.24690644219E+02  0.90838956724E+03  0.12699999809E+01 0. -1.
       -4    1    3    3    0  502 -0.51848249837E+03 -0.74547720552E+03  0.45377698888E+03  0.10151234081E+04  0.12699999809E+01 0.  1.
</event>
<event>
 5   0  0.1694830E-04  0.1896429E+04  0.7818609E-02  0.8656636E-01
        1   -1    0    0  501    0  0.00000000000E+00  0.00000000000E+00  0.79535475152E+03  0.79535475154E+03  0.50400001928E-02 0. -1.
       -1   -1    0    0    0  501  0.00000000000E+00  0.00000000000E+00 -0.11304528594E+04  0.11304528594E+04  0.50400001928E-02 0.  1.
    10030    2    1    2    0    0  0.00000000000E+00  0.00000000000E+00 -0.33509810789E+03  0.19258076110E+04  0.18964293323E+04 0.  0.
        1    1    3    3  502    0 -0.39905043435E+03  0.55547912714E+03 -0.83446696256E+03  0.10789501478E+04  0.50400001928E-02 0.  1.
       -1    1    3    3    0  502  0.39905043435E+03 -0.55547912714E+03  0.49936885467E+03  0.84685746314E+03  0.50400001928E-02 0. -1.
</event>
<event>
 5   0  0.3623359E-04  0.1917015E+04  0.7818609E-02  0.8646433E-01
        2   -1    0    0  501    0  0.00000000000E+00  0.00000000000E+00  0.75260862007E+03  0.75260862008E+03  0.25500000920E-02 0. -1.
       -2   -1    0    0    0  501  0.00000000000E+00  0.00000000000E+00 -0.12207359933E+04  0.12207359933E+04  0.25500000920E-02 0.  1.
    10030    2    1    2    0    0  0.00000000000E+00  0.00000000000E+00 -0.46812737322E+03  0.19733446134E+04  0.19170147953E+04 0.  0.
        5    1    3    3  502    0  0.26758535327E+03  0.63429450630E+03  0.45245365255E+03  0.82381298831E+03  0.46999998093E+01 0. -1.
       -5    1    3    3    0  502 -0.26758535327E+03 -0.63429450630E+03 -0.92058102577E+03  0.11495316251E+04  0.46999998093E+01 0.  1.
</event>
<event>
 5   0  0.3535876E-04  0.1688766E+04  0.7818609E-02  0.8767798E-01
       -2   -1    0    0    0  501  0.00000000000E+00  0.00000000000E+00  0.42325312934E+03  0.42325312935E+03  0.25500000920E-02 0.  1.
        2   -1    0    0  501    0  0.00000000000E+00  0.00000000000E+00 -0.16845298801E+04  0.16845298802E+04  0.25500000920E-02 0. -1.
    10030    2    1    2    0    0  0.00000000000E+00  0.00000000000E+00 -0.12612767508E+04  0.21077830095E+04  0.16887658728E+04 0.  0.
        2    1    3    3  502    0 -0.71162034100E+03  0.43967067447E+03 -0.48686741986E+03  0.96786037022E+03  0.25500000920E-02 0.  1.
       -2    1    3    3    0  502  0.71162034100E+03 -0.43967067447E+03 -0.77440933094E+03  0.11399226393E+04  0.25500000920E-02 0. -1.
</event>
<event>
 5   0  0.1758946E-04  0.1893121E+04  0.7818609E-02  0.8658288E-01
        1   -1    0    0  501    0  0.00000000000E+00  0.00000000000E+00  0.37819521759E+03  0.37819521763E+03  0.50400001928E-02 0. -1.
       -1   -1    0    0    0  501  0.00000000000E+00  0.00000000000E+00 -0.23690861479E+04  0.23690861479E+04  0.50400001928E-02 0.  1.
    10030    2    1    2    0    0  0.00000000000E+00  0.00000000000E+00 -0.19908909303E+04  0.27472813655E+04  0.18931212864E+04 0.  0.
        2    1    3    3  502    0  0.17326773040E+03  0.54659017486E+03  0.97480432238E+02  0.58162269585E+03  0.25500000920E-02 0. -1.
       -2    1    3    3    0  502 -0.17326773040E+03 -0.54659017486E+03 -0.20883713625E+04  0.21656586696E+04  0.25500000920E-02 0.  1.
</event>
<event>
 5   0  0.1694830E-04  0.1885388E+04  0.7818609E-02  0.8662164E-01
        1   -1    0    0  501    0  0.00000000000E+00  0.00000000000E+00  0.11487107054E+04  0.11487107054E+04  0.50400001928E-02 0.  1.
       -1   -1    0    0    0  501  0.00000000000E+00  0.00000000000E+00 -0.77362542890E+03  0.77362542892E+03  0.50400001928E-02 0. -1.
    10030    2    1    2    0    0  0.00000000000E+00  0.00000000000E+00  0.37508527652E+03  0.19223361343E+04  0.18853878245E+04 0.  0.
        1    1    3    3  502    0  0.11034948284E+03  0.13696144707E+03  0.11318329699E+04  0.11454175300E+04  0.50400001928E-02 0.  1.
       -1    1    3    3    0  502 -0.11034948284E+03 -0.13696144707E+03 -0.75674769335E+03  0.77691860434E+03  0.50400001928E-02 0. -1.
</event>
<event>
 5   0  0.1782613E-04  0.1879854E+04  0.7818609E-02  0.8664950E-01
       -1   -1    0    0    0  501  0.00000000000E+00  0.00000000000E+00  0.66318672118E+03  0.66318672120E+03  0.50400001928E-02 0.  1.
        1   -1    0    0  501    0  0.00000000000E+00  0.00000000000E+00 -0.13321473822E+04  0.13321473822E+04  0.50400001928E-02 0. -1.
    10030    2    1    2    0    0  0.00000000000E+00  0.00000000000E+00 -0.66896066098E+03  0.19953341034E+04  0.18798536693E+04 0.  0.
        3    1    3    3  502    0  0.15144761677E+03  0.36660307666E+03 -0.12389588286E+04  0.13009047565E+04  0.10100000352E+00 0. -1.
       -3    1    3    3    0  502 -0.15144761677E+03 -0.36660307666E+03  0.56999816762E+03  0.69442934682E+03  0.10100000352E+00 0.  1.
</event>
<event>
 5   0  0.1694830E-04  0.1905190E+04  0.7818609E-02  0.8652277E-01
       -1   -1    0    0    0  501  0.00000000000E+00  0.00000000000E+00  0.67213965328E+03  0.67213965330E+03  0.50400001928E-02 0. -1.
        1   -1    0    0  501    0  0.00000000000E+00  0.00000000000E+00 -0.13500722623E+04  0.13500722623E+04  0.50400001928E-02 0.  1.
    10030    2    1    2    0    0  0.00000000000E+00  0.00000000000E+00 -0.67793260902E+03  0.20222119156E+04  0.19051898617E+04 0.  0.
        1    1    3    3  502    0  0.95208580957E+03  0.15580072964E+02 -0.36758488493E+03  0.10207001397E+04  0.50400001928E-02 0.  1.
       -1    1    3    3    0  502 -0.95208580957E+03 -0.15580072964E+02 -0.31034772410E+03  0.10015117759E+04  0.50400001928E-02 0. -1.
</event>
<event>
 5   0  0.1711979E-04  0.1961716E+04  0.7818609E-02  0.8624732E-01
        1   -1    0    0  501    0  0.00000000000E+00  0.00000000000E+00  0.27380522587E+04  0.27380522587E+04  0.50400001928E-02 0. -1.
       -1   -1    0    0    0  501  0.00000000000E+00  0.00000000000E+00 -0.35137477194E+03  0.35137477197E+03  0.50400001928E-02 0.  1.
    10030    2    1    2    0    0  0.00000000000E+00  0.00000000000E+00  0.23866774867E+04  0.30894270306E+04  0.19617160732E+04 0.  0.
        4    1    3    3  502    0 -0.51845749567E+03  0.24725184893E+03 -0.58797527376E+02  0.57739970016E+03  0.12699999809E+01 0.  1.
       -4    1    3    3    0  502  0.51845749567E+03 -0.24725184893E+03  0.24454750141E+04  0.25120273305E+04  0.12699999809E+01 0. -1.
</event>
<event>
 5   0  0.1711979E-04  0.1884166E+04  0.7818609E-02  0.8662779E-01
       -1   -1    0    0    0  501  0.00000000000E+00  0.00000000000E+00  0.57567575303E+03  0.57567575305E+03  0.50400001928E-02 0.  1.
        1   -1    0    0  501    0  0.00000000000E+00  0.00000000000E+00 -0.15417011766E+04  0.15417011766E+04  0.50400001928E-02 0. -1.
    10030    2    1    2    0    0  0.00000000000E+00  0.00000000000E+00 -0.96602542354E+03  0.21173769296E+04  0.18841655827E+04 0.  0.
        4    1    3    3  502    0  0.51522714521E+03 -0.22287224922E+02 -0.13689879051E+04  0.14629030142E+04  0.12699999809E+01 0. -1.
       -4    1    3    3    0  502 -0.51522714521E+03  0.22287224922E+02  0.40296248159E+03  0.65447391546E+03  0.12699999809E+01 0.  1.
</event>
<event>
 5   0  0.1782613E-04  0.1721772E+04  0.7818609E-02  0.8749043E-01
       -1   -1    0    0    0  501  0.00000000000E+00  0.00000000000E+00  0.61239135640E+03  0.61239135642E+03  0.50400001928E-02 0.  1.
        1   -1    0    0  501    0  0.00000000000E+00  0.00000000000E+00 -0.12102143670E+04  0.12102143670E+04  0.50400001928E-02 0. -1.
    10030    2    1    2    0    0  0.00000000000E+00  0.00000000000E+00 -0.59782301059E+03  0.18226057234E+04  0.17217721310E+04 0.  0.
        3    1    3    3  502    0 -0.73859245697E+03  0.77452704217E+02 -0.75985142075E+03  0.10624932615E+04  0.10100000352E+00 0. -1.
       -3    1    3    3    0  502  0.73859245697E+03 -0.77452704217E+02  0.16202841016E+03  0.76011246193E+03  0.10100000352E+00 0.  1.
</event>
<event>
 5   0  0.3535876E-04  0.1914224E+04  0.7818609E-02  0.8647808E-01
        2   -1    0    0  501    0  0.00000000000E+00  0.00000000000E+00  0.18743312304E+04  0.18743312304E+04  0.25500000920E-02 0. -1.
       -2   -1    0    0    0  501  0.00000000000E+00  0.00000000000E+00 -0.48874160673E+03  0.48874160673E+03  0.25500000920E-02 0.  1.
    10030    2    1    2    0    0  0.00000000000E+00  0.00000000000E+00  0.13855896236E+04  0.23630728371E+04  0.19142242889E+04 0.  0.
        2    1    3    3  502    0 -0.84996157332E+03  0.43152060293E+03  0.58646488547E+03  0.11191897823E+04  0.25500000920E-02 0. -1.
       -2    1    3    3    0  502  0.84996157332E+03 -0.43152060293E+03  0.79912473816E+03  0.12438830548E+04  0.25500000920E-02 0.  1.
</event>
<event>
 5   0  0.1813834E-04  0.1818044E+04  0.7818609E-02  0.8696762E-01
       -1   -1    0    0    0  501  0.00000000000E+00  0.00000000000E+00  0.20067857423E+04  0.20067857423E+04  0.50400001928E-02 0.  1.
        1   -1    0    0  501    0  0.00000000000E+00  0.00000000000E+00 -0.41176349779E+03  0.41176349783E+03  0.50400001928E-02 0. -1.
    10030    2    1    2    0    0  0.00000000000E+00  0.00000000000E+00  0.15950222445E+04  0.24185492401E+04  0.18180441322E+04 0.  0.
        5    1    3    3  502    0 -0.98323868609E+02 -0.38697322966E+03 -0.28885293621E+03  0.49282245522E+03  0.46999998093E+01 0. -1.
       -5    1    3    3    0  502  0.98323868609E+02  0.38697322966E+03  0.18838751807E+04  0.19257267849E+04  0.46999998093E+01 0.  1.
</event>
<event>
 5   0  0.3720978E-04  0.1784711E+04  0.7818609E-02  0.8714473E-01
        2   -1    0    0  501    0  0.00000000000E+00  0.00000000000E+00  0.19551733460E+04  0.19551733460E+04  0.25500000920E-02 0. -1.
       -2   -1    0    0    0  501  0.00000000000E+00  0.00000000000E+00 -0.40727745390E+03  0.40727745391E+03  0.25500000920E-02 0.  1.
    10030    2    1    2    0    0  0.00000000000E+00  0.00000000000E+00  0.15478958921E+04  0.23624507999E+04  0.17847106458E+04 0.  0.
        1    1    3    3  502    0 -0.69861934733E+03 -0.42455240166E+03  0.12475060651E+04  0.14915043134E+04  0.50400001928E-02 0. -1.
       -1    1    3    3    0  502  0.69861934733E+03  0.42455240166E+03  0.30038982694E+03  0.87094648651E+03  0.50400001928E-02 0.  1.
</event>
<event>
 5   0  0.1782613E-04  0.2030623E+04  0.7818609E-02  0.8592436E-01
        1   -1    0    0  501    0  0.00000000000E+00  0.00000000000E+00  0.26560423392E+04  0.26560423392E+04  0.50400001928E-02 0. -1.
       -1   -1    0    0    0  501  0.00000000000E+00  0.00000000000E+00 -0.38811777194E+03  0.38811777197E+03  0.50400001928E-02 0.  1.
    10030    2    1    2    0    0  0.00000000000E+00  0.00000000000E+00  0.22679245672E+04  0.30441601111E+04  0.20306227960E+04 0.  0.
        3    1    3    3  502    0  0.10051575919E+04 -0.13809301231E+03  0.11909637938E+04  0.15645466541E+04  0.10100000352E+00 0.  1.
       -3    1    3    3    0  502 -0.10051575919E+04  0.13809301231E+03  0.10769607735E+04  0.14796134571E+04  0.10100000352E+00 0. -1.
</event>
<event>
 5   0  0.3720978E-04  0.1862044E+04  0.7818609E-02  0.8673984E-01
        2   -1    0    0  501    0  0.00000000000E+00  0.00000000000E+00  0.18107176136E+04  0.18107176136E+04  0.25500000920E-02 0.  1.
       -2   -1    0    0    0  501  0.00000000000E+00  0.00000000000E+00 -0.47870608295E+03  0.47870608296E+03  0.25500000920E-02 0. -1.
    10030    2    1    2    0    0  0.00000000000E+00  0.00000000000E+00  0.13320115306E+04  0.22894236965E+04  0.18620435399E+04 0.  0.
        1    1    3    3  502    0  0.61730808625E+03 -0.11155796167E+03 -0.17985458555E+03  0.65258112456E+03  0.50400001928E-02 0.  1.
       -1    1    3    3    0  502 -0.61730808625E+03  0.11155796167E+03  0.15118661162E+04  0.16368425720E+04  0.50400001928E-02 0. -1.
</event>
<event>
 5   0  0.1694830E-04  0.1942626E+04  0.7818609E-02  0.8633925E-01
        1   -1    0    0  501    0  0.00000000000E+00  0.00000000000E+00  0.16306497254E+04  0.16306497254E+04  0.50400001928E-02 0. -1.
       -1   -1    0    0    0  501  0.00000000000E+00  0.00000000000E+00 -0.57857226267E+03  0.57857226270E+03  0.50400001928E-02 0.  1.
    10030    2    1    2    0    0  0.00000000000E+00  0.00000000000E+00  0.10520774627E+04  0.22092219881E+04  0.19426257502E+04 0.  0.
        1    1    3    3  502    0  0.27628814493E+03  0.92705016813E+03  0.62577591342E+03  0.11521079147E+04  0.50400001928E-02 0.  1.
       -1    1    3    3    0  502 -0.27628814493E+03 -0.92705016813E+03  0.42630154932E+03  0.10571140734E+04  0.50400001928E-02 0. -1.
</event>
<event>
 5   0  0.3623359E-04  0.1811922E+04  0.7818609E-02  0.8699985E-01
       -2   -1    0    0    0  501  0.00000000000E+00  0.00000000000E+00  0.11421054709E+04  0.11421054709E+04  0.25500000920E-02 0. -1.
        2   -1    0    0  501    0  0.00000000000E+00  0.00000000000E+00 -0.71864242960E+03  0.71864242960E+03  0.25500000920E-02 0.  1.
    10030    2    1    2    0    0  0.00000000000E+00  0.00000000000E+00  0.42346304134E+03  0.18607479005E+04  0.18119221291E+04 0.  0.
        5    1    3    3  502    0 -0.49095087217E+03 -0.37305617600E+03 -0.46988566229E+03  0.77525369715E+03  0.46999998093E+01 0.  1.
       -5    1    3    3    0  502  0.49095087217E+03  0.37305617600E+03  0.89334870362E+03  0.10854942034E+04  0.46999998093E+01 0. -1.
</event>
<event>
 5   0  0.1758946E-04  0.1457312E+04  0.7818609E-02  0.8913347E-01
        1   -1    0    0  501    0  0.00000000000E+00  0.00000000000E+00  0.14112582964E+04  0.14112582964E+04  0.50400001928E-02 0.  1.
       -1   -1    0    0    0  501  0.00000000000E+00  0.00000000000E+00 -0.37621700400E+03  0.37621700404E+03  0.50400001928E-02 0. -1.
    10030    2    1    2    0    0  0.00000000000E+00  0.00000000000E+00  0.10350412924E+04  0.17874753005E+04  0.14573117281E+04 0.  0.
        2    1    3    3  502    0 -0.19358548013E+03 -0.63243166344E+03  0.89256270442E+03  0.11109065345E+04  0.25500000920E-02 0.  1.
       -2    1    3    3    0  502  0.19358548013E+03  0.63243166344E+03  0.14247858799E+03  0.67656876597E+03  0.25500000920E-02 0. -1.
</event>
<event>
 5   0  0.3459485E-04  0.1861212E+04  0.7818609E-02  0.8674408E-01
        2   -1    0    0  501    0  0.00000000000E+00  0.00000000000E+00  0.23475183884E+04  0.23475183884E+04  0.25500000920E-02 0. -1.
       -2   -1    0    0    0  501  0.00000000000E+00  0.00000000000E+00 -0.36891192151E+03  0.36891192152E+03  0.25500000920E-02 0.  1.
    10030    2    1    2    0    0  0.00000000000E+00  0.00000000000E+00  0.19786064669E+04  0.27164303099E+04  0.18612119917E+04 0.  0.
        3    1    3    3  502    0 -0.78871850545E+03  0.48844999543E+03  0.88237858161E+03  0.12803328670E+04  0.10100000352E+00 0. -1.
       -3    1    3    3    0  502  0.78871850545E+03 -0.48844999543E+03  0.10962278853E+04  0.14360974429E+04  0.10100000352E+00 0.  1.
</event>
<event>
 5   0  0.3535876E-04  0.1824346E+04  0.7818609E-02  0.8693459E-01
        2   -1    0    0  501    0  0.00000000000E+00  0.00000000000E+00  0.11395226587E+04  0.11395226587E+04  0.25500000920E-02 0.  1.
       -2   -1    0    0    0  501  0.00000000000E+00  0.00000000000E+00 -0.73018257304E+03  0.73018257304E+03  0.25500000920E-02 0. -1.
    10030    2    1    2    0    0  0.00000000000E+00  0.00000000000E+00  0.40934008564E+03  0.18697052317E+04  0.18243460055E+04 0.  0.
        2    1    3    3  502    0  0.21992566375E+03  0.38991168193E+02 -0.70172403579E+03  0.73641308461E+03  0.25500000920E-02 0. -1.
       -2    1    3    3    0  502 -0.21992566375E+03 -0.38991168193E+02  0.11110641214E+04  0.11332921471E+04  0.25500000920E-02 0.  1.
</event>
<event>
 5   0  0.1758946E-04  0.1845839E+04  0.7818609E-02  0.8682296E-01
       -1   -1    0    0    0  501  0.00000000000E+00  0.00000000000E+00  0.58476254156E+03  0.58476254158E+03  0.50400001928E-02 0. -1.
        1   -1    0    0  501    0  0.00000000000E+00  0.00000000000E+00 -0.14566258171E+04  0.14566258171E+04  0.50400001928E-02 0.  1.
    10030    2    1    2    0    0  0.00000000000E+00  0.00000000000E+00 -0.87186327551E+03  0.20413883587E+04  0.18458387957E+04 0.  0.
        2    1    3    3  502    0 -0.58520488697E+03 -0.41321309058E+03  0.20757992595E+03  0.74585470678E+03  0.25500000920E-02 0. -1.
       -2    1    3    3    0  502  0.58520488697E+03  0.41321309058E+03 -0.10794432015E+04  0.12955336519E+04  0.25500000920E-02 0.  1.
</event>
<event>
 5   0  0.3623359E-04  0.1889077E+04  0.7818609E-02  0.8660313E-01
       -2   -1    0    0    0  501  0.00000000000E+00  0.00000000000E+00  0.10708042944E+04  0.10708042944E+04  0.25500000920E-02 0. -1.
        2   -1    0    0  501    0  0.00000000000E+00  0.00000000000E+00 -0.83316164309E+03  0.83316164309E+03  0.25500000920E-02 0.  1.
    10030    2    1    2    0    0  0.00000000000E+00  0.00000000000E+00  0.23764265131E+03  0.19039659375E+04  0.18890770925E+04 0.  0.
        5    1    3    3  502    0  0.86186119103E+03 -0.33436510015E+03  0.31406502753E+03  0.97635222350E+03  0.46999998093E+01 0. -1.
       -5    1    3    3    0  502 -0.86186119103E+03  0.33436510015E+03 -0.76422376221E+02  0.92761371400E+03  0.46999998093E+01 0.  1.
</event>
<event>
 5   0  0.3623359E-04  0.1890219E+04  0.7818609E-02  0.8659740E-01
        2   -1    0    0  501    0  0.00000000000E+00  0.00000000000E+00  0.65803407526E+03  0.65803407526E+03  0.25500000920E-02 0.  1.
       -2   -1    0    0    0  501  0.00000000000E+00  0.00000000000E+00 -0.13574247391E+04  0.13574247391E+04  0.25500000920E-02 0. -1.
    10030    2    1    2    0    0  0.00000000000E+00  0.00000000000E+00 -0.69939066387E+03  0.20154588144E+04  0.18902187524E+04 0.  0.
        5    1    3    3  502    0  0.33926134778E+03  0.81728192723E+03  0.42017988554E+01  0.88492245749E+03  0.46999998093E+01 0. -1.
       -5    1    3    3    0  502 -0.33926134778E+03 -0.81728192723E+03 -0.70359246273E+03  0.11305363569E+04  0.46999998093E+01 0.  1.
</event>
<event>
 5   0  0.3459485E-04  0.1827347E+04  0.7818609E-02  0.8691891E-01
        2   -1    0    0  501    0  0.00000000000E+00  0.00000000000E+00  0.85593897180E+03  0.85593897181E+03  0.25500000920E-02 0. -1.
       -2   -1    0    0    0  501  0.00000000000E+00  0.00000000000E+00 -0.97530190337E+03  0.97530190337E+03  0.25500000920E-02 0.  1.
    10030    2    1    2    0    0  0.00000000000E+00  0.00000000000E+00 -0.11936293157E+03  0.18312408752E+04  0.18273466101E+04 0.  0.
        3    1    3    3  502    0 -0.87362831445E+03  0.24652335392E+03  0.44456796578E+02  0.90883255487E+03  0.10100000352E+00 0. -1.
       -3    1    3    3    0  502  0.87362831445E+03 -0.24652335392E+03 -0.16381972814E+03  0.92240832030E+03  0.10100000352E+00 0.  1.
</event>
<event>
 5   0  0.3720978E-04  0.1888858E+04  0.7818609E-02  0.8660422E-01
       -2   -1    0    0    0  501  0.00000000000E+00  0.00000000000E+00  0.53381977635E+03  0.53381977636E+03  0.25500000920E-02 0. -1.
        2   -1    0    0  501    0  0.00000000000E+00  0.00000000000E+00 -0.16708752820E+04  0.16708752820E+04  0.25500000920E-02 0.  1.
    10030    2    1    2    0    0  0.00000000000E+00  0.00000000000E+00 -0.11370555057E+04  0.22046950584E+04  0.18888581412E+04 0.  0.
        1    1    3    3  502    0  0.15737985202E+03 -0.25873192834E+03 -0.16126663051E+04  0.16408544238E+04  0.50400001928E-02 0.  1.
       -1    1    3    3    0  502 -0.15737985202E+03  0.25873192834E+03  0.47561079945E+03  0.56384063453E+03  0.50400001928E-02 0. -1.
</event>
<event>
 5   0  0.1813834E-04  0.1956036E+04  0.7818609E-02  0.8627455E-01
       -1   -1    0    0    0  501  0.00000000000E+00  0.00000000000E+00  0.74147027904E+03  0.74147027906E+03  0.50400001928E-02 0.  1.
        1   -1    0    0  501    0  0.00000000000E+00  0.00000000000E+00 -0.12900310169E+04  0.12900310169E+04  0.50400001928E-02 0. -1.
    10030    2    1    2    0    0  0.00000000000E+00  0.00000000000E+00 -0.54856073785E+03  0.20315012960E+04  0.19560364599E+04 0.  0.
        5    1    3    3  502    0  0.50971883458E+03  0.74908837118E+03  0.10809626404E+03  0.91249853176E+03  0.46999998093E+01 0. -1.
       -5    1    3    3    0  502 -0.50971883458E+03 -0.74908837118E+03 -0.65665700189E+03  0.11190027642E+04  0.46999998093E+01 0.  1.
</event>
<event>
 5   0  0.1694830E-04  0.1802426E+04  0.7818609E-02  0.8705010E-01
       -1   -1    0    0    0  501  0.00000000000E+00  0.00000000000E+00  0.20977663052E+04  0.20977663052E+04  0.50400001928E-02 0. -1.
        1   -1    0    0  501    0  0.00000000000E+00  0.00000000000E+00 -0.38716645805E+03  0.38716645808E+03  0.50400001928E-02 0.  1.
    10030    2    1    2    0    0  0.00000000000E+00  0.00000000000E+00  0.17105998472E+04  0.24849327633E+04  0.18024258656E+04 0.  0.
        1    1    3    3  502    0  0.67874669366E+03 -0.20200934224E+03  0.86853116082E+02  0.71347621705E+03  0.50400001928E-02 0.  1.
       -1    1    3    3    0  502 -0.67874669366E+03  0.20200934224E+03  0.16237467311E+04  0.17714565462E+04  0.50400001928E-02 0. -1.
</event>
<event>
 5   0  0.3535876E-04  0.1934450E+04  0.7818609E-02  0.8637896E-01
        2   -1    0    0  501    0  0.00000000000E+00  0.00000000000E+00  0.12154858194E+04  0.12154858194E+04  0.25500000920E-02 0. -1.
       -2   -1    0    0    0  501  0.00000000000E+00  0.00000000000E+00 -0.76967140630E+03  0.76967140631E+03  0.25500000920E-02 0.  1.
    10030    2    1    2    0    0  0.00000000000E+00  0.00000000000E+00  0.44581441310E+03  0.19851572257E+04  0.19344504956E+04 0.  0.
        2    1    3    3  502    0 -0.92291795406E+02  0.43587897178E+01  0.12109467415E+04  0.12144664612E+04  0.25500000920E-02 0. -1.
       -2    1    3    3    0  502  0.92291795406E+02 -0.43587897178E+01 -0.76513232841E+03  0.77069076453E+03  0.25500000920E-02 0.  1.
</event>
<event>
 5   0  0.1758946E-04  0.1565653E+04  0.7818609E-02  0.8841931E-01
       -1   -1    0    0    0  501  0.00000000000E+00  0.00000000000E+00  0.55095004425E+03  0.55095004427E+03  0.50400001928E-02 0.  1.
        1   -1    0    0  501    0  0.00000000000E+00  0.00000000000E+00 -0.11122913113E+04  0.11122913113E+04  0.50400001928E-02 0. -1.
    10030    2    1    2    0    0  0.00000000000E+00  0.00000000000E+00 -0.56134126706E+03  0.16632413556E+04  0.15656525122E+04 0.  0.
        2    1    3    3  502    0 -0.24900434034E+02  0.37102645883E+03  0.45113307766E+03  0.58463810903E+03  0.25500000920E-02 0.  1.
       -2    1    3    3    0  502  0.24900434034E+02 -0.37102645883E+03 -0.10124743447E+04  0.10786032466E+04  0.25500000920E-02 0. -1.
</event>
<event>
 5   0  0.3720978E-04  0.2607343E+04  0.7818609E-02  0.8365711E-01
       -2   -1    0    0    0  501  0.00000000000E+00  0.00000000000E+00  0.12570784844E+04  0.12570784844E+04  0.25500000920E-02 0. -1.
        2   -1    0    0  501    0  0.00000000000E+00  0.00000000000E+00 -0.13519915428E+04  0.13519915428E+04  0.25500000920E-02 0.  1.
    10030    2    1    2    0    0  0.00000000000E+00  0.00000000000E+00 -0.94913058438E+02  0.26090700272E+04  0.26073430764E+04 0.  0.
        1    1    3    3  502    0 -0.27211375335E+03  0.95572605932E+03 -0.89187639205E+03  0.13352534194E+04  0.50400001928E-02 0.  1.
       -1    1    3    3    0  502  0.27211375335E+03 -0.95572605932E+03  0.79696333362E+03  0.12738166078E+04  0.50400001928E-02 0. -1.
</event>
<event>
 5   0  0.3623359E-04  0.1888308E+04  0.7818609E-02  0.8660698E-01
       -2   -1    0    0    0  501  0.00000000000E+00  0.00000000000E+00  0.60384082211E+03  0.60384082211E+03  0.25500000920E-02 0. -1.
        2   -1    0    0  501    0  0.00000000000E+00  0.00000000000E+00 -0.14762609950E+04  0.14762609950E+04  0.25500000920E-02 0.  1.
    10030    2    1    2    0    0  0.00000000000E+00  0.00000000000E+00 -0.87242017293E+03  0.20801018171E+04  0.18883078699E+04 0.  0.
        5    1    3    3  502    0 -0.45429706714E+03  0.26205457660E+03 -0.13010269096E+04  0.14027656739E+04  0.46999998093E+01 0.  1.
       -5    1    3    3    0  502  0.45429706714E+03 -0.26205457660E+03  0.42860673664E+03  0.67733614330E+03  0.46999998093E+01 0. -1.
</event>
<event>
 5   0  0.1782613E-04  0.1892056E+04  0.7818609E-02  0.8658821E-01
        1   -1    0    0  501    0  0.00000000000E+00  0.00000000000E+00  0.16238741358E+04  0.16238741358E+04  0.50400001928E-02 0. -1.
       -1   -1    0    0    0  501  0.00000000000E+00  0.00000000000E+00 -0.55113186807E+03  0.55113186809E+03  0.50400001928E-02 0.  1.
    10030    2    1    2    0    0  0.00000000000E+00  0.00000000000E+00  0.10727422677E+04  0.21750060039E+04  0.18920557983E+04 0.  0.
        3    1    3    3  502    0 -0.79634577554E+02 -0.50592378313E+03 -0.37798321601E+03  0.63653111634E+03  0.10100000352E+00 0.  1.
       -3    1    3    3    0  502  0.79634577554E+02  0.50592378313E+03  0.14507254837E+04  0.15384748875E+04  0.10100000352E+00 0. -1.
</event>
<event>
 5   0  0.1813834E-04  0.1886839E+04  0.7818609E-02  0.8661435E-01
       -1   -1    0    0    0  501  0.00000000000E+00  0.00000000000E+00  0.35079989492E+03  0.35079989495E+03  0.50400001928E-02 0. -1.
        1   -1    0    0  501    0  0.00000000000E+00  0.00000000000E+00 -0.25371733116E+04  0.25371733116E+04  0.50400001928E-02 0.  1.
    10030    2    1    2    0    0  0.00000000000E+00  0.00000000000E+00 -0.21863734166E+04  0.28879732065E+04  0.18868387649E+04 0.  0.
        5    1    3    3  502    0 -0.51314263843E+03 -0.22385322473E+03  0.69045292772E+02  0.56410546536E+03  0.46999998093E+01 0. -1.
       -5    1    3    3    0  502  0.51314263843E+03  0.22385322473E+03 -0.22554187094E+04  0.23238677411E+04  0.46999998093E+01 0.  1.
</event>
<event>
 5   0  0.3720978E-04  0.2020594E+04  0.7818609E-02  0.8597052E-01
        2   -1    0    0  501    0  0.00000000000E+00  0.00000000000E+00  0.37367393456E+03  0.37367393456E+03  0.25500000920E-02 0.  1.
       -2   -1    0    0    0  501  0.00000000000E+00  0.00000000000E+00 -0.27315265842E+04  0.27315265842E+04  0.25500000920E-02 0. -1.
    10030    2    1    2    0    0  0.00000000000E+00  0.00000000000E+00 -0.23578526496E+04  0.31052005188E+04  0.20205942552E+04 0.  0.
        1    1    3    3  502    0  0.18374315183E+03  0.18066465478E+03  0.32232282918E+03  0.41266605090E+03  0.50400001928E-02 0.  1.
       -1    1    3    3    0  502 -0.18374315183E+03 -0.18066465478E+03 -0.26801754788E+04  0.26925344679E+04  0.50400001928E-02 0. -1.
</event>
<event>
 5   0  0.3516539E-04  0.1874469E+04  0.7818609E-02  0.8667670E-01
        2   -1    0    0  501    0  0.00000000000E+00  0.00000000000E+00  0.12222193047E+04  0.12222193047E+04  0.25500000920E-02 0.  1.
       -2   -1    0    0    0  501  0.00000000000E+00  0.00000000000E+00 -0.71869934935E+03  0.71869934936E+03  0.25500000920E-02 0. -1.
    10030    2    1    2    0    0  0.00000000000E+00  0.00000000000E+00  0.50351995535E+03  0.19409186541E+04  0.18744686917E+04 0.  0.
        4    1    3    3  502    0  0.16603006577E+03  0.33068969419E+03 -0.63986107253E+03  0.73915185289E+03  0.12699999809E+01 0. -1.
       -4    1    3    3    0  502 -0.16603006577E+03 -0.33068969419E+03  0.11433810279E+04  0.12017668012E+04  0.12699999809E+01 0.  1.
</event>
<event>
 5   0  0.1287000E-04  0.1951234E+04  0.7818609E-02  0.8629766E-01
       -4   -1    0    0    0  501  0.00000000000E+00  0.00000000000E+00  0.93972014961E+03  0.93972100779E+03  0.12699999809E+01 0. -1.
        4   -1    0    0  501    0  0.00000000000E+00  0.00000000000E+00 -0.10128829441E+04  0.10128837403E+04  0.12699999809E+01 0.  1.
    10030    2    1    2    0    0  0.00000000000E+00  0.00000000000E+00 -0.73162794515E+02  0.19526047481E+04  0.19512335862E+04 0.  0.
        5    1    3    3  502    0 -0.97151302631E+03 -0.89080906789E+02 -0.30826816347E+02  0.97608675375E+03  0.46999998093E+01 0. -1.
       -5    1    3    3    0  502  0.97151302631E+03  0.89080906789E+02 -0.42335978168E+02  0.97651799435E+03  0.46999998093E+01 0.  1.
</event>
<event>
 5   0  0.1711979E-04  0.1888912E+04  0.7818609E-02  0.8660395E-01
        1   -1    0    0  501    0  0.00000000000E+00  0.00000000000E+00  0.15131264386E+04  0.15131264386E+04  0.50400001928E-02 0. -1.
       -1   -1    0    0    0  501  0.00000000000E+00  0.00000000000E+00 -0.58950627763E+03  0.58950627765E+03  0.50400001928E-02 0.  1.
    10030    2    1    2    0    0  0.00000000000E+00  0.00000000000E+00  0.92362016095E+03  0.21026327162E+04  0.18889124219E+04 0.  0.
        4    1    3    3  502    0 -0.11277422310E+02  0.42538147318E+02  0.15119835760E+04  0.15126244152E+04  0.12699999809E+01 0. -1.
       -4    1    3    3    0  502  0.11277422310E+02 -0.42538147318E+02 -0.58836341509E+03  0.59000830108E+03  0.12699999809E+01 0.  1.
</event>
<event>
 5   0  0.3459485E-04  0.1379832E+04  0.7818609E-02  0.8968548E-01
       -2   -1    0    0    0  501  0.00000000000E+00  0.00000000000E+00  0.51341202004E+03  0.51341202004E+03  0.25500000920E-02 0.  1.
        2   -1    0    0  501    0  0.00000000000E+00  0.00000000000E+00 -0.92709963838E+03  0.92709963838E+03  0.25500000920E-02 0. -1.
    10030    2    1    2    0    0  0.00000000000E+00  0.00000000000E+00 -0.41368761834E+03  0.14405116584E+04  0.13798320160E+04 0.  0.
        3    1    3    3  502    0  0.43368103768E+03 -0.16152392330E+03  0.32733629996E+03  0.56684943655E+03  0.10100000352E+00 0.  1.
       -3    1    3    3    0  502 -0.43368103768E+03  0.16152392330E+03 -0.74102391830E+03  0.87366222188E+03  0.10100000352E+00 0. -1.
</event>
<event>
 5   0  0.1694830E-04  0.1884033E+04  0.7818609E-02  0.8662845E-01
       -1   -1    0    0    0  501  0.00000000000E+00  0.00000000000E+00  0.45169175992E+03  0.45169175995E+03  0.50400001928E-02 0.  1.
        1   -1    0    0  501    0  0.00000000000E+00  0.00000000000E+00 -0.19646030415E+04  0.19646030415E+04  0.50400001928E-02 0. -1.
    10030    2    1    2    0    0  0.00000000000E+00  0.00000000000E+00 -0.15129112816E+04  0.24162948015E+04  0.18840329142E+04 0.  0.
        1    1    3    3  502    0  0.16092674916E+03 -0.28626344310E+03 -0.18888133794E+04  0.19171489665E+04  0.50400001928E-02 0. -1.
       -1    1    3    3    0  502 -0.16092674916E+03  0.28626344310E+03  0.37590209779E+03  0.49914583501E+03  0.50400001928E-02 0.  1.
</event>
<event>
 5   0  0.3623359E-04  0.1972523E+04  0.7818609E-02  0.8619576E-01
       -2   -1    0    0    0  501  0.00000000000E+00  0.00000000000E+00  0.41396379930E+03  0.41396379931E+03  0.25500000920E-02 0.  1.
        2   -1    0    0  501    0  0.00000000000E+00  0.00000000000E+00 -0.23497503544E+04  0.23497503544E+04  0.25500000920E-02 0. -1.
    10030    2    1    2    0    0  0.00000000000E+00  0.00000000000E+00 -0.19357865551E+04  0.27637141538E+04  0.19725228355E+04 0.  0.
        5    1    3    3  502    0  0.45113248533E+03  0.10037657974E+03 -0.21886207662E+04  0.22368904590E+04  0.46999998093E+01 0. -1.
       -5    1    3    3    0  502 -0.45113248533E+03 -0.10037657974E+03  0.25283421109E+03  0.52682369477E+03  0.46999998093E+01 0.  1.
</event>
<event>
 5   0  0.1758946E-04  0.1927132E+04  0.7818609E-02  0.8641468E-01
       -1   -1    0    0    0  501  0.00000000000E+00  0.00000000000E+00  0.11105433229E+04  0.11105433229E+04  0.50400001928E-02 0. -1.
        1   -1    0    0  501    0  0.00000000000E+00  0.00000000000E+00 -0.83604050201E+03  0.83604050202E+03  0.50400001928E-02 0.  1.
    10030    2    1    2    0    0  0.00000000000E+00  0.00000000000E+00  0.27450282089E+03  0.19465838249E+04  0.19271317518E+04 0.  0.
        2    1    3    3  502    0  0.64343669244E+03 -0.70284544613E+03  0.28172201144E+03  0.99366482783E+03  0.25500000920E-02 0. -1.
       -2    1    3    3    0  502 -0.64343669244E+03  0.70284544613E+03 -0.72191905541E+01  0.95291899710E+03  0.25500000920E-02 0.  1.
</event>
<event>
 5   0  0.3720978E-04  0.1898025E+04  0.7818609E-02  0.8655840E-01
        2   -1    0    0  501    0  0.00000000000E+00  0.00000000000E+00  0.29674400927E+04  0.29674400927E+04  0.25500000920E-02 0.  1.
       -2   -1    0    0    0  501  0.00000000000E+00  0.00000000000E+00 -0.30350229980E+03  0.30350229981E+03  0.25500000920E-02 0. -1.
    10030    2    1    2    0    0  0.00000000000E+00  0.00000000000E+00  0.26639377929E+04  0.32709423926E+04  0.18980251765E+04 0.  0.
        1    1    3    3  502    0 -0.65522423867E+02  0.81488529690E+03  0.50137334141E+03  0.95901327552E+03  0.50400001928E-02 0. -1.
       -1    1    3    3    0  502  0.65522423867E+02 -0.81488529690E+03  0.21625644515E+04  0.23119291170E+04  0.50400001928E-02 0.  1.
</event>
<event>
 5   0  0.3535876E-04  0.1872739E+04  0.7818609E-02  0.8668546E-01
        2   -1    0    0  501    0  0.00000000000E+00  0.00000000000E+00  0.26755445806E+04  0.26755445806E+04  0.25500000920E-02 0.  1.
       -2   -1    0    0    0  501  0.00000000000E+00  0.00000000000E+00 -0.32770436291E+03  0.32770436292E+03  0.25500000920E-02 0. -1.
    10030    2    1    2    0    0  0.00000000000E+00  0.00000000000E+00  0.23478402177E+04  0.30032489435E+04  0.18727387776E+04 0.  0.
        2    1    3    3  502    0 -0.52357844837E+02 -0.93483560599E+03  0.11557286951E+04  0.14874030290E+04  0.25500000920E-02 0.  1.
       -2    1    3    3    0  502  0.52357844837E+02  0.93483560599E+03  0.11921115226E+04  0.15158459145E+04  0.25500000920E-02 0. -1.
</event>
<event>
 5   0  0.1287000E-04  0.1731174E+04  0.7818609E-02  0.8743782E-01
        3   -1    0    0  501    0  0.00000000000E+00  0.00000000000E+00  0.18968862639E+04  0.18968862666E+04  0.10100000352E+00 0.  1.
       -3   -1    0    0    0  501  0.00000000000E+00  0.00000000000E+00 -0.39498446410E+03  0.39498447701E+03  0.10100000352E+00 0. -1.
    10030    2    1    2    0    0  0.00000000000E+00  0.00000000000E+00  0.15019017998E+04  0.22918707436E+04  0.17311737316E+04 0.  0.
        1    1    3    3  502    0  0.36775904604E+03 -0.20304848250E+03  0.17528818362E+04  0.18025177208E+04  0.50400001928E-02 0.  1.
       -1    1    3    3    0  502 -0.36775904604E+03  0.20304848250E+03 -0.25098003641E+03  0.48935302277E+03  0.50400001928E-02 0. -1.
</event>
<event>
 5   0  0.1711979E-04  0.1913395E+04  0.7818609E-02  0.8648217E-01
        1   -1    0    0  501    0  0.00000000000E+00  0.00000000000E+00  0.14126421891E+04  0.14126421891E+04  0.50400001928E-02 0. -1.
       -1   -1    0    0    0  501  0.00000000000E+00  0.00000000000E+00 -0.64791356547E+03  0.64791356549E+03  0.50400001928E-02 0.  1.
    10030    2    1    2    0    0  0.00000000000E+00  0.00000000000E+00  0.76472862363E+03  0.20605557546E+04  0.19133949279E+04 0.  0.
        4    1    3    3  502    0  0.13919136790E+03  0.36466343720E+03  0.13229920075E+04  0.13793705536E+04  0.12699999809E+01 0. -1.
       -4    1    3    3    0  502 -0.13919136790E+03 -0.36466343720E+03 -0.55826338389E+03  0.68118520097E+03  0.12699999809E+01 0.  1.
</event>
<event>
 5   0  0.3516539E-04  0.1897343E+04  0.7818609E-02  0.8656180E-01
       -2   -1    0    0    0  501  0.00000000000E+00  0.00000000000E+00  0.62087302939E+03  0.62087302940E+03  0.25500000920E-02 0.  1.
        2   -1    0    0  501    0  0.00000000000E+00  0.00000000000E+00 -0.14495360513E+04  0.14495360513E+04  0.25500000920E-02 0. -1.
    10030    2    1    2    0    0  0.00000000000E+00  0.00000000000E+00 -0.82866302186E+03  0.20704090807E+04  0.18973432366E+04 0.  0.
        4    1    3    3  502    0 -0.80193241454E+03  0.49946079662E+03 -0.50832522220E+03  0.10728246964E+04  0.12699999809E+01 0.  1.
       -4    1    3    3    0  502  0.80193241454E+03 -0.49946079662E+03 -0.32033779966E+03  0.99758438422E+03  0.12699999809E+01 0. -1.
</event>
<event>
 5   0  0.3623359E-04  0.1919103E+04  0.7818609E-02  0.8645406E-01
        2   -1    0    0  501    0  0.00000000000E+00  0.00000000000E+00  0.18114039030E+04  0.18114039030E+04  0.25500000920E-02 0. -1.
       -2   -1    0    0    0  501  0.00000000000E+00  0.00000000000E+00 -0.50830137531E+03  0.50830137532E+03  0.25500000920E-02 0.  1.
    10030    2    1    2    0    0  0.00000000000E+00  0.00000000000E+00  0.13031025277E+04  0.23197052783E+04  0.19191030146E+04 0.  0.
        5    1    3    3  502    0  0.10780371433E+03  0.14400285798E+03  0.17908265177E+04  0.17998444851E+04  0.46999998093E+01 0. -1.
       -5    1    3    3    0  502 -0.10780371433E+03 -0.14400285798E+03 -0.48772399001E+03  0.51986079326E+03  0.46999998093E+01 0.  1.
</event>
<event>
 5   0  0.1694830E-04  0.1892561E+04  0.7818609E-02  0.8658568E-01
       -1   -1    0    0    0  501  0.00000000000E+00  0.00000000000E+00  0.76041901304E+03  0.76041901305E+03  0.50400001928E-02 0. -1.
        1   -1    0    0  501    0  0.00000000000E+00  0.00000000000E+00 -0.11775696153E+04  0.11775696153E+04  0.50400001928E-02 0.  1.
    10030    2    1    2    0    0  0.00000000000E+00  0.00000000000E+00 -0.41715060228E+03  0.19379886284E+04  0.18925605139E+04 0.  0.
        1    1    3    3  502    0  0.63156239615E+02 -0.16225829488E+03 -0.11610251134E+04  0.11740084237E+04  0.50400001928E-02 0.  1.
       -1    1    3    3    0  502 -0.63156239615E+02  0.16225829488E+03  0.74387451113E+03  0.76398020471E+03  0.50400001928E-02 0. -1.
</event>
<event>
 5   0  0.3516539E-04  0.1903404E+04  0.7818609E-02  0.8653164E-01
       -2   -1    0    0    0  501  0.00000000000E+00  0.00000000000E+00  0.77865124946E+03  0.77865124947E+03  0.25500000920E-02 0. -1.
        2   -1    0    0  501    0  0.00000000000E+00  0.00000000000E+00 -0.11632117893E+04  0.11632117893E+04  0.25500000920E-02 0.  1.
    10030    2    1    2    0    0  0.00000000000E+00  0.00000000000E+00 -0.38456053984E+03  0.19418630388E+04  0.19034035969E+04 0.  0.
        4    1    3    3  502    0 -0.26583940922E+03  0.59070536180E+03  0.51903887054E+03  0.83006408065E+03  0.12699999809E+01 0. -1.
       -4    1    3    3    0  502  0.26583940922E+03 -0.59070536180E+03 -0.90359941038E+03  0.11117989581E+04  0.12699999809E+01 0.  1.
</event>
<event>
 5   0  0.1287000E-04  0.1837080E+04  0.7818609E-02  0.8686825E-01
       -3   -1    0    0    0  501  0.00000000000E+00  0.00000000000E+00  0.30722415977E+04  0.30722415994E+04  0.10100000352E+00 0. -1.
        3   -1    0    0  501    0  0.00000000000E+00  0.00000000000E+00 -0.27462547761E+03  0.27462549618E+03  0.10100000352E+00 0.  1.
    10030    2    1    2    0    0  0.00000000000E+00  0.00000000000E+00  0.27976161201E+04  0.33468670955E+04  0.18370801288E+04 0.  0.
        5    1    3    3  502    0 -0.73140639724E+03 -0.74498041840E+02  0.39565611895E+03  0.83490785756E+03  0.46999998093E+01 0.  1.
       -5    1    3    3    0  502  0.73140639724E+03  0.74498041840E+02  0.24019600011E+04  0.25119592380E+04  0.46999998093E+01 0. -1.
</event>
<event>
 5   0  0.1782613E-04  0.1621773E+04  0.7818609E-02  0.8807283E-01
       -1   -1    0    0    0  501  0.00000000000E+00  0.00000000000E+00  0.36690832084E+03  0.36690832087E+03  0.50400001928E-02 0. -1.
        1   -1    0    0  501    0  0.00000000000E+00  0.00000000000E+00 -0.17921011934E+04  0.17921011934E+04  0.50400001928E-02 0.  1.
    10030    2    1    2    0    0  0.00000000000E+00  0.00000000000E+00 -0.14251928726E+04  0.21590095143E+04  0.16217729060E+04 0.  0.
        3    1    3    3  502    0  0.48321346304E+03 -0.13920616853E+03 -0.15594559732E+04  0.16385287763E+04  0.10100000352E+00 0.  1.
       -3    1    3    3    0  502 -0.48321346304E+03  0.13920616853E+03  0.13426310063E+03  0.52048073799E+03  0.10100000352E+00 0. -1.
</event>
<event>
 5   0  0.1758946E-04  0.1842294E+04  0.7818609E-02  0.8684126E-01
       -1   -1    0    0    0  501  0.00000000000E+00  0.00000000000E+00  0.99663249398E+03  0.99663249399E+03  0.50400001928E-02 0.  1.
        1   -1    0    0  501    0  0.00000000000E+00  0.00000000000E+00 -0.85137843676E+03  0.85137843677E+03  0.50400001928E-02 0. -1.
    10030    2    1    2    0    0  0.00000000000E+00  0.00000000000E+00  0.14525405722E+03  0.18480109308E+04  0.18422935866E+04 0.  0.
        2    1    3    3  502    0  0.79047183656E+03  0.20951255007E+03 -0.35268192365E+03  0.89057609012E+03  0.25500000920E-02 0.  1.
       -2    1    3    3    0  502 -0.79047183656E+03 -0.20951255007E+03  0.49793598087E+03  0.95743484064E+03  0.25500000920E-02 0. -1.
</event>
<event>
 5   0  0.1758946E-04  0.1824817E+04  0.7818609E-02  0.8693212E-01
        1   -1    0    0  501    0  0.00000000000E+00  0.00000000000E+00  0.13216378964E+04  0.13216378964E+04  0.50400001928E-02 0. -1.
       -1   -1    0    0    0  501  0.00000000000E+00  0.00000000000E+00 -0.62989237234E+03  0.62989237236E+03  0.50400001928E-02 0.  1.
    10030    2    1    2    0    0  0.00000000000E+00  0.00000000000E+00  0.69174552401E+03  0.19515302687E+04  0.18248173935E+04 0.  0.
        2    1    3    3  502    0  0.43516592446E+03 -0.34189439264E+03  0.11216607505E+04  0.12507533716E+04  0.25500000920E-02 0. -1.
       -2    1    3    3    0  502 -0.43516592446E+03  0.34189439264E+03 -0.42991522646E+03  0.70077689708E+03  0.25500000920E-02 0.  1.
</event>
<event>
 5   0  0.1694830E-04  0.1895367E+04  0.7818609E-02  0.8657166E-01
        1   -1    0    0  501    0  0.00000000000E+00  0.00000000000E+00  0.11236150020E+04  0.11236150020E+04  0.50400001928E-02 0.  1.
       -1   -1    0    0    0  501  0.00000000000E+00  0.00000000000E+00 -0.79929897782E+03  0.79929897784E+03  0.50400001928E-02 0. -1.
    10030    2    1    2    0    0  0.00000000000E+00  0.00000000000E+00  0.32431602419E+03  0.19229139799E+04  0.18953673233E+04 0.  0.
        1    1    3    3  502    0  0.65782039492E+03  0.31601997595E+03 -0.45120124807E+03  0.85800866164E+03  0.50400001928E-02 0. -1.
       -1    1    3    3    0  502 -0.65782039492E+03 -0.31601997595E+03  0.77551727226E+03  0.10649053182E+04  0.50400001928E-02 0.  1.
</event>
<event>
 5   0  0.1813834E-04  0.1937734E+04  0.7818609E-02  0.8636298E-01
       -1   -1    0    0    0  501  0.00000000000E+00  0.00000000000E+00  0.48706368194E+03  0.48706368197E+03  0.50400001928E-02 0. -1.
        1   -1    0    0  501    0  0.00000000000E+00  0.00000000000E+00 -0.19272710489E+04  0.19272710489E+04  0.50400001928E-02 0.  1.
    10030    2    1    2    0    0  0.00000000000E+00  0.00000000000E+00 -0.14402073669E+04  0.24143347308E+04  0.19377344846E+04 0.  0.
        5    1    3    3  502    0  0.70427014919E+03 -0.37439406311E+03 -0.34810901075E+02  0.79837412682E+03  0.46999998093E+01 0. -1.
       -5    1    3    3    0  502 -0.70427014919E+03  0.37439406311E+03 -0.14053964658E+04  0.16159606040E+04  0.46999998093E+01 0.  1.
</event>
<event>
 5   0  0.1758946E-04  0.1900954E+04  0.7818609E-02  0.8654381E-01
       -1   -1    0    0    0  501  0.00000000000E+00  0.00000000000E+00  0.86374977295E+03  0.86374977297E+03  0.50400001928E-02 0. -1.
        1   -1    0    0  501    0  0.00000000000E+00  0.00000000000E+00 -0.10459127891E+04  0.10459127891E+04  0.50400001928E-02 0.  1.
    10030    2    1    2    0    0  0.00000000000E+00  0.00000000000E+00 -0.18216301611E+03  0.19096625620E+04  0.19009544278E+04 0.  0.
        2    1    3    3  502    0 -0.86348549450E+03  0.15214840780E+03 -0.45971014469E+03  0.98999482541E+03  0.25500000920E-02 0.  1.
       -2    1    3    3    0  502  0.86348549450E+03 -0.15214840780E+03  0.27754712858E+03  0.91966773663E+03  0.25500000920E-02 0. -1.
</event>
<event>
 5   0  0.3516539E-04  0.1929044E+04  0.7818609E-02  0.8640533E-01
        2   -1    0    0  501    0  0.00000000000E+00  0.00000000000E+00  0.11836164668E+04  0.11836164668E+04  0.25500000920E-02 0.  1.
       -2   -1    0    0    0  501  0.00000000000E+00  0.00000000000E+00 -0.78598347267E+03  0.78598347267E+03  0.25500000920E-02 0. -1.
    10030    2    1    2    0    0  0.00000000000E+00  0.00000000000E+00  0.39763299411E+03  0.19695999395E+04  0.19290443031E+04 0.  0.
        4    1    3    3  502    0 -0.85177179783E+03  0.38849302670E+03 -0.38138753449E+02  0.93696222164E+03  0.12699999809E+01 0. -1.
       -4    1    3    3    0  502  0.85177179783E+03 -0.38849302670E+03  0.43577174755E+03  0.10326377178E+04  0.12699999809E+01 0.  1.
</event>
<event>
 5   0  0.3516539E-04  0.1874792E+04  0.7818609E-02  0.8667507E-01
       -2   -1    0    0    0  501  0.00000000000E+00  0.00000000000E+00  0.96923916263E+03  0.96923916263E+03  0.25500000920E-02 0.  1.
        2   -1    0    0  501    0  0.00000000000E+00  0.00000000000E+00 -0.90659879310E+03  0.90659879310E+03  0.25500000920E-02 0. -1.
    10030    2    1    2    0    0  0.00000000000E+00  0.00000000000E+00  0.62640369532E+02  0.18758379557E+04  0.18747917805E+04 0.  0.
        4    1    3    3  502    0  0.10846251843E+03 -0.91298587066E+03 -0.15154428111E+03  0.93181253478E+03  0.12699999809E+01 0. -1.
       -4    1    3    3    0  502 -0.10846251843E+03  0.91298587066E+03  0.21418465064E+03  0.94402542095E+03  0.12699999809E+01 0.  1.
</event>
<event>
 5   0  0.3720978E-04  0.1902728E+04  0.7818609E-02  0.8653500E-01
        2   -1    0    0  501    0  0.00000000000E+00  0.00000000000E+00  0.84253109357E+03  0.84253109357E+03  0.25500000920E-02 0. -1.
       -2   -1    0    0    0  501  0.00000000000E+00  0.00000000000E+00 -0.10742556261E+04  0.10742556261E+04  0.25500000920E-02 0.  1.
    10030    2    1    2    0    0  0.00000000000E+00  0.00000000000E+00 -0.23172453248E+03  0.19167867196E+04  0.19027283226E+04 0.  0.
        1    1    3    3  502    0 -0.45597479609E+03  0.72305098001E+03 -0.53653357842E+03  0.10092492334E+04  0.50400001928E-02 0.  1.
       -1    1    3    3    0  502  0.45597479609E+03 -0.72305098001E+03  0.30480904593E+03  0.90753748621E+03  0.50400001928E-02 0. -1.
</event>
<event>
 5   0  0.1711979E-04  0.1887795E+04  0.7818609E-02  0.8660956E-01
        1   -1    0    0  501    0  0.00000000000E+00  0.00000000000E+00  0.75975114562E+03  0.75975114563E+03  0.50400001928E-02 0. -1.
       -1   -1    0    0    0  501  0.00000000000E+00  0.00000000000E+00 -0.11726765312E+04  0.11726765313E+04  0.50400001928E-02 0.  1.
    10030    2    1    2    0    0  0.00000000000E+00  0.00000000000E+00 -0.41292538563E+03  0.19324276769E+04  0.18877948385E+04 0.  0.
        4    1    3    3  502    0 -0.69929927444E+03 -0.75836410011E+02  0.43783903514E+03  0.82853803166E+03  0.12699999809E+01 0. -1.
       -4    1    3    3    0  502  0.69929927444E+03  0.75836410011E+02 -0.85076442076E+03  0.11038896452E+04  0.12699999809E+01 0.  1.
</event>
<event>
 5   0  0.1711979E-04  0.1883073E+04  0.7818609E-02  0.8663328E-01
       -1   -1    0    0    0  501  0.00000000000E+00  0.00000000000E+00  0.41763946683E+03  0.41763946686E+03  0.50400001928E-02 0. -1.
        1   -1    0    0  501    0  0.00000000000E+00  0.00000000000E+00 -0.21226234775E+04  0.21226234775E+04  0.50400001928E-02 0.  1.
    10030    2    1    2    0    0  0.00000000000E+00  0.00000000000E+00 -0.17049840107E+04  0.25402629444E+04  0.18830733788E+04 0.  0.
        4    1    3    3  502    0 -0.17821094655E+03  0.32496331160E+03  0.31509662840E+03  0.48646458605E+03  0.12699999809E+01 0. -1.
       -4    1    3    3    0  502  0.17821094655E+03 -0.32496331160E+03 -0.20200806391E+04  0.20537983583E+04  0.12699999809E+01 0.  1.
</event>
<event>
 5   0  0.3623359E-04  0.1858193E+04  0.7818609E-02  0.8675951E-01
       -2   -1    0    0    0  501  0.00000000000E+00  0.00000000000E+00  0.12052835429E+04  0.12052835429E+04  0.25500000920E-02 0.  1.
        2   -1    0    0  501    0  0.00000000000E+00  0.00000000000E+00 -0.71619683927E+03  0.71619683928E+03  0.25500000920E-02 0. -1.
    10030    2    1    2    0    0  0.00000000000E+00  0.00000000000E+00  0.48908670363E+03  0.19214803822E+04  0.18581929543E+04 0.  0.
        5    1    3    3  502    0  0.24227636444E+03  0.85351390646E+03  0.52964054052E+03  0.10333078038E+04  0.46999998093E+01 0.  1.
       -5    1    3    3    0  502 -0.24227636444E+03 -0.85351390646E+03 -0.40553836885E+02  0.88817257837E+03  0.46999998093E+01 0. -1.
</event>
<event>
 5   0  0.1813834E-04  0.1311466E+04  0.7818609E-02  0.9020522E-01
       -1   -1    0    0    0  501  0.00000000000E+00  0.00000000000E+00  0.37017921147E+03  0.37017921150E+03  0.50400001928E-02 0. -1.
        1   -1    0    0  501    0  0.00000000000E+00  0.00000000000E+00 -0.11615611604E+04  0.11615611604E+04  0.50400001928E-02 0.  1.
    10030    2    1    2    0    0  0.00000000000E+00  0.00000000000E+00 -0.79138194890E+03  0.15317403719E+04  0.13114660414E+04 0.  0.
        5    1    3    3  502    0 -0.48729060178E+03 -0.32953361877E+03 -0.57346807065E+02  0.59106284163E+03  0.46999998093E+01 0. -1.
       -5    1    3    3    0  502  0.48729060178E+03  0.32953361877E+03 -0.73403514184E+03  0.94067753026E+03  0.46999998093E+01 0.  1.
</event>
<event>
 5   0  0.1813834E-04  0.1929296E+04  0.7818609E-02  0.8640410E-01
        1   -1    0    0  501    0  0.00000000000E+00  0.00000000000E+00  0.80021930275E+03  0.80021930277E+03  0.50400001928E-02 0. -1.
       -1   -1    0    0    0  501  0.00000000000E+00  0.00000000000E+00 -0.11628640335E+04  0.11628640335E+04  0.50400001928E-02 0.  1.
    10030    2    1    2    0    0  0.00000000000E+00  0.00000000000E+00 -0.36264473074E+03  0.19630833363E+04  0.19292964999E+04 0.  0.
        5    1    3    3  502    0  0.50900975173E+03  0.31404735153E+03  0.58877228080E+03  0.83928037925E+03  0.46999998093E+01 0. -1.
       -5    1    3    3    0  502 -0.50900975173E+03 -0.31404735153E+03 -0.95141701154E+03  0.11238029570E+04  0.46999998093E+01 0.  1.
</event>
<event>
 5   0  0.3535876E-04  0.1929861E+04  0.7818609E-02  0.8640134E-01
       -2   -1    0    0    0  501  0.00000000000E+00  0.00000000000E+00  0.45001424304E+03  0.45001424305E+03  0.25500000920E-02 0. -1.
        2   -1    0    0  501    0  0.00000000000E+00  0.00000000000E+00 -0.20690254411E+04  0.20690254411E+04  0.25500000920E-02 0.  1.
    10030    2    1    2    0    0  0.00000000000E+00  0.00000000000E+00 -0.16190111981E+04  0.25190396842E+04  0.19298610497E+04 0.  0.
        2    1    3    3  502    0  0.17616101980E+03 -0.59705137545E+03  0.15286832285E+03  0.64099280337E+03  0.25500000920E-02 0. -1.
       -2    1    3    3    0  502 -0.17616101980E+03  0.59705137545E+03 -0.17718795209E+04  0.18780468808E+04  0.25500000920E-02 0.  1.
</event>
<event>
 5   0  0.1782613E-04  0.1921023E+04  0.7818609E-02  0.8644462E-01
       -1   -1    0    0    0  501  0.00000000000E+00  0.00000000000E+00  0.58202742941E+03  0.58202742943E+03  0.50400001928E-02 0.  1.
        1   -1    0    0  501    0  0.00000000000E+00  0.00000000000E+00 -0.15851187575E+04  0.15851187575E+04  0.50400001928E-02 0. -1.
    10030    2    1    2    0    0  0.00000000000E+00  0.00000000000E+00 -0.10030913280E+04  0.21671461869E+04  0.19210232646E+04 0.  0.
        3    1    3    3  502    0 -0.31509469886E+03 -0.88757793054E+03 -0.71410987725E+03  0.11819611580E+04  0.10100000352E+00 0. -1.
       -3    1    3    3    0  502  0.31509469886E+03  0.88757793054E+03 -0.28898145080E+03  0.98518502889E+03  0.10100000352E+00 0.  1.
</event>
<event>
 5   0  0.3459485E-04  0.1966212E+04  0.7818609E-02  0.8622583E-01
        2   -1    0    0  501    0  0.00000000000E+00  0.00000000000E+00  0.10186155798E+04  0.10186155798E+04  0.25500000920E-02 0. -1.
       -2   -1    0    0    0  501  0.00000000000E+00  0.00000000000E+00 -0.94883446149E+03  0.94883446150E+03  0.25500000920E-02 0.  1.
    10030    2    1    2    0    0  0.00000000000E+00  0.00000000000E+00  0.69781118330E+02  0.19674500413E+04  0.19662121606E+04 0.  0.
        3    1    3    3  502    0  0.80600841888E+03 -0.23028166234E+03  0.54884642477E+03  0.10019539029E+04  0.10100000352E+00 0. -1.
       -3    1    3    3    0  502 -0.80600841888E+03  0.23028166234E+03 -0.47906530644E+03  0.96549613844E+03  0.10100000352E+00 0.  1.
</event>
<event>
 5   0  0.3516539E-04  0.1926962E+04  0.7818609E-02  0.8641551E-01
        2   -1    0    0  501    0  0.00000000000E+00  0.00000000000E+00  0.12530913602E+04  0.12530913602E+04  0.25500000920E-02 0.  1.
       -2   -1    0    0    0  501  0.00000000000E+00  0.00000000000E+00 -0.74080425015E+03  0.74080425016E+03  0.25500000920E-02 0. -1.
    10030    2    1    2    0    0  0.00000000000E+00  0.00000000000E+00  0.51228711002E+03  0.19938956103E+04  0.19269617593E+04 0.  0.
        4    1    3    3  502    0  0.89514180321E+03  0.34601865280E+03  0.16782031427E+03  0.97425511378E+03  0.12699999809E+01 0. -1.
       -4    1    3    3    0  502 -0.89514180321E+03 -0.34601865280E+03  0.34446679575E+03  0.10196404966E+04  0.12699999809E+01 0.  1.
</event>
<event>
 5   0  0.3516539E-04  0.1882999E+04  0.7818609E-02  0.8663365E-01
       -2   -1    0    0    0  501  0.00000000000E+00  0.00000000000E+00  0.12093703015E+04  0.12093703015E+04  0.25500000920E-02 0. -1.
        2   -1    0    0  501    0  0.00000000000E+00  0.00000000000E+00 -0.73296136717E+03  0.73296136718E+03  0.25500000920E-02 0.  1.
    10030    2    1    2    0    0  0.00000000000E+00  0.00000000000E+00  0.47640893434E+03  0.19423316687E+04  0.18829994260E+04 0.  0.
        4    1    3    3  502    0  0.81746246784E+03 -0.45027376197E+03  0.36633085129E+03  0.10025922664E+04  0.12699999809E+01 0.  1.
       -4    1    3    3    0  502 -0.81746246784E+03  0.45027376197E+03  0.11007808305E+03  0.93973940234E+03  0.12699999809E+01 0. -1.
</event>
<event>
 5   0  0.1758946E-04  0.1807592E+04  0.7818609E-02  0.8702273E-01
        1   -1    0    0  501    0  0.00000000000E+00  0.00000000000E+00  0.85620778796E+03  0.85620778797E+03  0.50400001928E-02 0.  1.
       -1   -1    0    0    0  501  0.00000000000E+00  0.00000000000E+00 -0.95402874956E+03  0.95402874957E+03  0.50400001928E-02 0. -1.
    10030    2    1    2    0    0  0.00000000000E+00  0.00000000000E+00 -0.97820961602E+02  0.18102365375E+04  0.18075915969E+04 0.  0.
        2    1    3    3  502    0 -0.33821062152E+03 -0.82823457348E+03 -0.17750363367E+03  0.91206714292E+03  0.25500000920E-02 0. -1.
       -2    1    3    3    0  502  0.33821062152E+03  0.82823457348E+03  0.79682672072E+02  0.89816939463E+03  0.25500000920E-02 0.  1.
</event>
<event>
 5   0  0.3720978E-04  0.1871295E+04  0.7818609E-02  0.8669278E-01
        2   -1    0    0  501    0  0.00000000000E+00  0.00000000000E+00  0.21412930021E+04  0.21412930021E+04  0.25500000920E-02 0. -1.
       -2   -1    0    0    0  501  0.00000000000E+00  0.00000000000E+00 -0.40883548378E+03  0.40883548379E+03  0.25500000920E-02 0.  1.
    10030    2    1    2    0    0  0.00000000000E+00  0.00000000000E+00  0.17324575183E+04  0.25501284859E+04  0.18712953379E+04 0.  0.
        1    1    3    3  502    0  0.24191220131E+02 -0.60182114579E+03 -0.10951451769E+03  0.61218243708E+03  0.50400001928E-02 0.  1.
       -1    1    3    3    0  502 -0.24191220131E+02  0.60182114579E+03  0.18419720360E+04  0.19379460488E+04  0.50400001928E-02 0. -1.
</event>
<event>
 5   0  0.1694830E-04  0.1994069E+04  0.7818609E-02  0.8609399E-01
        1   -1    0    0  501    0  0.00000000000E+00  0.00000000000E+00  0.61300741473E+03  0.61300741475E+03  0.50400001928E-02 0. -1.
       -1   -1    0    0    0  501  0.00000000000E+00  0.00000000000E+00 -0.16216409572E+04  0.16216409572E+04  0.50400001928E-02 0.  1.
    10030    2    1    2    0    0  0.00000000000E+00  0.00000000000E+00 -0.10086335424E+04  0.22346483719E+04  0.19940691370E+04 0.  0.
        1    1    3    3  502    0 -0.22689417883E+03  0.33737528840E+03 -0.15245213597E+04  0.15778049404E+04  0.50400001928E-02 0.  1.
       -1    1    3    3    0  502  0.22689417883E+03 -0.33737528840E+03  0.51588781725E+03  0.65684343159E+03  0.50400001928E-02 0. -1.
</event>
<event>
 5   0  0.1813834E-04  0.1947506E+04  0.7818609E-02  0.8631564E-01
       -1   -1    0    0    0  501  0.00000000000E+00  0.00000000000E+00  0.83960369018E+03  0.83960369020E+03  0.50400001928E-02 0. -1.
        1   -1    0    0  501    0  0.00000000000E+00  0.00000000000E+00 -0.11293362313E+04  0.11293362313E+04  0.50400001928E-02 0.  1.
    10030    2    1    2    0    0  0.00000000000E+00  0.00000000000E+00 -0.28973254113E+03  0.19689399215E+04  0.19475059613E+04 0.  0.
        5    1    3    3  502    0 -0.68558616186E+03  0.65760408912E+03  0.71265059962E+02  0.95266590268E+03  0.46999998093E+01 0.  1.
       -5    1    3    3    0  502  0.68558616186E+03 -0.65760408912E+03 -0.36099760109E+03  0.10162740188E+04  0.46999998093E+01 0. -1.
</event>
<event>
 5   0  0.3720978E-04  0.1880114E+04  0.7818609E-02  0.8664819E-01
        2   -1    0    0  501    0  0.00000000000E+00  0.00000000000E+00  0.13246573661E+04  0.13246573661E+04  0.25500000920E-02 0. -1.
       -2   -1    0    0    0  501  0.00000000000E+00  0.00000000000E+00 -0.66712134541E+03  0.66712134541E+03  0.25500000920E-02 0.  1.
    10030    2    1    2    0    0  0.00000000000E+00  0.00000000000E+00  0.65753602071E+03  0.19917787115E+04  0.18801140437E+04 0.  0.
        1    1    3    3  502    0 -0.57867864294E+03  0.39370709599E+03  0.99360154872E+03  0.12153675522E+04  0.50400001928E-02 0. -1.
       -1    1    3    3    0  502  0.57867864294E+03 -0.39370709599E+03 -0.33606552801E+03  0.77641115936E+03  0.50400001928E-02 0.  1.
</event>
<event>
 5   0  0.1813834E-04  0.1922594E+04  0.7818609E-02  0.8643691E-01
       -1   -1    0    0    0  501  0.00000000000E+00  0.00000000000E+00  0.44211852938E+03  0.44211852941E+03  0.50400001928E-02 0.  1.
        1   -1    0    0  501    0  0.00000000000E+00  0.00000000000E+00 -0.20901460725E+04  0.20901460725E+04  0.50400001928E-02 0. -1.
    10030    2    1    2    0    0  0.00000000000E+00  0.00000000000E+00 -0.16480275431E+04  0.25322646019E+04  0.19225944011E+04 0.  0.
        5    1    3    3  502    0  0.57620791512E+03  0.70496423141E+03 -0.12301448273E+04  0.15304471618E+04  0.46999998093E+01 0. -1.
       -5    1    3    3    0  502 -0.57620791512E+03 -0.70496423141E+03 -0.41788271576E+03  0.10018174400E+04  0.46999998093E+01 0.  1.
</event>
<event>
 5   0  0.1782613E-04  0.1876565E+04  0.7818609E-02  0.8666610E-01
       -1   -1    0    0    0  501  0.00000000000E+00  0.00000000000E+00  0.11054900140E+04  0.11054900140E+04  0.50400001928E-02 0.  1.
        1   -1    0    0  501    0  0.00000000000E+00  0.00000000000E+00 -0.79636507193E+03  0.79636507194E+03  0.50400001928E-02 0. -1.
    10030    2    1    2    0    0  0.00000000000E+00  0.00000000000E+00  0.30912494207E+03  0.19018550859E+04  0.18765645574E+04 0.  0.
        3    1    3    3  502    0 -0.38893656599E+03  0.71606888796E+03  0.62596257315E+03  0.10275482752E+04  0.10100000352E+00 0.  1.
       -3    1    3    3    0  502  0.38893656599E+03 -0.71606888796E+03 -0.31683763108E+03  0.87430681075E+03  0.10100000352E+00 0. -1.
</event>
<event>
 5   0  0.1711979E-04  0.1919339E+04  0.7818609E-02  0.8645290E-01
       -1   -1    0    0    0  501  0.00000000000E+00  0.00000000000E+00  0.69760225327E+03  0.69760225329E+03  0.50400001928E-02 0. -1.
        1   -1    0    0  501    0  0.00000000000E+00  0.00000000000E+00 -0.13201866182E+04  0.13201866182E+04  0.50400001928E-02 0.  1.
    10030    2    1    2    0    0  0.00000000000E+00  0.00000000000E+00 -0.62258436493E+03  0.20177888715E+04  0.19193385940E+04 0.  0.
        4    1    3    3  502    0  0.83644084960E+03  0.22344287208E+03 -0.74653740547E+03  0.11431884021E+04  0.12699999809E+01 0.  1.
       -4    1    3    3    0  502 -0.83644084960E+03 -0.22344287208E+03  0.12395304054E+03  0.87460046943E+03  0.12699999809E+01 0. -1.
</event>
<event>
 5   0  0.3623359E-04  0.1515802E+04  0.7818609E-02  0.8874012E-01
       -2   -1    0    0    0  501  0.00000000000E+00  0.00000000000E+00  0.59407797842E+03  0.59407797843E+03  0.25500000920E-02 0.  1.
        2   -1    0    0  501    0  0.00000000000E+00  0.00000000000E+00 -0.96690035737E+03  0.96690035737E+03  0.25500000920E-02 0. -1.
    10030    2    1    2    0    0  0.00000000000E+00  0.00000000000E+00 -0.37282237894E+03  0.15609783358E+04  0.15158023745E+04 0.  0.
        5    1    3    3  502    0 -0.44900510450E+03  0.36697119972E+02  0.44121136835E+03  0.63058847439E+03  0.46999998093E+01 0.  1.
       -5    1    3    3    0  502  0.44900510450E+03 -0.36697119972E+02 -0.81403374729E+03  0.93038986141E+03  0.46999998093E+01 0. -1.
</event>
<event>
 5   0  0.3720978E-04  0.1893969E+04  0.7818609E-02  0.8657864E-01
       -2   -1    0    0    0  501  0.00000000000E+00  0.00000000000E+00  0.58263264255E+03  0.58263264256E+03  0.25500000920E-02 0.  1.
        2   -1    0    0  501    0  0.00000000000E+00  0.00000000000E+00 -0.15391848207E+04  0.15391848207E+04  0.25500000920E-02 0. -1.
    10030    2    1    2    0    0  0.00000000000E+00  0.00000000000E+00 -0.95655217816E+03  0.21218174633E+04  0.18939686581E+04 0.  0.
        1    1    3    3  502    0  0.87406857614E+03  0.35878047742E+03 -0.40689241008E+03  0.10287277289E+04  0.50400001928E-02 0.  1.
       -1    1    3    3    0  502 -0.87406857614E+03 -0.35878047742E+03 -0.54965976808E+03  0.10930897344E+04  0.50400001928E-02 0. -1.
</event>
<event>
 5   0  0.1758946E-04  0.1902128E+04  0.7818609E-02  0.8653798E-01
        1   -1    0    0  501    0  0.00000000000E+00  0.00000000000E+00  0.11075175243E+04  0.11075175243E+04  0.50400001928E-02 0. -1.
       -1   -1    0    0    0  501  0.00000000000E+00  0.00000000000E+00 -0.81671199298E+03  0.81671199300E+03  0.50400001928E-02 0.  1.
    10030    2    1    2    0    0  0.00000000000E+00  0.00000000000E+00  0.29080553134E+03  0.19242295173E+04  0.19021281183E+04 0.  0.
        2    1    3    3  502    0  0.78948314746E+03  0.49970197888E+03 -0.34247654587E+02  0.93496449647E+03  0.25500000920E-02 0.  1.
       -2    1    3    3    0  502 -0.78948314746E+03 -0.49970197888E+03  0.32505318592E+03  0.98926502086E+03  0.25500000920E-02 0. -1.
</event>
<event>
 5   0  0.1813834E-04  0.1901467E+04  0.7818609E-02  0.8654127E-01
        1   -1    0    0  501    0  0.00000000000E+00  0.00000000000E+00  0.24553977650E+04  0.24553977650E+04  0.50400001928E-02 0. -1.
       -1   -1    0    0    0  501  0.00000000000E+00  0.00000000000E+00 -0.36812534650E+03  0.36812534653E+03  0.50400001928E-02 0.  1.
    10030    2    1    2    0    0  0.00000000000E+00  0.00000000000E+00  0.20872724185E+04  0.28235231116E+04  0.19014669633E+04 0.  0.
        5    1    3    3  502    0 -0.93459951909E+03 -0.10088372824E+03  0.83249421630E+03  0.12556761119E+04  0.46999998093E+01 0.  1.
       -5    1    3    3    0  502  0.93459951909E+03  0.10088372824E+03  0.12547782022E+04  0.15678469997E+04  0.46999998093E+01 0. -1.
</event>
<event>
 5   0  0.3459485E-04  0.1891326E+04  0.7818609E-02  0.8659186E-01
        2   -1    0    0  501    0  0.00000000000E+00  0.00000000000E+00  0.76291879466E+03  0.76291879466E+03  0.25500000920E-02 0.  1.
       -2   -1    0    0    0  501  0.00000000000E+00  0.00000000000E+00 -0.11721801205E+04  0.11721801205E+04  0.25500000920E-02 0. -1.
    10030    2    1    2    0    0  0.00000000000E+00  0.00000000000E+00 -0.40926132586E+03  0.19350989152E+04  0.18913257199E+04 0.  0.
        3    1    3    3  502    0 -0.77517813585E+03 -0.46045379092E+03 -0.49646790051E+03  0.10292712093E+04  0.10100000352E+00 0. -1.
       -3    1    3    3    0  502  0.77517813585E+03  0.46045379092E+03  0.87206574645E+02  0.90582770588E+03  0.10100000352E+00 0.  1.
</event>
<event>
 5   0  0.3720978E-04  0.1860105E+04  0.7818609E-02  0.8674974E-01
        2   -1    0    0  501    0  0.00000000000E+00  0.00000000000E+00  0.56180966183E+03  0.56180966184E+03  0.25500000920E-02 0.  1.
       -2   -1    0    0    0  501  0.00000000000E+00  0.00000000000E+00 -0.15396627737E+04  0.15396627737E+04  0.25500000920E-02 0. -1.
    10030    2    1    2    0    0  0.00000000000E+00  0.00000000000E+00 -0.97785311185E+03  0.21014724355E+04  0.18601047521E+04 0.  0.
        1    1    3    3  502    0  0.24995762823E+02  0.27062096554E+03  0.51594863368E+03  0.58314962725E+03  0.50400001928E-02 0.  1.
       -1    1    3    3    0  502 -0.24995762823E+02 -0.27062096554E+03 -0.14938017455E+04  0.15183228083E+04  0.50400001928E-02 0. -1.
</event>
<event>
 5   0  0.1287000E-04  0.1867397E+04  0.7818609E-02  0.8671258E-01
       -3   -1    0    0    0  501  0.00000000000E+00  0.00000000000E+00  0.14522944171E+04  0.14522944206E+04  0.10100000352E+00 0. -1.
        3   -1    0    0  501    0  0.00000000000E+00  0.00000000000E+00 -0.60028633992E+03  0.60028634842E+03  0.10100000352E+00 0.  1.
    10030    2    1    2    0    0  0.00000000000E+00  0.00000000000E+00  0.85200807721E+03  0.20525807691E+04  0.18673965968E+04 0.  0.
        2    1    3    3  502    0  0.66411494115E+03 -0.48342756757E+03  0.91391739191E+03  0.12288188912E+04  0.25500000920E-02 0. -1.
       -2    1    3    3    0  502 -0.66411494115E+03  0.48342756757E+03 -0.61909314704E+02  0.82376187785E+03  0.25500000920E-02 0.  1.
</event>
<event>
 5   0  0.1758946E-04  0.1937697E+04  0.7818609E-02  0.8636316E-01
        1   -1    0    0  501    0  0.00000000000E+00  0.00000000000E+00  0.19595090451E+04  0.19595090451E+04  0.50400001928E-02 0.  1.
       -1   -1    0    0    0  501  0.00000000000E+00  0.00000000000E+00 -0.47903188775E+03  0.47903188777E+03  0.50400001928E-02 0. -1.
    10030    2    1    2    0    0  0.00000000000E+00  0.00000000000E+00  0.14804771573E+04  0.24385409329E+04  0.19376968978E+04 0.  0.
        2    1    3    3  502    0 -0.33071572878E+03  0.31033968078E+03  0.18176742907E+04  0.18733988998E+04  0.25500000920E-02 0.  1.
       -2    1    3    3    0  502  0.33071572878E+03 -0.31033968078E+03 -0.33719713339E+03  0.56514203303E+03  0.25500000920E-02 0. -1.
</event>
<event>
 5   0  0.1813834E-04  0.1902698E+04  0.7818609E-02  0.8653515E-01
       -1   -1    0    0    0  501  0.00000000000E+00  0.00000000000E+00  0.18286905055E+04  0.18286905055E+04  0.50400001928E-02 0. -1.
        1   -1    0    0  501    0  0.00000000000E+00  0.00000000000E+00 -0.49492498442E+03  0.49492498445E+03  0.50400001928E-02 0.  1.
    10030    2    1    2    0    0  0.00000000000E+00  0.00000000000E+00  0.13337655211E+04  0.23236154900E+04  0.19026976849E+04 0.  0.
        5    1    3    3  502    0 -0.43026239069E+03 -0.66086083081E+03  0.17014115445E+02  0.78878028161E+03  0.46999998093E+01 0.  1.
       -5    1    3    3    0  502  0.43026239069E+03  0.66086083081E+03  0.13167514057E+04  0.15348352084E+04  0.46999998093E+01 0. -1.
</event>
<event>
 5   0  0.1758946E-04  0.1946482E+04  0.7818609E-02  0.8632059E-01
        1   -1    0    0  501    0  0.00000000000E+00  0.00000000000E+00  0.16319032679E+04  0.16319032679E+04  0.50400001928E-02 0. -1.
       -1   -1    0    0    0  501  0.00000000000E+00  0.00000000000E+00 -0.58042528480E+03  0.58042528482E+03  0.50400001928E-02 0.  1.
    10030    2    1    2    0    0  0.00000000000E+00  0.00000000000E+00  0.10514779831E+04  0.22123285527E+04  0.19464818715E+04 0.  0.
        2    1    3    3  502    0 -0.92681410013E+03 -0.86380440146E+02  0.84871912064E+03  0.12596706325E+04  0.25500000920E-02 0.  1.
       -2    1    3    3    0  502  0.92681410013E+03  0.86380440146E+02  0.20275886244E+03  0.95265792021E+03  0.25500000920E-02 0. -1.
</event>
<event>
 5   0  0.1813834E-04  0.1737286E+04  0.7818609E-02  0.8740380E-01
        1   -1    0    0  501    0  0.00000000000E+00  0.00000000000E+00  0.14252335099E+04  0.14252335099E+04  0.50400001928E-02 0. -1.
       -1   -1    0    0    0  501  0.00000000000E+00  0.00000000000E+00 -0.52941523262E+03  0.52941523264E+03  0.50400001928E-02 0.  1.
    10030    2    1    2    0    0  0.00000000000E+00  0.00000000000E+00  0.89581827732E+03  0.19546487426E+04  0.17372856187E+04 0.  0.
        5    1    3    3  502    0 -0.15292266446E+03 -0.82298524089E+03  0.18687194180E+03  0.85769065557E+03  0.46999998093E+01 0. -1.
       -5    1    3    3    0  502  0.15292266446E+03  0.82298524089E+03  0.70894633552E+03  0.10969580870E+04  0.46999998093E+01 0.  1.
</event>
<event>
 5   0  0.1758946E-04  0.1818469E+04  0.7818609E-02  0.8696539E-01
       -1   -1    0    0    0  501  0.00000000000E+00  0.00000000000E+00  0.40618272146E+03  0.40618272149E+03  0.50400001928E-02 0.  1.
        1   -1    0    0  501    0  0.00000000000E+00  0.00000000000E+00 -0.20353079791E+04  0.20353079791E+04  0.50400001928E-02 0. -1.
    10030    2    1    2    0    0  0.00000000000E+00  0.00000000000E+00 -0.16291252576E+04  0.24414907006E+04  0.18184685139E+04 0.  0.
        2    1    3    3  502    0 -0.33998014406E+03 -0.15401143864E+03  0.29858903750E+03  0.47797639577E+03  0.25500000920E-02 0.  1.
       -2    1    3    3    0  502  0.33998014406E+03  0.15401143864E+03 -0.19277142951E+04  0.19635143048E+04  0.25500000920E-02 0. -1.
</event>
<event>
 5   0  0.3459485E-04  0.1883589E+04  0.7818609E-02  0.8663069E-01
        2   -1    0    0  501    0  0.00000000000E+00  0.00000000000E+00  0.13210152085E+04  0.13210152085E+04  0.25500000920E-02 0. -1.
       -2   -1    0    0    0  501  0.00000000000E+00  0.00000000000E+00 -0.67143551717E+03  0.67143551718E+03  0.25500000920E-02 0.  1.
    10030    2    1    2    0    0  0.00000000000E+00  0.00000000000E+00  0.64957969135E+03  0.19924507257E+04  0.18835886278E+04 0.  0.
        3    1    3    3  502    0 -0.72246240587E+03  0.60257119128E+03  0.37129135208E+03  0.10113858051E+04  0.10100000352E+00 0. -1.
       -3    1    3    3    0  502  0.72246240587E+03 -0.60257119128E+03  0.27828833928E+03  0.98106492060E+03  0.10100000352E+00 0.  1.
</event>
<event>
 5   0  0.3535876E-04  0.1903888E+04  0.7818609E-02  0.8652923E-01
        2   -1    0    0  501    0  0.00000000000E+00  0.00000000000E+00  0.18870078143E+04  0.18870078143E+04  0.25500000920E-02 0. -1.
       -2   -1    0    0    0  501  0.00000000000E+00  0.00000000000E+00 -0.48022979707E+03  0.48022979707E+03  0.25500000920E-02 0.  1.
    10030    2    1    2    0    0  0.00000000000E+00  0.00000000000E+00  0.14067780172E+04  0.23672376114E+04  0.19038880006E+04 0.  0.
        2    1    3    3  502    0 -0.50466302579E+03 -0.46066924459E+03  0.15274878548E+04  0.16733559302E+04  0.25500000920E-02 0. -1.
       -2    1    3    3    0  502  0.50466302579E+03  0.46066924459E+03 -0.12070983763E+03  0.69388168113E+03  0.25500000920E-02 0.  1.
</event>
<event>
 5   0  0.3720978E-04  0.1912357E+04  0.7818609E-02  0.8648730E-01
        2   -1    0    0  501    0  0.00000000000E+00  0.00000000000E+00  0.11665940611E+04  0.11665940611E+04  0.25500000920E-02 0.  1.
       -2   -1    0    0    0  501  0.00000000000E+00  0.00000000000E+00 -0.78371492605E+03  0.78371492606E+03  0.25500000920E-02 0. -1.
    10030    2    1    2    0    0  0.00000000000E+00  0.00000000000E+00  0.38287913501E+03  0.19503089871E+04  0.19123568478E+04 0.  0.
        1    1    3    3  502    0  0.93799736876E+03 -0.54488641314E+02  0.10523697560E+02  0.93963760252E+03  0.50400001928E-02 0. -1.
       -1    1    3    3    0  502 -0.93799736876E+03  0.54488641314E+02  0.37235543745E+03  0.10106713846E+04  0.50400001928E-02 0.  1.
</event>
<event>
 5   0  0.1758946E-04  0.1749354E+04  0.7818609E-02  0.8733706E-01
        1   -1    0    0  501    0  0.00000000000E+00  0.00000000000E+00  0.14478291819E+04  0.14478291819E+04  0.50400001928E-02 0.  1.
       -1   -1    0    0    0  501  0.00000000000E+00  0.00000000000E+00 -0.52841850010E+03  0.52841850012E+03  0.50400001928E-02 0. -1.
    10030    2    1    2    0    0  0.00000000000E+00  0.00000000000E+00  0.91941068181E+03  0.19762476820E+04  0.17493538518E+04 0.  0.
        2    1    3    3  502    0 -0.13442916020E+03  0.20272460331E+03 -0.48943976028E+03  0.54655259843E+03  0.25500000920E-02 0. -1.
       -2    1    3    3    0  502  0.13442916020E+03 -0.20272460331E+03  0.14088504421E+04  0.14296950836E+04  0.25500000920E-02 0.  1.
</event>
<event>
 5   0  0.3516539E-04  0.1955850E+04  0.7818609E-02  0.8627545E-01
        2   -1    0    0  501    0  0.00000000000E+00  0.00000000000E+00  0.53701600236E+03  0.53701600237E+03  0.25500000920E-02 0.  1.
       -2   -1    0    0    0  501  0.00000000000E+00  0.00000000000E+00 -0.17808353895E+04  0.17808353895E+04  0.25500000920E-02 0. -1.
    10030    2    1    2    0    0  0.00000000000E+00  0.00000000000E+00 -0.12438193871E+04  0.23178513919E+04  0.19558497915E+04 0.  0.
        4    1    3    3  502    0 -0.84978299896E+03  0.18673526572E+03 -0.92805638323E+02  0.87499468809E+03  0.12699999809E+01 0. -1.
       -4    1    3    3    0  502  0.84978299896E+03 -0.18673526572E+03 -0.11510137488E+04  0.14428567038E+04  0.12699999809E+01 0.  1.
</event>
<event>
 5   0  0.1694830E-04  0.1902497E+04  0.7818609E-02  0.8653614E-01
       -1   -1    0    0    0  501  0.00000000000E+00  0.00000000000E+00  0.46369534691E+03  0.46369534694E+03  0.50400001928E-02 0.  1.
        1   -1    0    0  501    0  0.00000000000E+00  0.00000000000E+00 -0.19514409841E+04  0.19514409841E+04  0.50400001928E-02 0. -1.
    10030    2    1    2    0    0  0.00000000000E+00  0.00000000000E+00 -0.14877456372E+04  0.24151363311E+04  0.19024974157E+04 0.  0.
        1    1    3    3  502    0  0.66759263914E+03  0.25180918832E+03  0.54761478520E+02  0.71560227690E+03  0.50400001928E-02 0.  1.
       -1    1    3    3    0  502 -0.66759263914E+03 -0.25180918832E+03 -0.15425071157E+04  0.16995340542E+04  0.50400001928E-02 0. -1.
</event>
<event>
 5   0  0.1711979E-04  0.1920854E+04  0.7818609E-02  0.8644545E-01
       -1   -1    0    0    0  501  0.00000000000E+00  0.00000000000E+00  0.50324116027E+03  0.50324116030E+03  0.50400001928E-02 0.  1.
        1   -1    0    0  501    0  0.00000000000E+00  0.00000000000E+00 -0.18329575030E+04  0.18329575030E+04  0.50400001928E-02 0. -1.
    10030    2    1    2    0    0  0.00000000000E+00  0.00000000000E+00 -0.13297163428E+04  0.23361986633E+04  0.19208536234E+04 0.  0.
        4    1    3    3  502    0  0.19910263772E+03 -0.33657640890E+03  0.40202704669E+03  0.56085015694E+03  0.12699999809E+01 0.  1.
       -4    1    3    3    0  502 -0.19910263772E+03  0.33657640890E+03 -0.17317433894E+04  0.17753485064E+04  0.12699999809E+01 0. -1.
</event>
<event>
 5   0  0.3459485E-04  0.1903550E+04  0.7818609E-02  0.8653091E-01
       -2   -1    0    0    0  501  0.00000000000E+00  0.00000000000E+00  0.68971411461E+03  0.68971411462E+03  0.25500000920E-02 0.  1.
        2   -1    0    0  501    0  0.00000000000E+00  0.00000000000E+00 -0.13134072422E+04  0.13134072422E+04  0.25500000920E-02 0. -1.
    10030    2    1    2    0    0  0.00000000000E+00  0.00000000000E+00 -0.62369312761E+03  0.20031213568E+04  0.19035498556E+04 0.  0.
        3    1    3    3  502    0 -0.55449053569E+02  0.89034412833E+03  0.37304578349E+02  0.89284875884E+03  0.10100000352E+00 0.  1.
       -3    1    3    3    0  502  0.55449053569E+02 -0.89034412833E+03 -0.66099770596E+03  0.11102725980E+04  0.10100000352E+00 0. -1.
</event>
<event>
 5   0  0.1813834E-04  0.1899876E+04  0.7818609E-02  0.8654918E-01
       -1   -1    0    0    0  501  0.00000000000E+00  0.00000000000E+00  0.54633348524E+03  0.54633348527E+03  0.50400001928E-02 0.  1.
        1   -1    0    0  501    0  0.00000000000E+00  0.00000000000E+00 -0.16517056666E+04  0.16517056666E+04  0.50400001928E-02 0. -1.
    10030    2    1    2    0    0  0.00000000000E+00  0.00000000000E+00 -0.11053721814E+04  0.21980391519E+04  0.18998759049E+04 0.  0.
        5    1    3    3  502    0  0.76448585118E+03  0.32332764303E+03 -0.10871122375E+04  0.13677772071E+04  0.46999998093E+01 0. -1.
       -5    1    3    3    0  502 -0.76448585118E+03 -0.32332764303E+03 -0.18259943889E+02  0.83026194478E+03  0.46999998093E+01 0.  1.
</event>
<event>
 5   0  0.3459485E-04  0.1766424E+04  0.7818609E-02  0.8724362E-01
       -2   -1    0    0    0  501  0.00000000000E+00  0.00000000000E+00  0.62149302112E+03  0.62149302112E+03  0.25500000920E-02 0. -1.
        2   -1    0    0  501    0  0.00000000000E+00  0.00000000000E+00 -0.12551438296E+04  0.12551438296E+04  0.25500000920E-02 0.  1.
    10030    2    1    2    0    0  0.00000000000E+00  0.00000000000E+00 -0.63365080850E+03  0.18766368507E+04  0.17664236532E+04 0.  0.
        3    1    3    3  502    0 -0.51850339637E+03  0.24937604806E+03  0.39508039768E+03  0.69794177137E+03  0.10100000352E+00 0. -1.
       -3    1    3    3    0  502  0.51850339637E+03 -0.24937604806E+03 -0.10287312062E+04  0.11786950794E+04  0.10100000352E+00 0.  1.
</event>
<event>
 5   0  0.1711979E-04  0.1887305E+04  0.7818609E-02  0.8661201E-01
       -1   -1    0    0    0  501  0.00000000000E+00  0.00000000000E+00  0.79547779612E+03  0.79547779614E+03  0.50400001928E-02 0. -1.
        1   -1    0    0  501    0  0.00000000000E+00  0.00000000000E+00 -0.11194278991E+04  0.11194278991E+04  0.50400001928E-02 0.  1.
    10030    2    1    2    0    0  0.00000000000E+00  0.00000000000E+00 -0.32395010294E+03  0.19149056952E+04  0.18873049972E+04 0.  0.
        4    1    3    3  502    0 -0.13435423663E+03 -0.14582455548E+03 -0.10980520157E+04  0.11158116794E+04  0.12699999809E+01 0.  1.
       -4    1    3    3    0  502  0.13435423663E+03  0.14582455548E+03  0.77410191274E+03  0.79909401580E+03  0.12699999809E+01 0. -1.
</event>
<event>
 5   0  0.1813834E-04  0.1894530E+04  0.7818609E-02  0.8657584E-01
        1   -1    0    0  501    0  0.00000000000E+00  0.00000000000E+00  0.11139931435E+04  0.11139931435E+04  0.50400001928E-02 0.  1.
       -1   -1    0    0    0  501  0.00000000000E+00  0.00000000000E+00 -0.80549020171E+03  0.80549020172E+03  0.50400001928E-02 0. -1.
    10030    2    1    2    0    0  0.00000000000E+00  0.00000000000E+00  0.30850294178E+03  0.19194833452E+04  0.18945295584E+04 0.  0.
        5    1    3    3  502    0 -0.59464583753E+03 -0.73445287038E+03  0.88093769630E+02  0.94910868352E+03  0.46999998093E+01 0.  1.
       -5    1    3    3    0  502  0.59464583753E+03  0.73445287038E+03  0.22040917215E+03  0.97037466170E+03  0.46999998093E+01 0. -1.
</event>
<event>
 5   0  0.3623359E-04  0.2030845E+04  0.7818609E-02  0.8592334E-01
       -2   -1    0    0    0  501  0.00000000000E+00  0.00000000000E+00  0.18644023709E+04  0.18644023709E+04  0.25500000920E-02 0. -1.
        2   -1    0    0  501    0  0.00000000000E+00  0.00000000000E+00 -0.55303648741E+03  0.55303648742E+03  0.25500000920E-02 0.  1.
    10030    2    1    2    0    0  0.00000000000E+00  0.00000000000E+00  0.13113658835E+04  0.24174388583E+04  0.20308446896E+04 0.  0.
        5    1    3    3  502    0 -0.55079132515E+03  0.58861454086E+03 -0.79284207916E+02  0.81002854098E+03  0.46999998093E+01 0.  1.
       -5    1    3    3    0  502  0.55079132515E+03 -0.58861454086E+03  0.13906500914E+04  0.16074103173E+04  0.46999998093E+01 0. -1.
</event>
<event>
 5   0  0.1694830E-04  0.1899626E+04  0.7818609E-02  0.8655043E-01
        1   -1    0    0  501    0  0.00000000000E+00  0.00000000000E+00  0.87008970440E+03  0.87008970441E+03  0.50400001928E-02 0. -1.
       -1   -1    0    0    0  501  0.00000000000E+00  0.00000000000E+00 -0.10368405411E+04  0.10368405411E+04  0.50400001928E-02 0.  1.
    10030    2    1    2    0    0  0.00000000000E+00  0.00000000000E+00 -0.16675083671E+03  0.19069302455E+04  0.18996255209E+04 0.  0.
        1    1    3    3  502    0  0.33499525941E+03  0.35268397323E+03 -0.90231665756E+03  0.10250771480E+04  0.50400001928E-02 0.  1.
       -1    1    3    3    0  502 -0.33499525941E+03 -0.35268397323E+03  0.73556582085E+03  0.88185309754E+03  0.50400001928E-02 0. -1.
</event>
<event>
 5   0  0.3623359E-04  0.1911452E+04  0.7818609E-02  0.8649177E-01
       -2   -1    0    0    0  501  0.00000000000E+00  0.00000000000E+00  0.48312865893E+03  0.48312865894E+03  0.25500000920E-02 0. -1.
        2   -1    0    0  501    0  0.00000000000E+00  0.00000000000E+00 -0.18906191344E+04  0.18906191344E+04  0.25500000920E-02 0.  1.
    10030    2    1    2    0    0  0.00000000000E+00  0.00000000000E+00 -0.14074904755E+04  0.23737477933E+04  0.19114521045E+04 0.  0.
        5    1    3    3  502    0 -0.86564848534E+03  0.40472346183E+03 -0.72305664289E+03  0.11983244050E+04  0.46999998093E+01 0.  1.
       -5    1    3    3    0  502  0.86564848534E+03 -0.40472346183E+03 -0.68443383257E+03  0.11754233884E+04  0.46999998093E+01 0. -1.
</event>
<event>
 5   0  0.1758946E-04  0.1892869E+04  0.7818609E-02  0.8658414E-01
        1   -1    0    0  501    0  0.00000000000E+00  0.00000000000E+00  0.12952725023E+04  0.12952725023E+04  0.50400001928E-02 0.  1.
       -1   -1    0    0    0  501  0.00000000000E+00  0.00000000000E+00 -0.69154390500E+03  0.69154390502E+03  0.50400001928E-02 0. -1.
    10030    2    1    2    0    0  0.00000000000E+00  0.00000000000E+00  0.60372859727E+03  0.19868164073E+04  0.18928685156E+04 0.  0.
        2    1    3    3  502    0  0.37541176585E+03  0.67072613777E+03  0.88147654263E+03  0.11695334288E+04  0.25500000920E-02 0.  1.
       -2    1    3    3    0  502 -0.37541176585E+03 -0.67072613777E+03 -0.27774794536E+03  0.81728297852E+03  0.25500000920E-02 0. -1.
</event>
<event>
 5   0  0.1782613E-04  0.1924520E+04  0.7818609E-02  0.8642747E-01
       -1   -1    0    0    0  501  0.00000000000E+00  0.00000000000E+00  0.78945980158E+03  0.78945980159E+03  0.50400001928E-02 0. -1.
        1   -1    0    0  501    0  0.00000000000E+00  0.00000000000E+00 -0.11728831289E+04  0.11728831289E+04  0.50400001928E-02 0.  1.
    10030    2    1    2    0    0  0.00000000000E+00  0.00000000000E+00 -0.38342332729E+03  0.19623429305E+04  0.19245197658E+04 0.  0.
        3    1    3    3  502    0  0.35653312598E+03  0.78846619474E+03 -0.62087459470E+03  0.10650258601E+04  0.10100000352E+00 0. -1.
       -3    1    3    3    0  502 -0.35653312598E+03 -0.78846619474E+03  0.23745126741E+03  0.89731707036E+03  0.10100000352E+00 0.  1.
</event>
<event>
 5   0  0.1813834E-04  0.1598386E+04  0.7818609E-02  0.8821540E-01
       -1   -1    0    0    0  501  0.00000000000E+00  0.00000000000E+00  0.10369236338E+04  0.10369236338E+04  0.50400001928E-02 0. -1.
        1   -1    0    0  501    0  0.00000000000E+00  0.00000000000E+00 -0.61596556989E+03  0.61596556991E+03  0.50400001928E-02 0.  1.
    10030    2    1    2    0    0  0.00000000000E+00  0.00000000000E+00  0.42095806393E+03  0.16528892037E+04  0.15983857570E+04 0.  0.
        5    1    3    3  502    0  0.29003868549E+03  0.72657645265E+03  0.41659751342E+02  0.78344968282E+03  0.46999998093E+01 0.  1.
       -5    1    3    3    0  502 -0.29003868549E+03 -0.72657645265E+03  0.37929831259E+03  0.86943952093E+03  0.46999998093E+01 0. -1.
</event>
<event>
 5   0  0.3535876E-04  0.1887301E+04  0.7818609E-02  0.8661203E-01
        2   -1    0    0  501    0  0.00000000000E+00  0.00000000000E+00  0.15320084294E+04  0.15320084294E+04  0.25500000920E-02 0.  1.
       -2   -1    0    0    0  501  0.00000000000E+00  0.00000000000E+00 -0.58124787457E+03  0.58124787458E+03  0.25500000920E-02 0. -1.
    10030    2    1    2    0    0  0.00000000000E+00  0.00000000000E+00  0.95076055482E+03  0.21132563040E+04  0.18873013998E+04 0.  0.
        2    1    3    3  502    0 -0.21858660351E+03 -0.10084616993E+02 -0.55244740170E+03  0.59420529650E+03  0.25500000920E-02 0. -1.
       -2    1    3    3    0  502  0.21858660351E+03  0.10084616993E+02  0.15032079565E+04  0.15190510075E+04  0.25500000920E-02 0.  1.
</event>
<event>
 5   0  0.3720978E-04  0.1910115E+04  0.7818609E-02  0.8649838E-01
       -2   -1    0    0    0  501  0.00000000000E+00  0.00000000000E+00  0.77070632061E+03  0.77070632062E+03  0.25500000920E-02 0. -1.
        2   -1    0    0  501    0  0.00000000000E+00  0.00000000000E+00 -0.11835051684E+04  0.11835051684E+04  0.25500000920E-02 0.  1.
    10030    2    1    2    0    0  0.00000000000E+00  0.00000000000E+00 -0.41279884782E+03  0.19542114891E+04  0.19101150895E+04 0.  0.
        1    1    3    3  502    0  0.37272865892E+03 -0.20718209276E+03  0.66789532978E+03  0.79242365203E+03  0.50400001928E-02 0. -1.
       -1    1    3    3    0  502 -0.37272865892E+03  0.20718209276E+03 -0.10806941776E+04  0.11617878370E+04  0.50400001928E-02 0.  1.
</event>
<event>
 5   0  0.1694830E-04  0.1793288E+04  0.7818609E-02  0.8709877E-01
       -1   -1    0    0    0  501  0.00000000000E+00  0.00000000000E+00  0.46510222472E+03  0.46510222475E+03  0.50400001928E-02 0.  1.
        1   -1    0    0  501    0  0.00000000000E+00  0.00000000000E+00 -0.17285890400E+04  0.17285890400E+04  0.50400001928E-02 0. -1.
    10030    2    1    2    0    0  0.00000000000E+00  0.00000000000E+00 -0.12634868153E+04  0.21936912648E+04  0.17932881622E+04 0.  0.
        1    1    3    3  502    0  0.80683810484E+03 -0.15965840831E+03 -0.10685277044E+04  0.13484175874E+04  0.50400001928E-02 0. -1.
       -1    1    3    3    0  502 -0.80683810484E+03  0.15965840831E+03 -0.19495911085E+03  0.84527367739E+03  0.50400001928E-02 0.  1.
</event>
<event>
 5   0  0.1782613E-04  0.1910732E+04  0.7818609E-02  0.8649533E-01
        1   -1    0    0  501    0  0.00000000000E+00  0.00000000000E+00  0.64976315849E+03  0.64976315851E+03  0.50400001928E-02 0.  1.
       -1   -1    0    0    0  501  0.00000000000E+00  0.00000000000E+00 -0.14047026407E+04  0.14047026407E+04  0.50400001928E-02 0. -1.
    10030    2    1    2    0    0  0.00000000000E+00  0.00000000000E+00 -0.75493948216E+03  0.20544657992E+04  0.19107318227E+04 0.  0.
        3    1    3    3  502    0  0.59779653987E+03 -0.36604378233E+03 -0.10754348233E+04  0.12837090103E+04  0.10100000352E+00 0. -1.
       -3    1    3    3    0  502 -0.59779653987E+03  0.36604378233E+03  0.32049534119E+03  0.77075678886E+03  0.10100000352E+00 0.  1.
</event>
<event>
 5   0  0.1782613E-04  0.1876501E+04  0.7818609E-02  0.8666643E-01
       -1   -1    0    0    0  501  0.00000000000E+00  0.00000000000E+00  0.10482206307E+04  0.10482206307E+04  0.50400001928E-02 0. -1.
        1   -1    0    0  501    0  0.00000000000E+00  0.00000000000E+00 -0.83981706749E+03  0.83981706750E+03  0.50400001928E-02 0.  1.
    10030    2    1    2    0    0  0.00000000000E+00  0.00000000000E+00  0.20840356321E+03  0.18880376982E+04  0.18765005475E+04 0.  0.
        3    1    3    3  502    0 -0.71000894581E+03 -0.29483758538E+03  0.64534835256E+03  0.10037511700E+04  0.10100000352E+00 0. -1.
       -3    1    3    3    0  502  0.71000894581E+03  0.29483758538E+03 -0.43694478935E+03  0.88428652824E+03  0.10100000352E+00 0.  1.
</event>
<event>
 5   0  0.1758946E-04  0.1450886E+04  0.7818609E-02  0.8917787E-01
       -1   -1    0    0    0  501  0.00000000000E+00  0.00000000000E+00  0.87044925594E+03  0.87044925595E+03  0.50400001928E-02 0.  1.
        1   -1    0    0  501    0  0.00000000000E+00  0.00000000000E+00 -0.60459272099E+03  0.60459272101E+03  0.50400001928E-02 0. -1.
    10030    2    1    2    0    0  0.00000000000E+00  0.00000000000E+00  0.26585653495E+03  0.14750419770E+04  0.14508856387E+04 0.  0.
        2    1    3    3  502    0  0.49295402503E+03  0.20800628279E+03 -0.36512306227E+03  0.64775391553E+03  0.25500000920E-02 0. -1.
       -2    1    3    3    0  502 -0.49295402503E+03 -0.20800628279E+03  0.63097959722E+03  0.82728806143E+03  0.25500000920E-02 0.  1.
</event>
<event>
 5   0  0.3720978E-04  0.1967272E+04  0.7818609E-02  0.8622077E-01
        2   -1    0    0  501    0  0.00000000000E+00  0.00000000000E+00  0.92518138700E+03  0.92518138700E+03  0.25500000920E-02 0. -1.
       -2   -1    0    0    0  501  0.00000000000E+00  0.00000000000E+00 -0.10457843900E+04  0.10457843900E+04  0.25500000920E-02 0.  1.
    10030    2    1    2    0    0  0.00000000000E+00  0.00000000000E+00 -0.12060300298E+03  0.19709657770E+04  0.19672724798E+04 0.  0.
        1    1    3    3  502    0  0.73219135373E+03 -0.49960709017E+03  0.36691295285E+03  0.95934172119E+03  0.50400001928E-02 0.  1.
       -1    1    3    3    0  502 -0.73219135373E+03  0.49960709017E+03 -0.48751595583E+03  0.10116240558E+04  0.50400001928E-02 0. -1.
</event>
<event>
 5   0  0.3459485E-04  0.1809801E+04  0.7818609E-02  0.8701104E-01
       -2   -1    0    0    0  501  0.00000000000E+00  0.00000000000E+00  0.44577831245E+03  0.44577831246E+03  0.25500000920E-02 0. -1.
        2   -1    0    0  501    0  0.00000000000E+00  0.00000000000E+00 -0.18368891215E+04  0.18368891215E+04  0.25500000920E-02 0.  1.
    10030    2    1    2    0    0  0.00000000000E+00  0.00000000000E+00 -0.13911108091E+04  0.22826674340E+04  0.18098014618E+04 0.  0.
        3    1    3    3  502    0  0.21644043204E+03 -0.70797652533E+03 -0.13518675757E+04  0.15413056717E+04  0.10100000352E+00 0.  1.
       -3    1    3    3    0  502 -0.21644043204E+03  0.70797652533E+03 -0.39243233342E+02  0.74136176230E+03  0.10100000352E+00 0. -1.
</event>
<event>
 5   0  0.1782613E-04  0.1895200E+04  0.7818609E-02  0.8657250E-01
        1   -1    0    0  501    0  0.00000000000E+00  0.00000000000E+00  0.13340043802E+04  0.13340043802E+04  0.50400001928E-02 0.  1.
       -1   -1    0    0    0  501  0.00000000000E+00  0.00000000000E+00 -0.67312021846E+03  0.67312021848E+03  0.50400001928E-02 0. -1.
    10030    2    1    2    0    0  0.00000000000E+00  0.00000000000E+00  0.66088416169E+03  0.20071245986E+04  0.18951995355E+04 0.  0.
        3    1    3    3  502    0  0.34489974213E+03  0.78869237315E+03  0.75001295695E+03  0.11417140349E+04  0.10100000352E+00 0.  1.
       -3    1    3    3    0  502 -0.34489974213E+03 -0.78869237315E+03 -0.89128795260E+02  0.86541056379E+03  0.10100000352E+00 0. -1.
</event>
<event>
 5   0  0.3516539E-04  0.2050865E+04  0.7818609E-02  0.8583202E-01
       -2   -1    0    0    0  501  0.00000000000E+00  0.00000000000E+00  0.64885593975E+03  0.64885593976E+03  0.25500000920E-02 0. -1.
        2   -1    0    0  501    0  0.00000000000E+00  0.00000000000E+00 -0.16205629465E+04  0.16205629465E+04  0.25500000920E-02 0.  1.
    10030    2    1    2    0    0  0.00000000000E+00  0.00000000000E+00 -0.97170700676E+03  0.22694188863E+04  0.20508650795E+04 0.  0.
        4    1    3    3  502    0 -0.19284128508E+03 -0.50700079922E+03  0.47709647410E+03  0.72239894112E+03  0.12699999809E+01 0. -1.
       -4    1    3    3    0  502  0.19284128508E+03  0.50700079922E+03 -0.14488034809E+04  0.15470199451E+04  0.12699999809E+01 0.  1.
</event>
<event>
 5   0  0.1782613E-04  0.1897136E+04  0.7818609E-02  0.8656283E-01
       -1   -1    0    0    0  501  0.00000000000E+00  0.00000000000E+00  0.43334941877E+03  0.43334941880E+03  0.50400001928E-02 0.  1.
        1   -1    0    0  501    0  0.00000000000E+00  0.00000000000E+00 -0.20763415048E+04  0.20763415048E+04  0.50400001928E-02 0. -1.
    10030    2    1    2    0    0  0.00000000000E+00  0.00000000000E+00 -0.16429920860E+04  0.25096909236E+04  0.18971361409E+04 0.  0.
        3    1    3    3  502    0 -0.38259106917E+03 -0.86644577260E+03 -0.88994389164E+03  0.12996554711E+04  0.10100000352E+00 0. -1.
       -3    1    3    3    0  502  0.38259106917E+03  0.86644577260E+03 -0.75304819438E+03  0.12100354525E+04  0.10100000352E+00 0.  1.
</event>
<event>
 5   0  0.1782613E-04  0.1414993E+04  0.7818609E-02  0.8943037E-01
        1   -1    0    0  501    0  0.00000000000E+00  0.00000000000E+00  0.52786011084E+03  0.52786011087E+03  0.50400001928E-02 0.  1.
       -1   -1    0    0    0  501  0.00000000000E+00  0.00000000000E+00 -0.94826485264E+03  0.94826485265E+03  0.50400001928E-02 0. -1.
    10030    2    1    2    0    0  0.00000000000E+00  0.00000000000E+00 -0.42040474180E+03  0.14761249635E+04  0.14149928484E+04 0.  0.
        3    1    3    3  502    0 -0.66654780202E+03 -0.18904614193E+03 -0.60740944201E+02  0.69549542677E+03  0.10100000352E+00 0. -1.
       -3    1    3    3    0  502  0.66654780202E+03  0.18904614193E+03 -0.35966379760E+03  0.78062953675E+03  0.10100000352E+00 0.  1.
</event>
<event>
 5   0  0.3459485E-04  0.1913854E+04  0.7818609E-02  0.8647991E-01
       -2   -1    0    0    0  501  0.00000000000E+00  0.00000000000E+00  0.82825861689E+03  0.82825861689E+03  0.25500000920E-02 0. -1.
        2   -1    0    0  501    0  0.00000000000E+00  0.00000000000E+00 -0.11055839881E+04  0.11055839881E+04  0.25500000920E-02 0.  1.
    10030    2    1    2    0    0  0.00000000000E+00  0.00000000000E+00 -0.27732537119E+03  0.19338426050E+04  0.19138541897E+04 0.  0.
        3    1    3    3  502    0  0.87165052735E+03  0.36488255422E+03  0.13896079997E+02  0.94504340188E+03  0.10100000352E+00 0. -1.
       -3    1    3    3    0  502 -0.87165052735E+03 -0.36488255422E+03 -0.29122145119E+03  0.98879920309E+03  0.10100000352E+00 0.  1.
</event>
<event>
 5   0  0.1711979E-04  0.1879479E+04  0.7818609E-02  0.8665139E-01
       -1   -1    0    0    0  501  0.00000000000E+00  0.00000000000E+00  0.10646930065E+04  0.10646930065E+04  0.50400001928E-02 0.  1.
        1   -1    0    0  501    0  0.00000000000E+00  0.00000000000E+00 -0.82945083191E+03  0.82945083193E+03  0.50400001928E-02 0. -1.
    10030    2    1    2    0    0  0.00000000000E+00  0.00000000000E+00  0.23524217462E+03  0.18941438385E+04  0.18794791832E+04 0.  0.
        4    1    3    3  502    0 -0.18682467732E+03  0.58453184851E+03  0.83488196101E+03  0.10361517474E+04  0.12699999809E+01 0.  1.
       -4    1    3    3    0  502  0.18682467732E+03 -0.58453184851E+03 -0.59963978639E+03  0.85799209105E+03  0.12699999809E+01 0. -1.
</event>
<event>
 5   0  0.1782613E-04  0.1890752E+04  0.7818609E-02  0.8659473E-01
       -1   -1    0    0    0  501  0.00000000000E+00  0.00000000000E+00  0.16134861831E+04  0.16134861831E+04  0.50400001928E-02 0. -1.
        1   -1    0    0  501    0  0.00000000000E+00  0.00000000000E+00 -0.55391621773E+03  0.55391621775E+03  0.50400001928E-02 0.  1.
    10030    2    1    2    0    0  0.00000000000E+00  0.00000000000E+00  0.10595699654E+04  0.21674024009E+04  0.18907524047E+04 0.  0.
        3    1    3    3  502    0 -0.43419202588E+03 -0.60999132858E+03  0.11914038195E+04  0.14071443449E+04  0.10100000352E+00 0. -1.
       -3    1    3    3    0  502  0.43419202588E+03  0.60999132858E+03 -0.13183385411E+03  0.76025805590E+03  0.10100000352E+00 0.  1.
</event>
<event>
 5   0  0.3535876E-04  0.1891945E+04  0.7818609E-02  0.8658876E-01
       -2   -1    0    0    0  501  0.00000000000E+00  0.00000000000E+00  0.75107994081E+03  0.75107994081E+03  0.25500000920E-02 0.  1.
        2   -1    0    0  501    0  0.00000000000E+00  0.00000000000E+00 -0.11914363153E+04  0.11914363153E+04  0.25500000920E-02 0. -1.
    10030    2    1    2    0    0  0.00000000000E+00  0.00000000000E+00 -0.44035637449E+03  0.19425162561E+04  0.18919449434E+04 0.  0.
        2    1    3    3  502    0  0.43171470833E+03  0.83206556394E+03 -0.89685615465E+02  0.94167627224E+03  0.25500000920E-02 0.  1.
       -2    1    3    3    0  502 -0.43171470833E+03 -0.83206556394E+03 -0.35067075902E+03  0.10008399839E+04  0.25500000920E-02 0. -1.
</event>
<event>
 5   0  0.1711979E-04  0.1912903E+04  0.7818609E-02  0.8648460E-01
       -1   -1    0    0    0  501  0.00000000000E+00  0.00000000000E+00  0.13570835259E+04  0.13570835259E+04  0.50400001928E-02 0.  1.
        1   -1    0    0  501    0  0.00000000000E+00  0.00000000000E+00 -0.67409224298E+03  0.67409224299E+03  0.50400001928E-02 0. -1.
    10030    2    1    2    0    0  0.00000000000E+00  0.00000000000E+00  0.68299128290E+03  0.20311757689E+04  0.19129030063E+04 0.  0.
        4    1    3    3  502    0  0.33571398557E+03 -0.57756322953E+03  0.10682977331E+04  0.12599781044E+04  0.12699999809E+01 0.  1.
       -4    1    3    3    0  502 -0.33571398557E+03  0.57756322953E+03 -0.38530645018E+03  0.77119766446E+03  0.12699999809E+01 0. -1.
</event>
<event>
 5   0  0.3720978E-04  0.1941522E+04  0.7818609E-02  0.8634460E-01
        2   -1    0    0  501    0  0.00000000000E+00  0.00000000000E+00  0.14047948807E+04  0.14047948807E+04  0.25500000920E-02 0.  1.
       -2   -1    0    0    0  501  0.00000000000E+00  0.00000000000E+00 -0.67082869286E+03  0.67082869286E+03  0.25500000920E-02 0. -1.
    10030    2    1    2    0    0  0.00000000000E+00  0.00000000000E+00  0.73396618779E+03  0.20756235735E+04  0.19415217882E+04 0.  0.
        1    1    3    3  502    0  0.21937153435E+03  0.72374315471E+03  0.10176674376E+04  0.12679018249E+04  0.50400001928E-02 0.  1.
       -1    1    3    3    0  502 -0.21937153435E+03 -0.72374315471E+03 -0.28370124976E+03  0.80772174863E+03  0.50400001928E-02 0. -1.
</event>
<event>
 5   0  0.1758946E-04  0.1927402E+04  0.7818609E-02  0.8641336E-01
       -1   -1    0    0    0  501  0.00000000000E+00  0.00000000000E+00  0.86882297140E+03  0.86882297141E+03  0.50400001928E-02 0.  1.
        1   -1    0    0  501    0  0.00000000000E+00  0.00000000000E+00 -0.10689394655E+04  0.10689394655E+04  0.50400001928E-02 0. -1.
    10030    2    1    2    0    0  0.00000000000E+00  0.00000000000E+00 -0.20011649411E+03  0.19377624369E+04  0.19274015282E+04 0.  0.
        2    1    3    3  502    0 -0.53130748111E+03 -0.59878480524E+03  0.43937825017E+03  0.91317256266E+03  0.25500000920E-02 0.  1.
       -2    1    3    3    0  502  0.53130748111E+03  0.59878480524E+03 -0.63949474428E+03  0.10245898743E+04  0.25500000920E-02 0. -1.
</event>
<event>
 5   0  0.1711979E-04  0.1753335E+04  0.7818609E-02  0.8731517E-01
        1   -1    0    0  501    0  0.00000000000E+00  0.00000000000E+00  0.37196556344E+03  0.37196556348E+03  0.50400001928E-02 0.  1.
       -1   -1    0    0    0  501  0.00000000000E+00  0.00000000000E+00 -0.20661748628E+04  0.20661748628E+04  0.50400001928E-02 0. -1.
    10030    2    1    2    0    0  0.00000000000E+00  0.00000000000E+00 -0.16942092994E+04  0.24381404263E+04  0.17533349903E+04 0.  0.
        4    1    3    3  502    0 -0.38442804401E+03 -0.62357339474E+03 -0.15167714713E+04  0.16844067231E+04  0.12699999809E+01 0. -1.
       -4    1    3    3    0  502  0.38442804401E+03  0.62357339474E+03 -0.17743782805E+03  0.75373370322E+03  0.12699999809E+01 0.  1.
</event>
<event>
 5   0  0.3459485E-04  0.1903224E+04  0.7818609E-02  0.8653253E-01
       -2   -1    0    0    0  501  0.00000000000E+00  0.00000000000E+00  0.79416007599E+03  0.79416007599E+03  0.25500000920E-02 0.  1.
        2   -1    0    0  501    0  0.00000000000E+00  0.00000000000E+00 -0.11402809318E+04  0.11402809318E+04  0.25500000920E-02 0. -1.
    10030    2    1    2    0    0  0.00000000000E+00  0.00000000000E+00 -0.34612085581E+03  0.19344410078E+04  0.19032242027E+04 0.  0.
        3    1    3    3  502    0  0.43143391729E+03 -0.30015186020E+03 -0.97938136334E+03  0.11114918935E+04  0.10100000352E+00 0. -1.
       -3    1    3    3    0  502 -0.43143391729E+03  0.30015186020E+03  0.63326050754E+03  0.82294911433E+03  0.10100000352E+00 0.  1.
</event>
<event>
 5   0  0.1782613E-04  0.1731031E+04  0.7818609E-02  0.8743862E-01
        1   -1    0    0  501    0  0.00000000000E+00  0.00000000000E+00  0.15265057739E+04  0.15265057739E+04  0.50400001928E-02 0. -1.
       -1   -1    0    0    0  501  0.00000000000E+00  0.00000000000E+00 -0.49073965776E+03  0.49073965778E+03  0.50400001928E-02 0.  1.
    10030    2    1    2    0    0  0.00000000000E+00  0.00000000000E+00  0.10357661161E+04  0.20172454317E+04  0.17310308155E+04 0.  0.
        3    1    3    3  502    0  0.55147551702E+03  0.26215308188E+03 -0.19694608991E+03  0.64158963267E+03  0.10100000352E+00 0.  1.
       -3    1    3    3    0  502 -0.55147551702E+03 -0.26215308188E+03  0.12327122060E+04  0.13756557990E+04  0.10100000352E+00 0. -1.
</event>
<event>
 5   0  0.3535876E-04  0.1450843E+04  0.7818609E-02  0.8917816E-01
       -2   -1    0    0    0  501  0.00000000000E+00  0.00000000000E+00  0.31352624932E+03  0.31352624933E+03  0.25500000920E-02 0.  1.
        2   -1    0    0  501    0  0.00000000000E+00  0.00000000000E+00 -0.16784444263E+04  0.16784444264E+04  0.25500000920E-02 0. -1.
    10030    2    1    2    0    0  0.00000000000E+00  0.00000000000E+00 -0.13649181770E+04  0.19919706757E+04  0.14508430455E+04 0.  0.
        2    1    3    3  502    0 -0.42581693624E+03  0.20903971985E+03  0.71076010832E+02  0.47965557121E+03  0.25500000920E-02 0.  1.
       -2    1    3    3    0  502  0.42581693624E+03 -0.20903971985E+03 -0.14359941879E+04  0.15123151045E+04  0.25500000920E-02 0. -1.
</event>
<event>
 5   0  0.3459485E-04  0.1882998E+04  0.7818609E-02  0.8663366E-01
        2   -1    0    0  501    0  0.00000000000E+00  0.00000000000E+00  0.12489550179E+04  0.12489550179E+04  0.25500000920E-02 0.  1.
       -2   -1    0    0    0  501  0.00000000000E+00  0.00000000000E+00 -0.70972937762E+03  0.70972937763E+03  0.25500000920E-02 0. -1.
    10030    2    1    2    0    0  0.00000000000E+00  0.00000000000E+00  0.53922564025E+03  0.19586843955E+04  0.18829976819E+04 0.  0.
        3    1    3    3  502    0  0.36602547524E+03  0.55220110353E+03  0.96547076028E+03  0.11709118269E+04  0.10100000352E+00 0.  1.
       -3    1    3    3    0  502 -0.36602547524E+03 -0.55220110353E+03 -0.42624512003E+03  0.78777256859E+03  0.10100000352E+00 0. -1.
</event>
<event>
 5   0  0.3535876E-04  0.1703008E+04  0.7818609E-02  0.8759650E-01
       -2   -1    0    0    0  501  0.00000000000E+00  0.00000000000E+00  0.61738753812E+03  0.61738753813E+03  0.25500000920E-02 0. -1.
        2   -1    0    0  501    0  0.00000000000E+00  0.00000000000E+00 -0.11743992673E+04  0.11743992673E+04  0.25500000920E-02 0.  1.
    10030    2    1    2    0    0  0.00000000000E+00  0.00000000000E+00 -0.55701172921E+03  0.17917868055E+04  0.17030084820E+04 0.  0.
        2    1    3    3  502    0  0.45207673990E+02 -0.27426333757E+03  0.56830893547E+03  0.63264457499E+03  0.25500000920E-02 0. -1.
       -2    1    3    3    0  502 -0.45207673990E+02  0.27426333757E+03 -0.11253206647E+04  0.11591422305E+04  0.25500000920E-02 0.  1.
</event>
<event>
 5   0  0.3535876E-04  0.1923539E+04  0.7818609E-02  0.8643228E-01
        2   -1    0    0  501    0  0.00000000000E+00  0.00000000000E+00  0.16849725301E+04  0.16849725302E+04  0.25500000920E-02 0. -1.
       -2   -1    0    0    0  501  0.00000000000E+00  0.00000000000E+00 -0.54897045809E+03  0.54897045810E+03  0.25500000920E-02 0.  1.
    10030    2    1    2    0    0  0.00000000000E+00  0.00000000000E+00  0.11360020721E+04  0.22339429882E+04  0.19235385536E+04 0.  0.
        2    1    3    3  502    0 -0.90535410753E+03 -0.30989911557E+03  0.67997929934E+03  0.11739145494E+04  0.25500000920E-02 0. -1.
       -2    1    3    3    0  502  0.90535410753E+03  0.30989911557E+03  0.45602277272E+03  0.10600284388E+04  0.25500000920E-02 0.  1.
</event>
<event>
 5   0  0.1813834E-04  0.1864365E+04  0.7818609E-02  0.8672800E-01
       -1   -1    0    0    0  501  0.00000000000E+00  0.00000000000E+00  0.76453916823E+03  0.76453916825E+03  0.50400001928E-02 0.  1.
        1   -1    0    0  501    0  0.00000000000E+00  0.00000000000E+00 -0.11365855045E+04  0.11365855045E+04  0.50400001928E-02 0. -1.
    10030    2    1    2    0    0  0.00000000000E+00  0.00000000000E+00 -0.37204633623E+03  0.19011246727E+04  0.18643649173E+04 0.  0.
        5    1    3    3  502    0  0.56131006145E+02 -0.88416106503E+03 -0.48165418763E+03  0.10084167418E+04  0.46999998093E+01 0. -1.
       -5    1    3    3    0  502 -0.56131006145E+02  0.88416106503E+03  0.10960785140E+03  0.89270793088E+03  0.46999998093E+01 0.  1.
</event>
<event>
 5   0  0.1711979E-04  0.1889996E+04  0.7818609E-02  0.8659852E-01
        1   -1    0    0  501    0  0.00000000000E+00  0.00000000000E+00  0.17964925182E+04  0.17964925182E+04  0.50400001928E-02 0.  1.
       -1   -1    0    0    0  501  0.00000000000E+00  0.00000000000E+00 -0.49709127760E+03  0.49709127762E+03  0.50400001928E-02 0. -1.
    10030    2    1    2    0    0  0.00000000000E+00  0.00000000000E+00  0.12994012406E+04  0.22935837959E+04  0.18899955144E+04 0.  0.
        4    1    3    3  502    0  0.22356078461E+03  0.66658574672E+03  0.14159650756E+04  0.15809094504E+04  0.12699999809E+01 0.  1.
       -4    1    3    3    0  502 -0.22356078461E+03 -0.66658574672E+03 -0.11656383498E+03  0.71267434545E+03  0.12699999809E+01 0. -1.
</event>
<event>
 5   0  0.3535876E-04  0.1783620E+04  0.7818609E-02  0.8715059E-01
        2   -1    0    0  501    0  0.00000000000E+00  0.00000000000E+00  0.23969642488E+04  0.23969642488E+04  0.25500000920E-02 0.  1.
       -2   -1    0    0    0  501  0.00000000000E+00  0.00000000000E+00 -0.33180517032E+03  0.33180517033E+03  0.25500000920E-02 0. -1.
    10030    2    1    2    0    0  0.00000000000E+00  0.00000000000E+00  0.20651590785E+04  0.27287694191E+04  0.17836200614E+04 0.  0.
        2    1    3    3  502    0  0.34783077165E+03  0.81955286042E+03  0.11116623758E+04  0.14242353648E+04  0.25500000920E-02 0.  1.
       -2    1    3    3    0  502 -0.34783077165E+03 -0.81955286042E+03  0.95349670272E+03  0.13045340543E+04  0.25500000920E-02 0. -1.
</event>
<event>
 5   0  0.3535876E-04  0.1743163E+04  0.7818609E-02  0.8737122E-01
       -2   -1    0    0    0  501  0.00000000000E+00  0.00000000000E+00  0.43486910435E+03  0.43486910436E+03  0.25500000920E-02 0. -1.
        2   -1    0    0  501    0  0.00000000000E+00  0.00000000000E+00 -0.17468583631E+04  0.17468583631E+04  0.25500000920E-02 0.  1.
    10030    2    1    2    0    0  0.00000000000E+00  0.00000000000E+00 -0.13119892587E+04  0.21817274674E+04  0.17431634826E+04 0.  0.
        2    1    3    3  502    0  0.51850256239E+03  0.30182596680E+03  0.13529483139E+03  0.61501911584E+03  0.25500000920E-02 0. -1.
       -2    1    3    3    0  502 -0.51850256239E+03 -0.30182596680E+03 -0.14472840901E+04  0.15667083516E+04  0.25500000920E-02 0.  1.
</event>
<event>
 5   0  0.1287000E-04  0.1886517E+04  0.7818609E-02  0.8661597E-01
       -3   -1    0    0    0  501  0.00000000000E+00  0.00000000000E+00  0.15653368641E+04  0.15653368673E+04  0.10100000352E+00 0.  1.
        3   -1    0    0  501    0  0.00000000000E+00  0.00000000000E+00 -0.56839956417E+03  0.56839957314E+03  0.10100000352E+00 0. -1.
    10030    2    1    2    0    0  0.00000000000E+00  0.00000000000E+00  0.99693729989E+03  0.21337364405E+04  0.18865172190E+04 0.  0.
        3    1    3    3  502    0  0.80909944022E+02 -0.89714581343E+03  0.81499924000E+03  0.12147595651E+04  0.10100000352E+00 0.  1.
       -3    1    3    3    0  502 -0.80909944022E+02  0.89714581343E+03  0.18193805989E+03  0.91897687535E+03  0.10100000352E+00 0. -1.
</event>
<event>
 5   0  0.3459485E-04  0.1923646E+04  0.7818609E-02  0.8643175E-01
       -2   -1    0    0    0  501  0.00000000000E+00  0.00000000000E+00  0.52542056491E+03  0.52542056492E+03  0.25500000920E-02 0.  1.
        2   -1    0    0  501    0  0.00000000000E+00  0.00000000000E+00 -0.17606916463E+04  0.17606916463E+04  0.25500000920E-02 0. -1.
    10030    2    1    2    0    0  0.00000000000E+00  0.00000000000E+00 -0.12352710814E+04  0.22861122113E+04  0.19236461207E+04 0.  0.
        3    1    3    3  502    0 -0.50564089310E+03  0.18089924146E+03 -0.15659272419E+04  0.16554532266E+04  0.10100000352E+00 0. -1.
       -3    1    3    3    0  502  0.50564089310E+03 -0.18089924146E+03  0.33065616044E+03  0.63065898469E+03  0.10100000352E+00 0.  1.
</event>
<event>
 5   0  0.1758946E-04  0.1921122E+04  0.7818609E-02  0.8644414E-01
        1   -1    0    0  501    0  0.00000000000E+00  0.00000000000E+00  0.14514183354E+04  0.14514183354E+04  0.50400001928E-02 0.  1.
       -1   -1    0    0    0  501  0.00000000000E+00  0.00000000000E+00 -0.63570719682E+03  0.63570719684E+03  0.50400001928E-02 0. -1.
    10030    2    1    2    0    0  0.00000000000E+00  0.00000000000E+00  0.81571113860E+03  0.20871255323E+04  0.19211216322E+04 0.  0.
        2    1    3    3  502    0  0.39827294315E+03 -0.69903042848E+03 -0.16228940335E+03  0.82073304285E+03  0.25500000920E-02 0. -1.
       -2    1    3    3    0  502 -0.39827294315E+03  0.69903042848E+03  0.97800054195E+03  0.12663924894E+04  0.25500000920E-02 0.  1.
</event>
<event>
 5   0  0.1694830E-04  0.1866839E+04  0.7818609E-02  0.8671541E-01
       -1   -1    0    0    0  501  0.00000000000E+00  0.00000000000E+00  0.45294405145E+03  0.45294405148E+03  0.50400001928E-02 0.  1.
        1   -1    0    0  501    0  0.00000000000E+00  0.00000000000E+00 -0.19235748238E+04  0.19235748238E+04  0.50400001928E-02 0. -1.
    10030    2    1    2    0    0  0.00000000000E+00  0.00000000000E+00 -0.14706307723E+04  0.23765188753E+04  0.18668387975E+04 0.  0.
        1    1    3    3  502    0 -0.12417558287E+03 -0.51836217922E+03 -0.17107766691E+04  0.17918916641E+04  0.50400001928E-02 0. -1.
       -1    1    3    3    0  502  0.12417558287E+03  0.51836217922E+03  0.24014589681E+03  0.58462721114E+03  0.50400001928E-02 0.  1.
</event>
<event>
 5   0  0.3535876E-04  0.1936671E+04  0.7818609E-02  0.8636815E-01
       -2   -1    0    0    0  501  0.00000000000E+00  0.00000000000E+00  0.61214263629E+03  0.61214263630E+03  0.25500000920E-02 0. -1.
        2   -1    0    0  501    0  0.00000000000E+00  0.00000000000E+00 -0.15317888805E+04  0.15317888805E+04  0.25500000920E-02 0.  1.
    10030    2    1    2    0    0  0.00000000000E+00  0.00000000000E+00 -0.91964624420E+03  0.21439315168E+04  0.19366706313E+04 0.  0.
        2    1    3    3  502    0  0.25494564514E+03  0.74953612802E+03 -0.10770511832E+04  0.13367276987E+04  0.25500000920E-02 0.  1.
       -2    1    3    3    0  502 -0.25494564514E+03 -0.74953612802E+03  0.15740493898E+03  0.80720381813E+03  0.25500000920E-02 0. -1.
</event>
<event>
 5   0  0.3623359E-04  0.1885797E+04  0.7818609E-02  0.8661958E-01
       -2   -1    0    0    0  501  0.00000000000E+00  0.00000000000E+00  0.48351682813E+03  0.48351682814E+03  0.25500000920E-02 0.  1.
        2   -1    0    0  501    0  0.00000000000E+00  0.00000000000E+00 -0.18387322789E+04  0.18387322789E+04  0.25500000920E-02 0. -1.
    10030    2    1    2    0    0  0.00000000000E+00  0.00000000000E+00 -0.13552154508E+04  0.23222491071E+04  0.18857974433E+04 0.  0.
        5    1    3    3  502    0 -0.66040027070E+03  0.65566422170E+03 -0.49080240229E+03  0.10521089189E+04  0.46999998093E+01 0.  1.
       -5    1    3    3    0  502  0.66040027070E+03 -0.65566422170E+03 -0.86441304852E+03  0.12701401882E+04  0.46999998093E+01 0. -1.
</event>
<event>
 5   0  0.1287000E-04  0.1906014E+04  0.7818609E-02  0.8651869E-01
        4   -1    0    0  501    0  0.00000000000E+00  0.00000000000E+00  0.11978426029E+04  0.11978432762E+04  0.12699999809E+01 0. -1.
       -4   -1    0    0    0  501  0.00000000000E+00  0.00000000000E+00 -0.75821380489E+03  0.75821486850E+03  0.12699999809E+01 0.  1.
    10030    2    1    2    0    0  0.00000000000E+00  0.00000000000E+00  0.43962879805E+03  0.19560581447E+04  0.19060141619E+04 0.  0.
        5    1    3    3  502    0  0.61533485861E+03  0.22714143373E+03  0.92932034846E+03  0.11374922502E+04  0.46999998093E+01 0. -1.
       -5    1    3    3    0  502 -0.61533485861E+03 -0.22714143373E+03 -0.48969155041E+03  0.81856589453E+03  0.46999998093E+01 0.  1.
</event>
<event>
 5   0  0.1813834E-04  0.1942511E+04  0.7818609E-02  0.8633981E-01
       -1   -1    0    0    0  501  0.00000000000E+00  0.00000000000E+00  0.87093141351E+03  0.87093141353E+03  0.50400001928E-02 0. -1.
        1   -1    0    0  501    0  0.00000000000E+00  0.00000000000E+00 -0.10831359338E+04  0.10831359338E+04  0.50400001928E-02 0.  1.
    10030    2    1    2    0    0  0.00000000000E+00  0.00000000000E+00 -0.21220452026E+03  0.19540673473E+04  0.19425108595E+04 0.  0.
        5    1    3    3  502    0  0.82971389277E+03 -0.28653810788E+03  0.31204579599E+03  0.93162433412E+03  0.46999998093E+01 0. -1.
       -5    1    3    3    0  502 -0.82971389277E+03  0.28653810788E+03 -0.52425031624E+03  0.10224430132E+04  0.46999998093E+01 0.  1.
</event>
<event>
 5   0  0.3516539E-04  0.1841063E+04  0.7818609E-02  0.8684763E-01
        2   -1    0    0  501    0  0.00000000000E+00  0.00000000000E+00  0.12272657995E+04  0.12272657995E+04  0.25500000920E-02 0.  1.
       -2   -1    0    0    0  501  0.00000000000E+00  0.00000000000E+00 -0.69046004981E+03  0.69046004982E+03  0.25500000920E-02 0. -1.
    10030    2    1    2    0    0  0.00000000000E+00  0.00000000000E+00  0.53680574968E+03  0.19177258493E+04  0.18410627421E+04 0.  0.
        4    1    3    3  502    0  0.18456732317E+02 -0.71042345089E+03  0.87785994040E+03  0.11294608530E+04  0.12699999809E+01 0.  1.
       -4    1    3    3    0  502 -0.18456732317E+02  0.71042345089E+03 -0.34105419072E+03  0.78826499633E+03  0.12699999809E+01 0. -1.
</event>
<event>
 5   0  0.1782613E-04  0.1916851E+04  0.7818609E-02  0.8646514E-01
        1   -1    0    0  501    0  0.00000000000E+00  0.00000000000E+00  0.17109094886E+04  0.17109094886E+04  0.50400001928E-02 0.  1.
       -1   -1    0    0    0  501  0.00000000000E+00  0.00000000000E+00 -0.53689543702E+03  0.53689543705E+03  0.50400001928E-02 0. -1.
    10030    2    1    2    0    0  0.00000000000E+00  0.00000000000E+00  0.11740140516E+04  0.22478049257E+04  0.19168510611E+04 0.  0.
        3    1    3    3  502    0  0.21242653682E+03  0.90912434193E+03  0.84109022635E+03  0.12566084839E+04  0.10100000352E+00 0.  1.
       -3    1    3    3    0  502 -0.21242653682E+03 -0.90912434193E+03  0.33292382524E+03  0.99119644181E+03  0.10100000352E+00 0. -1.
</event>
<event>
 5   0  0.1758946E-04  0.1372046E+04  0.7818609E-02  0.8974305E-01
        1   -1    0    0  501    0  0.00000000000E+00  0.00000000000E+00  0.49201387536E+03  0.49201387539E+03  0.50400001928E-02 0.  1.
       -1   -1    0    0    0  501  0.00000000000E+00  0.00000000000E+00 -0.95653298188E+03  0.95653298189E+03  0.50400001928E-02 0. -1.
    10030    2    1    2    0    0  0.00000000000E+00  0.00000000000E+00 -0.46451910652E+03  0.14485468573E+04  0.13720459167E+04 0.  0.
        2    1    3    3  502    0  0.29854979711E+03  0.16690843035E+03  0.39557152379E+03  0.52294094879E+03  0.25500000920E-02 0.  1.
       -2    1    3    3    0  502 -0.29854979711E+03 -0.16690843035E+03 -0.86009063031E+03  0.92560590849E+03  0.25500000920E-02 0. -1.
</event>
<event>
 5   0  0.3535876E-04  0.1911646E+04  0.7818609E-02  0.8649081E-01
        2   -1    0    0  501    0  0.00000000000E+00  0.00000000000E+00  0.16513088952E+04  0.16513088952E+04  0.25500000920E-02 0. -1.
       -2   -1    0    0    0  501  0.00000000000E+00  0.00000000000E+00 -0.55325672287E+03  0.55325672287E+03  0.25500000920E-02 0.  1.
    10030    2    1    2    0    0  0.00000000000E+00  0.00000000000E+00  0.10980521724E+04  0.22045656181E+04  0.19116461470E+04 0.  0.
        2    1    3    3  502    0 -0.17838450404E+03 -0.48092138154E+03 -0.38108813398E+03  0.63901061991E+03  0.25500000920E-02 0.  1.
       -2    1    3    3    0  502  0.17838450404E+03  0.48092138154E+03  0.14791403063E+04  0.15655549982E+04  0.25500000920E-02 0. -1.
</event>
<event>
 5   0  0.3459485E-04  0.1869855E+04  0.7818609E-02  0.8670009E-01
        2   -1    0    0  501    0  0.00000000000E+00  0.00000000000E+00  0.99070208573E+03  0.99070208574E+03  0.25500000920E-02 0.  1.
       -2   -1    0    0    0  501  0.00000000000E+00  0.00000000000E+00 -0.88229276361E+03  0.88229276362E+03  0.25500000920E-02 0. -1.
    10030    2    1    2    0    0  0.00000000000E+00  0.00000000000E+00  0.10840932212E+03  0.18729948494E+04  0.18698548405E+04 0.  0.
        3    1    3    3  502    0 -0.17307888216E+03  0.67836873265E+02  0.97200263031E+03  0.98961975746E+03  0.10100000352E+00 0.  1.
       -3    1    3    3    0  502  0.17307888216E+03 -0.67836873265E+02 -0.86359330819E+03  0.88337509189E+03  0.10100000352E+00 0. -1.
</event>
<event>
 5   0  0.1711979E-04  0.1906540E+04  0.7818609E-02  0.8651608E-01
       -1   -1    0    0    0  501  0.00000000000E+00  0.00000000000E+00  0.61076353071E+03  0.61076353073E+03  0.50400001928E-02 0.  1.
        1   -1    0    0  501    0  0.00000000000E+00  0.00000000000E+00 -0.14878488311E+04  0.14878488311E+04  0.50400001928E-02 0. -1.
    10030    2    1    2    0    0  0.00000000000E+00  0.00000000000E+00 -0.87708530038E+03  0.20986123618E+04  0.19065401179E+04 0.  0.
        4    1    3    3  502    0 -0.48227391681E+03 -0.11838667003E+03 -0.13342253617E+04  0.14236440788E+04  0.12699999809E+01 0. -1.
       -4    1    3    3    0  502  0.48227391681E+03  0.11838667003E+03  0.45714006133E+03  0.67496828299E+03  0.12699999809E+01 0.  1.
</event>
<event>
 5   0  0.3459485E-04  0.1878907E+04  0.7818609E-02  0.8665427E-01
        2   -1    0    0  501    0  0.00000000000E+00  0.00000000000E+00  0.19343644531E+04  0.19343644531E+04  0.25500000920E-02 0. -1.
       -2   -1    0    0    0  501  0.00000000000E+00  0.00000000000E+00 -0.45626009646E+03  0.45626009647E+03  0.25500000920E-02 0.  1.
    10030    2    1    2    0    0  0.00000000000E+00  0.00000000000E+00  0.14781043566E+04  0.23906245495E+04  0.18789074612E+04 0.  0.
        3    1    3    3  502    0  0.45147622573E+03  0.11030339000E+03 -0.29974489328E+03  0.55303221560E+03  0.10100000352E+00 0.  1.
       -3    1    3    3    0  502 -0.45147622573E+03 -0.11030339000E+03  0.17778492499E+04  0.18375923339E+04  0.10100000352E+00 0. -1.
</event>
<event>
 5   0  0.1782613E-04  0.1846778E+04  0.7818609E-02  0.8681812E-01
       -1   -1    0    0    0  501  0.00000000000E+00  0.00000000000E+00  0.31503831083E+03  0.31503831087E+03  0.50400001928E-02 0. -1.
        1   -1    0    0  501    0  0.00000000000E+00  0.00000000000E+00 -0.27064868095E+04  0.27064868095E+04  0.50400001928E-02 0.  1.
    10030    2    1    2    0    0  0.00000000000E+00  0.00000000000E+00 -0.23914484987E+04  0.30215251204E+04  0.18467777699E+04 0.  0.
        3    1    3    3  502    0 -0.29082214471E+03 -0.50773549732E+03 -0.23644520169E+04  0.24357763045E+04  0.10100000352E+00 0.  1.
       -3    1    3    3    0  502  0.29082214471E+03  0.50773549732E+03 -0.26996481775E+02  0.58574881589E+03  0.10100000352E+00 0. -1.
</event>
<event>
 5   0  0.3535876E-04  0.1903232E+04  0.7818609E-02  0.8653249E-01
        2   -1    0    0  501    0  0.00000000000E+00  0.00000000000E+00  0.16876551029E+04  0.16876551029E+04  0.25500000920E-02 0. -1.
       -2   -1    0    0    0  501  0.00000000000E+00  0.00000000000E+00 -0.53658651516E+03  0.53658651516E+03  0.25500000920E-02 0.  1.
    10030    2    1    2    0    0  0.00000000000E+00  0.00000000000E+00  0.11510685877E+04  0.22242416180E+04  0.19032319569E+04 0.  0.
        2    1    3    3  502    0 -0.33330699936E+03  0.72172582468E+03  0.11868159201E+04  0.14284655229E+04  0.25500000920E-02 0. -1.
       -2    1    3    3    0  502  0.33330699936E+03 -0.72172582468E+03 -0.35747332401E+02  0.79577609515E+03  0.25500000920E-02 0.  1.
</event>
<event>
 5   0  0.3459485E-04  0.1904480E+04  0.7818609E-02  0.8652630E-01
       -2   -1    0    0    0  501  0.00000000000E+00  0.00000000000E+00  0.32609381568E+03  0.32609381569E+03  0.25500000920E-02 0.  1.
        2   -1    0    0  501    0  0.00000000000E+00  0.00000000000E+00 -0.27806745884E+04  0.27806745884E+04  0.25500000920E-02 0. -1.
    10030    2    1    2    0    0  0.00000000000E+00  0.00000000000E+00 -0.24545807727E+04  0.31067684041E+04  0.19044797575E+04 0.  0.
        3    1    3    3  502    0 -0.50351374318E+03 -0.34042980170E+03 -0.31491875439E+02  0.60861341415E+03  0.10100000352E+00 0.  1.
       -3    1    3    3    0  502  0.50351374318E+03  0.34042980170E+03 -0.24230888972E+04  0.24981549899E+04  0.10100000352E+00 0. -1.
</event>
<event>
 5   0  0.3720978E-04  0.1856067E+04  0.7818609E-02  0.8677039E-01
        2   -1    0    0  501    0  0.00000000000E+00  0.00000000000E+00  0.13492362288E+04  0.13492362289E+04  0.25500000920E-02 0.  1.
       -2   -1    0    0    0  501  0.00000000000E+00  0.00000000000E+00 -0.63832110534E+03  0.63832110534E+03  0.25500000920E-02 0. -1.
    10030    2    1    2    0    0  0.00000000000E+00  0.00000000000E+00  0.71091512351E+03  0.19875573342E+04  0.18560667671E+04 0.  0.
        1    1    3    3  502    0  0.13006917486E+03 -0.63312276196E+03 -0.35766606084E+03  0.73870659470E+03  0.50400001928E-02 0. -1.
       -1    1    3    3    0  502 -0.13006917486E+03  0.63312276196E+03  0.10685811843E+04  0.12488507395E+04  0.50400001928E-02 0.  1.
</event>
<event>
 5   0  0.1694830E-04  0.1909142E+04  0.7818609E-02  0.8650319E-01
        1   -1    0    0  501    0  0.00000000000E+00  0.00000000000E+00  0.48791610647E+03  0.48791610650E+03  0.50400001928E-02 0. -1.
       -1   -1    0    0    0  501  0.00000000000E+00  0.00000000000E+00 -0.18675467050E+04  0.18675467050E+04  0.50400001928E-02 0.  1.
    10030    2    1    2    0    0  0.00000000000E+00  0.00000000000E+00 -0.13796305985E+04  0.23554628115E+04  0.19091423383E+04 0.  0.
        1    1    3    3  502    0  0.44113651851E+03 -0.71211095354E+03 -0.12545347328E+04  0.15084962161E+04  0.50400001928E-02 0.  1.
       -1    1    3    3    0  502 -0.44113651851E+03  0.71211095354E+03 -0.12509586572E+03  0.84696659542E+03  0.50400001928E-02 0. -1.
</event>
<event>
 5   0  0.3459485E-04  0.1869739E+04  0.7818609E-02  0.8670068E-01
       -2   -1    0    0    0  501  0.00000000000E+00  0.00000000000E+00  0.58813832865E+03  0.58813832866E+03  0.25500000920E-02 0. -1.
        2   -1    0    0  501    0  0.00000000000E+00  0.00000000000E+00 -0.14860119761E+04  0.14860119761E+04  0.25500000920E-02 0.  1.
    10030    2    1    2    0    0  0.00000000000E+00  0.00000000000E+00 -0.89787364742E+03  0.20741503047E+04  0.18697385913E+04 0.  0.
        3    1    3    3  502    0 -0.98746358523E+02 -0.34743758207E+03  0.50760672501E+03  0.62299944963E+03  0.10100000352E+00 0. -1.
       -3    1    3    3    0  502  0.98746358523E+02  0.34743758207E+03 -0.14054803724E+04  0.14511508551E+04  0.10100000352E+00 0.  1.
</event>
<event>
 5   0  0.1711979E-04  0.1925643E+04  0.7818609E-02  0.8642197E-01
        1   -1    0    0  501    0  0.00000000000E+00  0.00000000000E+00  0.65529621850E+03  0.65529621852E+03  0.50400001928E-02 0.  1.
       -1   -1    0    0    0  501  0.00000000000E+00  0.00000000000E+00 -0.14146658483E+04  0.14146658483E+04  0.50400001928E-02 0. -1.
    10030    2    1    2    0    0  0.00000000000E+00  0.00000000000E+00 -0.75936962979E+03  0.20699620668E+04  0.19256429377E+04 0.  0.
        4    1    3    3  502    0 -0.25507278639E+03  0.20737092265E+03  0.59310191415E+03  0.67811232063E+03  0.12699999809E+01 0.  1.
       -4    1    3    3    0  502  0.25507278639E+03 -0.20737092265E+03 -0.13524715439E+04  0.13918497462E+04  0.12699999809E+01 0. -1.
</event>
<event>
 5   0  0.3623359E-04  0.1851400E+04  0.7818609E-02  0.8679433E-01
       -2   -1    0    0    0  501  0.00000000000E+00  0.00000000000E+00  0.37818953997E+03  0.37818953998E+03  0.25500000920E-02 0.  1.
        2   -1    0    0  501    0  0.00000000000E+00  0.00000000000E+00 -0.22658493361E+04  0.22658493361E+04  0.25500000920E-02 0. -1.
    10030    2    1    2    0    0  0.00000000000E+00  0.00000000000E+00 -0.18876597961E+04  0.26440388761E+04  0.18514000303E+04 0.  0.
        5    1    3    3  502    0 -0.62288838843E+03 -0.60968951942E+03 -0.13890472127E+04  0.16398736243E+04  0.46999998093E+01 0. -1.
       -5    1    3    3    0  502  0.62288838843E+03  0.60968951942E+03 -0.49861258340E+03  0.10041652518E+04  0.46999998093E+01 0.  1.
</event>
<event>
 5   0  0.1711979E-04  0.1896389E+04  0.7818609E-02  0.8656656E-01
        1   -1    0    0  501    0  0.00000000000E+00  0.00000000000E+00  0.11496372301E+04  0.11496372301E+04  0.50400001928E-02 0. -1.
       -1   -1    0    0    0  501  0.00000000000E+00  0.00000000000E+00 -0.78204952796E+03  0.78204952798E+03  0.50400001928E-02 0.  1.
    10030    2    1    2    0    0  0.00000000000E+00  0.00000000000E+00  0.36758770211E+03  0.19316867581E+04  0.18963894675E+04 0.  0.
        4    1    3    3  502    0  0.12278645373E+03 -0.22765225173E+03  0.11130064421E+04  0.11426666241E+04  0.12699999809E+01 0. -1.
       -4    1    3    3    0  502 -0.12278645373E+03  0.22765225173E+03 -0.74541873996E+03  0.78902013391E+03  0.12699999809E+01 0.  1.
</event>
<event>
 5   0  0.1782613E-04  0.1600993E+04  0.7818609E-02  0.8819938E-01
        1   -1    0    0  501    0  0.00000000000E+00  0.00000000000E+00  0.15775203815E+04  0.15775203815E+04  0.50400001928E-02 0. -1.
       -1   -1    0    0    0  501  0.00000000000E+00  0.00000000000E+00 -0.40620359847E+03  0.40620359850E+03  0.50400001928E-02 0.  1.
    10030    2    1    2    0    0  0.00000000000E+00  0.00000000000E+00  0.11713167831E+04  0.19837239800E+04  0.16009927616E+04 0.  0.
        3    1    3    3  502    0 -0.18564683157E+03  0.29661674649E+03 -0.30641929063E+03  0.46512259915E+03  0.10100000352E+00 0.  1.
       -3    1    3    3    0  502  0.18564683157E+03 -0.29661674649E+03  0.14777360737E+04  0.15186013809E+04  0.10100000352E+00 0. -1.
</event>
<event>
 5   0  0.3720978E-04  0.1597082E+04  0.7818609E-02  0.8822342E-01
       -2   -1    0    0    0  501  0.00000000000E+00  0.00000000000E+00  0.89221039534E+03  0.89221039534E+03  0.25500000920E-02 0.  1.
        2   -1    0    0  501    0  0.00000000000E+00  0.00000000000E+00 -0.71470596777E+03  0.71470596777E+03  0.25500000920E-02 0. -1.
    10030    2    1    2    0    0  0.00000000000E+00  0.00000000000E+00  0.17750442757E+03  0.16069163631E+04  0.15970824576E+04 0.  0.
        1    1    3    3  502    0  0.20629876674E+03  0.33424474616E+03  0.78829531551E+03  0.88073164811E+03  0.50400001928E-02 0.  1.
       -1    1    3    3    0  502 -0.20629876674E+03 -0.33424474616E+03 -0.61079088794E+03  0.72618471501E+03  0.50400001928E-02 0. -1.
</event>
<event>
 5   0  0.3516539E-04  0.1717158E+04  0.7818609E-02  0.8751638E-01
       -2   -1    0    0    0  501  0.00000000000E+00  0.00000000000E+00  0.63064416379E+03  0.63064416379E+03  0.25500000920E-02 0. -1.
        2   -1    0    0  501    0  0.00000000000E+00  0.00000000000E+00 -0.11688971272E+04  0.11688971273E+04  0.25500000920E-02 0.  1.
    10030    2    1    2    0    0  0.00000000000E+00  0.00000000000E+00 -0.53825296346E+03  0.17995412910E+04  0.17171582937E+04 0.  0.
        4    1    3    3  502    0  0.32110740601E+03 -0.76441866774E+03 -0.35470822432E+02  0.82988291820E+03  0.12699999809E+01 0. -1.
       -4    1    3    3    0  502 -0.32110740601E+03  0.76441866774E+03 -0.50278214103E+03  0.96965837284E+03  0.12699999809E+01 0.  1.
</event>
<event>
 5   0  0.3459485E-04  0.1891794E+04  0.7818609E-02  0.8658952E-01
        2   -1    0    0  501    0  0.00000000000E+00  0.00000000000E+00  0.47185540728E+03  0.47185540729E+03  0.25500000920E-02 0.  1.
       -2   -1    0    0    0  501  0.00000000000E+00  0.00000000000E+00 -0.18961762502E+04  0.18961762502E+04  0.25500000920E-02 0. -1.
    10030    2    1    2    0    0  0.00000000000E+00  0.00000000000E+00 -0.14243208429E+04  0.23680316575E+04  0.18917938755E+04 0.  0.
        3    1    3    3  502    0  0.16985071972E+03 -0.86539843176E+03 -0.28407804923E+03  0.92653335662E+03  0.10100000352E+00 0. -1.
       -3    1    3    3    0  502 -0.16985071972E+03  0.86539843176E+03 -0.11402427937E+04  0.14414983009E+04  0.10100000352E+00 0.  1.
</event>
<event>
 5   0  0.1711979E-04  0.1914713E+04  0.7818609E-02  0.8647567E-01
       -1   -1    0    0    0  501  0.00000000000E+00  0.00000000000E+00  0.13149583064E+04  0.13149583064E+04  0.50400001928E-02 0.  1.
        1   -1    0    0  501    0  0.00000000000E+00  0.00000000000E+00 -0.69700425213E+03  0.69700425215E+03  0.50400001928E-02 0. -1.
    10030    2    1    2    0    0  0.00000000000E+00  0.00000000000E+00  0.61795405429E+03  0.20119625586E+04  0.19147130657E+04 0.  0.
        4    1    3    3  502    0  0.31368098102E+03  0.89438053055E+02  0.12547674019E+04  0.12964712758E+04  0.12699999809E+01 0.  1.
       -4    1    3    3    0  502 -0.31368098102E+03 -0.89438053055E+02 -0.63681334760E+03  0.71549128280E+03  0.12699999809E+01 0. -1.
</event>
<event>
 5   0  0.1758946E-04  0.1904025E+04  0.7818609E-02  0.8652855E-01
        1   -1    0    0  501    0  0.00000000000E+00  0.00000000000E+00  0.77031234181E+03  0.77031234182E+03  0.50400001928E-02 0.  1.
       -1   -1    0    0    0  501  0.00000000000E+00  0.00000000000E+00 -0.11765719975E+04  0.11765719975E+04  0.50400001928E-02 0. -1.
    10030    2    1    2    0    0  0.00000000000E+00  0.00000000000E+00 -0.40625965571E+03  0.19468843393E+04  0.19040251372E+04 0.  0.
        2    1    3    3  502    0 -0.78681334477E+03  0.42154535395E+01  0.34487715637E+03  0.85908862322E+03  0.25500000920E-02 0.  1.
       -2    1    3    3    0  502  0.78681334477E+03 -0.42154535395E+01 -0.75113681208E+03  0.10877957161E+04  0.25500000920E-02 0. -1.
</event>
<event>
 5   0  0.3623359E-04  0.1880633E+04  0.7818609E-02  0.8664557E-01
        2   -1    0    0  501    0  0.00000000000E+00  0.00000000000E+00  0.12684143120E+04  0.12684143120E+04  0.25500000920E-02 0.  1.
       -2   -1    0    0    0  501  0.00000000000E+00  0.00000000000E+00 -0.69708675184E+03  0.69708675185E+03  0.25500000920E-02 0. -1.
    10030    2    1    2    0    0  0.00000000000E+00  0.00000000000E+00  0.57132756013E+03  0.19655010638E+04  0.18806326730E+04 0.  0.
        5    1    3    3  502    0 -0.15515833547E+03 -0.81856576657E+03  0.74128270734E+03  0.11151888474E+04  0.46999998093E+01 0.  1.
       -5    1    3    3    0  502  0.15515833547E+03  0.81856576657E+03 -0.16995514721E+03  0.85031221638E+03  0.46999998093E+01 0. -1.
</event>
<event>
 5   0  0.1694830E-04  0.1951349E+04  0.7818609E-02  0.8629711E-01
       -1   -1    0    0    0  501  0.00000000000E+00  0.00000000000E+00  0.46650116591E+03  0.46650116594E+03  0.50400001928E-02 0.  1.
        1   -1    0    0  501    0  0.00000000000E+00  0.00000000000E+00 -0.20405961231E+04  0.20405961231E+04  0.50400001928E-02 0. -1.
    10030    2    1    2    0    0  0.00000000000E+00  0.00000000000E+00 -0.15740949572E+04  0.25070972890E+04  0.19513487342E+04 0.  0.
        1    1    3    3  502    0  0.65628385629E+03 -0.22039507099E+03  0.96255703619E+02  0.69896183576E+03  0.50400001928E-02 0.  1.
       -1    1    3    3    0  502 -0.65628385629E+03  0.22039507099E+03 -0.16703506608E+04  0.18081354533E+04  0.50400001928E-02 0. -1.
</event>
<event>
 5   0  0.3459485E-04  0.1868332E+04  0.7818609E-02  0.8670782E-01
        2   -1    0    0  501    0  0.00000000000E+00  0.00000000000E+00  0.72756463493E+03  0.72756463494E+03  0.25500000920E-02 0. -1.
       -2   -1    0    0    0  501  0.00000000000E+00  0.00000000000E+00 -0.11994348790E+04  0.11994348790E+04  0.25500000920E-02 0.  1.
    10030    2    1    2    0    0  0.00000000000E+00  0.00000000000E+00 -0.47187024407E+03  0.19269995139E+04  0.18683323044E+04 0.  0.
        3    1    3    3  502    0 -0.84868594124E+03 -0.30142891663E+03  0.19925412549E+02  0.90084640806E+03  0.10100000352E+00 0. -1.
       -3    1    3    3    0  502  0.84868594124E+03  0.30142891663E+03 -0.49179565662E+03  0.10261531059E+04  0.10100000352E+00 0.  1.
</event>
<event>
 5   0  0.1758946E-04  0.1936277E+04  0.7818609E-02  0.8637007E-01
       -1   -1    0    0    0  501  0.00000000000E+00  0.00000000000E+00  0.10031538690E+04  0.10031538690E+04  0.50400001928E-02 0.  1.
        1   -1    0    0  501    0  0.00000000000E+00  0.00000000000E+00 -0.93434489359E+03  0.93434489361E+03  0.50400001928E-02 0. -1.
    10030    2    1    2    0    0  0.00000000000E+00  0.00000000000E+00  0.68808975369E+02  0.19374987626E+04  0.19362765247E+04 0.  0.
        2    1    3    3  502    0  0.30197743399E+03 -0.36567725530E+03 -0.81015522471E+03  0.93875540681E+03  0.25500000920E-02 0. -1.
       -2    1    3    3    0  502 -0.30197743399E+03  0.36567725530E+03  0.87896420008E+03  0.99874335578E+03  0.25500000920E-02 0.  1.
</event>
<event>
 5   0  0.1711979E-04  0.1959473E+04  0.7818609E-02  0.8625806E-01
        1   -1    0    0  501    0  0.00000000000E+00  0.00000000000E+00  0.84536688967E+03  0.84536688969E+03  0.50400001928E-02 0.  1.
       -1   -1    0    0    0  501  0.00000000000E+00  0.00000000000E+00 -0.11354641454E+04  0.11354641454E+04  0.50400001928E-02 0. -1.
    10030    2    1    2    0    0  0.00000000000E+00  0.00000000000E+00 -0.29009725572E+03  0.19808310351E+04  0.19594731873E+04 0.  0.
        4    1    3    3  502    0 -0.23997910193E+03  0.72325431020E+03 -0.76754904174E+03  0.10815821333E+04  0.12699999809E+01 0. -1.
       -4    1    3    3    0  502  0.23997910193E+03 -0.72325431020E+03  0.47745178602E+03  0.89924890184E+03  0.12699999809E+01 0.  1.
</event>
<event>
 5   0  0.1287000E-04  0.1904739E+04  0.7818609E-02  0.8652501E-01
       -3   -1    0    0    0  501  0.00000000000E+00  0.00000000000E+00  0.10434106870E+04  0.10434106919E+04  0.10100000352E+00 0.  1.
        3   -1    0    0  501    0  0.00000000000E+00  0.00000000000E+00 -0.86927206148E+03  0.86927206735E+03  0.10100000352E+00 0. -1.
    10030    2    1    2    0    0  0.00000000000E+00  0.00000000000E+00  0.17413862550E+03  0.19126827592E+04  0.19047391098E+04 0.  0.
        4    1    3    3  502    0  0.24622288488E+03  0.88980413172E+02 -0.83242570002E+03  0.87262671396E+03  0.12699999809E+01 0. -1.
       -4    1    3    3    0  502 -0.24622288488E+03 -0.88980413172E+02  0.10065643255E+04  0.10400560453E+04  0.12699999809E+01 0.  1.
</event>
<event>
 5   0  0.3516539E-04  0.1868200E+04  0.7818609E-02  0.8670849E-01
        2   -1    0    0  501    0  0.00000000000E+00  0.00000000000E+00  0.14977811840E+04  0.14977811840E+04  0.25500000920E-02 0. -1.
       -2   -1    0    0    0  501  0.00000000000E+00  0.00000000000E+00 -0.58255718859E+03  0.58255718860E+03  0.25500000920E-02 0.  1.
    10030    2    1    2    0    0  0.00000000000E+00  0.00000000000E+00  0.91522399542E+03  0.20803383726E+04  0.18682004129E+04 0.  0.
        4    1    3    3  502    0 -0.72525630362E+03 -0.51057953195E+03  0.13133285528E+03  0.89662595109E+03  0.12699999809E+01 0.  1.
       -4    1    3    3    0  502  0.72525630362E+03  0.51057953195E+03  0.78389114014E+03  0.11837124215E+04  0.12699999809E+01 0. -1.
</event>
<event>
 5   0  0.1813834E-04  0.1448058E+04  0.7818609E-02  0.8919748E-01
        1   -1    0    0  501    0  0.00000000000E+00  0.00000000000E+00  0.84799329735E+03  0.84799329736E+03  0.50400001928E-02 0. -1.
       -1   -1    0    0    0  501  0.00000000000E+00  0.00000000000E+00 -0.61818679636E+03  0.61818679638E+03  0.50400001928E-02 0.  1.
    10030    2    1    2    0    0  0.00000000000E+00  0.00000000000E+00  0.22980650099E+03  0.14661800937E+04  0.14480583688E+04 0.  0.
        5    1    3    3  502    0 -0.70750426527E+03  0.47557257766E+02  0.26292508469E+03  0.75629073001E+03  0.46999998093E+01 0. -1.
       -5    1    3    3    0  502  0.70750426527E+03 -0.47557257766E+02 -0.33118583705E+02  0.70988936373E+03  0.46999998093E+01 0.  1.
</event>
<event>
 5   0  0.3535876E-04  0.1892188E+04  0.7818609E-02  0.8658755E-01
       -2   -1    0    0    0  501  0.00000000000E+00  0.00000000000E+00  0.12273721985E+04  0.12273721985E+04  0.25500000920E-02 0. -1.
        2   -1    0    0  501    0  0.00000000000E+00  0.00000000000E+00 -0.72927657382E+03  0.72927657382E+03  0.25500000920E-02 0.  1.
    10030    2    1    2    0    0  0.00000000000E+00  0.00000000000E+00  0.49809562470E+03  0.19566487723E+04  0.18921879312E+04 0.  0.
        2    1    3    3  502    0 -0.75423045202E+03 -0.48164123029E+03  0.56651128379E+03  0.10591396906E+04  0.25500000920E-02 0.  1.
       -2    1    3    3    0  502  0.75423045202E+03  0.48164123029E+03 -0.68415659089E+02  0.89750908178E+03  0.25500000920E-02 0. -1.
</event>
<event>
 5   0  0.1711979E-04  0.1945989E+04  0.7818609E-02  0.8632297E-01
       -1   -1    0    0    0  501  0.00000000000E+00  0.00000000000E+00  0.62689045525E+03  0.62689045527E+03  0.50400001928E-02 0.  1.
        1   -1    0    0  501    0  0.00000000000E+00  0.00000000000E+00 -0.15101814966E+04  0.15101814966E+04  0.50400001928E-02 0. -1.
    10030    2    1    2    0    0  0.00000000000E+00  0.00000000000E+00 -0.88329104133E+03  0.21370719519E+04  0.19459890708E+04 0.  0.
        4    1    3    3  502    0  0.31815225510E+03 -0.70124476652E+03 -0.10948181818E+04  0.13385042189E+04  0.12699999809E+01 0. -1.
       -4    1    3    3    0  502 -0.31815225510E+03  0.70124476652E+03  0.21152714048E+03  0.79856773291E+03  0.12699999809E+01 0.  1.
</event>
<event>
 5   0  0.1694830E-04  0.1909970E+04  0.7818609E-02  0.8649910E-01
        1   -1    0    0  501    0  0.00000000000E+00  0.00000000000E+00  0.16625028613E+04  0.16625028613E+04  0.50400001928E-02 0.  1.
       -1   -1    0    0    0  501  0.00000000000E+00  0.00000000000E+00 -0.54856802351E+03  0.54856802353E+03  0.50400001928E-02 0. -1.
    10030    2    1    2    0    0  0.00000000000E+00  0.00000000000E+00  0.11139348378E+04  0.22110708849E+04  0.19099695377E+04 0.  0.
        1    1    3    3  502    0  0.43804927593E+03  0.71111489497E+03  0.10930272596E+04  0.13756017419E+04  0.50400001928E-02 0.  1.
       -1    1    3    3    0  502 -0.43804927593E+03 -0.71111489497E+03  0.20907578197E+02  0.83546914297E+03  0.50400001928E-02 0. -1.
</event>
<event>
 5   0  0.3535876E-04  0.1861879E+04  0.7818609E-02  0.8674068E-01
        2   -1    0    0  501    0  0.00000000000E+00  0.00000000000E+00  0.93306573233E+03  0.93306573233E+03  0.25500000920E-02 0.  1.
       -2   -1    0    0    0  501  0.00000000000E+00  0.00000000000E+00 -0.92881783764E+03  0.92881783765E+03  0.25500000920E-02 0. -1.
    10030    2    1    2    0    0  0.00000000000E+00  0.00000000000E+00  0.42478946827E+01  0.18618835700E+04  0.18618787242E+04 0.  0.
        2    1    3    3  502    0 -0.54394578980E+03  0.21664436789E+02  0.75730915270E+03  0.93266474300E+03  0.25500000920E-02 0.  1.
       -2    1    3    3    0  502  0.54394578980E+03 -0.21664436789E+02 -0.75306125802E+03  0.92921882697E+03  0.25500000920E-02 0. -1.
</event>
<event>
 5   0  0.3516539E-04  0.1784388E+04  0.7818609E-02  0.8714646E-01
       -2   -1    0    0    0  501  0.00000000000E+00  0.00000000000E+00  0.62320606254E+03  0.62320606254E+03  0.25500000920E-02 0. -1.
        2   -1    0    0  501    0  0.00000000000E+00  0.00000000000E+00 -0.12772824446E+04  0.12772824446E+04  0.25500000920E-02 0.  1.
    10030    2    1    2    0    0  0.00000000000E+00  0.00000000000E+00 -0.65407638202E+03  0.19004885071E+04  0.17843880329E+04 0.  0.
        4    1    3    3  502    0 -0.67064028898E+03 -0.56994182399E+03 -0.48290365340E+03  0.10038872603E+04  0.12699999809E+01 0.  1.
       -4    1    3    3    0  502  0.67064028898E+03  0.56994182399E+03 -0.17117272862E+03  0.89660124685E+03  0.12699999809E+01 0. -1.
</event>
<event>
 5   0  0.1758946E-04  0.1776709E+04  0.7818609E-02  0.8718784E-01
        1   -1    0    0  501    0  0.00000000000E+00  0.00000000000E+00  0.56880997409E+03  0.56880997412E+03  0.50400001928E-02 0. -1.
       -1   -1    0    0    0  501  0.00000000000E+00  0.00000000000E+00 -0.13874115964E+04  0.13874115964E+04  0.50400001928E-02 0.  1.
    10030    2    1    2    0    0  0.00000000000E+00  0.00000000000E+00 -0.81860162232E+03  0.19562215705E+04  0.17767088160E+04 0.  0.
        2    1    3    3  502    0  0.82350916393E+03  0.27258860992E+03 -0.19836775493E+03  0.88984361522E+03  0.25500000920E-02 0.  1.
       -2    1    3    3    0  502 -0.82350916393E+03 -0.27258860992E+03 -0.62023386740E+03  0.10663779553E+04  0.25500000920E-02 0. -1.
</event>
<event>
 5   0  0.1694830E-04  0.1889553E+04  0.7818609E-02  0.8660074E-01
        1   -1    0    0  501    0  0.00000000000E+00  0.00000000000E+00  0.14459483952E+04  0.14459483952E+04  0.50400001928E-02 0.  1.
       -1   -1    0    0    0  501  0.00000000000E+00  0.00000000000E+00 -0.61731300478E+03  0.61731300480E+03  0.50400001928E-02 0. -1.
    10030    2    1    2    0    0  0.00000000000E+00  0.00000000000E+00  0.82863539044E+03  0.20632614000E+04  0.18895531203E+04 0.  0.
        1    1    3    3  502    0 -0.80473449989E+03 -0.25438429989E+03 -0.49327215790E+02  0.84542424947E+03  0.50400001928E-02 0.  1.
       -1    1    3    3    0  502  0.80473449989E+03  0.25438429989E+03  0.87796260624E+03  0.12178371506E+04  0.50400001928E-02 0. -1.
</event>
<event>
 5   0  0.1711979E-04  0.1887096E+04  0.7818609E-02  0.8661306E-01
       -1   -1    0    0    0  501  0.00000000000E+00  0.00000000000E+00  0.66385241970E+03  0.66385241971E+03  0.50400001928E-02 0.  1.
        1   -1    0    0  501    0  0.00000000000E+00  0.00000000000E+00 -0.13410856478E+04  0.13410856479E+04  0.50400001928E-02 0. -1.
    10030    2    1    2    0    0  0.00000000000E+00  0.00000000000E+00 -0.67723322815E+03  0.20049380676E+04  0.18870961315E+04 0.  0.
        4    1    3    3  502    0 -0.85347504092E+03  0.32391845324E+02  0.87439486711E+02  0.85855468891E+03  0.12699999809E+01 0.  1.
       -4    1    3    3    0  502  0.85347504092E+03 -0.32391845324E+02 -0.76467271486E+03  0.11463833787E+04  0.12699999809E+01 0. -1.
</event>
<event>
 5   0  0.3516539E-04  0.1910952E+04  0.7818609E-02  0.8649424E-01
       -2   -1    0    0    0  501  0.00000000000E+00  0.00000000000E+00  0.11029668966E+04  0.11029668966E+04  0.25500000920E-02 0.  1.
        2   -1    0    0  501    0  0.00000000000E+00  0.00000000000E+00 -0.82770781785E+03  0.82770781785E+03  0.25500000920E-02 0. -1.
    10030    2    1    2    0    0  0.00000000000E+00  0.00000000000E+00  0.27525907875E+03  0.19306747145E+04  0.19109519336E+04 0.  0.
        4    1    3    3  502    0  0.71186339526E+03  0.53782622178E+03  0.48310341426E+03  0.10145920659E+04  0.12699999809E+01 0. -1.
       -4    1    3    3    0  502 -0.71186339526E+03 -0.53782622178E+03 -0.20784433551E+03  0.91608264859E+03  0.12699999809E+01 0.  1.
</event>
<event>
 5   0  0.1782613E-04  0.1574760E+04  0.7818609E-02  0.8836206E-01
       -1   -1    0    0    0  501  0.00000000000E+00  0.00000000000E+00  0.57671547981E+03  0.57671547983E+03  0.50400001928E-02 0.  1.
        1   -1    0    0  501    0  0.00000000000E+00  0.00000000000E+00 -0.10749962031E+04  0.10749962031E+04  0.50400001928E-02 0. -1.
    10030    2    1    2    0    0  0.00000000000E+00  0.00000000000E+00 -0.49828072330E+03  0.16517116829E+04  0.15747596021E+04 0.  0.
        3    1    3    3  502    0  0.74463664923E+03 -0.22572629850E+03 -0.37557478467E+03  0.86399799207E+03  0.10100000352E+00 0. -1.
       -3    1    3    3    0  502 -0.74463664923E+03  0.22572629850E+03 -0.12270593863E+03  0.78771369088E+03  0.10100000352E+00 0.  1.
</event>
<event>
 5   0  0.1694830E-04  0.1902284E+04  0.7818609E-02  0.8653720E-01
       -1   -1    0    0    0  501  0.00000000000E+00  0.00000000000E+00  0.72412865554E+03  0.72412865556E+03  0.50400001928E-02 0. -1.
        1   -1    0    0  501    0  0.00000000000E+00  0.00000000000E+00 -0.12493243453E+04  0.12493243453E+04  0.50400001928E-02 0.  1.
    10030    2    1    2    0    0  0.00000000000E+00  0.00000000000E+00 -0.52519568973E+03  0.19734530008E+04  0.19022844777E+04 0.  0.
        1    1    3    3  502    0 -0.23749418666E+03  0.36800344155E+03  0.61328863486E+03  0.75362654635E+03  0.50400001928E-02 0. -1.
       -1    1    3    3    0  502  0.23749418666E+03 -0.36800344155E+03 -0.11384843246E+04  0.12198264545E+04  0.50400001928E-02 0.  1.
</event>
<event>
 5   0  0.1694830E-04  0.1205940E+04  0.7818609E-02  0.9107673E-01
        1   -1    0    0  501    0  0.00000000000E+00  0.00000000000E+00  0.32397964182E+03  0.32397964186E+03  0.50400001928E-02 0. -1.
       -1   -1    0    0    0  501  0.00000000000E+00  0.00000000000E+00 -0.11222086989E+04  0.11222086989E+04  0.50400001928E-02 0.  1.
    10030    2    1    2    0    0  0.00000000000E+00  0.00000000000E+00 -0.79822905705E+03  0.14461883407E+04  0.12059399195E+04 0.  0.
        1    1    3    3  502    0  0.20310938216E+03  0.14191767169E+03  0.26010661312E+03  0.35923459866E+03  0.50400001928E-02 0. -1.
       -1    1    3    3    0  502 -0.20310938216E+03 -0.14191767169E+03 -0.10583356702E+04  0.10869537421E+04  0.50400001928E-02 0.  1.
</event>
<event>
 5   0  0.3516539E-04  0.1913864E+04  0.7818609E-02  0.8647986E-01
        2   -1    0    0  501    0  0.00000000000E+00  0.00000000000E+00  0.65694007338E+03  0.65694007338E+03  0.25500000920E-02 0. -1.
       -2   -1    0    0    0  501  0.00000000000E+00  0.00000000000E+00 -0.13939151324E+04  0.13939151324E+04  0.25500000920E-02 0.  1.
    10030    2    1    2    0    0  0.00000000000E+00  0.00000000000E+00 -0.73697505902E+03  0.20508552058E+04  0.19138638503E+04 0.  0.
        4    1    3    3  502    0 -0.66273308712E+02  0.89493700883E+03 -0.12419102702E+02  0.89747437190E+03  0.12699999809E+01 0. -1.
       -4    1    3    3    0  502  0.66273308712E+02 -0.89493700883E+03 -0.72455595632E+03  0.11533808339E+04  0.12699999809E+01 0.  1.
</event>
<event>
 5   0  0.3459485E-04  0.1738869E+04  0.7818609E-02  0.8739501E-01
       -2   -1    0    0    0  501  0.00000000000E+00  0.00000000000E+00  0.10891646943E+04  0.10891646943E+04  0.25500000920E-02 0. -1.
        2   -1    0    0  501    0  0.00000000000E+00  0.00000000000E+00 -0.69403289041E+03  0.69403289041E+03  0.25500000920E-02 0.  1.
    10030    2    1    2    0    0  0.00000000000E+00  0.00000000000E+00  0.39513180389E+03  0.17831975847E+04  0.17388687368E+04 0.  0.
        3    1    3    3  502    0 -0.60909545265E+03  0.61724499516E+03  0.26183294887E+03  0.90583947685E+03  0.10100000352E+00 0.  1.
       -3    1    3    3    0  502  0.60909545265E+03 -0.61724499516E+03  0.13329885503E+03  0.87735810787E+03  0.10100000352E+00 0. -1.
</event>
<event>
 5   0  0.3623359E-04  0.1885589E+04  0.7818609E-02  0.8662063E-01
       -2   -1    0    0    0  501  0.00000000000E+00  0.00000000000E+00  0.46734896828E+03  0.46734896828E+03  0.25500000920E-02 0.  1.
        2   -1    0    0  501    0  0.00000000000E+00  0.00000000000E+00 -0.19019230321E+04  0.19019230321E+04  0.25500000920E-02 0. -1.
    10030    2    1    2    0    0  0.00000000000E+00  0.00000000000E+00 -0.14345740638E+04  0.23692720004E+04  0.18855893156E+04 0.  0.
        5    1    3    3  502    0  0.47163493476E+03 -0.73220464740E+03 -0.26376239221E+03  0.91003068459E+03  0.46999998093E+01 0.  1.
       -5    1    3    3    0  502 -0.47163493476E+03  0.73220464740E+03 -0.11708116716E+04  0.14592413158E+04  0.46999998093E+01 0. -1.
</event>
<event>
 5   0  0.3459485E-04  0.1939027E+04  0.7818609E-02  0.8635671E-01
        2   -1    0    0  501    0  0.00000000000E+00  0.00000000000E+00  0.25116059006E+04  0.25116059006E+04  0.25500000920E-02 0. -1.
       -2   -1    0    0    0  501  0.00000000000E+00  0.00000000000E+00 -0.37424502748E+03  0.37424502749E+03  0.25500000920E-02 0.  1.
    10030    2    1    2    0    0  0.00000000000E+00  0.00000000000E+00  0.21373608731E+04  0.28858509281E+04  0.19390265798E+04 0.  0.
        3    1    3    3  502    0  0.75467579958E+03 -0.83482314623E+02  0.17143108208E+03  0.77839160160E+03  0.10100000352E+00 0.  1.
       -3    1    3    3    0  502 -0.75467579958E+03  0.83482314623E+02  0.19659297910E+04  0.21074593265E+04  0.10100000352E+00 0. -1.
</event>
<event>
 5   0  0.1813834E-04  0.1890064E+04  0.7818609E-02  0.8659818E-01
       -1   -1    0    0    0  501  0.00000000000E+00  0.00000000000E+00  0.12682084223E+04  0.12682084223E+04  0.50400001928E-02 0. -1.
        1   -1    0    0  501    0  0.00000000000E+00  0.00000000000E+00 -0.70421010340E+03  0.70421010342E+03  0.50400001928E-02 0.  1.
    10030    2    1    2    0    0  0.00000000000E+00  0.00000000000E+00  0.56399831888E+03  0.19724185257E+04  0.18900636859E+04 0.  0.
        5    1    3    3  502    0  0.65809619887E+03  0.66022503046E+03  0.44392246392E+03  0.10325100202E+04  0.46999998093E+01 0.  1.
       -5    1    3    3    0  502 -0.65809619887E+03 -0.66022503046E+03  0.12007585496E+03  0.93990850553E+03  0.46999998093E+01 0. -1.
</event>
<event>
 5   0  0.3623359E-04  0.1893339E+04  0.7818609E-02  0.8658179E-01
        2   -1    0    0  501    0  0.00000000000E+00  0.00000000000E+00  0.20370911947E+04  0.20370911947E+04  0.25500000920E-02 0. -1.
       -2   -1    0    0    0  501  0.00000000000E+00  0.00000000000E+00 -0.43993280803E+03  0.43993280803E+03  0.25500000920E-02 0.  1.
    10030    2    1    2    0    0  0.00000000000E+00  0.00000000000E+00  0.15971583867E+04  0.24770240027E+04  0.18933391133E+04 0.  0.
        5    1    3    3  502    0  0.59965099879E+03 -0.66945361793E+03  0.40957287018E+03  0.98768491580E+03  0.46999998093E+01 0.  1.
       -5    1    3    3    0  502 -0.59965099879E+03  0.66945361793E+03  0.11875855165E+04  0.14893390870E+04  0.46999998093E+01 0. -1.
</event>
<event>
 5   0  0.3535876E-04  0.1932662E+04  0.7818609E-02  0.8638767E-01
       -2   -1    0    0    0  501  0.00000000000E+00  0.00000000000E+00  0.41892703022E+03  0.41892703023E+03  0.25500000920E-02 0.  1.
        2   -1    0    0  501    0  0.00000000000E+00  0.00000000000E+00 -0.22290172954E+04  0.22290172954E+04  0.25500000920E-02 0. -1.
    10030    2    1    2    0    0  0.00000000000E+00  0.00000000000E+00 -0.18100902652E+04  0.26479443256E+04  0.19326619941E+04 0.  0.
        2    1    3    3  502    0 -0.10643823671E+03 -0.48316545600E+03 -0.20423269965E+04  0.21013989428E+04  0.25500000920E-02 0. -1.
       -2    1    3    3    0  502  0.10643823671E+03  0.48316545600E+03  0.23223673134E+03  0.54654538283E+03  0.25500000920E-02 0.  1.
</event>
<event>
 5   0  0.3623359E-04  0.1913281E+04  0.7818609E-02  0.8648274E-01
        2   -1    0    0  501    0  0.00000000000E+00  0.00000000000E+00  0.19527600206E+04  0.19527600206E+04  0.25500000920E-02 0. -1.
       -2   -1    0    0    0  501  0.00000000000E+00  0.00000000000E+00 -0.46865018313E+03  0.46865018313E+03  0.25500000920E-02 0.  1.
    10030    2    1    2    0    0  0.00000000000E+00  0.00000000000E+00  0.14841098375E+04  0.24214102037E+04  0.19132813084E+04 0.  0.
        5    1    3    3  502    0  0.77020479015E+03 -0.56652260217E+03  0.78159236382E+03  0.12349380514E+04  0.46999998093E+01 0. -1.
       -5    1    3    3    0  502 -0.77020479015E+03  0.56652260217E+03  0.70251747366E+03  0.11864721524E+04  0.46999998093E+01 0.  1.
</event>
<event>
 5   0  0.1694830E-04  0.1853783E+04  0.7818609E-02  0.8678210E-01
       -1   -1    0    0    0  501  0.00000000000E+00  0.00000000000E+00  0.14610946784E+04  0.14610946785E+04  0.50400001928E-02 0. -1.
        1   -1    0    0  501    0  0.00000000000E+00  0.00000000000E+00 -0.58800276296E+03  0.58800276299E+03  0.50400001928E-02 0.  1.
    10030    2    1    2    0    0  0.00000000000E+00  0.00000000000E+00  0.87309191548E+03  0.20490974414E+04  0.18537828437E+04 0.  0.
        1    1    3    3  502    0  0.52858094197E+03  0.27547342335E+03  0.12211524953E+04  0.13588586520E+04  0.50400001928E-02 0.  1.
       -1    1    3    3    0  502 -0.52858094197E+03 -0.27547342335E+03 -0.34806057986E+03  0.69023878945E+03  0.50400001928E-02 0. -1.
</event>
<event>
 5   0  0.3535876E-04  0.1893145E+04  0.7818609E-02  0.8658276E-01
       -2   -1    0    0    0  501  0.00000000000E+00  0.00000000000E+00  0.10055216069E+04  0.10055216069E+04  0.25500000920E-02 0. -1.
        2   -1    0    0  501    0  0.00000000000E+00  0.00000000000E+00 -0.89107962682E+03  0.89107962682E+03  0.25500000920E-02 0.  1.
    10030    2    1    2    0    0  0.00000000000E+00  0.00000000000E+00  0.11444198006E+03  0.18966012337E+04  0.18931453386E+04 0.  0.
        2    1    3    3  502    0  0.17780278924E+03 -0.74440114826E+03  0.61524130367E+03  0.98197187492E+03  0.25500000920E-02 0. -1.
       -2    1    3    3    0  502 -0.17780278924E+03  0.74440114826E+03 -0.50079932361E+03  0.91462935878E+03  0.25500000920E-02 0.  1.
</event>
<event>
 5   0  0.1813834E-04  0.1852154E+04  0.7818609E-02  0.8679046E-01
        1   -1    0    0  501    0  0.00000000000E+00  0.00000000000E+00  0.65772195839E+03  0.65772195841E+03  0.50400001928E-02 0.  1.
       -1   -1    0    0    0  501  0.00000000000E+00  0.00000000000E+00 -0.13039226263E+04  0.13039226263E+04  0.50400001928E-02 0. -1.
    10030    2    1    2    0    0  0.00000000000E+00  0.00000000000E+00 -0.64620066789E+03  0.19616445847E+04  0.18521539281E+04 0.  0.
        5    1    3    3  502    0  0.37524706799E+03  0.78856079152E+03  0.32687076917E+01  0.87331051660E+03  0.46999998093E+01 0. -1.
       -5    1    3    3    0  502 -0.37524706799E+03 -0.78856079152E+03 -0.64946937558E+03  0.10883340681E+04  0.46999998093E+01 0.  1.
</event>
<event>
 5   0  0.1782613E-04  0.1801380E+04  0.7818609E-02  0.8705566E-01
        1   -1    0    0  501    0  0.00000000000E+00  0.00000000000E+00  0.13542205559E+04  0.13542205559E+04  0.50400001928E-02 0.  1.
       -1   -1    0    0    0  501  0.00000000000E+00  0.00000000000E+00 -0.59904739010E+03  0.59904739012E+03  0.50400001928E-02 0. -1.
    10030    2    1    2    0    0  0.00000000000E+00  0.00000000000E+00  0.75517316576E+03  0.19532679460E+04  0.18013797930E+04 0.  0.
        3    1    3    3  502    0  0.62773936296E+03  0.62721854224E+03  0.21036780982E+03  0.91198378996E+03  0.10100000352E+00 0. -1.
       -3    1    3    3    0  502 -0.62773936296E+03 -0.62721854224E+03  0.54480535594E+03  0.10412841560E+04  0.10100000352E+00 0.  1.
</event>
<event>
 5   0  0.3516539E-04  0.1867326E+04  0.7818609E-02  0.8671294E-01
       -2   -1    0    0    0  501  0.00000000000E+00  0.00000000000E+00  0.41187791539E+03  0.41187791540E+03  0.25500000920E-02 0. -1.
        2   -1    0    0  501    0  0.00000000000E+00  0.00000000000E+00 -0.21164674957E+04  0.21164674957E+04  0.25500000920E-02 0.  1.
    10030    2    1    2    0    0  0.00000000000E+00  0.00000000000E+00 -0.17045895803E+04  0.25283454111E+04  0.18673255958E+04 0.  0.
        4    1    3    3  502    0 -0.16182094814E+02  0.21119899449E+03 -0.20835037029E+04  0.20942435790E+04  0.12699999809E+01 0.  1.
       -4    1    3    3    0  502  0.16182094814E+02 -0.21119899449E+03  0.37891412255E+03  0.43410183210E+03  0.12699999809E+01 0. -1.
</event>
<event>
 5   0  0.1782613E-04  0.1849032E+04  0.7818609E-02  0.8680651E-01
        1   -1    0    0  501    0  0.00000000000E+00  0.00000000000E+00  0.10439788026E+04  0.10439788026E+04  0.50400001928E-02 0.  1.
       -1   -1    0    0    0  501  0.00000000000E+00  0.00000000000E+00 -0.81872331888E+03  0.81872331890E+03  0.50400001928E-02 0. -1.
    10030    2    1    2    0    0  0.00000000000E+00  0.00000000000E+00  0.22525548374E+03  0.18627021215E+04  0.18490319523E+04 0.  0.
        3    1    3    3  502    0 -0.40864321746E+03  0.24830142080E+03  0.90973415520E+03  0.10277446755E+04  0.10100000352E+00 0.  1.
       -3    1    3    3    0  502  0.40864321746E+03 -0.24830142080E+03 -0.68447867146E+03  0.83495744600E+03  0.10100000352E+00 0. -1.
</event>
<event>
 5   0  0.1711979E-04  0.1899410E+04  0.7818609E-02  0.8655150E-01
       -1   -1    0    0    0  501  0.00000000000E+00  0.00000000000E+00  0.66078241743E+03  0.66078241745E+03  0.50400001928E-02 0. -1.
        1   -1    0    0  501    0  0.00000000000E+00  0.00000000000E+00 -0.13649573143E+04  0.13649573143E+04  0.50400001928E-02 0.  1.
    10030    2    1    2    0    0  0.00000000000E+00  0.00000000000E+00 -0.70417489683E+03  0.20257397317E+04  0.18994102178E+04 0.  0.
        4    1    3    3  502    0 -0.26548244002E+03  0.79647721869E+03 -0.82555212122E+03  0.11774526757E+04  0.12699999809E+01 0.  1.
       -4    1    3    3    0  502  0.26548244002E+03 -0.79647721869E+03  0.12137722439E+03  0.84828705598E+03  0.12699999809E+01 0. -1.
</event>
<event>
 5   0  0.1782613E-04  0.1978888E+04  0.7818609E-02  0.8616555E-01
       -1   -1    0    0    0  501  0.00000000000E+00  0.00000000000E+00  0.73440507034E+03  0.73440507036E+03  0.50400001928E-02 0. -1.
        1   -1    0    0  501    0  0.00000000000E+00  0.00000000000E+00 -0.13330511897E+04  0.13330511897E+04  0.50400001928E-02 0.  1.
    10030    2    1    2    0    0  0.00000000000E+00  0.00000000000E+00 -0.59864611938E+03  0.20674562601E+04  0.19788881250E+04 0.  0.
        3    1    3    3  502    0 -0.34371228191E+03 -0.80800374639E+03 -0.77579543969E+03  0.11716939709E+04  0.10100000352E+00 0.  1.
       -3    1    3    3    0  502  0.34371228191E+03  0.80800374639E+03  0.17714932031E+03  0.89576228923E+03  0.10100000352E+00 0. -1.
</event>
<event>
 5   0  0.3623359E-04  0.1868823E+04  0.7818609E-02  0.8670533E-01
       -2   -1    0    0    0  501  0.00000000000E+00  0.00000000000E+00  0.92405792760E+03  0.92405792760E+03  0.25500000920E-02 0.  1.
        2   -1    0    0  501    0  0.00000000000E+00  0.00000000000E+00 -0.94488140377E+03  0.94488140378E+03  0.25500000920E-02 0. -1.
    10030    2    1    2    0    0  0.00000000000E+00  0.00000000000E+00 -0.20823476179E+02  0.18689393314E+04  0.18688233216E+04 0.  0.
        5    1    3    3  502    0  0.39557926073E+03  0.94048774293E+02  0.83093409645E+03  0.92509550108E+03  0.46999998093E+01 0.  1.
       -5    1    3    3    0  502 -0.39557926073E+03 -0.94048774293E+02 -0.85175757263E+03  0.94384383030E+03  0.46999998093E+01 0. -1.
</event>
<event>
 5   0  0.1711979E-04  0.1848487E+04  0.7818609E-02  0.8680931E-01
       -1   -1    0    0    0  501  0.00000000000E+00  0.00000000000E+00  0.14690092271E+04  0.14690092271E+04  0.50400001928E-02 0.  1.
        1   -1    0    0  501    0  0.00000000000E+00  0.00000000000E+00 -0.58149790658E+03  0.58149790660E+03  0.50400001928E-02 0. -1.
    10030    2    1    2    0    0  0.00000000000E+00  0.00000000000E+00  0.88751132054E+03  0.20505071337E+04  0.18484867220E+04 0.  0.
        4    1    3    3  502    0 -0.22109795969E+03  0.94799753192E+02 -0.54615893102E+03  0.59679350852E+03  0.12699999809E+01 0. -1.
       -4    1    3    3    0  502  0.22109795969E+03 -0.94799753192E+02  0.14336702516E+04  0.14537136252E+04  0.12699999809E+01 0.  1.
</event>
<event>
 5   0  0.1813834E-04  0.1715093E+04  0.7818609E-02  0.8752803E-01
       -1   -1    0    0    0  501  0.00000000000E+00  0.00000000000E+00  0.30279856916E+03  0.30279856920E+03  0.50400001928E-02 0.  1.
        1   -1    0    0  501    0  0.00000000000E+00  0.00000000000E+00 -0.24286321416E+04  0.24286321416E+04  0.50400001928E-02 0. -1.
    10030    2    1    2    0    0  0.00000000000E+00  0.00000000000E+00 -0.21258335725E+04  0.27314307108E+04  0.17150933940E+04 0.  0.
        5    1    3    3  502    0  0.60603069469E+03  0.51899872124E+03 -0.15633314184E+04  0.17551809278E+04  0.46999998093E+01 0. -1.
       -5    1    3    3    0  502 -0.60603069469E+03 -0.51899872124E+03 -0.56250215412E+03  0.97624978307E+03  0.46999998093E+01 0.  1.
</event>
<event>
 5   0  0.3623359E-04  0.1874782E+04  0.7818609E-02  0.8667512E-01
       -2   -1    0    0    0  501  0.00000000000E+00  0.00000000000E+00  0.65586544944E+03  0.65586544945E+03  0.25500000920E-02 0. -1.
        2   -1    0    0  501    0  0.00000000000E+00  0.00000000000E+00 -0.13397599350E+04  0.13397599350E+04  0.25500000920E-02 0.  1.
    10030    2    1    2    0    0  0.00000000000E+00  0.00000000000E+00 -0.68389448553E+03  0.19956253844E+04  0.18747823894E+04 0.  0.
        5    1    3    3  502    0  0.89500041404E+03  0.19196431740E+03 -0.55696789301E+03  0.10714995866E+04  0.46999998093E+01 0.  1.
       -5    1    3    3    0  502 -0.89500041404E+03 -0.19196431740E+03 -0.12692659251E+03  0.92412579780E+03  0.46999998093E+01 0. -1.
</event>
<event>
 5   0  0.1813834E-04  0.1883495E+04  0.7818609E-02  0.8663116E-01
       -1   -1    0    0    0  501  0.00000000000E+00  0.00000000000E+00  0.66571189034E+03  0.66571189036E+03  0.50400001928E-02 0.  1.
        1   -1    0    0  501    0  0.00000000000E+00  0.00000000000E+00 -0.13322411045E+04  0.13322411045E+04  0.50400001928E-02 0. -1.
    10030    2    1    2    0    0  0.00000000000E+00  0.00000000000E+00 -0.66652921419E+03  0.19979529949E+04  0.18834954145E+04 0.  0.
        5    1    3    3  502    0 -0.12421368834E+03 -0.50634002077E+03  0.49864956405E+03  0.72144489376E+03  0.46999998093E+01 0.  1.
       -5    1    3    3    0  502  0.12421368834E+03  0.50634002077E+03 -0.11651787782E+04  0.12765081011E+04  0.46999998093E+01 0. -1.
</event>
<event>
 5   0  0.3516539E-04  0.2057523E+04  0.7818609E-02  0.8580189E-01
       -2   -1    0    0    0  501  0.00000000000E+00  0.00000000000E+00  0.13238692130E+04  0.13238692130E+04  0.25500000920E-02 0.  1.
        2   -1    0    0  501    0  0.00000000000E+00  0.00000000000E+00 -0.79943751956E+03  0.79943751957E+03  0.25500000920E-02 0. -1.
    10030    2    1    2    0    0  0.00000000000E+00  0.00000000000E+00  0.52443169345E+03  0.21233067326E+04  0.20575234821E+04 0.  0.
        4    1    3    3  502    0 -0.89581086721E+03  0.94215911189E+02 -0.25066010172E+03  0.93497906246E+03  0.12699999809E+01 0. -1.
       -4    1    3    3    0  502  0.89581086721E+03 -0.94215911189E+02  0.77509179517E+03  0.11883276701E+04  0.12699999809E+01 0.  1.
</event>
<event>
 5   0  0.1711979E-04  0.1939069E+04  0.7818609E-02  0.8635650E-01
       -1   -1    0    0    0  501  0.00000000000E+00  0.00000000000E+00  0.71866282742E+03  0.71866282744E+03  0.50400001928E-02 0. -1.
        1   -1    0    0  501    0  0.00000000000E+00  0.00000000000E+00 -0.13079802512E+04  0.13079802512E+04  0.50400001928E-02 0.  1.
    10030    2    1    2    0    0  0.00000000000E+00  0.00000000000E+00 -0.58931742380E+03  0.20266430787E+04  0.19390686275E+04 0.  0.
        4    1    3    3  502    0 -0.26856897467E+03  0.92775238242E+03 -0.20633534196E+03  0.98763842750E+03  0.12699999809E+01 0. -1.
       -4    1    3    3    0  502  0.26856897467E+03 -0.92775238242E+03 -0.38298208184E+03  0.10390046512E+04  0.12699999809E+01 0.  1.
</event>
<event>
 5   0  0.1758946E-04  0.1946316E+04  0.7818609E-02  0.8632140E-01
        1   -1    0    0  501    0  0.00000000000E+00  0.00000000000E+00  0.14019129384E+04  0.14019129385E+04  0.50400001928E-02 0. -1.
       -1   -1    0    0    0  501  0.00000000000E+00  0.00000000000E+00 -0.67553126634E+03  0.67553126636E+03  0.50400001928E-02 0.  1.
    10030    2    1    2    0    0  0.00000000000E+00  0.00000000000E+00  0.72638167211E+03  0.20774442048E+04  0.19463155167E+04 0.  0.
        2    1    3    3  502    0  0.80848359793E+02 -0.73552070653E+03 -0.31146041294E+03  0.80282921960E+03  0.25500000920E-02 0.  1.
       -2    1    3    3    0  502 -0.80848359793E+02  0.73552070653E+03  0.10378420850E+04  0.12746149852E+04  0.25500000920E-02 0. -1.
</event>
<event>
 5   0  0.1782613E-04  0.1874092E+04  0.7818609E-02  0.8667861E-01
       -1   -1    0    0    0  501  0.00000000000E+00  0.00000000000E+00  0.79655782630E+03  0.79655782632E+03  0.50400001928E-02 0. -1.
        1   -1    0    0  501    0  0.00000000000E+00  0.00000000000E+00 -0.11023114680E+04  0.11023114680E+04  0.50400001928E-02 0.  1.
    10030    2    1    2    0    0  0.00000000000E+00  0.00000000000E+00 -0.30575364172E+03  0.18988692944E+04  0.18740915953E+04 0.  0.
        3    1    3    3  502    0  0.26967829996E+03  0.40644429999E+03 -0.96353700939E+03  0.10799661722E+04  0.10100000352E+00 0.  1.
       -3    1    3    3    0  502 -0.26967829996E+03 -0.40644429999E+03  0.65778336767E+03  0.81890312214E+03  0.10100000352E+00 0. -1.
</event>
<event>
 5   0  0.3459485E-04  0.1898566E+04  0.7818609E-02  0.8655570E-01
        2   -1    0    0  501    0  0.00000000000E+00  0.00000000000E+00  0.97189748495E+03  0.97189748495E+03  0.25500000920E-02 0.  1.
       -2   -1    0    0    0  501  0.00000000000E+00  0.00000000000E+00 -0.92719484145E+03  0.92719484146E+03  0.25500000920E-02 0. -1.
    10030    2    1    2    0    0  0.00000000000E+00  0.00000000000E+00  0.44702643492E+02  0.18990923264E+04  0.18985661268E+04 0.  0.
        3    1    3    3  502    0 -0.84768721857E+03  0.59444588623E+02  0.44558919522E+03  0.95950873928E+03  0.10100000352E+00 0.  1.
       -3    1    3    3    0  502  0.84768721857E+03 -0.59444588623E+02 -0.40088655173E+03  0.93958358713E+03  0.10100000352E+00 0. -1.
</event>
<event>
 5   0  0.1758946E-04  0.1871948E+04  0.7818609E-02  0.8668947E-01
       -1   -1    0    0    0  501  0.00000000000E+00  0.00000000000E+00  0.13699190005E+04  0.13699190005E+04  0.50400001928E-02 0.  1.
        1   -1    0    0  501    0  0.00000000000E+00  0.00000000000E+00 -0.63948817004E+03  0.63948817006E+03  0.50400001928E-02 0. -1.
    10030    2    1    2    0    0  0.00000000000E+00  0.00000000000E+00  0.73043083044E+03  0.20094071705E+04  0.18719476432E+04 0.  0.
        2    1    3    3  502    0 -0.86752571762E+03 -0.25124527185E+03  0.10157505840E+03  0.90886882984E+03  0.25500000920E-02 0. -1.
       -2    1    3    3    0  502  0.86752571762E+03  0.25124527185E+03  0.62885577203E+03  0.11005383407E+04  0.25500000920E-02 0.  1.
</event>
<event>
 5   0  0.1758946E-04  0.1865254E+04  0.7818609E-02  0.8672348E-01
        1   -1    0    0  501    0  0.00000000000E+00  0.00000000000E+00  0.12567876302E+04  0.12567876302E+04  0.50400001928E-02 0.  1.
       -1   -1    0    0    0  501  0.00000000000E+00  0.00000000000E+00 -0.69207649643E+03  0.69207649645E+03  0.50400001928E-02 0. -1.
    10030    2    1    2    0    0  0.00000000000E+00  0.00000000000E+00  0.56471113376E+03  0.19488641267E+04  0.18652540630E+04 0.  0.
        2    1    3    3  502    0  0.74502793234E+02  0.22501783012E+03  0.12247909207E+04  0.12475161280E+04  0.25500000920E-02 0.  1.
       -2    1    3    3    0  502 -0.74502793234E+02 -0.22501783012E+03 -0.66007978697E+03  0.70134799867E+03  0.25500000920E-02 0. -1.
</event>
<event>
 5   0  0.3623359E-04  0.1868916E+04  0.7818609E-02  0.8670486E-01
        2   -1    0    0  501    0  0.00000000000E+00  0.00000000000E+00  0.79428976736E+03  0.79428976736E+03  0.25500000920E-02 0.  1.
       -2   -1    0    0    0  501  0.00000000000E+00  0.00000000000E+00 -0.10993613895E+04  0.10993613895E+04  0.25500000920E-02 0. -1.
    10030    2    1    2    0    0  0.00000000000E+00  0.00000000000E+00 -0.30507162217E+03  0.18936511569E+04  0.18689157309E+04 0.  0.
        5    1    3    3  502    0  0.25128657058E+03 -0.83058232397E+03  0.19871860679E+03  0.89023767171E+03  0.46999998093E+01 0.  1.
       -5    1    3    3    0  502 -0.25128657058E+03  0.83058232397E+03 -0.50379022896E+03  0.10034134852E+04  0.46999998093E+01 0. -1.
</event>
<event>
 5   0  0.3516539E-04  0.1860423E+04  0.7818609E-02  0.8674811E-01
       -2   -1    0    0    0  501  0.00000000000E+00  0.00000000000E+00  0.38446508732E+03  0.38446508733E+03  0.25500000920E-02 0. -1.
        2   -1    0    0  501    0  0.00000000000E+00  0.00000000000E+00 -0.22506432473E+04  0.22506432473E+04  0.25500000920E-02 0.  1.
    10030    2    1    2    0    0  0.00000000000E+00  0.00000000000E+00 -0.18661781600E+04  0.26351083347E+04  0.18604233417E+04 0.  0.
        4    1    3    3  502    0 -0.17073143756E+03 -0.47189537015E+03 -0.20424656702E+04  0.21032123267E+04  0.12699999809E+01 0.  1.
       -4    1    3    3    0  502  0.17073143756E+03  0.47189537015E+03  0.17628751022E+03  0.53189600797E+03  0.12699999809E+01 0. -1.
</event>
<event>
 5   0  0.1758946E-04  0.1473269E+04  0.7818609E-02  0.8902426E-01
        1   -1    0    0  501    0  0.00000000000E+00  0.00000000000E+00  0.85733714215E+03  0.85733714216E+03  0.50400001928E-02 0.  1.
       -1   -1    0    0    0  501  0.00000000000E+00  0.00000000000E+00 -0.63292535586E+03  0.63292535588E+03  0.50400001928E-02 0. -1.
    10030    2    1    2    0    0  0.00000000000E+00  0.00000000000E+00  0.22441178629E+03  0.14902624980E+04  0.14732690397E+04 0.  0.
        2    1    3    3  502    0 -0.40269367058E+03 -0.42197727716E+03 -0.34287605989E+03  0.67660254745E+03  0.25500000920E-02 0. -1.
       -2    1    3    3    0  502  0.40269367058E+03  0.42197727716E+03  0.56728784619E+03  0.81365995059E+03  0.25500000920E-02 0.  1.
</event>
<event>
 5   0  0.1694830E-04  0.1272910E+04  0.7818609E-02  0.9051328E-01
       -1   -1    0    0    0  501  0.00000000000E+00  0.00000000000E+00  0.78775049090E+03  0.78775049091E+03  0.50400001928E-02 0.  1.
        1   -1    0    0  501    0  0.00000000000E+00  0.00000000000E+00 -0.51421722150E+03  0.51421722152E+03  0.50400001928E-02 0. -1.
    10030    2    1    2    0    0  0.00000000000E+00  0.00000000000E+00  0.27353326940E+03  0.13019677124E+04  0.12729098455E+04 0.  0.
        1    1    3    3  502    0 -0.11212344954E+03 -0.90076798735E+01 -0.50396958801E+03  0.51637016945E+03  0.50400001928E-02 0. -1.
       -1    1    3    3    0  502  0.11212344954E+03  0.90076798735E+01  0.77750285741E+03  0.78559754298E+03  0.50400001928E-02 0.  1.
</event>
<event>
 5   0  0.1782613E-04  0.2011782E+04  0.7818609E-02  0.8601132E-01
       -1   -1    0    0    0  501  0.00000000000E+00  0.00000000000E+00  0.59852904456E+03  0.59852904458E+03  0.50400001928E-02 0.  1.
        1   -1    0    0  501    0  0.00000000000E+00  0.00000000000E+00 -0.16905059799E+04  0.16905059800E+04  0.50400001928E-02 0. -1.
    10030    2    1    2    0    0  0.00000000000E+00  0.00000000000E+00 -0.10919769354E+04  0.22890350245E+04  0.20117822238E+04 0.  0.
        3    1    3    3  502    0  0.19791091179E+03  0.54287715462E+03  0.39085002326E+03  0.69760166635E+03  0.10100000352E+00 0.  1.
       -3    1    3    3    0  502 -0.19791091179E+03 -0.54287715462E+03 -0.14828269587E+04  0.15914333582E+04  0.10100000352E+00 0. -1.
</event>
<event>
 5   0  0.3535876E-04  0.1902868E+04  0.7818609E-02  0.8653430E-01
        2   -1    0    0  501    0  0.00000000000E+00  0.00000000000E+00  0.15510681075E+04  0.15510681075E+04  0.25500000920E-02 0. -1.
       -2   -1    0    0    0  501  0.00000000000E+00  0.00000000000E+00 -0.58361485890E+03  0.58361485891E+03  0.25500000920E-02 0.  1.
    10030    2    1    2    0    0  0.00000000000E+00  0.00000000000E+00  0.96745324858E+03  0.21346829664E+04  0.19028677250E+04 0.  0.
        2    1    3    3  502    0  0.14642546425E+03 -0.39587235752E+03 -0.47283556968E+03  0.63382080748E+03  0.25500000920E-02 0.  1.
       -2    1    3    3    0  502 -0.14642546425E+03  0.39587235752E+03  0.14402888183E+04  0.15008621589E+04  0.25500000920E-02 0. -1.
</event>
<event>
 5   0  0.1694830E-04  0.1894987E+04  0.7818609E-02  0.8657356E-01
        1   -1    0    0  501    0  0.00000000000E+00  0.00000000000E+00  0.96413110287E+03  0.96413110288E+03  0.50400001928E-02 0.  1.
       -1   -1    0    0    0  501  0.00000000000E+00  0.00000000000E+00 -0.93114325384E+03  0.93114325386E+03  0.50400001928E-02 0. -1.
    10030    2    1    2    0    0  0.00000000000E+00  0.00000000000E+00  0.32987849024E+02  0.18952743567E+04  0.18949872530E+04 0.  0.
        1    1    3    3  502    0  0.88019335623E+03  0.24548338958E+03  0.26701487454E+03  0.95199757466E+03  0.50400001928E-02 0.  1.
       -1    1    3    3    0  502 -0.88019335623E+03 -0.24548338958E+03 -0.23402702552E+03  0.94327678208E+03  0.50400001928E-02 0. -1.
</event>
<event>
 5   0  0.3623359E-04  0.1927002E+04  0.7818609E-02  0.8641531E-01
       -2   -1    0    0    0  501  0.00000000000E+00  0.00000000000E+00  0.57275058969E+03  0.57275058970E+03  0.25500000920E-02 0. -1.
        2   -1    0    0  501    0  0.00000000000E+00  0.00000000000E+00 -0.16208348106E+04  0.16208348106E+04  0.25500000920E-02 0.  1.
    10030    2    1    2    0    0  0.00000000000E+00  0.00000000000E+00 -0.10480842209E+04  0.21935854003E+04  0.19270019134E+04 0.  0.
        5    1    3    3  502    0  0.93058466215E+02  0.84365646066E+03 -0.50086394061E+01  0.84880108283E+03  0.46999998093E+01 0. -1.
       -5    1    3    3    0  502 -0.93058466215E+02 -0.84365646066E+03 -0.10430755815E+04  0.13447843174E+04  0.46999998093E+01 0.  1.
</event>
<event>
 5   0  0.1782613E-04  0.1911807E+04  0.7818609E-02  0.8649002E-01
       -1   -1    0    0    0  501  0.00000000000E+00  0.00000000000E+00  0.71433616234E+03  0.71433616236E+03  0.50400001928E-02 0. -1.
        1   -1    0    0  501    0  0.00000000000E+00  0.00000000000E+00 -0.12791613578E+04  0.12791613578E+04  0.50400001928E-02 0.  1.
    10030    2    1    2    0    0  0.00000000000E+00  0.00000000000E+00 -0.56482519545E+03  0.19934975202E+04  0.19118067009E+04 0.  0.
        3    1    3    3  502    0 -0.47266909174E+02  0.95473399787E+03 -0.28220992202E+03  0.99669133521E+03  0.10100000352E+00 0.  1.
       -3    1    3    3    0  502  0.47266909174E+02 -0.95473399787E+03 -0.28261527343E+03  0.99680618496E+03  0.10100000352E+00 0. -1.
</event>
<event>
 5   0  0.3535876E-04  0.1905526E+04  0.7818609E-02  0.8652110E-01
       -2   -1    0    0    0  501  0.00000000000E+00  0.00000000000E+00  0.43254917885E+03  0.43254917885E+03  0.25500000920E-02 0.  1.
        2   -1    0    0  501    0  0.00000000000E+00  0.00000000000E+00 -0.20986232312E+04  0.20986232312E+04  0.25500000920E-02 0. -1.
    10030    2    1    2    0    0  0.00000000000E+00  0.00000000000E+00 -0.16660740524E+04  0.25311724101E+04  0.19055264421E+04 0.  0.
        2    1    3    3  502    0  0.32598640589E+03 -0.52908290722E+03 -0.17923485821E+04  0.18970264361E+04  0.25500000920E-02 0. -1.
       -2    1    3    3    0  502 -0.32598640589E+03  0.52908290722E+03  0.12627452966E+03  0.63414597403E+03  0.25500000920E-02 0.  1.
</event>
<event>
 5   0  0.1287000E-04  0.1824722E+04  0.7818609E-02  0.8693262E-01
        3   -1    0    0  501    0  0.00000000000E+00  0.00000000000E+00  0.79841738646E+03  0.79841739285E+03  0.10100000352E+00 0. -1.
       -3   -1    0    0    0  501  0.00000000000E+00  0.00000000000E+00 -0.10425651401E+04  0.10425651450E+04  0.10100000352E+00 0.  1.
    10030    2    1    2    0    0  0.00000000000E+00  0.00000000000E+00 -0.24414775365E+03  0.18409825378E+04  0.18247215073E+04 0.  0.
        3    1    3    3  502    0  0.15574034191E+03 -0.64941298972E+03 -0.74923217366E+03  0.10036638608E+04  0.10100000352E+00 0.  1.
       -3    1    3    3    0  502 -0.15574034191E+03  0.64941298972E+03  0.50508442001E+03  0.83731867700E+03  0.10100000352E+00 0. -1.
</event>
<event>
 5   0  0.3623359E-04  0.1873711E+04  0.7818609E-02  0.8668054E-01
        2   -1    0    0  501    0  0.00000000000E+00  0.00000000000E+00  0.12323724464E+04  0.12323724464E+04  0.25500000920E-02 0. -1.
       -2   -1    0    0    0  501  0.00000000000E+00  0.00000000000E+00 -0.71220222354E+03  0.71220222354E+03  0.25500000920E-02 0.  1.
    10030    2    1    2    0    0  0.00000000000E+00  0.00000000000E+00  0.52017022287E+03  0.19445746700E+04  0.18737111801E+04 0.  0.
        5    1    3    3  502    0 -0.59112153667E+02 -0.88980993166E+03  0.55803223102E+03  0.10519876530E+04  0.46999998093E+01 0. -1.
       -5    1    3    3    0  502  0.59112153667E+02  0.88980993166E+03 -0.37862008152E+02  0.89258701696E+03  0.46999998093E+01 0.  1.
</event>
<event>
 5   0  0.1694830E-04  0.1957754E+04  0.7818609E-02  0.8626631E-01
        1   -1    0    0  501    0  0.00000000000E+00  0.00000000000E+00  0.87789187399E+03  0.87789187400E+03  0.50400001928E-02 0.  1.
       -1   -1    0    0    0  501  0.00000000000E+00  0.00000000000E+00 -0.10914791259E+04  0.10914791259E+04  0.50400001928E-02 0. -1.
    10030    2    1    2    0    0  0.00000000000E+00  0.00000000000E+00 -0.21358725194E+03  0.19693709999E+04  0.19577544844E+04 0.  0.
        1    1    3    3  502    0  0.11895154856E+03 -0.73876656476E+03 -0.74162870184E+03  0.10535362545E+04  0.50400001928E-02 0. -1.
       -1    1    3    3    0  502 -0.11895154856E+03  0.73876656476E+03  0.52804144990E+03  0.91583474544E+03  0.50400001928E-02 0.  1.
</event>
<event>
 5   0  0.1711979E-04  0.1901331E+04  0.7818609E-02  0.8654194E-01
       -1   -1    0    0    0  501  0.00000000000E+00  0.00000000000E+00  0.89431675932E+03  0.89431675933E+03  0.50400001928E-02 0.  1.
        1   -1    0    0  501    0  0.00000000000E+00  0.00000000000E+00 -0.10105644096E+04  0.10105644096E+04  0.50400001928E-02 0. -1.
    10030    2    1    2    0    0  0.00000000000E+00  0.00000000000E+00 -0.11624765026E+03  0.19048811689E+04  0.19013307844E+04 0.  0.
        4    1    3    3  502    0  0.59676525410E+03  0.61054465834E+03 -0.47707872673E+03  0.97800780811E+03  0.12699999809E+01 0.  1.
       -4    1    3    3    0  502 -0.59676525410E+03 -0.61054465834E+03  0.36083107647E+03  0.92687336081E+03  0.12699999809E+01 0. -1.
</event>
<event>
 5   0  0.3459485E-04  0.1925348E+04  0.7818609E-02  0.8642341E-01
       -2   -1    0    0    0  501  0.00000000000E+00  0.00000000000E+00  0.56105163920E+03  0.56105163920E+03  0.25500000920E-02 0. -1.
        2   -1    0    0  501    0  0.00000000000E+00  0.00000000000E+00 -0.16517923507E+04  0.16517923507E+04  0.25500000920E-02 0.  1.
    10030    2    1    2    0    0  0.00000000000E+00  0.00000000000E+00 -0.10907407115E+04  0.22128439899E+04  0.19253475593E+04 0.  0.
        3    1    3    3  502    0  0.55671516182E+03  0.40888952259E+03  0.22529118632E+03  0.72655250458E+03  0.10100000352E+00 0. -1.
       -3    1    3    3    0  502 -0.55671516182E+03 -0.40888952259E+03 -0.13160318978E+04  0.14862914853E+04  0.10100000352E+00 0.  1.
</event>
<event>
 5   0  0.1813834E-04  0.1539941E+04  0.7818609E-02  0.8858319E-01
        1   -1    0    0  501    0  0.00000000000E+00  0.00000000000E+00  0.15759613001E+04  0.15759613001E+04  0.50400001928E-02 0.  1.
       -1   -1    0    0    0  501  0.00000000000E+00  0.00000000000E+00 -0.37618587598E+03  0.37618587602E+03  0.50400001928E-02 0. -1.
    10030    2    1    2    0    0  0.00000000000E+00  0.00000000000E+00  0.11997754241E+04  0.19521471762E+04  0.15399407550E+04 0.  0.
        5    1    3    3  502    0  0.59578255178E+03 -0.48222989498E+03  0.69243481847E+03  0.10329523650E+04  0.46999998093E+01 0.  1.
       -5    1    3    3    0  502 -0.59578255178E+03  0.48222989498E+03  0.50734060568E+03  0.91919481112E+03  0.46999998093E+01 0. -1.
</event>
<event>
 5   0  0.3720978E-04  0.1703968E+04  0.7818609E-02  0.8759105E-01
        2   -1    0    0  501    0  0.00000000000E+00  0.00000000000E+00  0.20082438857E+04  0.20082438857E+04  0.25500000920E-02 0. -1.
       -2   -1    0    0    0  501  0.00000000000E+00  0.00000000000E+00 -0.36144843152E+03  0.36144843153E+03  0.25500000920E-02 0.  1.
    10030    2    1    2    0    0  0.00000000000E+00  0.00000000000E+00  0.16467954541E+04  0.23696923172E+04  0.17039678431E+04 0.  0.
        1    1    3    3  502    0  0.43725322369E+03  0.72235849995E+03  0.98125441168E+03  0.12945471813E+04  0.50400001928E-02 0. -1.
       -1    1    3    3    0  502 -0.43725322369E+03 -0.72235849995E+03  0.66554104246E+03  0.10751451359E+04  0.50400001928E-02 0.  1.
</event>
<event>
 5   0  0.1694830E-04  0.1887253E+04  0.7818609E-02  0.8661227E-01
        1   -1    0    0  501    0  0.00000000000E+00  0.00000000000E+00  0.14758270253E+04  0.14758270253E+04  0.50400001928E-02 0. -1.
       -1   -1    0    0    0  501  0.00000000000E+00  0.00000000000E+00 -0.60334385688E+03  0.60334385690E+03  0.50400001928E-02 0.  1.
    10030    2    1    2    0    0  0.00000000000E+00  0.00000000000E+00  0.87248316841E+03  0.20791708822E+04  0.18872532099E+04 0.  0.
        1    1    3    3  502    0 -0.52356553511E+03 -0.10067211260E+03 -0.42150535071E+03  0.67964880969E+03  0.50400001928E-02 0.  1.
       -1    1    3    3    0  502  0.52356553511E+03  0.10067211260E+03  0.12939885191E+04  0.13995220725E+04  0.50400001928E-02 0. -1.
</event>
<event>
 5   0  0.3535876E-04  0.1884384E+04  0.7818609E-02  0.8662669E-01
       -2   -1    0    0    0  501  0.00000000000E+00  0.00000000000E+00  0.12712541254E+04  0.12712541254E+04  0.25500000920E-02 0. -1.
        2   -1    0    0  501    0  0.00000000000E+00  0.00000000000E+00 -0.69830682412E+03  0.69830682412E+03  0.25500000920E-02 0.  1.
    10030    2    1    2    0    0  0.00000000000E+00  0.00000000000E+00  0.57294730132E+03  0.19695609496E+04  0.18843836456E+04 0.  0.
        2    1    3    3  502    0 -0.34120518820E+03 -0.17948297991E+03  0.11850373151E+04  0.12461735668E+04  0.25500000920E-02 0. -1.
       -2    1    3    3    0  502  0.34120518820E+03  0.17948297991E+03 -0.61209001376E+03  0.72338738273E+03  0.25500000920E-02 0.  1.
</event>
<event>
 5   0  0.1782613E-04  0.1906009E+04  0.7818609E-02  0.8651871E-01
       -1   -1    0    0    0  501  0.00000000000E+00  0.00000000000E+00  0.11438684300E+04  0.11438684300E+04  0.50400001928E-02 0. -1.
        1   -1    0    0  501    0  0.00000000000E+00  0.00000000000E+00 -0.79398751926E+03  0.79398751927E+03  0.50400001928E-02 0.  1.
    10030    2    1    2    0    0  0.00000000000E+00  0.00000000000E+00  0.34988091074E+03  0.19378559493E+04  0.19060086643E+04 0.  0.
        3    1    3    3  502    0 -0.28460278946E+03  0.10643266679E+03 -0.74341874513E+03  0.80311773803E+03  0.10100000352E+00 0.  1.
       -3    1    3    3    0  502  0.28460278946E+03 -0.10643266679E+03  0.10932996559E+04  0.11347382112E+04  0.10100000352E+00 0. -1.
</event>
<event>
 5   0  0.3516539E-04  0.1915082E+04  0.7818609E-02  0.8647385E-01
        2   -1    0    0  501    0  0.00000000000E+00  0.00000000000E+00  0.21250599648E+04  0.21250599648E+04  0.25500000920E-02 0. -1.
       -2   -1    0    0    0  501  0.00000000000E+00  0.00000000000E+00 -0.43146286319E+03  0.43146286320E+03  0.25500000920E-02 0.  1.
    10030    2    1    2    0    0  0.00000000000E+00  0.00000000000E+00  0.16935971016E+04  0.25565228280E+04  0.19150816765E+04 0.  0.
        4    1    3    3  502    0 -0.15120138675E+03 -0.82670873036E+03  0.14593807839E+04  0.16840733563E+04  0.12699999809E+01 0. -1.
       -4    1    3    3    0  502  0.15120138675E+03  0.82670873036E+03  0.23421631768E+03  0.87244947164E+03  0.12699999809E+01 0.  1.
</event>
<event>
 5   0  0.3720978E-04  0.1825166E+04  0.7818609E-02  0.8693030E-01
        2   -1    0    0  501    0  0.00000000000E+00  0.00000000000E+00  0.10993865111E+04  0.10993865111E+04  0.25500000920E-02 0. -1.
       -2   -1    0    0    0  501  0.00000000000E+00  0.00000000000E+00 -0.75752038190E+03  0.75752038190E+03  0.25500000920E-02 0.  1.
    10030    2    1    2    0    0  0.00000000000E+00  0.00000000000E+00  0.34186612921E+03  0.18569068930E+04  0.18251659538E+04 0.  0.
        1    1    3    3  502    0 -0.62139431720E+03  0.43080915726E+03 -0.34891303472E+03  0.83274710041E+03  0.50400001928E-02 0.  1.
       -1    1    3    3    0  502  0.62139431720E+03 -0.43080915726E+03  0.69077916393E+03  0.10241597926E+04  0.50400001928E-02 0. -1.
</event>
<event>
 5   0  0.1782613E-04  0.1810738E+04  0.7818609E-02  0.8700610E-01
       -1   -1    0    0    0  501  0.00000000000E+00  0.00000000000E+00  0.18576383390E+04  0.18576383390E+04  0.50400001928E-02 0.  1.
        1   -1    0    0  501    0  0.00000000000E+00  0.00000000000E+00 -0.44125540895E+03  0.44125540898E+03  0.50400001928E-02 0. -1.
    10030    2    1    2    0    0  0.00000000000E+00  0.00000000000E+00  0.14163829300E+04  0.22988937480E+04  0.18107379324E+04 0.  0.
        3    1    3    3  502    0  0.87735996107E+03 -0.36971090358E+02  0.42840439325E+03  0.97706586122E+03  0.10100000352E+00 0. -1.
       -3    1    3    3    0  502 -0.87735996107E+03  0.36971090358E+02  0.98797853677E+03  0.13218278867E+04  0.10100000352E+00 0.  1.
</event>
<event>
 5   0  0.1813834E-04  0.1790497E+04  0.7818609E-02  0.8711369E-01
        1   -1    0    0  501    0  0.00000000000E+00  0.00000000000E+00  0.99048463189E+03  0.99048463190E+03  0.50400001928E-02 0. -1.
       -1   -1    0    0    0  501  0.00000000000E+00  0.00000000000E+00 -0.80916974240E+03  0.80916974241E+03  0.50400001928E-02 0.  1.
    10030    2    1    2    0    0  0.00000000000E+00  0.00000000000E+00  0.18131488949E+03  0.17996543743E+04  0.17904973549E+04 0.  0.
        5    1    3    3  502    0  0.42614186177E+02  0.59509179599E+03 -0.58021236492E+03  0.83223716146E+03  0.46999998093E+01 0.  1.
       -5    1    3    3    0  502 -0.42614186177E+02 -0.59509179599E+03  0.76152725441E+03  0.96741721285E+03  0.46999998093E+01 0. -1.
</event>
<event>
 5   0  0.1782613E-04  0.1926661E+04  0.7818609E-02  0.8641698E-01
       -1   -1    0    0    0  501  0.00000000000E+00  0.00000000000E+00  0.68753770430E+03  0.68753770432E+03  0.50400001928E-02 0. -1.
        1   -1    0    0  501    0  0.00000000000E+00  0.00000000000E+00 -0.13497527166E+04  0.13497527166E+04  0.50400001928E-02 0.  1.
    10030    2    1    2    0    0  0.00000000000E+00  0.00000000000E+00 -0.66221501233E+03  0.20372904210E+04  0.19266612408E+04 0.  0.
        3    1    3    3  502    0  0.61946134249E+03 -0.22023173584E+03  0.41343305439E+03  0.77663458136E+03  0.10100000352E+00 0. -1.
       -3    1    3    3    0  502 -0.61946134249E+03  0.22023173584E+03 -0.10756480667E+04  0.12606558396E+04  0.10100000352E+00 0.  1.
</event>
<event>
 5   0  0.1813834E-04  0.1322793E+04  0.7818609E-02  0.9011683E-01
       -1   -1    0    0    0  501  0.00000000000E+00  0.00000000000E+00  0.40050375805E+03  0.40050375808E+03  0.50400001928E-02 0. -1.
        1   -1    0    0  501    0  0.00000000000E+00  0.00000000000E+00 -0.10922381215E+04  0.10922381215E+04  0.50400001928E-02 0.  1.
    10030    2    1    2    0    0  0.00000000000E+00  0.00000000000E+00 -0.69173436346E+03  0.14927418796E+04  0.13227932150E+04 0.  0.
        5    1    3    3  502    0  0.54631013167E+03 -0.31657843191E+03 -0.12373564320E+03  0.64343551573E+03  0.46999998093E+01 0. -1.
       -5    1    3    3    0  502 -0.54631013167E+03  0.31657843191E+03 -0.56799872026E+03  0.84930636388E+03  0.46999998093E+01 0.  1.
</event>
<event>
 5   0  0.3535876E-04  0.1851276E+04  0.7818609E-02  0.8679497E-01
       -2   -1    0    0    0  501  0.00000000000E+00  0.00000000000E+00  0.49545933535E+03  0.49545933535E+03  0.25500000920E-02 0. -1.
        2   -1    0    0  501    0  0.00000000000E+00  0.00000000000E+00 -0.17293154234E+04  0.17293154234E+04  0.25500000920E-02 0.  1.
    10030    2    1    2    0    0  0.00000000000E+00  0.00000000000E+00 -0.12338560880E+04  0.22247747587E+04  0.18512757442E+04 0.  0.
        2    1    3    3  502    0 -0.24827362096E+03 -0.27714400010E+03 -0.16354844070E+04  0.16772769101E+04  0.25500000920E-02 0.  1.
       -2    1    3    3    0  502  0.24827362096E+03  0.27714400010E+03  0.40162831896E+03  0.54749784863E+03  0.25500000920E-02 0. -1.
</event>
<event>
 5   0  0.1782613E-04  0.1918337E+04  0.7818609E-02  0.8645783E-01
       -1   -1    0    0    0  501  0.00000000000E+00  0.00000000000E+00  0.12734930459E+04  0.12734930459E+04  0.50400001928E-02 0.  1.
        1   -1    0    0  501    0  0.00000000000E+00  0.00000000000E+00 -0.72242547474E+03  0.72242547476E+03  0.50400001928E-02 0. -1.
    10030    2    1    2    0    0  0.00000000000E+00  0.00000000000E+00  0.55106757113E+03  0.19959185206E+04  0.19183365901E+04 0.  0.
        3    1    3    3  502    0  0.28551011261E+03 -0.90453927593E+03  0.42376114811E+03  0.10388844243E+04  0.10100000352E+00 0. -1.
       -3    1    3    3    0  502 -0.28551011261E+03  0.90453927593E+03  0.12730642302E+03  0.95703409639E+03  0.10100000352E+00 0.  1.
</event>
<event>
 5   0  0.3720978E-04  0.1894234E+04  0.7818609E-02  0.8657732E-01
       -2   -1    0    0    0  501  0.00000000000E+00  0.00000000000E+00  0.84655248558E+03  0.84655248558E+03  0.25500000920E-02 0.  1.
        2   -1    0    0  501    0  0.00000000000E+00  0.00000000000E+00 -0.10596283024E+04  0.10596283024E+04  0.25500000920E-02 0. -1.
    10030    2    1    2    0    0  0.00000000000E+00  0.00000000000E+00 -0.21307581680E+03  0.19061807880E+04  0.18942343817E+04 0.  0.
        1    1    3    3  502    0 -0.59823318247E+03  0.73045883855E+03 -0.18169438731E+03  0.96149150065E+03  0.50400001928E-02 0.  1.
       -1    1    3    3    0  502  0.59823318247E+03 -0.73045883855E+03 -0.31381429481E+02  0.94468928731E+03  0.50400001928E-02 0. -1.
</event>
<event>
 5   0  0.3516539E-04  0.1571488E+04  0.7818609E-02  0.8838258E-01
       -2   -1    0    0    0  501  0.00000000000E+00  0.00000000000E+00  0.73110141314E+03  0.73110141314E+03  0.25500000920E-02 0.  1.
        2   -1    0    0  501    0  0.00000000000E+00  0.00000000000E+00 -0.84447059271E+03  0.84447059272E+03  0.25500000920E-02 0. -1.
    10030    2    1    2    0    0  0.00000000000E+00  0.00000000000E+00 -0.11336917958E+03  0.15755720059E+04  0.15714880129E+04 0.  0.
        4    1    3    3  502    0 -0.14851031634E+03  0.59295352377E+03  0.43830163467E+03  0.75216961602E+03  0.12699999809E+01 0.  1.
       -4    1    3    3    0  502  0.14851031634E+03 -0.59295352377E+03 -0.55167081424E+03  0.82340238984E+03  0.12699999809E+01 0. -1.
</event>
<event>
 5   0  0.1782613E-04  0.1994998E+04  0.7818609E-02  0.8608963E-01
       -1   -1    0    0    0  501  0.00000000000E+00  0.00000000000E+00  0.35990832500E+03  0.35990832503E+03  0.50400001928E-02 0.  1.
        1   -1    0    0  501    0  0.00000000000E+00  0.00000000000E+00 -0.27646036986E+04  0.27646036986E+04  0.50400001928E-02 0. -1.
    10030    2    1    2    0    0  0.00000000000E+00  0.00000000000E+00 -0.24046953736E+04  0.31245120237E+04  0.19949976306E+04 0.  0.
        3    1    3    3  502    0 -0.11965862327E+03  0.98123027981E+03 -0.14117282947E+04  0.17234000802E+04  0.10100000352E+00 0.  1.
       -3    1    3    3    0  502  0.11965862327E+03 -0.98123027981E+03 -0.99296707896E+03  0.14011119435E+04  0.10100000352E+00 0. -1.
</event>
<event>
 5   0  0.3459485E-04  0.1881630E+04  0.7818609E-02  0.8664054E-01
       -2   -1    0    0    0  501  0.00000000000E+00  0.00000000000E+00  0.61121526018E+03  0.61121526018E+03  0.25500000920E-02 0. -1.
        2   -1    0    0  501    0  0.00000000000E+00  0.00000000000E+00 -0.14481531375E+04  0.14481531375E+04  0.25500000920E-02 0.  1.
    10030    2    1    2    0    0  0.00000000000E+00  0.00000000000E+00 -0.83693787731E+03  0.20593683977E+04  0.18816304597E+04 0.  0.
        3    1    3    3  502    0 -0.60307750510E+03 -0.55845550361E+03  0.82547644560E+02  0.82606849019E+03  0.10100000352E+00 0. -1.
       -3    1    3    3    0  502  0.60307750510E+03  0.55845550361E+03 -0.91948552187E+03  0.12332999075E+04  0.10100000352E+00 0.  1.
</event>
<event>
 5   0  0.3459485E-04  0.1877223E+04  0.7818609E-02  0.8666278E-01
        2   -1    0    0  501    0  0.00000000000E+00  0.00000000000E+00  0.20488253475E+04  0.20488253475E+04  0.25500000920E-02 0.  1.
       -2   -1    0    0    0  501  0.00000000000E+00  0.00000000000E+00 -0.42999831940E+03  0.42999831941E+03  0.25500000920E-02 0. -1.
    10030    2    1    2    0    0  0.00000000000E+00  0.00000000000E+00  0.16188270281E+04  0.24788236669E+04  0.18772229023E+04 0.  0.
        3    1    3    3  502    0  0.46714167781E+03 -0.31248300191E+03  0.18020765432E+04  0.18876829319E+04  0.10100000352E+00 0.  1.
       -3    1    3    3    0  502 -0.46714167781E+03  0.31248300191E+03 -0.18324951508E+03  0.59114073503E+03  0.10100000352E+00 0. -1.
</event>
<event>
 5   0  0.1758946E-04  0.1890730E+04  0.7818609E-02  0.8659485E-01
        1   -1    0    0  501    0  0.00000000000E+00  0.00000000000E+00  0.15044405023E+04  0.15044405023E+04  0.50400001928E-02 0.  1.
       -1   -1    0    0    0  501  0.00000000000E+00  0.00000000000E+00 -0.59405124117E+03  0.59405124119E+03  0.50400001928E-02 0. -1.
    10030    2    1    2    0    0  0.00000000000E+00  0.00000000000E+00  0.91038926116E+03  0.20984917435E+04  0.18907297509E+04 0.  0.
        2    1    3    3  502    0  0.90620817304E+03  0.25198804068E+03  0.34988113549E+03  0.10035576887E+04  0.25500000920E-02 0. -1.
       -2    1    3    3    0  502 -0.90620817304E+03 -0.25198804068E+03  0.56050812567E+03  0.10949340549E+04  0.25500000920E-02 0.  1.
</event>
<event>
 5   0  0.1813834E-04  0.1902767E+04  0.7818609E-02  0.8653480E-01
       -1   -1    0    0    0  501  0.00000000000E+00  0.00000000000E+00  0.33854339274E+03  0.33854339278E+03  0.50400001928E-02 0. -1.
        1   -1    0    0  501    0  0.00000000000E+00  0.00000000000E+00 -0.26736028087E+04  0.26736028087E+04  0.50400001928E-02 0.  1.
    10030    2    1    2    0    0  0.00000000000E+00  0.00000000000E+00 -0.23350594159E+04  0.30121462015E+04  0.19027670018E+04 0.  0.
        5    1    3    3  502    0  0.92253820082E+03 -0.10771865533E+03 -0.84145362662E+03  0.12532941939E+04  0.46999998093E+01 0.  1.
       -5    1    3    3    0  502 -0.92253820082E+03  0.10771865533E+03 -0.14936057893E+04  0.17588520076E+04  0.46999998093E+01 0. -1.
</event>
<event>
 5   0  0.1694830E-04  0.1938114E+04  0.7818609E-02  0.8636114E-01
       -1   -1    0    0    0  501  0.00000000000E+00  0.00000000000E+00  0.11522200256E+04  0.11522200256E+04  0.50400001928E-02 0. -1.
        1   -1    0    0  501    0  0.00000000000E+00  0.00000000000E+00 -0.81501069943E+03  0.81501069944E+03  0.50400001928E-02 0.  1.
    10030    2    1    2    0    0  0.00000000000E+00  0.00000000000E+00  0.33720932613E+03  0.19672307250E+04  0.19381141854E+04 0.  0.
        1    1    3    3  502    0 -0.25325089254E+03  0.72522948424E+03 -0.43101360704E+03  0.88083287226E+03  0.50400001928E-02 0.  1.
       -1    1    3    3    0  502  0.25325089254E+03 -0.72522948424E+03  0.76822293317E+03  0.10863978527E+04  0.50400001928E-02 0. -1.
</event>
<event>
 5   0  0.3623359E-04  0.1896872E+04  0.7818609E-02  0.8656415E-01
       -2   -1    0    0    0  501  0.00000000000E+00  0.00000000000E+00  0.61580546570E+03  0.61580546570E+03  0.25500000920E-02 0.  1.
        2   -1    0    0  501    0  0.00000000000E+00  0.00000000000E+00 -0.14607380392E+04  0.14607380392E+04  0.25500000920E-02 0. -1.
    10030    2    1    2    0    0  0.00000000000E+00  0.00000000000E+00 -0.84493257348E+03  0.20765435049E+04  0.18968716019E+04 0.  0.
        5    1    3    3  502    0 -0.82901122973E+03  0.19270314269E+03 -0.88057004424E+03  0.12246713082E+04  0.46999998093E+01 0.  1.
       -5    1    3    3    0  502  0.82901122973E+03 -0.19270314269E+03  0.35637470763E+02  0.85187219672E+03  0.46999998093E+01 0. -1.
</event>
<event>
 5   0  0.3459485E-04  0.1951825E+04  0.7818609E-02  0.8629481E-01
        2   -1    0    0  501    0  0.00000000000E+00  0.00000000000E+00  0.15038828863E+04  0.15038828863E+04  0.25500000920E-02 0. -1.
       -2   -1    0    0    0  501  0.00000000000E+00  0.00000000000E+00 -0.63329729304E+03  0.63329729304E+03  0.25500000920E-02 0.  1.
    10030    2    1    2    0    0  0.00000000000E+00  0.00000000000E+00  0.87058559324E+03  0.21371801793E+04  0.19518247472E+04 0.  0.
        3    1    3    3  502    0  0.28615858962E+03  0.86334758332E+03  0.47933224983E+02  0.91079821711E+03  0.10100000352E+00 0. -1.
       -3    1    3    3    0  502 -0.28615858962E+03 -0.86334758332E+03  0.82265236826E+03  0.12263819622E+04  0.10100000352E+00 0.  1.
</event>
<event>
 5   0  0.3516539E-04  0.1980307E+04  0.7818609E-02  0.8615883E-01
        2   -1    0    0  501    0  0.00000000000E+00  0.00000000000E+00  0.10640283630E+04  0.10640283630E+04  0.25500000920E-02 0.  1.
       -2   -1    0    0    0  501  0.00000000000E+00  0.00000000000E+00 -0.92140787577E+03  0.92140787577E+03  0.25500000920E-02 0. -1.
    10030    2    1    2    0    0  0.00000000000E+00  0.00000000000E+00  0.14262048726E+03  0.19854362388E+04  0.19803071618E+04 0.  0.
        4    1    3    3  502    0  0.73276061884E+03  0.64273717174E+03 -0.10336299591E+03  0.98017075976E+03  0.12699999809E+01 0. -1.
       -4    1    3    3    0  502 -0.73276061884E+03 -0.64273717174E+03  0.24598348317E+03  0.10052654790E+04  0.12699999809E+01 0.  1.
</event>
<event>
 5   0  0.3459485E-04  0.1918735E+04  0.7818609E-02  0.8645587E-01
       -2   -1    0    0    0  501  0.00000000000E+00  0.00000000000E+00  0.61264223748E+03  0.61264223749E+03  0.25500000920E-02 0. -1.
        2   -1    0    0  501    0  0.00000000000E+00  0.00000000000E+00 -0.15023214193E+04  0.15023214193E+04  0.25500000920E-02 0.  1.
    10030    2    1    2    0    0  0.00000000000E+00  0.00000000000E+00 -0.88967918185E+03  0.21149636568E+04  0.19187345369E+04 0.  0.
        3    1    3    3  502    0 -0.59261630549E+03 -0.41119111326E+03  0.25239596390E+03  0.76418319135E+03  0.10100000352E+00 0. -1.
       -3    1    3    3    0  502  0.59261630549E+03  0.41119111326E+03 -0.11420751457E+04  0.13507804655E+04  0.10100000352E+00 0.  1.
</event>
<event>
 5   0  0.1813834E-04  0.1907243E+04  0.7818609E-02  0.8651259E-01
        1   -1    0    0  501    0  0.00000000000E+00  0.00000000000E+00  0.14719336886E+04  0.14719336886E+04  0.50400001928E-02 0. -1.
       -1   -1    0    0    0  501  0.00000000000E+00  0.00000000000E+00 -0.61782282411E+03  0.61782282413E+03  0.50400001928E-02 0.  1.
    10030    2    1    2    0    0  0.00000000000E+00  0.00000000000E+00  0.85411086449E+03  0.20897565127E+04  0.19072432760E+04 0.  0.
        5    1    3    3  502    0  0.55426113019E+03  0.77599208527E+03  0.42515081926E+03  0.10440998161E+04  0.46999998093E+01 0.  1.
       -5    1    3    3    0  502 -0.55426113019E+03 -0.77599208527E+03  0.42896004523E+03  0.10456566966E+04  0.46999998093E+01 0. -1.
</event>
<event>
 5   0  0.1711979E-04  0.1891555E+04  0.7818609E-02  0.8659072E-01
        1   -1    0    0  501    0  0.00000000000E+00  0.00000000000E+00  0.13472381262E+04  0.13472381262E+04  0.50400001928E-02 0.  1.
       -1   -1    0    0    0  501  0.00000000000E+00  0.00000000000E+00 -0.66394705577E+03  0.66394705579E+03  0.50400001928E-02 0. -1.
    10030    2    1    2    0    0  0.00000000000E+00  0.00000000000E+00  0.68329107039E+03  0.20111851820E+04  0.18915546910E+04 0.  0.
        4    1    3    3  502    0  0.72158334886E+03  0.22933509333E+03 -0.26095815002E+03  0.80086071408E+03  0.12699999809E+01 0.  1.
       -4    1    3    3    0  502 -0.72158334886E+03 -0.22933509333E+03  0.94424922041E+03  0.12103244679E+04  0.12699999809E+01 0. -1.
</event>
<event>
 5   0  0.1813834E-04  0.1925912E+04  0.7818609E-02  0.8642065E-01
       -1   -1    0    0    0  501  0.00000000000E+00  0.00000000000E+00  0.24839853077E+04  0.24839853077E+04  0.50400001928E-02 0. -1.
        1   -1    0    0  501    0  0.00000000000E+00  0.00000000000E+00 -0.37330523470E+03  0.37330523473E+03  0.50400001928E-02 0.  1.
    10030    2    1    2    0    0  0.00000000000E+00  0.00000000000E+00  0.21106800730E+04  0.28572905425E+04  0.19259124781E+04 0.  0.
        5    1    3    3  502    0 -0.18826347738E+03 -0.79924807975E+03  0.30906829388E+03  0.87737445266E+03  0.46999998093E+01 0.  1.
       -5    1    3    3    0  502  0.18826347738E+03  0.79924807975E+03  0.18016117791E+04  0.19799160898E+04  0.46999998093E+01 0. -1.
</event>
<event>
 5   0  0.1711979E-04  0.1905727E+04  0.7818609E-02  0.8652011E-01
        1   -1    0    0  501    0  0.00000000000E+00  0.00000000000E+00  0.29040445101E+04  0.29040445101E+04  0.50400001928E-02 0.  1.
       -1   -1    0    0    0  501  0.00000000000E+00  0.00000000000E+00 -0.31264983767E+03  0.31264983771E+03  0.50400001928E-02 0. -1.
    10030    2    1    2    0    0  0.00000000000E+00  0.00000000000E+00  0.25913946725E+04  0.32166943478E+04  0.19057272048E+04 0.  0.
        4    1    3    3  502    0  0.52790679880E+03 -0.41078557510E+02 -0.41457411123E+02  0.53112462374E+03  0.12699999809E+01 0. -1.
       -4    1    3    3    0  502 -0.52790679880E+03  0.41078557510E+02  0.26328520836E+04  0.26855697241E+04  0.12699999809E+01 0.  1.
</event>
<event>
 5   0  0.3459485E-04  0.1913979E+04  0.7818609E-02  0.8647929E-01
       -2   -1    0    0    0  501  0.00000000000E+00  0.00000000000E+00  0.83013218953E+03  0.83013218953E+03  0.25500000920E-02 0.  1.
        2   -1    0    0  501    0  0.00000000000E+00  0.00000000000E+00 -0.11032323362E+04  0.11032323362E+04  0.25500000920E-02 0. -1.
    10030    2    1    2    0    0  0.00000000000E+00  0.00000000000E+00 -0.27310014665E+03  0.19333645257E+04  0.19139787614E+04 0.  0.
        3    1    3    3  502    0  0.82056633108E+03 -0.49167071396E+03 -0.16438768192E+03  0.97061450372E+03  0.10100000352E+00 0.  1.
       -3    1    3    3    0  502 -0.82056633108E+03  0.49167071396E+03 -0.10871246472E+03  0.96275002199E+03  0.10100000352E+00 0. -1.
</event>
<event>
 5   0  0.1782613E-04  0.1853677E+04  0.7818609E-02  0.8678264E-01
       -1   -1    0    0    0  501  0.00000000000E+00  0.00000000000E+00  0.47412991502E+03  0.47412991505E+03  0.50400001928E-02 0. -1.
        1   -1    0    0  501    0  0.00000000000E+00  0.00000000000E+00 -0.18118030520E+04  0.18118030520E+04  0.50400001928E-02 0.  1.
    10030    2    1    2    0    0  0.00000000000E+00  0.00000000000E+00 -0.13376731370E+04  0.22859329671E+04  0.18536774554E+04 0.  0.
        3    1    3    3  502    0 -0.11792816281E+03  0.83865518395E+03 -0.20449507412E+03  0.87124497972E+03  0.10100000352E+00 0. -1.
       -3    1    3    3    0  502  0.11792816281E+03 -0.83865518395E+03 -0.11331780629E+04  0.14146879873E+04  0.10100000352E+00 0.  1.
</event>
<event>
 5   0  0.3623359E-04  0.1912835E+04  0.7818609E-02  0.8648494E-01
       -2   -1    0    0    0  501  0.00000000000E+00  0.00000000000E+00  0.51525453003E+03  0.51525453003E+03  0.25500000920E-02 0.  1.
        2   -1    0    0  501    0  0.00000000000E+00  0.00000000000E+00 -0.17753065332E+04  0.17753065332E+04  0.25500000920E-02 0. -1.
    10030    2    1    2    0    0  0.00000000000E+00  0.00000000000E+00 -0.12600520032E+04  0.22905610633E+04  0.19128353128E+04 0.  0.
        5    1    3    3  502    0 -0.67488305314E+03 -0.30579673501E+03  0.94154589455E+02  0.74690424772E+03  0.46999998093E+01 0.  1.
       -5    1    3    3    0  502  0.67488305314E+03  0.30579673501E+03 -0.13542065927E+04  0.15436568155E+04  0.46999998093E+01 0. -1.
</event>
<event>
 5   0  0.3459485E-04  0.1932303E+04  0.7818609E-02  0.8638942E-01
        2   -1    0    0  501    0  0.00000000000E+00  0.00000000000E+00  0.13731154587E+04  0.13731154587E+04  0.25500000920E-02 0.  1.
       -2   -1    0    0    0  501  0.00000000000E+00  0.00000000000E+00 -0.67980331493E+03  0.67980331494E+03  0.25500000920E-02 0. -1.
    10030    2    1    2    0    0  0.00000000000E+00  0.00000000000E+00  0.69331214375E+03  0.20529187736E+04  0.19323027098E+04 0.  0.
        3    1    3    3  502    0  0.36464568255E+03 -0.34055441735E+03  0.12256478307E+04  0.13233126615E+04  0.10100000352E+00 0.  1.
       -3    1    3    3    0  502 -0.36464568255E+03  0.34055441735E+03 -0.53233568697E+03  0.72960611210E+03  0.10100000352E+00 0. -1.
</event>
<event>
 5   0  0.1782613E-04  0.1883996E+04  0.7818609E-02  0.8662864E-01
        1   -1    0    0  501    0  0.00000000000E+00  0.00000000000E+00  0.79052513954E+03  0.79052513956E+03  0.50400001928E-02 0. -1.
       -1   -1    0    0    0  501  0.00000000000E+00  0.00000000000E+00 -0.11224949382E+04  0.11224949382E+04  0.50400001928E-02 0.  1.
    10030    2    1    2    0    0  0.00000000000E+00  0.00000000000E+00 -0.33196979866E+03  0.19130200778E+04  0.18839962502E+04 0.  0.
        3    1    3    3  502    0  0.64024361589E+03 -0.33042016219E+03  0.45021738709E+03  0.84957935304E+03  0.10100000352E+00 0. -1.
       -3    1    3    3    0  502 -0.64024361589E+03  0.33042016219E+03 -0.78218718575E+03  0.10634407247E+04  0.10100000352E+00 0.  1.
</event>
<event>
 5   0  0.3516539E-04  0.2106172E+04  0.7818609E-02  0.8558529E-01
       -2   -1    0    0    0  501  0.00000000000E+00  0.00000000000E+00  0.69760256751E+03  0.69760256752E+03  0.25500000920E-02 0. -1.
        2   -1    0    0  501    0  0.00000000000E+00  0.00000000000E+00 -0.15897167823E+04  0.15897167823E+04  0.25500000920E-02 0.  1.
    10030    2    1    2    0    0  0.00000000000E+00  0.00000000000E+00 -0.89211421475E+03  0.22873193498E+04  0.21061723661E+04 0.  0.
        4    1    3    3  502    0 -0.38114091148E+03  0.98023207803E+03 -0.38792196098E+03  0.11209854513E+04  0.12699999809E+01 0. -1.
       -4    1    3    3    0  502  0.38114091148E+03 -0.98023207803E+03 -0.50419225377E+03  0.11663338985E+04  0.12699999809E+01 0.  1.
</event>
<event>
 5   0  0.1287000E-04  0.1872103E+04  0.7818609E-02  0.8668868E-01
        4   -1    0    0  501    0  0.00000000000E+00  0.00000000000E+00  0.14181788037E+04  0.14181793724E+04  0.12699999809E+01 0. -1.
       -4   -1    0    0    0  501  0.00000000000E+00  0.00000000000E+00 -0.61782805373E+03  0.61782935902E+03  0.12699999809E+01 0.  1.
    10030    2    1    2    0    0  0.00000000000E+00  0.00000000000E+00  0.80035074999E+03  0.20360087314E+04  0.18721031572E+04 0.  0.
        2    1    3    3  502    0 -0.60859570576E+03  0.64412976850E+03  0.72281432784E+02  0.88910994667E+03  0.25500000920E-02 0.  1.
       -2    1    3    3    0  502  0.60859570576E+03 -0.64412976850E+03  0.72806931721E+03  0.11468987847E+04  0.25500000920E-02 0. -1.
</event>
<event>
 5   0  0.1758946E-04  0.1880180E+04  0.7818609E-02  0.8664786E-01
       -1   -1    0    0    0  501  0.00000000000E+00  0.00000000000E+00  0.11679662577E+04  0.11679662578E+04  0.50400001928E-02 0. -1.
        1   -1    0    0  501    0  0.00000000000E+00  0.00000000000E+00 -0.75667326174E+03  0.75667326176E+03  0.50400001928E-02 0.  1.
    10030    2    1    2    0    0  0.00000000000E+00  0.00000000000E+00  0.41129299600E+03  0.19246395195E+04  0.18801796062E+04 0.  0.
        2    1    3    3  502    0 -0.17211550619E+03  0.50367093502E+03  0.99886410958E+03  0.11318293456E+04  0.25500000920E-02 0. -1.
       -2    1    3    3    0  502  0.17211550619E+03 -0.50367093502E+03 -0.58757111358E+03  0.79281017386E+03  0.25500000920E-02 0.  1.
</event>
<event>
 5   0  0.1711979E-04  0.1887204E+04  0.7818609E-02  0.8661252E-01
        1   -1    0    0  501    0  0.00000000000E+00  0.00000000000E+00  0.13381426472E+04  0.13381426473E+04  0.50400001928E-02 0.  1.
       -1   -1    0    0    0  501  0.00000000000E+00  0.00000000000E+00 -0.66538844245E+03  0.66538844247E+03  0.50400001928E-02 0. -1.
    10030    2    1    2    0    0  0.00000000000E+00  0.00000000000E+00  0.67275420479E+03  0.20035310897E+04  0.18872039125E+04 0.  0.
        4    1    3    3  502    0  0.59558911780E+03  0.26569254539E+01  0.11133710629E+04  0.12626678871E+04  0.12699999809E+01 0.  1.
       -4    1    3    3    0  502 -0.59558911780E+03 -0.26569254539E+01 -0.44061685809E+03  0.74086320265E+03  0.12699999809E+01 0. -1.
</event>
<event>
 5   0  0.1782613E-04  0.1914105E+04  0.7818609E-02  0.8647867E-01
        1   -1    0    0  501    0  0.00000000000E+00  0.00000000000E+00  0.21759204968E+04  0.21759204968E+04  0.50400001928E-02 0.  1.
       -1   -1    0    0    0  501  0.00000000000E+00  0.00000000000E+00 -0.42094793621E+03  0.42094793624E+03  0.50400001928E-02 0. -1.
    10030    2    1    2    0    0  0.00000000000E+00  0.00000000000E+00  0.17549725606E+04  0.25968684330E+04  0.19141047438E+04 0.  0.
        3    1    3    3  502    0  0.94957038977E+03  0.10928337990E+03  0.94286816568E+03  0.13426195181E+04  0.10100000352E+00 0.  1.
       -3    1    3    3    0  502 -0.94957038977E+03 -0.10928337990E+03  0.81210439490E+03  0.12542489150E+04  0.10100000352E+00 0. -1.
</event>
<event>
 5   0  0.1813834E-04  0.1890705E+04  0.7818609E-02  0.8659497E-01
       -1   -1    0    0    0  501  0.00000000000E+00  0.00000000000E+00  0.14070023790E+04  0.14070023790E+04  0.50400001928E-02 0.  1.
        1   -1    0    0  501    0  0.00000000000E+00  0.00000000000E+00 -0.63517434485E+03  0.63517434487E+03  0.50400001928E-02 0. -1.
    10030    2    1    2    0    0  0.00000000000E+00  0.00000000000E+00  0.77182803416E+03  0.20421767239E+04  0.18907054920E+04 0.  0.
        5    1    3    3  502    0 -0.24226138898E+03 -0.90354004368E+03  0.53320022347E+03  0.10767542707E+04  0.46999998093E+01 0.  1.
       -5    1    3    3    0  502  0.24226138898E+03  0.90354004368E+03  0.23862781068E+03  0.96542245321E+03  0.46999998093E+01 0. -1.
</event>
<event>
 5   0  0.3459485E-04  0.1799472E+04  0.7818609E-02  0.8706580E-01
        2   -1    0    0  501    0  0.00000000000E+00  0.00000000000E+00  0.10174349927E+04  0.10174349927E+04  0.25500000920E-02 0.  1.
       -2   -1    0    0    0  501  0.00000000000E+00  0.00000000000E+00 -0.79565285440E+03  0.79565285440E+03  0.25500000920E-02 0. -1.
    10030    2    1    2    0    0  0.00000000000E+00  0.00000000000E+00  0.22178213833E+03  0.18130878471E+04  0.17994722072E+04 0.  0.
        3    1    3    3  502    0 -0.88088389452E+03 -0.18209580348E+03  0.13128598318E+03  0.90903868832E+03  0.10100000352E+00 0.  1.
       -3    1    3    3    0  502  0.88088389452E+03  0.18209580348E+03  0.90496155151E+02  0.90404915883E+03  0.10100000352E+00 0. -1.
</event>
<event>
 5   0  0.1694830E-04  0.1899286E+04  0.7818609E-02  0.8655212E-01
        1   -1    0    0  501    0  0.00000000000E+00  0.00000000000E+00  0.76527869401E+03  0.76527869403E+03  0.50400001928E-02 0.  1.
       -1   -1    0    0    0  501  0.00000000000E+00  0.00000000000E+00 -0.11784226120E+04  0.11784226121E+04  0.50400001928E-02 0. -1.
    10030    2    1    2    0    0  0.00000000000E+00  0.00000000000E+00 -0.41314391804E+03  0.19437013061E+04  0.18992858843E+04 0.  0.
        1    1    3    3  502    0  0.87987454695E+03 -0.34897411383E+03 -0.28490986340E+03  0.98850178593E+03  0.50400001928E-02 0. -1.
       -1    1    3    3    0  502 -0.87987454695E+03  0.34897411383E+03 -0.12823405464E+03  0.95519952015E+03  0.50400001928E-02 0.  1.
</event>
<event>
 5   0  0.3720978E-04  0.1894181E+04  0.7818609E-02  0.8657758E-01
        2   -1    0    0  501    0  0.00000000000E+00  0.00000000000E+00  0.54567367503E+03  0.54567367504E+03  0.25500000920E-02 0.  1.
       -2   -1    0    0    0  501  0.00000000000E+00  0.00000000000E+00 -0.16438033317E+04  0.16438033317E+04  0.25500000920E-02 0. -1.
    10030    2    1    2    0    0  0.00000000000E+00  0.00000000000E+00 -0.10981296567E+04  0.21894770068E+04  0.18941807781E+04 0.  0.
        1    1    3    3  502    0 -0.33403075701E+03  0.23575087598E+03  0.43841534809E+03  0.59946896468E+03  0.50400001928E-02 0.  1.
       -1    1    3    3    0  502  0.33403075701E+03 -0.23575087598E+03 -0.15365450048E+04  0.15900080421E+04  0.50400001928E-02 0. -1.
</event>
<event>
 5   0  0.1782613E-04  0.1875220E+04  0.7818609E-02  0.8667290E-01
       -1   -1    0    0    0  501  0.00000000000E+00  0.00000000000E+00  0.17900168948E+04  0.17900168948E+04  0.50400001928E-02 0.  1.
        1   -1    0    0  501    0  0.00000000000E+00  0.00000000000E+00 -0.49111947276E+03  0.49111947279E+03  0.50400001928E-02 0. -1.
    10030    2    1    2    0    0  0.00000000000E+00  0.00000000000E+00  0.12988974220E+04  0.22811363676E+04  0.18752196177E+04 0.  0.
        3    1    3    3  502    0 -0.10892611941E+02 -0.82502582788E+03  0.10771133078E+03  0.83209855584E+03  0.10100000352E+00 0. -1.
       -3    1    3    3    0  502  0.10892611941E+02  0.82502582788E+03  0.11911860912E+04  0.14490378117E+04  0.10100000352E+00 0.  1.
</event>
<event>
 5   0  0.1758946E-04  0.1912262E+04  0.7818609E-02  0.8648777E-01
       -1   -1    0    0    0  501  0.00000000000E+00  0.00000000000E+00  0.93782095148E+03  0.93782095149E+03  0.50400001928E-02 0.  1.
        1   -1    0    0  501    0  0.00000000000E+00  0.00000000000E+00 -0.97479813417E+03  0.97479813419E+03  0.50400001928E-02 0. -1.
    10030    2    1    2    0    0  0.00000000000E+00  0.00000000000E+00 -0.36977182697E+02  0.19126190857E+04  0.19122616073E+04 0.  0.
        2    1    3    3  502    0  0.57903618353E+03 -0.17490042188E+03  0.72213147105E+03  0.94199093462E+03  0.25500000920E-02 0.  1.
       -2    1    3    3    0  502 -0.57903618353E+03  0.17490042188E+03 -0.75910865375E+03  0.97062815106E+03  0.25500000920E-02 0. -1.
</event>
<event>
 5   0  0.1813834E-04  0.1901650E+04  0.7818609E-02  0.8654036E-01
       -1   -1    0    0    0  501  0.00000000000E+00  0.00000000000E+00  0.11817491305E+04  0.11817491305E+04  0.50400001928E-02 0. -1.
        1   -1    0    0  501    0  0.00000000000E+00  0.00000000000E+00 -0.76502540079E+03  0.76502540081E+03  0.50400001928E-02 0.  1.
    10030    2    1    2    0    0  0.00000000000E+00  0.00000000000E+00  0.41672372971E+03  0.19467745313E+04  0.19016499175E+04 0.  0.
        5    1    3    3  502    0  0.51622222016E+03 -0.27544159057E+03 -0.55888376501E+03  0.80915178007E+03  0.46999998093E+01 0.  1.
       -5    1    3    3    0  502 -0.51622222016E+03  0.27544159057E+03  0.97560749472E+03  0.11376227512E+04  0.46999998093E+01 0. -1.
</event>
<event>
 5   0  0.3623359E-04  0.2023803E+04  0.7818609E-02  0.8595572E-01
        2   -1    0    0  501    0  0.00000000000E+00  0.00000000000E+00  0.19053315109E+04  0.19053315109E+04  0.25500000920E-02 0.  1.
       -2   -1    0    0    0  501  0.00000000000E+00  0.00000000000E+00 -0.53741010956E+03  0.53741010957E+03  0.25500000920E-02 0. -1.
    10030    2    1    2    0    0  0.00000000000E+00  0.00000000000E+00  0.13679214014E+04  0.24427416205E+04  0.20238027730E+04 0.  0.
        5    1    3    3  502    0 -0.71675616699E+03 -0.25611677792E+03 -0.12083895794E+03  0.77068758301E+03  0.46999998093E+01 0. -1.
       -5    1    3    3    0  502  0.71675616699E+03  0.25611677792E+03  0.14887603593E+04  0.16720540375E+04  0.46999998093E+01 0.  1.
</event>
<event>
 5   0  0.3623359E-04  0.1864461E+04  0.7818609E-02  0.8672751E-01
        2   -1    0    0  501    0  0.00000000000E+00  0.00000000000E+00  0.15881415220E+04  0.15881415220E+04  0.25500000920E-02 0. -1.
       -2   -1    0    0    0  501  0.00000000000E+00  0.00000000000E+00 -0.54721455385E+03  0.54721455385E+03  0.25500000920E-02 0.  1.
    10030    2    1    2    0    0  0.00000000000E+00  0.00000000000E+00  0.10409269681E+04  0.21353560759E+04  0.18644614819E+04 0.  0.
        5    1    3    3  502    0  0.72733906982E+03 -0.76528278227E+02 -0.14158501997E+03  0.74494772148E+03  0.46999998093E+01 0.  1.
       -5    1    3    3    0  502 -0.72733906982E+03  0.76528278227E+02  0.11825119881E+04  0.13904083544E+04  0.46999998093E+01 0. -1.
</event>
<event>
 5   0  0.3623359E-04  0.1897309E+04  0.7818609E-02  0.8656197E-01
        2   -1    0    0  501    0  0.00000000000E+00  0.00000000000E+00  0.17565073347E+04  0.17565073347E+04  0.25500000920E-02 0.  1.
       -2   -1    0    0    0  501  0.00000000000E+00  0.00000000000E+00 -0.51234949166E+03  0.51234949166E+03  0.25500000920E-02 0. -1.
    10030    2    1    2    0    0  0.00000000000E+00  0.00000000000E+00  0.12441578431E+04  0.22688568264E+04  0.18973092948E+04 0.  0.
        5    1    3    3  502    0  0.35528265768E+03 -0.46676059096E+01 -0.42975825911E+03  0.55763949346E+03  0.46999998093E+01 0. -1.
       -5    1    3    3    0  502 -0.35528265768E+03  0.46676059096E+01  0.16739161022E+04  0.17112173329E+04  0.46999998093E+01 0.  1.
</event>
<event>
 5   0  0.1711979E-04  0.1849133E+04  0.7818609E-02  0.8680599E-01
       -1   -1    0    0    0  501  0.00000000000E+00  0.00000000000E+00  0.91515161112E+03  0.91515161113E+03  0.50400001928E-02 0.  1.
        1   -1    0    0  501    0  0.00000000000E+00  0.00000000000E+00 -0.93407827964E+03  0.93407827966E+03  0.50400001928E-02 0. -1.
    10030    2    1    2    0    0  0.00000000000E+00  0.00000000000E+00 -0.18926668523E+02  0.18492298908E+04  0.18491330320E+04 0.  0.
        4    1    3    3  502    0 -0.61974751468E+03 -0.22532444907E+03 -0.65754321932E+03  0.93124797313E+03  0.12699999809E+01 0. -1.
       -4    1    3    3    0  502  0.61974751468E+03  0.22532444907E+03  0.63861655079E+03  0.91798191766E+03  0.12699999809E+01 0.  1.
</event>
<event>
 5   0  0.3535876E-04  0.1517070E+04  0.7818609E-02  0.8873180E-01
       -2   -1    0    0    0  501  0.00000000000E+00  0.00000000000E+00  0.43849516934E+03  0.43849516935E+03  0.25500000920E-02 0.  1.
        2   -1    0    0  501    0  0.00000000000E+00  0.00000000000E+00 -0.13121594056E+04  0.13121594056E+04  0.25500000920E-02 0. -1.
    10030    2    1    2    0    0  0.00000000000E+00  0.00000000000E+00 -0.87366423624E+03  0.17506545749E+04  0.15170702828E+04 0.  0.
        2    1    3    3  502    0  0.36960622098E+03  0.55675684477E+03 -0.85095907703E+03  0.10819973630E+04  0.25500000920E-02 0. -1.
       -2    1    3    3    0  502 -0.36960622098E+03 -0.55675684477E+03 -0.22705159209E+02  0.66865721192E+03  0.25500000920E-02 0.  1.
</event>
<event>
 5   0  0.3459485E-04  0.1953010E+04  0.7818609E-02  0.8628911E-01
       -2   -1    0    0    0  501  0.00000000000E+00  0.00000000000E+00  0.93288665618E+03  0.93288665618E+03  0.25500000920E-02 0. -1.
        2   -1    0    0  501    0  0.00000000000E+00  0.00000000000E+00 -0.10221626617E+04  0.10221626617E+04  0.25500000920E-02 0.  1.
    10030    2    1    2    0    0  0.00000000000E+00  0.00000000000E+00 -0.89276005527E+02  0.19550493179E+04  0.19530098899E+04 0.  0.
        3    1    3    3  502    0 -0.70503295207E+03  0.67503060441E+03 -0.73375417935E+02  0.97883693359E+03  0.10100000352E+00 0. -1.
       -3    1    3    3    0  502  0.70503295207E+03 -0.67503060441E+03 -0.15900587593E+02  0.97621238431E+03  0.10100000352E+00 0.  1.
</event>
<event>
 5   0  0.1694830E-04  0.1912851E+04  0.7818609E-02  0.8648486E-01
        1   -1    0    0  501    0  0.00000000000E+00  0.00000000000E+00  0.55483607185E+03  0.55483607187E+03  0.50400001928E-02 0. -1.
       -1   -1    0    0    0  501  0.00000000000E+00  0.00000000000E+00 -0.16486853074E+04  0.16486853075E+04  0.50400001928E-02 0.  1.
    10030    2    1    2    0    0  0.00000000000E+00  0.00000000000E+00 -0.10938492356E+04  0.22035213793E+04  0.19128513583E+04 0.  0.
        1    1    3    3  502    0  0.20952981163E+03 -0.29517452761E+03 -0.15667277131E+04  0.16080007683E+04  0.50400001928E-02 0.  1.
       -1    1    3    3    0  502 -0.20952981163E+03  0.29517452761E+03  0.47287847750E+03  0.59552061107E+03  0.50400001928E-02 0. -1.
</event>
<event>
 5   0  0.3459485E-04  0.2083143E+04  0.7818609E-02  0.8568706E-01
        2   -1    0    0  501    0  0.00000000000E+00  0.00000000000E+00  0.19310261142E+04  0.19310261142E+04  0.25500000920E-02 0. -1.
       -2   -1    0    0    0  501  0.00000000000E+00  0.00000000000E+00 -0.56181068828E+03  0.56181068829E+03  0.25500000920E-02 0.  1.
    10030    2    1    2    0    0  0.00000000000E+00  0.00000000000E+00  0.13692154259E+04  0.24928368025E+04  0.20831429239E+04 0.  0.
        3    1    3    3  502    0  0.72276441284E+03 -0.40747551003E+03  0.14380795532E+04  0.16602703091E+04  0.10100000352E+00 0. -1.
       -3    1    3    3    0  502 -0.72276441284E+03  0.40747551003E+03 -0.68864127249E+02  0.83256649342E+03  0.10100000352E+00 0.  1.
</event>
<event>
 5   0  0.1711979E-04  0.1860865E+04  0.7818609E-02  0.8674585E-01
       -1   -1    0    0    0  501  0.00000000000E+00  0.00000000000E+00  0.45163429794E+03  0.45163429797E+03  0.50400001928E-02 0. -1.
        1   -1    0    0  501    0  0.00000000000E+00  0.00000000000E+00 -0.19168272844E+04  0.19168272844E+04  0.50400001928E-02 0.  1.
    10030    2    1    2    0    0  0.00000000000E+00  0.00000000000E+00 -0.14651929864E+04  0.23684615823E+04  0.18608653309E+04 0.  0.
        4    1    3    3  502    0 -0.40513935851E+03 -0.45459985566E+03  0.16279313387E+03  0.63031908262E+03  0.12699999809E+01 0. -1.
       -4    1    3    3    0  502  0.40513935851E+03  0.45459985566E+03 -0.16279861203E+04  0.17381424997E+04  0.12699999809E+01 0.  1.
</event>
<event>
 5   0  0.3623359E-04  0.1894778E+04  0.7818609E-02  0.8657460E-01
        2   -1    0    0  501    0  0.00000000000E+00  0.00000000000E+00  0.14414535306E+04  0.14414535306E+04  0.25500000920E-02 0. -1.
       -2   -1    0    0    0  501  0.00000000000E+00  0.00000000000E+00 -0.62266734470E+03  0.62266734471E+03  0.25500000920E-02 0.  1.
    10030    2    1    2    0    0  0.00000000000E+00  0.00000000000E+00  0.81878618591E+03  0.20641208753E+04  0.18947781321E+04 0.  0.
        5    1    3    3  502    0  0.30351334581E+03  0.36828754573E+03 -0.48214298391E+03  0.67840991617E+03  0.46999998093E+01 0.  1.
       -5    1    3    3    0  502 -0.30351334581E+03 -0.36828754573E+03  0.13009291698E+04  0.13857109592E+04  0.46999998093E+01 0. -1.
</event>
<event>
 5   0  0.1782613E-04  0.1862376E+04  0.7818609E-02  0.8673814E-01
        1   -1    0    0  501    0  0.00000000000E+00  0.00000000000E+00  0.81016420085E+03  0.81016420086E+03  0.50400001928E-02 0. -1.
       -1   -1    0    0    0  501  0.00000000000E+00  0.00000000000E+00 -0.10702910344E+04  0.10702910344E+04  0.50400001928E-02 0.  1.
    10030    2    1    2    0    0  0.00000000000E+00  0.00000000000E+00 -0.26012683357E+03  0.18804552353E+04  0.18623764180E+04 0.  0.
        3    1    3    3  502    0  0.11229631188E+03  0.78636771250E+03 -0.62070934997E+03  0.10080995726E+04  0.10100000352E+00 0.  1.
       -3    1    3    3    0  502 -0.11229631188E+03 -0.78636771250E+03  0.36058251640E+03  0.87235566270E+03  0.10100000352E+00 0. -1.
</event>
<event>
 5   0  0.3535876E-04  0.1858856E+04  0.7818609E-02  0.8675612E-01
       -2   -1    0    0    0  501  0.00000000000E+00  0.00000000000E+00  0.88729873028E+03  0.88729873028E+03  0.25500000920E-02 0. -1.
        2   -1    0    0  501    0  0.00000000000E+00  0.00000000000E+00 -0.97355800397E+03  0.97355800398E+03  0.25500000920E-02 0.  1.
    10030    2    1    2    0    0  0.00000000000E+00  0.00000000000E+00 -0.86259273697E+02  0.18608567343E+04  0.18588564020E+04 0.  0.
        2    1    3    3  502    0  0.18416167976E+03 -0.56257654648E+03 -0.76044023302E+03  0.96367901448E+03  0.25500000920E-02 0.  1.
       -2    1    3    3    0  502 -0.18416167976E+03  0.56257654648E+03  0.67418095932E+03  0.89717771978E+03  0.25500000920E-02 0. -1.
</event>
<event>
 5   0  0.1813834E-04  0.1621408E+04  0.7818609E-02  0.8807503E-01
        1   -1    0    0  501    0  0.00000000000E+00  0.00000000000E+00  0.87477785807E+03  0.87477785808E+03  0.50400001928E-02 0. -1.
       -1   -1    0    0    0  501  0.00000000000E+00  0.00000000000E+00 -0.75132322287E+03  0.75132322288E+03  0.50400001928E-02 0.  1.
    10030    2    1    2    0    0  0.00000000000E+00  0.00000000000E+00  0.12345463520E+03  0.16261010810E+04  0.16214079310E+04 0.  0.
        5    1    3    3  502    0  0.20329046518E+03  0.73068128572E+03 -0.22545213726E+03  0.79124769240E+03  0.46999998093E+01 0.  1.
       -5    1    3    3    0  502 -0.20329046518E+03 -0.73068128572E+03  0.34890677246E+03  0.83485338857E+03  0.46999998093E+01 0. -1.
</event>
<event>
 5   0  0.1758946E-04  0.1888618E+04  0.7818609E-02  0.8660543E-01
       -1   -1    0    0    0  501  0.00000000000E+00  0.00000000000E+00  0.43063097588E+03  0.43063097591E+03  0.50400001928E-02 0.  1.
        1   -1    0    0  501    0  0.00000000000E+00  0.00000000000E+00 -0.20707267870E+04  0.20707267870E+04  0.50400001928E-02 0. -1.
    10030    2    1    2    0    0  0.00000000000E+00  0.00000000000E+00 -0.16400958111E+04  0.25013577629E+04  0.18886175866E+04 0.  0.
        2    1    3    3  502    0 -0.31665202043E+03 -0.86258550534E+03 -0.11083889594E+04  0.14397389838E+04  0.25500000920E-02 0. -1.
       -2    1    3    3    0  502  0.31665202043E+03  0.86258550534E+03 -0.53170685173E+03  0.10616187792E+04  0.25500000920E-02 0.  1.
</event>
<event>
 5   0  0.1813834E-04  0.1891562E+04  0.7818609E-02  0.8659068E-01
       -1   -1    0    0    0  501  0.00000000000E+00  0.00000000000E+00  0.80320372390E+03  0.80320372391E+03  0.50400001928E-02 0.  1.
        1   -1    0    0  501    0  0.00000000000E+00  0.00000000000E+00 -0.11136671862E+04  0.11136671862E+04  0.50400001928E-02 0. -1.
    10030    2    1    2    0    0  0.00000000000E+00  0.00000000000E+00 -0.31046346228E+03  0.19168709101E+04  0.18915619272E+04 0.  0.
        5    1    3    3  502    0  0.61337922553E+03 -0.59096130596E+03 -0.57184084133E+03  0.10259109987E+04  0.46999998093E+01 0.  1.
       -5    1    3    3    0  502 -0.61337922553E+03  0.59096130596E+03  0.26137737904E+03  0.89095991140E+03  0.46999998093E+01 0. -1.
</event>
<event>
 5   0  0.3623359E-04  0.1838664E+04  0.7818609E-02  0.8686004E-01
        2   -1    0    0  501    0  0.00000000000E+00  0.00000000000E+00  0.17075563723E+04  0.17075563723E+04  0.25500000920E-02 0. -1.
       -2   -1    0    0    0  501  0.00000000000E+00  0.00000000000E+00 -0.49495972433E+03  0.49495972433E+03  0.25500000920E-02 0.  1.
    10030    2    1    2    0    0  0.00000000000E+00  0.00000000000E+00  0.12125966480E+04  0.22025160966E+04  0.18386643319E+04 0.  0.
        5    1    3    3  502    0 -0.35413398652E+03  0.71939074058E+02  0.16188962486E+04  0.16587444844E+04  0.46999998093E+01 0. -1.
       -5    1    3    3    0  502  0.35413398652E+03 -0.71939074058E+02 -0.40629960064E+03  0.54377161222E+03  0.46999998093E+01 0.  1.
</event>
<event>
 5   0  0.1813834E-04  0.1878988E+04  0.7818609E-02  0.8665386E-01
        1   -1    0    0  501    0  0.00000000000E+00  0.00000000000E+00  0.24288602445E+04  0.24288602445E+04  0.50400001928E-02 0. -1.
       -1   -1    0    0    0  501  0.00000000000E+00  0.00000000000E+00 -0.36340065779E+03  0.36340065782E+03  0.50400001928E-02 0.  1.
    10030    2    1    2    0    0  0.00000000000E+00  0.00000000000E+00  0.20654595867E+04  0.27922609023E+04  0.18789884625E+04 0.  0.
        5    1    3    3  502    0 -0.92924861489E+03 -0.85849818807E+02  0.11938415854E+04  0.15153062399E+04  0.46999998093E+01 0.  1.
       -5    1    3    3    0  502  0.92924861489E+03  0.85849818807E+02  0.87161800130E+03  0.12769546624E+04  0.46999998093E+01 0. -1.
</event>
<event>
 5   0  0.3720978E-04  0.1812818E+04  0.7818609E-02  0.8699513E-01
        2   -1    0    0  501    0  0.00000000000E+00  0.00000000000E+00  0.11853356870E+04  0.11853356870E+04  0.25500000920E-02 0. -1.
       -2   -1    0    0    0  501  0.00000000000E+00  0.00000000000E+00 -0.69311762932E+03  0.69311762932E+03  0.25500000920E-02 0.  1.
    10030    2    1    2    0    0  0.00000000000E+00  0.00000000000E+00  0.49221805767E+03  0.18784533163E+04  0.18128177639E+04 0.  0.
        1    1    3    3  502    0  0.24465340256E+03  0.83322460234E+03  0.51524064160E+03  0.10097482083E+04  0.50400001928E-02 0. -1.
       -1    1    3    3    0  502 -0.24465340256E+03 -0.83322460234E+03 -0.23022583930E+02  0.86870510803E+03  0.50400001928E-02 0.  1.
</event>
<event>
 5   0  0.3623359E-04  0.1936951E+04  0.7818609E-02  0.8636679E-01
        2   -1    0    0  501    0  0.00000000000E+00  0.00000000000E+00  0.20102553219E+04  0.20102553219E+04  0.25500000920E-02 0. -1.
       -2   -1    0    0    0  501  0.00000000000E+00  0.00000000000E+00 -0.46657988234E+03  0.46657988235E+03  0.25500000920E-02 0.  1.
    10030    2    1    2    0    0  0.00000000000E+00  0.00000000000E+00  0.15436754396E+04  0.24768352043E+04  0.19369508942E+04 0.  0.
        5    1    3    3  502    0 -0.12242343143E+03 -0.64886366059E+03 -0.13408652377E+03  0.67380474356E+03  0.46999998093E+01 0.  1.
       -5    1    3    3    0  502  0.12242343143E+03  0.64886366059E+03  0.16777619634E+04  0.18030304607E+04  0.46999998093E+01 0. -1.
</event>
<event>
 5   0  0.3623359E-04  0.1755521E+04  0.7818609E-02  0.8730317E-01
        2   -1    0    0  501    0  0.00000000000E+00  0.00000000000E+00  0.78074195058E+03  0.78074195058E+03  0.25500000920E-02 0. -1.
       -2   -1    0    0    0  501  0.00000000000E+00  0.00000000000E+00 -0.98683553100E+03  0.98683553100E+03  0.25500000920E-02 0.  1.
    10030    2    1    2    0    0  0.00000000000E+00  0.00000000000E+00 -0.20609358042E+03  0.17675774816E+04  0.17555214580E+04 0.  0.
        5    1    3    3  502    0  0.75703600252E+03 -0.40042834954E+03  0.90616090609E+02  0.86120830122E+03  0.46999998093E+01 0. -1.
       -5    1    3    3    0  502 -0.75703600252E+03  0.40042834954E+03 -0.29670967103E+03  0.90636918036E+03  0.46999998093E+01 0.  1.
</event>
<event>
 5   0  0.1813834E-04  0.1892810E+04  0.7818609E-02  0.8658443E-01
       -1   -1    0    0    0  501  0.00000000000E+00  0.00000000000E+00  0.69785705488E+03  0.69785705490E+03  0.50400001928E-02 0.  1.
        1   -1    0    0  501    0  0.00000000000E+00  0.00000000000E+00 -0.12834761468E+04  0.12834761468E+04  0.50400001928E-02 0. -1.
    10030    2    1    2    0    0  0.00000000000E+00  0.00000000000E+00 -0.58561909191E+03  0.19813332017E+04  0.18928104859E+04 0.  0.
        5    1    3    3  502    0  0.10598018121E+03  0.70970804287E+03  0.35309244998E+03  0.79975850927E+03  0.46999998093E+01 0.  1.
       -5    1    3    3    0  502 -0.10598018121E+03 -0.70970804287E+03 -0.93871154189E+03  0.11815746924E+04  0.46999998093E+01 0. -1.
</event>
<event>
 5   0  0.1813834E-04  0.1845936E+04  0.7818609E-02  0.8682245E-01
       -1   -1    0    0    0  501  0.00000000000E+00  0.00000000000E+00  0.22684937190E+04  0.22684937190E+04  0.50400001928E-02 0. -1.
        1   -1    0    0  501    0  0.00000000000E+00  0.00000000000E+00 -0.37552247019E+03  0.37552247022E+03  0.50400001928E-02 0.  1.
    10030    2    1    2    0    0  0.00000000000E+00  0.00000000000E+00  0.18929712488E+04  0.26440161892E+04  0.18459364724E+04 0.  0.
        5    1    3    3  502    0 -0.87456257677E+03  0.80042228863E+02  0.53988701939E+03  0.10309056905E+04  0.46999998093E+01 0. -1.
       -5    1    3    3    0  502  0.87456257677E+03 -0.80042228863E+02  0.13530842294E+04  0.16131104987E+04  0.46999998093E+01 0.  1.
</event>
<event>
 5   0  0.3623359E-04  0.1890769E+04  0.7818609E-02  0.8659465E-01
       -2   -1    0    0    0  501  0.00000000000E+00  0.00000000000E+00  0.78319079343E+03  0.78319079343E+03  0.25500000920E-02 0.  1.
        2   -1    0    0  501    0  0.00000000000E+00  0.00000000000E+00 -0.11411678374E+04  0.11411678374E+04  0.25500000920E-02 0. -1.
    10030    2    1    2    0    0  0.00000000000E+00  0.00000000000E+00 -0.35797704397E+03  0.19243586308E+04  0.18907693080E+04 0.  0.
        5    1    3    3  502    0  0.74191534635E+03 -0.53667423936E+03 -0.41826596641E+03  0.10066906819E+04  0.46999998093E+01 0.  1.
       -5    1    3    3    0  502 -0.74191534635E+03  0.53667423936E+03  0.60288922439E+02  0.91766794894E+03  0.46999998093E+01 0. -1.
</event>
<event>
 5   0  0.1711979E-04  0.1945920E+04  0.7818609E-02  0.8632331E-01
        1   -1    0    0  501    0  0.00000000000E+00  0.00000000000E+00  0.99889450385E+03  0.99889450386E+03  0.50400001928E-02 0. -1.
       -1   -1    0    0    0  501  0.00000000000E+00  0.00000000000E+00 -0.94769915564E+03  0.94769915566E+03  0.50400001928E-02 0.  1.
    10030    2    1    2    0    0  0.00000000000E+00  0.00000000000E+00  0.51195348206E+02  0.19465936595E+04  0.19459203251E+04 0.  0.
        4    1    3    3  502    0  0.82797702704E+03 -0.42916248727E+03 -0.25184909754E+03  0.96599998893E+03  0.12699999809E+01 0.  1.
       -4    1    3    3    0  502 -0.82797702704E+03  0.42916248727E+03  0.30304444574E+03  0.98059367058E+03  0.12699999809E+01 0. -1.
</event>
<event>
 5   0  0.3720978E-04  0.1896389E+04  0.7818609E-02  0.8656656E-01
       -2   -1    0    0    0  501  0.00000000000E+00  0.00000000000E+00  0.53821772569E+03  0.53821772569E+03  0.25500000920E-02 0.  1.
        2   -1    0    0  501    0  0.00000000000E+00  0.00000000000E+00 -0.16704626609E+04  0.16704626609E+04  0.25500000920E-02 0. -1.
    10030    2    1    2    0    0  0.00000000000E+00  0.00000000000E+00 -0.11322449352E+04  0.22086803866E+04  0.18963887937E+04 0.  0.
        1    1    3    3  502    0  0.13206987549E+03 -0.37185505372E+03  0.43803848641E+03  0.58957302227E+03  0.50400001928E-02 0.  1.
       -1    1    3    3    0  502 -0.13206987549E+03  0.37185505372E+03 -0.15702834216E+04  0.16191073643E+04  0.50400001928E-02 0. -1.
</event>
<event>
 5   0  0.1813834E-04  0.1990911E+04  0.7818609E-02  0.8610882E-01
       -1   -1    0    0    0  501  0.00000000000E+00  0.00000000000E+00  0.16637941362E+04  0.16637941362E+04  0.50400001928E-02 0.  1.
        1   -1    0    0  501    0  0.00000000000E+00  0.00000000000E+00 -0.59558566918E+03  0.59558566920E+03  0.50400001928E-02 0. -1.
    10030    2    1    2    0    0  0.00000000000E+00  0.00000000000E+00  0.10682084670E+04  0.22593798054E+04  0.19909112929E+04 0.  0.
        5    1    3    3  502    0 -0.79481662220E+02  0.42140939959E+03 -0.48536913663E+03  0.64769476259E+03  0.46999998093E+01 0. -1.
       -5    1    3    3    0  502  0.79481662220E+02 -0.42140939959E+03  0.15535776036E+04  0.16116850428E+04  0.46999998093E+01 0.  1.
</event>
<event>
 5   0  0.1694830E-04  0.1900718E+04  0.7818609E-02  0.8654499E-01
       -1   -1    0    0    0  501  0.00000000000E+00  0.00000000000E+00  0.70962959958E+03  0.70962959960E+03  0.50400001928E-02 0. -1.
        1   -1    0    0  501    0  0.00000000000E+00  0.00000000000E+00 -0.12727517251E+04  0.12727517251E+04  0.50400001928E-02 0.  1.
    10030    2    1    2    0    0  0.00000000000E+00  0.00000000000E+00 -0.56312212552E+03  0.19823813247E+04  0.19007180718E+04 0.  0.
        1    1    3    3  502    0 -0.64633046003E+02 -0.31853420091E+03 -0.12129819151E+04  0.12557733053E+04  0.50400001928E-02 0.  1.
       -1    1    3    3    0  502  0.64633046003E+02  0.31853420091E+03  0.64985978959E+03  0.72660801946E+03  0.50400001928E-02 0. -1.
</event>
<event>
 5   0  0.1694830E-04  0.1845757E+04  0.7818609E-02  0.8682338E-01
        1   -1    0    0  501    0  0.00000000000E+00  0.00000000000E+00  0.60737239115E+03  0.60737239117E+03  0.50400001928E-02 0.  1.
       -1   -1    0    0    0  501  0.00000000000E+00  0.00000000000E+00 -0.14022769782E+04  0.14022769782E+04  0.50400001928E-02 0. -1.
    10030    2    1    2    0    0  0.00000000000E+00  0.00000000000E+00 -0.79490458705E+03  0.20096493694E+04  0.18457565618E+04 0.  0.
        1    1    3    3  502    0 -0.34248396808E+03  0.64378801449E+03  0.21841089100E+03  0.76122374722E+03  0.50400001928E-02 0.  1.
       -1    1    3    3    0  502  0.34248396808E+03 -0.64378801449E+03 -0.10133154780E+04  0.12484256222E+04  0.50400001928E-02 0. -1.
</event>
<event>
 5   0  0.1711979E-04  0.1896388E+04  0.7818609E-02  0.8656656E-01
       -1   -1    0    0    0  501  0.00000000000E+00  0.00000000000E+00  0.60715272414E+03  0.60715272416E+03  0.50400001928E-02 0.  1.
        1   -1    0    0  501    0  0.00000000000E+00  0.00000000000E+00 -0.14808003863E+04  0.14808003863E+04  0.50400001928E-02 0. -1.
    10030    2    1    2    0    0  0.00000000000E+00  0.00000000000E+00 -0.87364766220E+03  0.20879531105E+04  0.18963881338E+04 0.  0.
        4    1    3    3  502    0  0.51184764144E+03  0.22645103625E+03  0.40586851024E+03  0.69137467437E+03  0.12699999809E+01 0.  1.
       -4    1    3    3    0  502 -0.51184764144E+03 -0.22645103625E+03 -0.12795161724E+04  0.13965784361E+04  0.12699999809E+01 0. -1.
</event>
<event>
 5   0  0.3516539E-04  0.1914015E+04  0.7818609E-02  0.8647911E-01
       -2   -1    0    0    0  501  0.00000000000E+00  0.00000000000E+00  0.83019028897E+03  0.83019028897E+03  0.25500000920E-02 0. -1.
        2   -1    0    0  501    0  0.00000000000E+00  0.00000000000E+00 -0.11031970130E+04  0.11031970130E+04  0.25500000920E-02 0.  1.
    10030    2    1    2    0    0  0.00000000000E+00  0.00000000000E+00 -0.27300672400E+03  0.19333873019E+04  0.19140150961E+04 0.  0.
        4    1    3    3  502    0  0.88627478129E+03  0.11809296895E+02  0.22803620573E+03  0.91521831902E+03  0.12699999809E+01 0. -1.
       -4    1    3    3    0  502 -0.88627478129E+03 -0.11809296895E+02 -0.50104292973E+03  0.10181689829E+04  0.12699999809E+01 0.  1.
</event>
<event>
 5   0  0.3459485E-04  0.1908276E+04  0.7818609E-02  0.8650748E-01
        2   -1    0    0  501    0  0.00000000000E+00  0.00000000000E+00  0.12246688229E+04  0.12246688229E+04  0.25500000920E-02 0. -1.
       -2   -1    0    0    0  501  0.00000000000E+00  0.00000000000E+00 -0.74336762016E+03  0.74336762017E+03  0.25500000920E-02 0.  1.
    10030    2    1    2    0    0  0.00000000000E+00  0.00000000000E+00  0.48130120270E+03  0.19680364430E+04  0.19082758169E+04 0.  0.
        3    1    3    3  502    0 -0.61932216849E+03 -0.72363428002E+03  0.29874054016E+03  0.99822464412E+03  0.10100000352E+00 0. -1.
       -3    1    3    3    0  502  0.61932216849E+03  0.72363428002E+03  0.18256066254E+03  0.96981179891E+03  0.10100000352E+00 0.  1.
</event>
<event>
 5   0  0.1711979E-04  0.1920121E+04  0.7818609E-02  0.8644905E-01
       -1   -1    0    0    0  501  0.00000000000E+00  0.00000000000E+00  0.19255104289E+04  0.19255104289E+04  0.50400001928E-02 0.  1.
        1   -1    0    0  501    0  0.00000000000E+00  0.00000000000E+00 -0.47868686091E+03  0.47868686093E+03  0.50400001928E-02 0. -1.
    10030    2    1    2    0    0  0.00000000000E+00  0.00000000000E+00  0.14468235679E+04  0.24041972898E+04  0.19201213950E+04 0.  0.
        4    1    3    3  502    0  0.31437944028E+03  0.16338737656E+03  0.18406568083E+04  0.18744463092E+04  0.12699999809E+01 0.  1.
       -4    1    3    3    0  502 -0.31437944028E+03 -0.16338737656E+03 -0.39383324037E+03  0.52975098056E+03  0.12699999809E+01 0. -1.
</event>
<event>
 5   0  0.3623359E-04  0.1897400E+04  0.7818609E-02  0.8656152E-01
       -2   -1    0    0    0  501  0.00000000000E+00  0.00000000000E+00  0.11287707604E+04  0.11287707604E+04  0.25500000920E-02 0.  1.
        2   -1    0    0  501    0  0.00000000000E+00  0.00000000000E+00 -0.79735531909E+03  0.79735531909E+03  0.25500000920E-02 0. -1.
    10030    2    1    2    0    0  0.00000000000E+00  0.00000000000E+00  0.33141544128E+03  0.19261260795E+04  0.18973996625E+04 0.  0.
        5    1    3    3  502    0  0.76975060035E+02 -0.48578921940E+03 -0.65780348516E+03  0.82136705597E+03  0.46999998093E+01 0. -1.
       -5    1    3    3    0  502 -0.76975060035E+02  0.48578921940E+03  0.98921892644E+03  0.11047590235E+04  0.46999998093E+01 0.  1.
</event>
<event>
 5   0  0.3459485E-04  0.1895853E+04  0.7818609E-02  0.8656923E-01
        2   -1    0    0  501    0  0.00000000000E+00  0.00000000000E+00  0.74874436562E+03  0.74874436562E+03  0.25500000920E-02 0. -1.
       -2   -1    0    0    0  501  0.00000000000E+00  0.00000000000E+00 -0.12000959074E+04  0.12000959074E+04  0.25500000920E-02 0.  1.
    10030    2    1    2    0    0  0.00000000000E+00  0.00000000000E+00 -0.45135154174E+03  0.19488402730E+04  0.18958534214E+04 0.  0.
        3    1    3    3  502    0  0.35758550804E+03 -0.34423202299E+03  0.60448563285E+03  0.78215469809E+03  0.10100000352E+00 0. -1.
       -3    1    3    3    0  502 -0.35758550804E+03  0.34423202299E+03 -0.10558371746E+04  0.11666855749E+04  0.10100000352E+00 0.  1.
</event>
<event>
 5   0  0.3516539E-04  0.1870250E+04  0.7818609E-02  0.8669808E-01
       -2   -1    0    0    0  501  0.00000000000E+00  0.00000000000E+00  0.53298223770E+03  0.53298223770E+03  0.25500000920E-02 0.  1.
        2   -1    0    0  501    0  0.00000000000E+00  0.00000000000E+00 -0.16406901232E+04  0.16406901232E+04  0.25500000920E-02 0. -1.
    10030    2    1    2    0    0  0.00000000000E+00  0.00000000000E+00 -0.11077078855E+04  0.21736723609E+04  0.18702499226E+04 0.  0.
        4    1    3    3  502    0 -0.78689620241E+03 -0.50312603554E+03 -0.60731225601E+03  0.11140786463E+04  0.12699999809E+01 0. -1.
       -4    1    3    3    0  502  0.78689620241E+03  0.50312603554E+03 -0.50039562947E+03  0.10595937145E+04  0.12699999809E+01 0.  1.
</event>
<event>
 5   0  0.3535876E-04  0.1970490E+04  0.7818609E-02  0.8620543E-01
       -2   -1    0    0    0  501  0.00000000000E+00  0.00000000000E+00  0.12714722001E+04  0.12714722002E+04  0.25500000920E-02 0.  1.
        2   -1    0    0  501    0  0.00000000000E+00  0.00000000000E+00 -0.76345173291E+03  0.76345173291E+03  0.25500000920E-02 0. -1.
    10030    2    1    2    0    0  0.00000000000E+00  0.00000000000E+00  0.50802046724E+03  0.20349239331E+04  0.19704899437E+04 0.  0.
        2    1    3    3  502    0  0.16907943904E+03  0.23766269202E+02  0.12560773141E+04  0.12676288539E+04  0.25500000920E-02 0.  1.
       -2    1    3    3    0  502 -0.16907943904E+03 -0.23766269202E+02 -0.74805684689E+03  0.76729507912E+03  0.25500000920E-02 0. -1.
</event>
<event>
 5   0  0.3535876E-04  0.1940799E+04  0.7818609E-02  0.8634811E-01
        2   -1    0    0  501    0  0.00000000000E+00  0.00000000000E+00  0.11740144656E+04  0.11740144656E+04  0.25500000920E-02 0. -1.
       -2   -1    0    0    0  501  0.00000000000E+00  0.00000000000E+00 -0.80209819744E+03  0.80209819745E+03  0.25500000920E-02 0.  1.
    10030    2    1    2    0    0  0.00000000000E+00  0.00000000000E+00  0.37191626814E+03  0.19761126630E+04  0.19407986878E+04 0.  0.
        2    1    3    3  502    0 -0.65327052151E+03 -0.39226938182E+03  0.79775495252E+03  0.11032001661E+04  0.25500000920E-02 0. -1.
       -2    1    3    3    0  502  0.65327052151E+03  0.39226938182E+03 -0.42583868438E+03  0.87291249694E+03  0.25500000920E-02 0.  1.
</event>
<event>
 5   0  0.3535876E-04  0.1883115E+04  0.7818609E-02  0.8663307E-01
       -2   -1    0    0    0  501  0.00000000000E+00  0.00000000000E+00  0.62681180727E+03  0.62681180728E+03  0.25500000920E-02 0. -1.
        2   -1    0    0  501    0  0.00000000000E+00  0.00000000000E+00 -0.14143489561E+04  0.14143489561E+04  0.25500000920E-02 0.  1.
    10030    2    1    2    0    0  0.00000000000E+00  0.00000000000E+00 -0.78753714883E+03  0.20411607634E+04  0.18831151057E+04 0.  0.
        2    1    3    3  502    0  0.10952030133E+03  0.99433845336E+02 -0.14016750273E+04  0.14094589984E+04  0.25500000920E-02 0.  1.
       -2    1    3    3    0  502 -0.10952030133E+03 -0.99433845336E+02  0.61413787851E+03  0.63170176494E+03  0.25500000920E-02 0. -1.
</event>
<event>
 5   0  0.3459485E-04  0.2098765E+04  0.7818609E-02  0.8561788E-01
        2   -1    0    0  501    0  0.00000000000E+00  0.00000000000E+00  0.10815524194E+04  0.10815524194E+04  0.25500000920E-02 0. -1.
       -2   -1    0    0    0  501  0.00000000000E+00  0.00000000000E+00 -0.10181692769E+04  0.10181692769E+04  0.25500000920E-02 0.  1.
    10030    2    1    2    0    0  0.00000000000E+00  0.00000000000E+00  0.63383142576E+02  0.20997216963E+04  0.20987648223E+04 0.  0.
        3    1    3    3  502    0 -0.22596586999E+03  0.72502378285E+03  0.75623400003E+03  0.10717322115E+04  0.10100000352E+00 0. -1.
       -3    1    3    3    0  502  0.22596586999E+03 -0.72502378285E+03 -0.69285085745E+03  0.10279894849E+04  0.10100000352E+00 0.  1.
</event>
<event>
 5   0  0.3516539E-04  0.1916616E+04  0.7818609E-02  0.8646629E-01
       -2   -1    0    0    0  501  0.00000000000E+00  0.00000000000E+00  0.39043797298E+03  0.39043797299E+03  0.25500000920E-02 0.  1.
        2   -1    0    0  501    0  0.00000000000E+00  0.00000000000E+00 -0.23521131432E+04  0.23521131432E+04  0.25500000920E-02 0. -1.
    10030    2    1    2    0    0  0.00000000000E+00  0.00000000000E+00 -0.19616751702E+04  0.27425511162E+04  0.19166160678E+04 0.  0.
        4    1    3    3  502    0  0.80074048769E+03 -0.51420975161E+03 -0.81922641504E+03  0.12556793099E+04  0.12699999809E+01 0.  1.
       -4    1    3    3    0  502 -0.80074048769E+03  0.51420975161E+03 -0.11424487552E+04  0.14868718063E+04  0.12699999809E+01 0. -1.
</event>
<event>
 5   0  0.3720978E-04  0.1901779E+04  0.7818609E-02  0.8653971E-01
        2   -1    0    0  501    0  0.00000000000E+00  0.00000000000E+00  0.21980257626E+04  0.21980257626E+04  0.25500000920E-02 0.  1.
       -2   -1    0    0    0  501  0.00000000000E+00  0.00000000000E+00 -0.41136490665E+03  0.41136490666E+03  0.25500000920E-02 0. -1.
    10030    2    1    2    0    0  0.00000000000E+00  0.00000000000E+00  0.17866608559E+04  0.26093906692E+04  0.19017788122E+04 0.  0.
        1    1    3    3  502    0 -0.28675257532E+03 -0.54460949969E+03  0.18878407691E+04  0.19856407823E+04  0.50400001928E-02 0.  1.
       -1    1    3    3    0  502  0.28675257532E+03  0.54460949969E+03 -0.10117991321E+03  0.62374988695E+03  0.50400001928E-02 0. -1.
</event>
<event>
 5   0  0.1694830E-04  0.1953066E+04  0.7818609E-02  0.8628884E-01
       -1   -1    0    0    0  501  0.00000000000E+00  0.00000000000E+00  0.11858343554E+04  0.11858343554E+04  0.50400001928E-02 0. -1.
        1   -1    0    0  501    0  0.00000000000E+00  0.00000000000E+00 -0.80417347691E+03  0.80417347692E+03  0.50400001928E-02 0.  1.
    10030    2    1    2    0    0  0.00000000000E+00  0.00000000000E+00  0.38166087846E+03  0.19900078323E+04  0.19530658326E+04 0.  0.
        1    1    3    3  502    0  0.77839184398E+03 -0.50432045747E+03  0.50219780549E+03  0.10547206372E+04  0.50400001928E-02 0.  1.
       -1    1    3    3    0  502 -0.77839184398E+03  0.50432045747E+03 -0.12053692702E+03  0.93528719514E+03  0.50400001928E-02 0. -1.
</event>
<event>
 5   0  0.1782613E-04  0.1925369E+04  0.7818609E-02  0.8642331E-01
       -1   -1    0    0    0  501  0.00000000000E+00  0.00000000000E+00  0.92444347645E+03  0.92444347647E+03  0.50400001928E-02 0. -1.
        1   -1    0    0  501    0  0.00000000000E+00  0.00000000000E+00 -0.10025071674E+04  0.10025071674E+04  0.50400001928E-02 0.  1.
    10030    2    1    2    0    0  0.00000000000E+00  0.00000000000E+00 -0.78063690967E+02  0.19269506439E+04  0.19253687554E+04 0.  0.
        3    1    3    3  502    0  0.81718223619E+03  0.43767212602E+03 -0.29889398227E+03  0.97400273094E+03  0.10100000352E+00 0. -1.
       -3    1    3    3    0  502 -0.81718223619E+03 -0.43767212602E+03  0.22083029130E+03  0.95294791295E+03  0.10100000352E+00 0.  1.
</event>
<event>
 5   0  0.1694830E-04  0.1440981E+04  0.7818609E-02  0.8924677E-01
        1   -1    0    0  501    0  0.00000000000E+00  0.00000000000E+00  0.53477281468E+03  0.53477281470E+03  0.50400001928E-02 0. -1.
       -1   -1    0    0    0  501  0.00000000000E+00  0.00000000000E+00 -0.97070422156E+03  0.97070422158E+03  0.50400001928E-02 0.  1.
    10030    2    1    2    0    0  0.00000000000E+00  0.00000000000E+00 -0.43593140689E+03  0.15054770363E+04  0.14409805395E+04 0.  0.
        1    1    3    3  502    0 -0.41391837117E+03  0.10554634853E+03  0.38820849410E+03  0.57721251251E+03  0.50400001928E-02 0. -1.
       -1    1    3    3    0  502  0.41391837117E+03 -0.10554634853E+03 -0.82413990099E+03  0.92826452377E+03  0.50400001928E-02 0.  1.
</event>
<event>
 5   0  0.3516539E-04  0.1912577E+04  0.7818609E-02  0.8648621E-01
       -2   -1    0    0    0  501  0.00000000000E+00  0.00000000000E+00  0.10053673430E+04  0.10053673430E+04  0.25500000920E-02 0.  1.
        2   -1    0    0  501    0  0.00000000000E+00  0.00000000000E+00 -0.90960522349E+03  0.90960522349E+03  0.25500000920E-02 0. -1.
    10030    2    1    2    0    0  0.00000000000E+00  0.00000000000E+00  0.95762119535E+02  0.19149725665E+04  0.19125766774E+04 0.  0.
        4    1    3    3  502    0  0.22958735433E+03 -0.86942596006E+02  0.97327713913E+03  0.10037626068E+04  0.12699999809E+01 0.  1.
       -4    1    3    3    0  502 -0.22958735433E+03  0.86942596006E+02 -0.87751501959E+03  0.91120995977E+03  0.12699999809E+01 0. -1.
</event>
<event>
 5   0  0.3535876E-04  0.1778134E+04  0.7818609E-02  0.8718014E-01
       -2   -1    0    0    0  501  0.00000000000E+00  0.00000000000E+00  0.46373985045E+03  0.46373985046E+03  0.25500000920E-02 0.  1.
        2   -1    0    0  501    0  0.00000000000E+00  0.00000000000E+00 -0.17044913254E+04  0.17044913254E+04  0.25500000920E-02 0. -1.
    10030    2    1    2    0    0  0.00000000000E+00  0.00000000000E+00 -0.12407514750E+04  0.21682311759E+04  0.17781344745E+04 0.  0.
        2    1    3    3  502    0  0.47340256410E+03 -0.30952962469E+03  0.21605683844E+03  0.60547430474E+03  0.25500000920E-02 0.  1.
       -2    1    3    3    0  502 -0.47340256410E+03  0.30952962469E+03 -0.14568083134E+04  0.15627568711E+04  0.25500000920E-02 0. -1.
</event>
<event>
 5   0  0.3535876E-04  0.1820313E+04  0.7818609E-02  0.8695571E-01
       -2   -1    0    0    0  501  0.00000000000E+00  0.00000000000E+00  0.35902632869E+03  0.35902632870E+03  0.25500000920E-02 0.  1.
        2   -1    0    0  501    0  0.00000000000E+00  0.00000000000E+00 -0.23073106471E+04  0.23073106471E+04  0.25500000920E-02 0. -1.
    10030    2    1    2    0    0  0.00000000000E+00  0.00000000000E+00 -0.19482843184E+04  0.26663369758E+04  0.18203134574E+04 0.  0.
        2    1    3    3  502    0 -0.44749911470E+02 -0.55965060932E+03 -0.20234457053E+04  0.20998913975E+04  0.25500000920E-02 0. -1.
       -2    1    3    3    0  502  0.44749911470E+02  0.55965060932E+03  0.75161386881E+02  0.56644557829E+03  0.25500000920E-02 0.  1.
</event>
<event>
 5   0  0.3720978E-04  0.1945976E+04  0.7818609E-02  0.8632304E-01
       -2   -1    0    0    0  501  0.00000000000E+00  0.00000000000E+00  0.50049731792E+03  0.50049731793E+03  0.25500000920E-02 0. -1.
        2   -1    0    0  501    0  0.00000000000E+00  0.00000000000E+00 -0.18915294768E+04  0.18915294768E+04  0.25500000920E-02 0.  1.
    10030    2    1    2    0    0  0.00000000000E+00  0.00000000000E+00 -0.13910321589E+04  0.23920267947E+04  0.19459757757E+04 0.  0.
        1    1    3    3  502    0 -0.43210611294E+02 -0.96595042843E+03 -0.82891894984E+03  0.12735909911E+04  0.50400001928E-02 0.  1.
       -1    1    3    3    0  502  0.43210611294E+02  0.96595042843E+03 -0.56211320906E+03  0.11184358037E+04  0.50400001928E-02 0. -1.
</event>
<event>
 5   0  0.3623359E-04  0.2009605E+04  0.7818609E-02  0.8602143E-01
        2   -1    0    0  501    0  0.00000000000E+00  0.00000000000E+00  0.19337186314E+04  0.19337186314E+04  0.25500000920E-02 0.  1.
       -2   -1    0    0    0  501  0.00000000000E+00  0.00000000000E+00 -0.52211756492E+03  0.52211756493E+03  0.25500000920E-02 0. -1.
    10030    2    1    2    0    0  0.00000000000E+00  0.00000000000E+00  0.14116010665E+04  0.24558361963E+04  0.20096053972E+04 0.  0.
        5    1    3    3  502    0  0.51749040831E+03 -0.72400233549E+03  0.13570366430E+03  0.90022957016E+03  0.46999998093E+01 0. -1.
       -5    1    3    3    0  502 -0.51749040831E+03  0.72400233549E+03  0.12758974022E+04  0.15556066262E+04  0.46999998093E+01 0.  1.
</event>
<event>
 5   0  0.1758946E-04  0.1862760E+04  0.7818609E-02  0.8673618E-01
        1   -1    0    0  501    0  0.00000000000E+00  0.00000000000E+00  0.63123615299E+03  0.63123615301E+03  0.50400001928E-02 0. -1.
       -1   -1    0    0    0  501  0.00000000000E+00  0.00000000000E+00 -0.13742383826E+04  0.13742383826E+04  0.50400001928E-02 0.  1.
    10030    2    1    2    0    0  0.00000000000E+00  0.00000000000E+00 -0.74300222964E+03  0.20054745356E+04  0.18627602637E+04 0.  0.
        2    1    3    3  502    0 -0.91392641997E+03 -0.25220913060E+01 -0.17830630313E+03  0.93116110303E+03  0.25500000920E-02 0.  1.
       -2    1    3    3    0  502  0.91392641997E+03  0.25220913060E+01 -0.56469592651E+03  0.10743134326E+04  0.25500000920E-02 0. -1.
</event>
<event>
 5   0  0.1782613E-04  0.1900457E+04  0.7818609E-02  0.8654629E-01
       -1   -1    0    0    0  501  0.00000000000E+00  0.00000000000E+00  0.29607079498E+03  0.29607079502E+03  0.50400001928E-02 0. -1.
        1   -1    0    0  501    0  0.00000000000E+00  0.00000000000E+00 -0.30497255132E+04  0.30497255132E+04  0.50400001928E-02 0.  1.
    10030    2    1    2    0    0  0.00000000000E+00  0.00000000000E+00 -0.27536547183E+04  0.33457963083E+04  0.19004574789E+04 0.  0.
        3    1    3    3  502    0  0.16697637968E+03 -0.78828805389E+03 -0.22635003203E+04  0.24026470564E+04  0.10100000352E+00 0.  1.
       -3    1    3    3    0  502 -0.16697637968E+03  0.78828805389E+03 -0.49015439794E+03  0.94314925187E+03  0.10100000352E+00 0. -1.
</event>
<event>
 5   0  0.1694830E-04  0.1565571E+04  0.7818609E-02  0.8841983E-01
       -1   -1    0    0    0  501  0.00000000000E+00  0.00000000000E+00  0.79456742631E+03  0.79456742633E+03  0.50400001928E-02 0. -1.
        1   -1    0    0  501    0  0.00000000000E+00  0.00000000000E+00 -0.77117809745E+03  0.77117809747E+03  0.50400001928E-02 0.  1.
    10030    2    1    2    0    0  0.00000000000E+00  0.00000000000E+00  0.23389328861E+02  0.15657455238E+04  0.15655708175E+04 0.  0.
        1    1    3    3  502    0  0.49011248975E+03 -0.54894274550E+03 -0.25517702458E+03  0.77888619473E+03  0.50400001928E-02 0.  1.
       -1    1    3    3    0  502 -0.49011248975E+03  0.54894274550E+03  0.27856635344E+03  0.78685932907E+03  0.50400001928E-02 0. -1.
</event>
<event>
 5   0  0.1758946E-04  0.1910418E+04  0.7818609E-02  0.8649688E-01
       -1   -1    0    0    0  501  0.00000000000E+00  0.00000000000E+00  0.70252616982E+03  0.70252616984E+03  0.50400001928E-02 0.  1.
        1   -1    0    0  501    0  0.00000000000E+00  0.00000000000E+00 -0.12987756697E+04  0.12987756698E+04  0.50400001928E-02 0. -1.
    10030    2    1    2    0    0  0.00000000000E+00  0.00000000000E+00 -0.59624949992E+03  0.20013018396E+04  0.19104176473E+04 0.  0.
        2    1    3    3  502    0 -0.52352185660E+03  0.68372183534E+03  0.13490852336E+03  0.87163696120E+03  0.25500000920E-02 0. -1.
       -2    1    3    3    0  502  0.52352185660E+03 -0.68372183534E+03 -0.73115802328E+03  0.11296648784E+04  0.25500000920E-02 0.  1.
</event>
<event>
 5   0  0.3459485E-04  0.1940451E+04  0.7818609E-02  0.8634979E-01
        2   -1    0    0  501    0  0.00000000000E+00  0.00000000000E+00  0.16997961632E+04  0.16997961632E+04  0.25500000920E-02 0. -1.
       -2   -1    0    0    0  501  0.00000000000E+00  0.00000000000E+00 -0.55379424517E+03  0.55379424517E+03  0.25500000920E-02 0.  1.
    10030    2    1    2    0    0  0.00000000000E+00  0.00000000000E+00  0.11460019180E+04  0.22535904083E+04  0.19404508065E+04 0.  0.
        3    1    3    3  502    0 -0.18859562477E+03  0.51551221134E+03 -0.35611051363E+03  0.65432091349E+03  0.10100000352E+00 0.  1.
       -3    1    3    3    0  502  0.18859562477E+03 -0.51551221134E+03  0.15021124316E+04  0.15992694948E+04  0.10100000352E+00 0. -1.
</event>
<event>
 5   0  0.1758946E-04  0.1884571E+04  0.7818609E-02  0.8662575E-01
        1   -1    0    0  501    0  0.00000000000E+00  0.00000000000E+00  0.10011844115E+04  0.10011844115E+04  0.50400001928E-02 0. -1.
       -1   -1    0    0    0  501  0.00000000000E+00  0.00000000000E+00 -0.88685186365E+03  0.88685186367E+03  0.50400001928E-02 0.  1.
    10030    2    1    2    0    0  0.00000000000E+00  0.00000000000E+00  0.11433254786E+03  0.18880362752E+04  0.18845713160E+04 0.  0.
        2    1    3    3  502    0  0.47431894115E+03 -0.72922087490E+03 -0.30566077107E+03  0.92204666330E+03  0.25500000920E-02 0.  1.
       -2    1    3    3    0  502 -0.47431894115E+03  0.72922087490E+03  0.41999331893E+03  0.96598961189E+03  0.25500000920E-02 0. -1.
</event>
<event>
 5   0  0.3623359E-04  0.1924611E+04  0.7818609E-02  0.8642702E-01
       -2   -1    0    0    0  501  0.00000000000E+00  0.00000000000E+00  0.48898994226E+03  0.48898994226E+03  0.25500000920E-02 0. -1.
        2   -1    0    0  501    0  0.00000000000E+00  0.00000000000E+00 -0.18937643321E+04  0.18937643321E+04  0.25500000920E-02 0.  1.
    10030    2    1    2    0    0  0.00000000000E+00  0.00000000000E+00 -0.14047743898E+04  0.23827542744E+04  0.19246108297E+04 0.  0.
        5    1    3    3  502    0 -0.92473303266E+03 -0.15294500609E+03 -0.97217377147E+03  0.13504322599E+04  0.46999998093E+01 0.  1.
       -5    1    3    3    0  502  0.92473303266E+03  0.15294500609E+03 -0.43260061836E+03  0.10323220145E+04  0.46999998093E+01 0. -1.
</event>
<event>
 5   0  0.3516539E-04  0.1897120E+04  0.7818609E-02  0.8656291E-01
        2   -1    0    0  501    0  0.00000000000E+00  0.00000000000E+00  0.85810766410E+03  0.85810766411E+03  0.25500000920E-02 0. -1.
       -2   -1    0    0    0  501  0.00000000000E+00  0.00000000000E+00 -0.10485469998E+04  0.10485469998E+04  0.25500000920E-02 0.  1.
    10030    2    1    2    0    0  0.00000000000E+00  0.00000000000E+00 -0.19043933573E+03  0.19066546639E+04  0.18971201509E+04 0.  0.
        4    1    3    3  502    0 -0.71798682853E+02  0.78251642617E+03  0.43874854953E+03  0.89999383926E+03  0.12699999809E+01 0. -1.
       -4    1    3    3    0  502  0.71798682853E+02 -0.78251642617E+03 -0.62918788526E+03  0.10066608247E+04  0.12699999809E+01 0.  1.
</event>
<event>
 5   0  0.1813834E-04  0.1891514E+04  0.7818609E-02  0.8659092E-01
        1   -1    0    0  501    0  0.00000000000E+00  0.00000000000E+00  0.73625750218E+03  0.73625750219E+03  0.50400001928E-02 0. -1.
       -1   -1    0    0    0  501  0.00000000000E+00  0.00000000000E+00 -0.12148685438E+04  0.12148685438E+04  0.50400001928E-02 0.  1.
    10030    2    1    2    0    0  0.00000000000E+00  0.00000000000E+00 -0.47861104160E+03  0.19511260460E+04  0.18915137637E+04 0.  0.
        5    1    3    3  502    0  0.83722434316E+03  0.10534299962E+03 -0.67983908270E+03  0.10836258657E+04  0.46999998093E+01 0.  1.
       -5    1    3    3    0  502 -0.83722434316E+03 -0.10534299962E+03  0.20122804110E+03  0.86750018033E+03  0.46999998093E+01 0. -1.
</event>
<event>
 5   0  0.1782613E-04  0.1906573E+04  0.7818609E-02  0.8651591E-01
       -1   -1    0    0    0  501  0.00000000000E+00  0.00000000000E+00  0.57142814337E+03  0.57142814340E+03  0.50400001928E-02 0.  1.
        1   -1    0    0  501    0  0.00000000000E+00  0.00000000000E+00 -0.15903228360E+04  0.15903228360E+04  0.50400001928E-02 0. -1.
    10030    2    1    2    0    0  0.00000000000E+00  0.00000000000E+00 -0.10188946926E+04  0.21617509794E+04  0.19065730781E+04 0.  0.
        3    1    3    3  502    0 -0.29504461422E+02  0.25529844324E+03  0.53140856672E+03  0.59029050758E+03  0.10100000352E+00 0.  1.
       -3    1    3    3    0  502  0.29504461422E+02 -0.25529844324E+03 -0.15503032593E+04  0.15714604718E+04  0.10100000352E+00 0. -1.
</event>
<event>
 5   0  0.1711979E-04  0.1826469E+04  0.7818609E-02  0.8692349E-01
        1   -1    0    0  501    0  0.00000000000E+00  0.00000000000E+00  0.18759526928E+04  0.18759526928E+04  0.50400001928E-02 0. -1.
       -1   -1    0    0    0  501  0.00000000000E+00  0.00000000000E+00 -0.44457272696E+03  0.44457272699E+03  0.50400001928E-02 0.  1.
    10030    2    1    2    0    0  0.00000000000E+00  0.00000000000E+00  0.14313799658E+04  0.23205254198E+04  0.18264691668E+04 0.  0.
        4    1    3    3  502    0 -0.24122393472E+03  0.67505648325E+03 -0.31307359681E+01  0.71686934421E+03  0.12699999809E+01 0.  1.
       -4    1    3    3    0  502  0.24122393472E+03 -0.67505648325E+03  0.14345107018E+04  0.16036560755E+04  0.12699999809E+01 0. -1.
</event>
<event>
 5   0  0.1813834E-04  0.1904937E+04  0.7818609E-02  0.8652403E-01
       -1   -1    0    0    0  501  0.00000000000E+00  0.00000000000E+00  0.59305188115E+03  0.59305188117E+03  0.50400001928E-02 0.  1.
        1   -1    0    0  501    0  0.00000000000E+00  0.00000000000E+00 -0.15297085540E+04  0.15297085540E+04  0.50400001928E-02 0. -1.
    10030    2    1    2    0    0  0.00000000000E+00  0.00000000000E+00 -0.93665667283E+03  0.21227604352E+04  0.19049373067E+04 0.  0.
        5    1    3    3  502    0  0.18863282701E+03  0.11989811837E+03 -0.15000571732E+04  0.15166250410E+04  0.46999998093E+01 0. -1.
       -5    1    3    3    0  502 -0.18863282701E+03 -0.11989811837E+03  0.56340050036E+03  0.60613539413E+03  0.46999998093E+01 0.  1.
</event>
<event>
 5   0  0.3535876E-04  0.1973324E+04  0.7818609E-02  0.8619195E-01
        2   -1    0    0  501    0  0.00000000000E+00  0.00000000000E+00  0.59872884192E+03  0.59872884193E+03  0.25500000920E-02 0.  1.
       -2   -1    0    0    0  501  0.00000000000E+00  0.00000000000E+00 -0.16259475955E+04  0.16259475955E+04  0.25500000920E-02 0. -1.
    10030    2    1    2    0    0  0.00000000000E+00  0.00000000000E+00 -0.10272187536E+04  0.22246764374E+04  0.19733238162E+04 0.  0.
        2    1    3    3  502    0  0.35335497247E+03 -0.37310847412E+03  0.43595387752E+03  0.67388830927E+03  0.25500000920E-02 0.  1.
       -2    1    3    3    0  502 -0.35335497247E+03  0.37310847412E+03 -0.14631726311E+04  0.15507881282E+04  0.25500000920E-02 0. -1.
</event>
<event>
 5   0  0.1758946E-04  0.1844382E+04  0.7818609E-02  0.8683047E-01
       -1   -1    0    0    0  501  0.00000000000E+00  0.00000000000E+00  0.92287367688E+03  0.92287367689E+03  0.50400001928E-02 0.  1.
        1   -1    0    0  501    0  0.00000000000E+00  0.00000000000E+00 -0.92150922837E+03  0.92150922839E+03  0.50400001928E-02 0. -1.
    10030    2    1    2    0    0  0.00000000000E+00  0.00000000000E+00  0.13644485033E+01  0.18443829053E+04  0.18443824006E+04 0.  0.
        2    1    3    3  502    0  0.75342208587E+03 -0.17904697460E+03 -0.50005132617E+03  0.92182101701E+03  0.25500000920E-02 0. -1.
       -2    1    3    3    0  502 -0.75342208587E+03  0.17904697460E+03  0.50141577467E+03  0.92256188827E+03  0.25500000920E-02 0.  1.
</event>
<event>
 5   0  0.3623359E-04  0.1911976E+04  0.7818609E-02  0.8648918E-01
        2   -1    0    0  501    0  0.00000000000E+00  0.00000000000E+00  0.20396989612E+04  0.20396989612E+04  0.25500000920E-02 0. -1.
       -2   -1    0    0    0  501  0.00000000000E+00  0.00000000000E+00 -0.44806293509E+03  0.44806293509E+03  0.25500000920E-02 0.  1.
    10030    2    1    2    0    0  0.00000000000E+00  0.00000000000E+00  0.15916360261E+04  0.24877618963E+04  0.19119764677E+04 0.  0.
        5    1    3    3  502    0 -0.47954640722E+03 -0.43736309618E+03  0.17090711728E+04  0.18281678255E+04  0.46999998093E+01 0. -1.
       -5    1    3    3    0  502  0.47954640722E+03  0.43736309618E+03 -0.11743514665E+03  0.65959407081E+03  0.46999998093E+01 0.  1.
</event>
<event>
 5   0  0.1694830E-04  0.1659257E+04  0.7818609E-02  0.8784949E-01
        1   -1    0    0  501    0  0.00000000000E+00  0.00000000000E+00  0.42617093685E+03  0.42617093688E+03  0.50400001928E-02 0.  1.
       -1   -1    0    0    0  501  0.00000000000E+00  0.00000000000E+00 -0.16150409443E+04  0.16150409443E+04  0.50400001928E-02 0. -1.
    10030    2    1    2    0    0  0.00000000000E+00  0.00000000000E+00 -0.11888700074E+04  0.20412118812E+04  0.16592570775E+04 0.  0.
        1    1    3    3  502    0  0.74546260972E+03  0.83042623532E+02 -0.10305442387E+04  0.12746105318E+04  0.50400001928E-02 0. -1.
       -1    1    3    3    0  502 -0.74546260972E+03 -0.83042623532E+02 -0.15832576876E+03  0.76660134939E+03  0.50400001928E-02 0.  1.
</event>
<event>
 5   0  0.3459485E-04  0.1846517E+04  0.7818609E-02  0.8681946E-01
        2   -1    0    0  501    0  0.00000000000E+00  0.00000000000E+00  0.10983708877E+04  0.10983708877E+04  0.25500000920E-02 0. -1.
       -2   -1    0    0    0  501  0.00000000000E+00  0.00000000000E+00 -0.77606431696E+03  0.77606431697E+03  0.25500000920E-02 0.  1.
    10030    2    1    2    0    0  0.00000000000E+00  0.00000000000E+00  0.32230657072E+03  0.18744352047E+04  0.18465172111E+04 0.  0.
        3    1    3    3  502    0 -0.37540654788E+03  0.84223644262E+03  0.20782825589E+03  0.94524329970E+03  0.10100000352E+00 0. -1.
       -3    1    3    3    0  502  0.37540654788E+03 -0.84223644262E+03  0.11447831483E+03  0.92919190496E+03  0.10100000352E+00 0.  1.
</event>
<event>
 5   0  0.3623359E-04  0.1919764E+04  0.7818609E-02  0.8645081E-01
       -2   -1    0    0    0  501  0.00000000000E+00  0.00000000000E+00  0.19421600314E+04  0.19421600314E+04  0.25500000920E-02 0.  1.
        2   -1    0    0  501    0  0.00000000000E+00  0.00000000000E+00 -0.47440647109E+03  0.47440647110E+03  0.25500000920E-02 0. -1.
    10030    2    1    2    0    0  0.00000000000E+00  0.00000000000E+00  0.14677535603E+04  0.24165665025E+04  0.19197638259E+04 0.  0.
        5    1    3    3  502    0  0.23659416963E+03  0.92683226663E+03  0.83423540143E+03  0.12692382151E+04  0.46999998093E+01 0. -1.
       -5    1    3    3    0  502 -0.23659416963E+03 -0.92683226663E+03  0.63351815888E+03  0.11473282875E+04  0.46999998093E+01 0.  1.
</event>
<event>
 5   0  0.3623359E-04  0.1913260E+04  0.7818609E-02  0.8648284E-01
        2   -1    0    0  501    0  0.00000000000E+00  0.00000000000E+00  0.10597197408E+04  0.10597197408E+04  0.25500000920E-02 0. -1.
       -2   -1    0    0    0  501  0.00000000000E+00  0.00000000000E+00 -0.86356848651E+03  0.86356848652E+03  0.25500000920E-02 0.  1.
    10030    2    1    2    0    0  0.00000000000E+00  0.00000000000E+00  0.19615125425E+03  0.19232882273E+04  0.19132595983E+04 0.  0.
        5    1    3    3  502    0 -0.17571581438E+03  0.65963132868E+03 -0.57560800398E+03  0.89293684068E+03  0.46999998093E+01 0.  1.
       -5    1    3    3    0  502  0.17571581438E+03 -0.65963132868E+03  0.77175925823E+03  0.10303513866E+04  0.46999998093E+01 0. -1.
</event>
<event>
 5   0  0.3459485E-04  0.1896673E+04  0.7818609E-02  0.8656514E-01
        2   -1    0    0  501    0  0.00000000000E+00  0.00000000000E+00  0.13993068738E+04  0.13993068738E+04  0.25500000920E-02 0. -1.
       -2   -1    0    0    0  501  0.00000000000E+00  0.00000000000E+00 -0.64270574328E+03  0.64270574329E+03  0.25500000920E-02 0.  1.
    10030    2    1    2    0    0  0.00000000000E+00  0.00000000000E+00  0.75660113047E+03  0.20420126170E+04  0.18966734715E+04 0.  0.
        3    1    3    3  502    0  0.47740779106E+03  0.55892257984E+03  0.10234066873E+04  0.12600293278E+04  0.10100000352E+00 0. -1.
       -3    1    3    3    0  502 -0.47740779106E+03 -0.55892257984E+03 -0.26680555683E+03  0.78198328919E+03  0.10100000352E+00 0.  1.
</event>
<event>
 5   0  0.1694830E-04  0.1277612E+04  0.7818609E-02  0.9047510E-01
        1   -1    0    0  501    0  0.00000000000E+00  0.00000000000E+00  0.95843629097E+03  0.95843629098E+03  0.50400001928E-02 0. -1.
       -1   -1    0    0    0  501  0.00000000000E+00  0.00000000000E+00 -0.42576967523E+03  0.42576967526E+03  0.50400001928E-02 0.  1.
    10030    2    1    2    0    0  0.00000000000E+00  0.00000000000E+00  0.53266661573E+03  0.13842059662E+04  0.12776120043E+04 0.  0.
        1    1    3    3  502    0  0.29313932928E+03  0.22950534014E+03 -0.29608148534E+03  0.47567595431E+03  0.50400001928E-02 0.  1.
       -1    1    3    3    0  502 -0.29313932928E+03 -0.22950534014E+03  0.82874810107E+03  0.90853001193E+03  0.50400001928E-02 0. -1.
</event>
<event>
 5   0  0.1711979E-04  0.1914749E+04  0.7818609E-02  0.8647550E-01
        1   -1    0    0  501    0  0.00000000000E+00  0.00000000000E+00  0.16293822756E+04  0.16293822756E+04  0.50400001928E-02 0. -1.
       -1   -1    0    0    0  501  0.00000000000E+00  0.00000000000E+00 -0.56252346292E+03  0.56252346294E+03  0.50400001928E-02 0.  1.
    10030    2    1    2    0    0  0.00000000000E+00  0.00000000000E+00  0.10668588127E+04  0.21919057385E+04  0.19147488192E+04 0.  0.
        4    1    3    3  502    0 -0.78313980147E+02  0.37999180726E+02  0.16248419238E+04  0.16271723657E+04  0.12699999809E+01 0. -1.
       -4    1    3    3    0  502  0.78313980147E+02 -0.37999180726E+02 -0.55798311115E+03  0.56473337289E+03  0.12699999809E+01 0.  1.
</event>
<event>
 5   0  0.1813834E-04  0.1873103E+04  0.7818609E-02  0.8668362E-01
       -1   -1    0    0    0  501  0.00000000000E+00  0.00000000000E+00  0.19448328872E+04  0.19448328872E+04  0.50400001928E-02 0.  1.
        1   -1    0    0  501    0  0.00000000000E+00  0.00000000000E+00 -0.45100480072E+03  0.45100480075E+03  0.50400001928E-02 0. -1.
    10030    2    1    2    0    0  0.00000000000E+00  0.00000000000E+00  0.14938280865E+04  0.23958376880E+04  0.18731032740E+04 0.  0.
        5    1    3    3  502    0  0.38408250292E+03  0.20339613935E+02 -0.34530866111E+03  0.51690737118E+03  0.46999998093E+01 0. -1.
       -5    1    3    3    0  502 -0.38408250292E+03 -0.20339613935E+02  0.18391367476E+04  0.18789303168E+04  0.46999998093E+01 0.  1.
</event>
<event>
 5   0  0.3535876E-04  0.1703138E+04  0.7818609E-02  0.8759577E-01
        2   -1    0    0  501    0  0.00000000000E+00  0.00000000000E+00  0.55518888833E+03  0.55518888834E+03  0.25500000920E-02 0. -1.
       -2   -1    0    0    0  501  0.00000000000E+00  0.00000000000E+00 -0.13061672463E+04  0.13061672463E+04  0.25500000920E-02 0.  1.
    10030    2    1    2    0    0  0.00000000000E+00  0.00000000000E+00 -0.75097835795E+03  0.18613561346E+04  0.17031377413E+04 0.  0.
        2    1    3    3  502    0  0.54331194548E+03 -0.65053942489E+03 -0.46548009004E+03  0.96698558814E+03  0.25500000920E-02 0.  1.
       -2    1    3    3    0  502 -0.54331194548E+03  0.65053942489E+03 -0.28549826791E+03  0.89437054649E+03  0.25500000920E-02 0. -1.
</event>
<event>
 5   0  0.1782613E-04  0.1896727E+04  0.7818609E-02  0.8656487E-01
        1   -1    0    0  501    0  0.00000000000E+00  0.00000000000E+00  0.15982372550E+04  0.15982372550E+04  0.50400001928E-02 0.  1.
       -1   -1    0    0    0  501  0.00000000000E+00  0.00000000000E+00 -0.56274103340E+03  0.56274103343E+03  0.50400001928E-02 0. -1.
    10030    2    1    2    0    0  0.00000000000E+00  0.00000000000E+00  0.10354962216E+04  0.21609782884E+04  0.18967273758E+04 0.  0.
        3    1    3    3  502    0  0.86052000512E+03 -0.25355390901E+03  0.16730892804E+03  0.91256591630E+03  0.10100000352E+00 0. -1.
       -3    1    3    3    0  502 -0.86052000512E+03  0.25355390901E+03  0.86818729356E+03  0.12484123721E+04  0.10100000352E+00 0.  1.
</event>
<event>
 5   0  0.1711979E-04  0.1961223E+04  0.7818609E-02  0.8624968E-01
       -1   -1    0    0    0  501  0.00000000000E+00  0.00000000000E+00  0.71974406247E+03  0.71974406249E+03  0.50400001928E-02 0.  1.
        1   -1    0    0  501    0  0.00000000000E+00  0.00000000000E+00 -0.13360286702E+04  0.13360286702E+04  0.50400001928E-02 0. -1.
    10030    2    1    2    0    0  0.00000000000E+00  0.00000000000E+00 -0.61628460769E+03  0.20557727327E+04  0.19612227846E+04 0.  0.
        4    1    3    3  502    0  0.47018268070E+03 -0.86044788515E+03 -0.32118286950E+03  0.10317956992E+04  0.12699999809E+01 0.  1.
       -4    1    3    3    0  502 -0.47018268070E+03  0.86044788515E+03 -0.29510173819E+03  0.10239770335E+04  0.12699999809E+01 0. -1.
</event>
<event>
 5   0  0.3516539E-04  0.1905613E+04  0.7818609E-02  0.8652067E-01
       -2   -1    0    0    0  501  0.00000000000E+00  0.00000000000E+00  0.39378891067E+03  0.39378891068E+03  0.25500000920E-02 0.  1.
        2   -1    0    0  501    0  0.00000000000E+00  0.00000000000E+00 -0.23053981979E+04  0.23053981979E+04  0.25500000920E-02 0. -1.
    10030    2    1    2    0    0  0.00000000000E+00  0.00000000000E+00 -0.19116092873E+04  0.26991871086E+04  0.19056130195E+04 0.  0.
        4    1    3    3  502    0 -0.44141419079E+03 -0.37021691958E+03 -0.20307434086E+04  0.21108830995E+04  0.12699999809E+01 0. -1.
       -4    1    3    3    0  502  0.44141419079E+03  0.37021691958E+03  0.11913412132E+03  0.58830400912E+03  0.12699999809E+01 0.  1.
</event>
<event>
 5   0  0.1711979E-04  0.1908733E+04  0.7818609E-02  0.8650521E-01
       -1   -1    0    0    0  501  0.00000000000E+00  0.00000000000E+00  0.62566560319E+03  0.62566560321E+03  0.50400001928E-02 0. -1.
        1   -1    0    0  501    0  0.00000000000E+00  0.00000000000E+00 -0.14557548083E+04  0.14557548083E+04  0.50400001928E-02 0.  1.
    10030    2    1    2    0    0  0.00000000000E+00  0.00000000000E+00 -0.83008920514E+03  0.20814204115E+04  0.19087333080E+04 0.  0.
        4    1    3    3  502    0 -0.63701015866E+03  0.35199533397E+03  0.25816754660E+03  0.77222713782E+03  0.12699999809E+01 0. -1.
       -4    1    3    3    0  502  0.63701015866E+03 -0.35199533397E+03 -0.10882567517E+04  0.13091932737E+04  0.12699999809E+01 0.  1.
</event>
<event>
 5   0  0.1711979E-04  0.1941846E+04  0.7818609E-02  0.8634303E-01
       -1   -1    0    0    0  501  0.00000000000E+00  0.00000000000E+00  0.64610683584E+03  0.64610683586E+03  0.50400001928E-02 0. -1.
        1   -1    0    0  501    0  0.00000000000E+00  0.00000000000E+00 -0.14590337284E+04  0.14590337284E+04  0.50400001928E-02 0.  1.
    10030    2    1    2    0    0  0.00000000000E+00  0.00000000000E+00 -0.81292689256E+03  0.21051405643E+04  0.19418461995E+04 0.  0.
        4    1    3    3  502    0 -0.76759601996E+03  0.50633641674E+03 -0.68633704881E+02  0.92211301645E+03  0.12699999809E+01 0. -1.
       -4    1    3    3    0  502  0.76759601996E+03 -0.50633641674E+03 -0.74429318768E+03  0.11830275478E+04  0.12699999809E+01 0.  1.
</event>
<event>
 5   0  0.1694830E-04  0.1886350E+04  0.7818609E-02  0.8661681E-01
       -1   -1    0    0    0  501  0.00000000000E+00  0.00000000000E+00  0.74868489933E+03  0.74868489935E+03  0.50400001928E-02 0. -1.
        1   -1    0    0  501    0  0.00000000000E+00  0.00000000000E+00 -0.11881883097E+04  0.11881883098E+04  0.50400001928E-02 0.  1.
    10030    2    1    2    0    0  0.00000000000E+00  0.00000000000E+00 -0.43950341042E+03  0.19368732091E+04  0.18863495382E+04 0.  0.
        1    1    3    3  502    0 -0.30724207554E+03  0.71883304934E+03  0.32207503032E+03  0.84548859897E+03  0.50400001928E-02 0. -1.
       -1    1    3    3    0  502  0.30724207554E+03 -0.71883304934E+03 -0.76157844074E+03  0.10913846101E+04  0.50400001928E-02 0.  1.
</event>
<event>
 5   0  0.3720978E-04  0.1877496E+04  0.7818609E-02  0.8666140E-01
       -2   -1    0    0    0  501  0.00000000000E+00  0.00000000000E+00  0.49772968509E+03  0.49772968510E+03  0.25500000920E-02 0. -1.
        2   -1    0    0  501    0  0.00000000000E+00  0.00000000000E+00 -0.17705355277E+04  0.17705355277E+04  0.25500000920E-02 0.  1.
    10030    2    1    2    0    0  0.00000000000E+00  0.00000000000E+00 -0.12728058426E+04  0.22682652128E+04  0.18774963016E+04 0.  0.
        1    1    3    3  502    0 -0.75205159028E+02 -0.52914958397E+03 -0.15687755847E+04  0.16573207093E+04  0.50400001928E-02 0.  1.
       -1    1    3    3    0  502  0.75205159028E+02  0.52914958397E+03  0.29596974209E+03  0.61094450355E+03  0.50400001928E-02 0. -1.
</event>
<event>
 5   0  0.1782613E-04  0.1909864E+04  0.7818609E-02  0.8649962E-01
        1   -1    0    0  501    0  0.00000000000E+00  0.00000000000E+00  0.57090925926E+03  0.57090925929E+03  0.50400001928E-02 0. -1.
       -1   -1    0    0    0  501  0.00000000000E+00  0.00000000000E+00 -0.15972681960E+04  0.15972681960E+04  0.50400001928E-02 0.  1.
    10030    2    1    2    0    0  0.00000000000E+00  0.00000000000E+00 -0.10263589367E+04  0.21681774553E+04  0.19098640817E+04 0.  0.
        3    1    3    3  502    0 -0.47808837105E+03  0.80051470906E+03 -0.74722570251E+03  0.11948801407E+04  0.10100000352E+00 0.  1.
       -3    1    3    3    0  502  0.47808837105E+03 -0.80051470906E+03 -0.27913323423E+03  0.97329731460E+03  0.10100000352E+00 0. -1.
</event>
<event>
 5   0  0.3535876E-04  0.1933833E+04  0.7818609E-02  0.8638196E-01
       -2   -1    0    0    0  501  0.00000000000E+00  0.00000000000E+00  0.13470337331E+04  0.13470337331E+04  0.25500000920E-02 0. -1.
        2   -1    0    0  501    0  0.00000000000E+00  0.00000000000E+00 -0.69406416161E+03  0.69406416162E+03  0.25500000920E-02 0.  1.
    10030    2    1    2    0    0  0.00000000000E+00  0.00000000000E+00  0.65296957145E+03  0.20410978947E+04  0.19338333316E+04 0.  0.
        2    1    3    3  502    0  0.71398704041E+03  0.20991730851E+03 -0.32507723205E+03  0.81210712168E+03  0.25500000920E-02 0.  1.
       -2    1    3    3    0  502 -0.71398704041E+03 -0.20991730851E+03  0.97804680349E+03  0.12289907730E+04  0.25500000920E-02 0. -1.
</event>
<event>
 5   0  0.3459485E-04  0.1903351E+04  0.7818609E-02  0.8653190E-01
        2   -1    0    0  501    0  0.00000000000E+00  0.00000000000E+00  0.10656864856E+04  0.10656864856E+04  0.25500000920E-02 0.  1.
       -2   -1    0    0    0  501  0.00000000000E+00  0.00000000000E+00 -0.84986139426E+03  0.84986139427E+03  0.25500000920E-02 0. -1.
    10030    2    1    2    0    0  0.00000000000E+00  0.00000000000E+00  0.21582509137E+03  0.19155478799E+04  0.19033505221E+04 0.  0.
        3    1    3    3  502    0 -0.82240680377E+03 -0.23021385136E+02 -0.37348620407E+03  0.90353466447E+03  0.10100000352E+00 0. -1.
       -3    1    3    3    0  502  0.82240680377E+03  0.23021385136E+02  0.58931129544E+03  0.10120132154E+04  0.10100000352E+00 0.  1.
</event>
<event>
 5   0  0.1287000E-04  0.1898862E+04  0.7818609E-02  0.8655423E-01
        3   -1    0    0  501    0  0.00000000000E+00  0.00000000000E+00  0.12882449135E+04  0.12882449175E+04  0.10100000352E+00 0. -1.
       -3   -1    0    0    0  501  0.00000000000E+00  0.00000000000E+00 -0.69972621866E+03  0.69972622595E+03  0.10100000352E+00 0.  1.
    10030    2    1    2    0    0  0.00000000000E+00  0.00000000000E+00  0.58851869488E+03  0.19879711435E+04  0.18988615044E+04 0.  0.
        5    1    3    3  502    0  0.59008465703E+03  0.32773618051E+03 -0.40474500521E+03  0.78705242247E+03  0.46999998093E+01 0.  1.
       -5    1    3    3    0  502 -0.59008465703E+03 -0.32773618051E+03  0.99326370009E+03  0.12009187210E+04  0.46999998093E+01 0. -1.
</event>
<event>
 5   0  0.1813834E-04  0.1794954E+04  0.7818609E-02  0.8708987E-01
       -1   -1    0    0    0  501  0.00000000000E+00  0.00000000000E+00  0.70641379974E+03  0.70641379976E+03  0.50400001928E-02 0. -1.
        1   -1    0    0  501    0  0.00000000000E+00  0.00000000000E+00 -0.11402172499E+04  0.11402172499E+04  0.50400001928E-02 0.  1.
    10030    2    1    2    0    0  0.00000000000E+00  0.00000000000E+00 -0.43380345013E+03  0.18466310496E+04  0.17949542613E+04 0.  0.
        5    1    3    3  502    0  0.27690309973E+03 -0.83969109187E+03 -0.37523733597E+03  0.96051111638E+03  0.46999998093E+01 0.  1.
       -5    1    3    3    0  502 -0.27690309973E+03  0.83969109187E+03 -0.58566114164E+02  0.88611993326E+03  0.46999998093E+01 0. -1.
</event>
<event>
 5   0  0.3516539E-04  0.1913452E+04  0.7818609E-02  0.8648189E-01
        2   -1    0    0  501    0  0.00000000000E+00  0.00000000000E+00  0.10930219848E+04  0.10930219848E+04  0.25500000920E-02 0.  1.
       -2   -1    0    0    0  501  0.00000000000E+00  0.00000000000E+00 -0.83742541006E+03  0.83742541007E+03  0.25500000920E-02 0. -1.
    10030    2    1    2    0    0  0.00000000000E+00  0.00000000000E+00  0.25559657474E+03  0.19304473949E+04  0.19134517332E+04 0.  0.
        4    1    3    3  502    0  0.27212668918E+03  0.52310310927E+03  0.88790447415E+03  0.10658638590E+04  0.12699999809E+01 0.  1.
       -4    1    3    3    0  502 -0.27212668918E+03 -0.52310310927E+03 -0.63230789940E+03  0.86458353584E+03  0.12699999809E+01 0. -1.
</event>
<event>
 5   0  0.3516539E-04  0.1911062E+04  0.7818609E-02  0.8649370E-01
        2   -1    0    0  501    0  0.00000000000E+00  0.00000000000E+00  0.17286701388E+04  0.17286701388E+04  0.25500000920E-02 0. -1.
       -2   -1    0    0    0  501  0.00000000000E+00  0.00000000000E+00 -0.52817425749E+03  0.52817425750E+03  0.25500000920E-02 0.  1.
    10030    2    1    2    0    0  0.00000000000E+00  0.00000000000E+00  0.12004958813E+04  0.22568443963E+04  0.19110615553E+04 0.  0.
        4    1    3    3  502    0  0.11792030588E+03 -0.81196315330E+03  0.21892166492E+02  0.82077417157E+03  0.12699999809E+01 0.  1.
       -4    1    3    3    0  502 -0.11792030588E+03  0.81196315330E+03  0.11786037148E+04  0.14360702247E+04  0.12699999809E+01 0. -1.
</event>
<event>
 5   0  0.3535876E-04  0.1865013E+04  0.7818609E-02  0.8672470E-01
        2   -1    0    0  501    0  0.00000000000E+00  0.00000000000E+00  0.20389796238E+04  0.20389796238E+04  0.25500000920E-02 0. -1.
       -2   -1    0    0    0  501  0.00000000000E+00  0.00000000000E+00 -0.42647223191E+03  0.42647223191E+03  0.25500000920E-02 0.  1.
    10030    2    1    2    0    0  0.00000000000E+00  0.00000000000E+00  0.16125073919E+04  0.24654518558E+04  0.18650128053E+04 0.  0.
        2    1    3    3  502    0  0.32087081163E+03  0.55531145386E+03 -0.88618213993E+02  0.64744272055E+03  0.25500000920E-02 0.  1.
       -2    1    3    3    0  502 -0.32087081163E+03 -0.55531145386E+03  0.17011256059E+04  0.18180091352E+04  0.25500000920E-02 0. -1.
</event>
<event>
 5   0  0.1813834E-04  0.1862290E+04  0.7818609E-02  0.8673858E-01
       -1   -1    0    0    0  501  0.00000000000E+00  0.00000000000E+00  0.35936204366E+03  0.35936204369E+03  0.50400001928E-02 0.  1.
        1   -1    0    0  501    0  0.00000000000E+00  0.00000000000E+00 -0.24126957798E+04  0.24126957798E+04  0.50400001928E-02 0. -1.
    10030    2    1    2    0    0  0.00000000000E+00  0.00000000000E+00 -0.20533337361E+04  0.27720578235E+04  0.18622902955E+04 0.  0.
        5    1    3    3  502    0 -0.55034164228E+03  0.69314775026E+03 -0.59607644766E+03  0.10670796354E+04  0.46999998093E+01 0.  1.
       -5    1    3    3    0  502  0.55034164228E+03 -0.69314775026E+03 -0.14572572884E+04  0.17049781880E+04  0.46999998093E+01 0. -1.
</event>
<event>
 5   0  0.3459485E-04  0.1900677E+04  0.7818609E-02  0.8654519E-01
       -2   -1    0    0    0  501  0.00000000000E+00  0.00000000000E+00  0.44006502268E+03  0.44006502268E+03  0.25500000920E-02 0.  1.
        2   -1    0    0  501    0  0.00000000000E+00  0.00000000000E+00 -0.20522951575E+04  0.20522951575E+04  0.25500000920E-02 0. -1.
    10030    2    1    2    0    0  0.00000000000E+00  0.00000000000E+00 -0.16122301348E+04  0.24923601801E+04  0.19006770531E+04 0.  0.
        3    1    3    3  502    0 -0.80284357272E+03  0.26723025178E+03 -0.13734305650E+04  0.16131588070E+04  0.10100000352E+00 0. -1.
       -3    1    3    3    0  502  0.80284357272E+03 -0.26723025178E+03 -0.23879956981E+03  0.87920137311E+03  0.10100000352E+00 0.  1.
</event>
<event>
 5   0  0.1287000E-04  0.1743908E+04  0.7818609E-02  0.8736711E-01
       -3   -1    0    0    0  501  0.00000000000E+00  0.00000000000E+00  0.76642585167E+03  0.76642585832E+03  0.10100000352E+00 0.  1.
        3   -1    0    0  501    0  0.00000000000E+00  0.00000000000E+00 -0.99201174927E+03  0.99201175441E+03  0.10100000352E+00 0. -1.
    10030    2    1    2    0    0  0.00000000000E+00  0.00000000000E+00 -0.22558589760E+03  0.17584376127E+04  0.17439076354E+04 0.  0.
        4    1    3    3  502    0  0.73100095378E+03 -0.30425014101E+03  0.25545020812E+03  0.83197774277E+03  0.12699999809E+01 0.  1.
       -4    1    3    3    0  502 -0.73100095378E+03  0.30425014101E+03 -0.48103610572E+03  0.92645986996E+03  0.12699999809E+01 0. -1.
</event>
<event>
 5   0  0.1782613E-04  0.1812397E+04  0.7818609E-02  0.8699734E-01
       -1   -1    0    0    0  501  0.00000000000E+00  0.00000000000E+00  0.54758651745E+03  0.54758651748E+03  0.50400001928E-02 0.  1.
        1   -1    0    0  501    0  0.00000000000E+00  0.00000000000E+00 -0.14996646129E+04  0.14996646129E+04  0.50400001928E-02 0. -1.
    10030    2    1    2    0    0  0.00000000000E+00  0.00000000000E+00 -0.95207809540E+03  0.20472511303E+04  0.18123974429E+04 0.  0.
        3    1    3    3  502    0  0.87618805110E+03  0.15450057483E+03 -0.67044589396E+03  0.11140348448E+04  0.10100000352E+00 0. -1.
       -3    1    3    3    0  502 -0.87618805110E+03 -0.15450057483E+03 -0.28163220144E+03  0.93321628554E+03  0.10100000352E+00 0.  1.
</event>
<event>
 5   0  0.1287000E-04  0.1902878E+04  0.7818609E-02  0.8653425E-01
        3   -1    0    0  501    0  0.00000000000E+00  0.00000000000E+00  0.13558725868E+04  0.13558725906E+04  0.10100000352E+00 0.  1.
       -3   -1    0    0    0  501  0.00000000000E+00  0.00000000000E+00 -0.66764069403E+03  0.66764070167E+03  0.10100000352E+00 0. -1.
    10030    2    1    2    0    0  0.00000000000E+00  0.00000000000E+00  0.68823189276E+03  0.20235132922E+04  0.19028775330E+04 0.  0.
        1    1    3    3  502    0  0.15794896610E+03  0.79742643206E+03 -0.18159240764E+03  0.83295413618E+03  0.50400001928E-02 0. -1.
       -1    1    3    3    0  502 -0.15794896610E+03 -0.79742643206E+03  0.86982430040E+03  0.11905591560E+04  0.50400001928E-02 0.  1.
</event>
<event>
 5   0  0.3516539E-04  0.1636402E+04  0.7818609E-02  0.8798492E-01
        2   -1    0    0  501    0  0.00000000000E+00  0.00000000000E+00  0.71430481367E+03  0.71430481368E+03  0.25500000920E-02 0.  1.
       -2   -1    0    0    0  501  0.00000000000E+00  0.00000000000E+00 -0.93720875928E+03  0.93720875928E+03  0.25500000920E-02 0. -1.
    10030    2    1    2    0    0  0.00000000000E+00  0.00000000000E+00 -0.22290394560E+03  0.16515135730E+04  0.16364018188E+04 0.  0.
        4    1    3    3  502    0 -0.29794484628E+02  0.81003052528E+03  0.99485957763E+00  0.81057989480E+03  0.12699999809E+01 0.  1.
       -4    1    3    3    0  502  0.29794484628E+02 -0.81003052528E+03 -0.22389880518E+03  0.84093367816E+03  0.12699999809E+01 0. -1.
</event>
<event>
 5   0  0.1711979E-04  0.1894660E+04  0.7818609E-02  0.8657519E-01
       -1   -1    0    0    0  501  0.00000000000E+00  0.00000000000E+00  0.83567143371E+03  0.83567143372E+03  0.50400001928E-02 0.  1.
        1   -1    0    0  501    0  0.00000000000E+00  0.00000000000E+00 -0.10739080237E+04  0.10739080237E+04  0.50400001928E-02 0. -1.
    10030    2    1    2    0    0  0.00000000000E+00  0.00000000000E+00 -0.23823658995E+03  0.19095794574E+04  0.18946601361E+04 0.  0.
        4    1    3    3  502    0  0.54289039450E+03 -0.73055282638E+03 -0.38385609604E+03  0.98781806419E+03  0.12699999809E+01 0. -1.
       -4    1    3    3    0  502 -0.54289039450E+03  0.73055282638E+03  0.14561950609E+03  0.92176139321E+03  0.12699999809E+01 0.  1.
</event>
<event>
 5   0  0.1782613E-04  0.1926007E+04  0.7818609E-02  0.8642018E-01
       -1   -1    0    0    0  501  0.00000000000E+00  0.00000000000E+00  0.61777671210E+03  0.61777671212E+03  0.50400001928E-02 0. -1.
        1   -1    0    0  501    0  0.00000000000E+00  0.00000000000E+00 -0.15011500149E+04  0.15011500149E+04  0.50400001928E-02 0.  1.
    10030    2    1    2    0    0  0.00000000000E+00  0.00000000000E+00 -0.88337330276E+03  0.21189267270E+04  0.19260067711E+04 0.  0.
        3    1    3    3  502    0  0.20406685802E+03  0.60455028771E+03 -0.12352190542E+04  0.13902843072E+04  0.10100000352E+00 0.  1.
       -3    1    3    3    0  502 -0.20406685802E+03 -0.60455028771E+03  0.35184575141E+03  0.72864241978E+03  0.10100000352E+00 0. -1.
</event>
<event>
 5   0  0.3535876E-04  0.1912972E+04  0.7818609E-02  0.8648426E-01
        2   -1    0    0  501    0  0.00000000000E+00  0.00000000000E+00  0.16177531405E+04  0.16177531405E+04  0.25500000920E-02 0.  1.
       -2   -1    0    0    0  501  0.00000000000E+00  0.00000000000E+00 -0.56551599062E+03  0.56551599063E+03  0.25500000920E-02 0. -1.
    10030    2    1    2    0    0  0.00000000000E+00  0.00000000000E+00  0.10522371499E+04  0.21832691311E+04  0.19129717926E+04 0.  0.
        2    1    3    3  502    0  0.53264327977E+03 -0.52297435290E+03 -0.15642501538E+03  0.76267937085E+03  0.25500000920E-02 0. -1.
       -2    1    3    3    0  502 -0.53264327977E+03  0.52297435290E+03  0.12086621653E+04  0.14205897603E+04  0.25500000920E-02 0.  1.
</event>
<event>
 5   0  0.1782613E-04  0.1887573E+04  0.7818609E-02  0.8661067E-01
       -1   -1    0    0    0  501  0.00000000000E+00  0.00000000000E+00  0.85280055546E+03  0.85280055548E+03  0.50400001928E-02 0.  1.
        1   -1    0    0  501    0  0.00000000000E+00  0.00000000000E+00 -0.10444798056E+04  0.10444798057E+04  0.50400001928E-02 0. -1.
    10030    2    1    2    0    0  0.00000000000E+00  0.00000000000E+00 -0.19167925018E+03  0.18972803611E+04  0.18875730009E+04 0.  0.
        3    1    3    3  502    0  0.23829722668E+03  0.28901128856E+02 -0.10132834395E+04  0.10413280859E+04  0.10100000352E+00 0. -1.
       -3    1    3    3    0  502 -0.23829722668E+03 -0.28901128856E+02  0.82160418929E+03  0.85595227528E+03  0.10100000352E+00 0.  1.
</event>
<event>
 5   0  0.3516539E-04  0.1878091E+04  0.7818609E-02  0.8665839E-01
        2   -1    0    0  501    0  0.00000000000E+00  0.00000000000E+00  0.10065293728E+04  0.10065293728E+04  0.25500000920E-02 0. -1.
       -2   -1    0    0    0  501  0.00000000000E+00  0.00000000000E+00 -0.87608641571E+03  0.87608641571E+03  0.25500000920E-02 0.  1.
    10030    2    1    2    0    0  0.00000000000E+00  0.00000000000E+00  0.13044295707E+03  0.18826157885E+04  0.18780912763E+04 0.  0.
        4    1    3    3  502    0 -0.15327607028E+03  0.63266583437E+03 -0.61319955614E+03  0.89430135875E+03  0.12699999809E+01 0. -1.
       -4    1    3    3    0  502  0.15327607028E+03 -0.63266583437E+03  0.74364251321E+03  0.98831442975E+03  0.12699999809E+01 0.  1.
</event>
<event>
 5   0  0.3720978E-04  0.1886196E+04  0.7818609E-02  0.8661758E-01
       -2   -1    0    0    0  501  0.00000000000E+00  0.00000000000E+00  0.44399530633E+03  0.44399530633E+03  0.25500000920E-02 0. -1.
        2   -1    0    0  501    0  0.00000000000E+00  0.00000000000E+00 -0.20032506552E+04  0.20032506552E+04  0.25500000920E-02 0.  1.
    10030    2    1    2    0    0  0.00000000000E+00  0.00000000000E+00 -0.15592553488E+04  0.24472459615E+04  0.18861960538E+04 0.  0.
        1    1    3    3  502    0  0.89531556088E+03  0.25010478189E+03 -0.98596526925E+03  0.13550903541E+04  0.50400001928E-02 0.  1.
       -1    1    3    3    0  502 -0.89531556088E+03 -0.25010478189E+03 -0.57329007959E+03  0.10921556074E+04  0.50400001928E-02 0. -1.
</event>
<event>
 5   0  0.3459485E-04  0.1885376E+04  0.7818609E-02  0.8662170E-01
        2   -1    0    0  501    0  0.00000000000E+00  0.00000000000E+00  0.76841373281E+03  0.76841373281E+03  0.25500000920E-02 0. -1.
       -2   -1    0    0    0  501  0.00000000000E+00  0.00000000000E+00 -0.11564873393E+04  0.11564873393E+04  0.25500000920E-02 0.  1.
    10030    2    1    2    0    0  0.00000000000E+00  0.00000000000E+00 -0.38807360650E+03  0.19249010721E+04  0.18853760934E+04 0.  0.
        3    1    3    3  502    0 -0.32446747522E+03  0.19726847629E+03  0.68687630208E+03  0.78485225283E+03  0.10100000352E+00 0. -1.
       -3    1    3    3    0  502  0.32446747522E+03 -0.19726847629E+03 -0.10749499086E+04  0.11400488193E+04  0.10100000352E+00 0.  1.
</event>
<event>
 5   0  0.3459485E-04  0.1876141E+04  0.7818609E-02  0.8666825E-01
        2   -1    0    0  501    0  0.00000000000E+00  0.00000000000E+00  0.64767968773E+03  0.64767968773E+03  0.25500000920E-02 0.  1.
       -2   -1    0    0    0  501  0.00000000000E+00  0.00000000000E+00 -0.13586593071E+04  0.13586593071E+04  0.25500000920E-02 0. -1.
    10030    2    1    2    0    0  0.00000000000E+00  0.00000000000E+00 -0.71097961939E+03  0.20063389948E+04  0.18761407578E+04 0.  0.
        3    1    3    3  502    0  0.27949240924E+03  0.88886768678E+03 -0.47152924280E+03  0.10442900021E+04  0.10100000352E+00 0.  1.
       -3    1    3    3    0  502 -0.27949240924E+03 -0.88886768678E+03 -0.23945037659E+03  0.96204899277E+03  0.10100000352E+00 0. -1.
</event>
<event>
 5   0  0.3623359E-04  0.1884588E+04  0.7818609E-02  0.8662566E-01
        2   -1    0    0  501    0  0.00000000000E+00  0.00000000000E+00  0.17631891938E+04  0.17631891938E+04  0.25500000920E-02 0.  1.
       -2   -1    0    0    0  501  0.00000000000E+00  0.00000000000E+00 -0.50358624375E+03  0.50358624375E+03  0.25500000920E-02 0. -1.
    10030    2    1    2    0    0  0.00000000000E+00  0.00000000000E+00  0.12596029500E+04  0.22667754375E+04  0.18845878309E+04 0.  0.
        5    1    3    3  502    0 -0.65337630075E+03 -0.67176268379E+03  0.74844646803E+03  0.11993164300E+04  0.46999998093E+01 0.  1.
       -5    1    3    3    0  502  0.65337630075E+03  0.67176268379E+03  0.51115648200E+03  0.10674590076E+04  0.46999998093E+01 0. -1.
</event>
<event>
 5   0  0.1782613E-04  0.1889455E+04  0.7818609E-02  0.8660123E-01
        1   -1    0    0  501    0  0.00000000000E+00  0.00000000000E+00  0.55206130009E+03  0.55206130011E+03  0.50400001928E-02 0. -1.
       -1   -1    0    0    0  501  0.00000000000E+00  0.00000000000E+00 -0.16166860981E+04  0.16166860981E+04  0.50400001928E-02 0.  1.
    10030    2    1    2    0    0  0.00000000000E+00  0.00000000000E+00 -0.10646247980E+04  0.21687473983E+04  0.18894547671E+04 0.  0.
        3    1    3    3  502    0  0.53006319195E+02  0.20393355020E+03 -0.15893705642E+04  0.16032770700E+04  0.10100000352E+00 0.  1.
       -3    1    3    3    0  502 -0.53006319195E+02 -0.20393355020E+03  0.52474576616E+03  0.56547032821E+03  0.10100000352E+00 0. -1.
</event>
<event>
 5   0  0.1711979E-04  0.1882115E+04  0.7818609E-02  0.8663810E-01
       -1   -1    0    0    0  501  0.00000000000E+00  0.00000000000E+00  0.98074383469E+03  0.98074383470E+03  0.50400001928E-02 0.  1.
        1   -1    0    0  501    0  0.00000000000E+00  0.00000000000E+00 -0.90297702777E+03  0.90297702779E+03  0.50400001928E-02 0. -1.
    10030    2    1    2    0    0  0.00000000000E+00  0.00000000000E+00  0.77766806917E+02  0.18837208625E+04  0.18821149305E+04 0.  0.
        4    1    3    3  502    0  0.68239591415E+01  0.62652553449E+03 -0.66386008620E+03  0.91284863955E+03  0.12699999809E+01 0. -1.
       -4    1    3    3    0  502 -0.68239591415E+01 -0.62652553449E+03  0.74162689312E+03  0.97087222294E+03  0.12699999809E+01 0.  1.
</event>
<event>
 5   0  0.3516539E-04  0.2040003E+04  0.7818609E-02  0.8588143E-01
       -2   -1    0    0    0  501  0.00000000000E+00  0.00000000000E+00  0.12669647181E+04  0.12669647181E+04  0.25500000920E-02 0.  1.
        2   -1    0    0  501    0  0.00000000000E+00  0.00000000000E+00 -0.82117787255E+03  0.82117787255E+03  0.25500000920E-02 0. -1.
    10030    2    1    2    0    0  0.00000000000E+00  0.00000000000E+00  0.44578684554E+03  0.20881425906E+04  0.20400033253E+04 0.  0.
        4    1    3    3  502    0 -0.77741713979E+03  0.66343912704E+02  0.89537670549E+03  0.11876363002E+04  0.12699999809E+01 0.  1.
       -4    1    3    3    0  502  0.77741713979E+03 -0.66343912704E+02 -0.44958985995E+03  0.90050629041E+03  0.12699999809E+01 0. -1.
</event>
<event>
 5   0  0.1782613E-04  0.1910665E+04  0.7818609E-02  0.8649566E-01
        1   -1    0    0  501    0  0.00000000000E+00  0.00000000000E+00  0.13252751013E+04  0.13252751013E+04  0.50400001928E-02 0. -1.
       -1   -1    0    0    0  501  0.00000000000E+00  0.00000000000E+00 -0.68865725939E+03  0.68865725941E+03  0.50400001928E-02 0.  1.
    10030    2    1    2    0    0  0.00000000000E+00  0.00000000000E+00  0.63661784191E+03  0.20139323607E+04  0.19106651399E+04 0.  0.
        3    1    3    3  502    0 -0.55717489466E+03  0.34302456416E+03  0.10520280902E+04  0.12388998457E+04  0.10100000352E+00 0. -1.
       -3    1    3    3    0  502  0.55717489466E+03 -0.34302456416E+03 -0.41541024826E+03  0.77503251507E+03  0.10100000352E+00 0.  1.
</event>
<event>
 5   0  0.1758946E-04  0.1755357E+04  0.7818609E-02  0.8730407E-01
       -1   -1    0    0    0  501  0.00000000000E+00  0.00000000000E+00  0.60770872848E+03  0.60770872850E+03  0.50400001928E-02 0. -1.
        1   -1    0    0  501    0  0.00000000000E+00  0.00000000000E+00 -0.12675805051E+04  0.12675805052E+04  0.50400001928E-02 0.  1.
    10030    2    1    2    0    0  0.00000000000E+00  0.00000000000E+00 -0.65987177667E+03  0.18752892337E+04  0.17553572139E+04 0.  0.
        2    1    3    3  502    0  0.35303714761E+02  0.19519841479E+03  0.58344688156E+03  0.61624592252E+03  0.25500000920E-02 0. -1.
       -2    1    3    3    0  502 -0.35303714761E+02 -0.19519841479E+03 -0.12433186582E+04  0.12590433111E+04  0.25500000920E-02 0.  1.
</event>
<event>
 5   0  0.1782613E-04  0.1934222E+04  0.7818609E-02  0.8638007E-01
        1   -1    0    0  501    0  0.00000000000E+00  0.00000000000E+00  0.62441657324E+03  0.62441657326E+03  0.50400001928E-02 0. -1.
       -1   -1    0    0    0  501  0.00000000000E+00  0.00000000000E+00 -0.14978847287E+04  0.14978847287E+04  0.50400001928E-02 0.  1.
    10030    2    1    2    0    0  0.00000000000E+00  0.00000000000E+00 -0.87346815545E+03  0.21223013020E+04  0.19342223755E+04 0.  0.
        3    1    3    3  502    0 -0.69471712047E+03  0.16457623946E+03  0.27907091628E+03  0.76654928255E+03  0.10100000352E+00 0. -1.
       -3    1    3    3    0  502  0.69471712047E+03 -0.16457623946E+03 -0.11525390717E+04  0.13557520194E+04  0.10100000352E+00 0.  1.
</event>
<event>
 5   0  0.1782613E-04  0.1524628E+04  0.7818609E-02  0.8868239E-01
       -1   -1    0    0    0  501  0.00000000000E+00  0.00000000000E+00  0.53260016491E+03  0.53260016494E+03  0.50400001928E-02 0.  1.
        1   -1    0    0  501    0  0.00000000000E+00  0.00000000000E+00 -0.10911045479E+04  0.10911045479E+04  0.50400001928E-02 0. -1.
    10030    2    1    2    0    0  0.00000000000E+00  0.00000000000E+00 -0.55850438295E+03  0.16237047128E+04  0.15246277738E+04 0.  0.
        3    1    3    3  502    0  0.34986259126E+03 -0.44091825811E+03 -0.82677193248E+03  0.10001822742E+04  0.10100000352E+00 0. -1.
       -3    1    3    3    0  502 -0.34986259126E+03  0.44091825811E+03  0.26826754954E+03  0.62352243860E+03  0.10100000352E+00 0.  1.
</event>
<event>
 5   0  0.1813834E-04  0.1894788E+04  0.7818609E-02  0.8657455E-01
        1   -1    0    0  501    0  0.00000000000E+00  0.00000000000E+00  0.66452900957E+03  0.66452900959E+03  0.50400001928E-02 0. -1.
       -1   -1    0    0    0  501  0.00000000000E+00  0.00000000000E+00 -0.13506643331E+04  0.13506643331E+04  0.50400001928E-02 0.  1.
    10030    2    1    2    0    0  0.00000000000E+00  0.00000000000E+00 -0.68613532357E+03  0.20151933427E+04  0.18947882537E+04 0.  0.
        5    1    3    3  502    0  0.42537659593E+03  0.55176071160E+03  0.33971557580E+03  0.77512185730E+03  0.46999998093E+01 0. -1.
       -5    1    3    3    0  502 -0.42537659593E+03 -0.55176071160E+03 -0.10258508994E+04  0.12400714854E+04  0.46999998093E+01 0.  1.
</event>
<event>
 5   0  0.1758946E-04  0.1904013E+04  0.7818609E-02  0.8652861E-01
        1   -1    0    0  501    0  0.00000000000E+00  0.00000000000E+00  0.13061702434E+04  0.13061702434E+04  0.50400001928E-02 0. -1.
       -1   -1    0    0    0  501  0.00000000000E+00  0.00000000000E+00 -0.69387305664E+03  0.69387305666E+03  0.50400001928E-02 0.  1.
    10030    2    1    2    0    0  0.00000000000E+00  0.00000000000E+00  0.61229718673E+03  0.20000433000E+04  0.19040129614E+04 0.  0.
        2    1    3    3  502    0  0.21517904511E+03  0.52403258586E+03 -0.49755776140E+03  0.75397340698E+03  0.25500000920E-02 0.  1.
       -2    1    3    3    0  502 -0.21517904511E+03 -0.52403258586E+03  0.11098549481E+04  0.12460698931E+04  0.25500000920E-02 0. -1.
</event>
<event>
 5   0  0.1758946E-04  0.1897623E+04  0.7818609E-02  0.8656040E-01
        1   -1    0    0  501    0  0.00000000000E+00  0.00000000000E+00  0.18174759207E+04  0.18174759207E+04  0.50400001928E-02 0. -1.
       -1   -1    0    0    0  501  0.00000000000E+00  0.00000000000E+00 -0.49532614515E+03  0.49532614518E+03  0.50400001928E-02 0.  1.
    10030    2    1    2    0    0  0.00000000000E+00  0.00000000000E+00  0.13221497755E+04  0.23128020659E+04  0.18976230835E+04 0.  0.
        2    1    3    3  502    0  0.47598277006E+03 -0.12488303124E+03  0.16497884440E+04  0.17216147301E+04  0.25500000920E-02 0. -1.
       -2    1    3    3    0  502 -0.47598277006E+03  0.12488303124E+03 -0.32763866848E+03  0.59118733577E+03  0.25500000920E-02 0.  1.
</event>
<event>
 5   0  0.3623359E-04  0.1864019E+04  0.7818609E-02  0.8672976E-01
       -2   -1    0    0    0  501  0.00000000000E+00  0.00000000000E+00  0.14431227454E+04  0.14431227454E+04  0.25500000920E-02 0.  1.
        2   -1    0    0  501    0  0.00000000000E+00  0.00000000000E+00 -0.60191840661E+03  0.60191840662E+03  0.25500000920E-02 0. -1.
    10030    2    1    2    0    0  0.00000000000E+00  0.00000000000E+00  0.84120433878E+03  0.20450411520E+04  0.18640194671E+04 0.  0.
        5    1    3    3  502    0 -0.29092515134E+03  0.88092275725E+03  0.51847125716E+03  0.10627779083E+04  0.46999998093E+01 0. -1.
       -5    1    3    3    0  502  0.29092515134E+03 -0.88092275725E+03  0.32273308162E+03  0.98226324368E+03  0.46999998093E+01 0.  1.
</event>
<event>
 5   0  0.1782613E-04  0.1887884E+04  0.7818609E-02  0.8660911E-01
        1   -1    0    0  501    0  0.00000000000E+00  0.00000000000E+00  0.22450655246E+04  0.22450655246E+04  0.50400001928E-02 0. -1.
       -1   -1    0    0    0  501  0.00000000000E+00  0.00000000000E+00 -0.39688203337E+03  0.39688203340E+03  0.50400001928E-02 0.  1.
    10030    2    1    2    0    0  0.00000000000E+00  0.00000000000E+00  0.18481834912E+04  0.26419475580E+04  0.18878836516E+04 0.  0.
        3    1    3    3  502    0  0.42678551158E+03  0.79460081565E+03  0.13136490253E+04  0.15934899124E+04  0.10100000352E+00 0.  1.
       -3    1    3    3    0  502 -0.42678551158E+03 -0.79460081565E+03  0.53453446593E+03  0.10484576456E+04  0.10100000352E+00 0. -1.
</event>
<event>
 5   0  0.3623359E-04  0.1548777E+04  0.7818609E-02  0.8852649E-01
        2   -1    0    0  501    0  0.00000000000E+00  0.00000000000E+00  0.40654762536E+03  0.40654762537E+03  0.25500000920E-02 0.  1.
       -2   -1    0    0    0  501  0.00000000000E+00  0.00000000000E+00 -0.14750489038E+04  0.14750489038E+04  0.25500000920E-02 0. -1.
    10030    2    1    2    0    0  0.00000000000E+00  0.00000000000E+00 -0.10685012784E+04  0.18815965292E+04  0.15487771036E+04 0.  0.
        5    1    3    3  502    0  0.10949754569E+03  0.76376385772E+03 -0.61419934399E+03  0.98619869551E+03  0.46999998093E+01 0. -1.
       -5    1    3    3    0  502 -0.10949754569E+03 -0.76376385772E+03 -0.45430193443E+03  0.89539783365E+03  0.46999998093E+01 0.  1.
</event>
<event>
 5   0  0.1782613E-04  0.1952498E+04  0.7818609E-02  0.8629157E-01
        1   -1    0    0  501    0  0.00000000000E+00  0.00000000000E+00  0.18470947020E+04  0.18470947020E+04  0.50400001928E-02 0. -1.
       -1   -1    0    0    0  501  0.00000000000E+00  0.00000000000E+00 -0.51597912588E+03  0.51597912591E+03  0.50400001928E-02 0.  1.
    10030    2    1    2    0    0  0.00000000000E+00  0.00000000000E+00  0.13311155761E+04  0.23630738279E+04  0.19524982046E+04 0.  0.
        3    1    3    3  502    0  0.86627139199E+03  0.30721696834E+03  0.26735119941E+03  0.95722780164E+03  0.10100000352E+00 0. -1.
       -3    1    3    3    0  502 -0.86627139199E+03 -0.30721696834E+03  0.10637643767E+04  0.14058460263E+04  0.10100000352E+00 0.  1.
</event>
<event>
 5   0  0.3516539E-04  0.1915893E+04  0.7818609E-02  0.8646986E-01
        2   -1    0    0  501    0  0.00000000000E+00  0.00000000000E+00  0.10402569479E+04  0.10402569479E+04  0.25500000920E-02 0.  1.
       -2   -1    0    0    0  501  0.00000000000E+00  0.00000000000E+00 -0.88214872776E+03  0.88214872777E+03  0.25500000920E-02 0. -1.
    10030    2    1    2    0    0  0.00000000000E+00  0.00000000000E+00  0.15810822016E+03  0.19224056757E+04  0.19158928396E+04 0.  0.
        4    1    3    3  502    0  0.52091973731E+03  0.38747048148E+03  0.78584123852E+03  0.10193325325E+04  0.12699999809E+01 0.  1.
       -4    1    3    3    0  502 -0.52091973731E+03 -0.38747048148E+03 -0.62773301835E+03  0.90307314320E+03  0.12699999809E+01 0. -1.
</event>
<event>
 5   0  0.1711979E-04  0.1926715E+04  0.7818609E-02  0.8641672E-01
        1   -1    0    0  501    0  0.00000000000E+00  0.00000000000E+00  0.15814640968E+04  0.15814640968E+04  0.50400001928E-02 0. -1.
       -1   -1    0    0    0  501  0.00000000000E+00  0.00000000000E+00 -0.58683467403E+03  0.58683467405E+03  0.50400001928E-02 0.  1.
    10030    2    1    2    0    0  0.00000000000E+00  0.00000000000E+00  0.99462942280E+03  0.21682987709E+04  0.19267153062E+04 0.  0.
        4    1    3    3  502    0  0.84036415951E+03 -0.28148791345E+02  0.10264282558E+04  0.13268612784E+04  0.12699999809E+01 0. -1.
       -4    1    3    3    0  502 -0.84036415951E+03  0.28148791345E+02 -0.31798832969E+02  0.84143749247E+03  0.12699999809E+01 0.  1.
</event>
<event>
 5   0  0.3516539E-04  0.1887578E+04  0.7818609E-02  0.8661064E-01
       -2   -1    0    0    0  501  0.00000000000E+00  0.00000000000E+00  0.48815786055E+03  0.48815786056E+03  0.25500000920E-02 0.  1.
        2   -1    0    0  501    0  0.00000000000E+00  0.00000000000E+00 -0.18246925185E+04  0.18246925185E+04  0.25500000920E-02 0. -1.
    10030    2    1    2    0    0  0.00000000000E+00  0.00000000000E+00 -0.13365346579E+04  0.23128503790E+04  0.18875783385E+04 0.  0.
        4    1    3    3  502    0 -0.32067462765E+03 -0.84727929412E+03 -0.99250218288E+03  0.13437918793E+04  0.12699999809E+01 0. -1.
       -4    1    3    3    0  502  0.32067462765E+03  0.84727929412E+03 -0.34403247506E+03  0.96905849971E+03  0.12699999809E+01 0.  1.
</event>
<event>
 5   0  0.3535876E-04  0.2113801E+04  0.7818609E-02  0.8555188E-01
       -2   -1    0    0    0  501  0.00000000000E+00  0.00000000000E+00  0.15186271496E+04  0.15186271496E+04  0.25500000920E-02 0.  1.
        2   -1    0    0  501    0  0.00000000000E+00  0.00000000000E+00 -0.73555820511E+03  0.73555820511E+03  0.25500000920E-02 0. -1.
    10030    2    1    2    0    0  0.00000000000E+00  0.00000000000E+00  0.78306894446E+03  0.22541853547E+04  0.21138009938E+04 0.  0.
        2    1    3    3  502    0 -0.52460075429E+03 -0.81293477938E+03  0.84519241963E+03  0.12846863949E+04  0.25500000920E-02 0. -1.
       -2    1    3    3    0  502  0.52460075429E+03  0.81293477938E+03 -0.62123475173E+02  0.96949895983E+03  0.25500000920E-02 0.  1.
</event>
<event>
 5   0  0.1694830E-04  0.1903229E+04  0.7818609E-02  0.8653251E-01
        1   -1    0    0  501    0  0.00000000000E+00  0.00000000000E+00  0.81819098954E+03  0.81819098956E+03  0.50400001928E-02 0. -1.
       -1   -1    0    0    0  501  0.00000000000E+00  0.00000000000E+00 -0.11067956024E+04  0.11067956024E+04  0.50400001928E-02 0.  1.
    10030    2    1    2    0    0  0.00000000000E+00  0.00000000000E+00 -0.28860461284E+03  0.19249865920E+04  0.19032290342E+04 0.  0.
        1    1    3    3  502    0 -0.48911286042E+03  0.32765807276E+03 -0.90049834059E+03  0.10758663785E+04  0.50400001928E-02 0.  1.
       -1    1    3    3    0  502  0.48911286042E+03 -0.32765807276E+03  0.61189372775E+03  0.84912021349E+03  0.50400001928E-02 0. -1.
</event>
<event>
 5   0  0.1287000E-04  0.1905012E+04  0.7818609E-02  0.8652366E-01
        3   -1    0    0  501    0  0.00000000000E+00  0.00000000000E+00  0.18225383360E+04  0.18225383388E+04  0.10100000352E+00 0.  1.
       -3   -1    0    0    0  501  0.00000000000E+00  0.00000000000E+00 -0.49780446821E+03  0.49780447846E+03  0.10100000352E+00 0. -1.
    10030    2    1    2    0    0  0.00000000000E+00  0.00000000000E+00  0.13247338678E+04  0.23203428173E+04  0.19050120654E+04 0.  0.
        1    1    3    3  502    0 -0.79558548246E+03  0.25147972593E+03  0.10278060994E+03  0.84069148102E+03  0.50400001928E-02 0. -1.
       -1    1    3    3    0  502  0.79558548246E+03 -0.25147972593E+03  0.12219532579E+04  0.14796513363E+04  0.50400001928E-02 0.  1.
</event>
<event>
 5   0  0.1694830E-04  0.1977430E+04  0.7818609E-02  0.8617246E-01
        1   -1    0    0  501    0  0.00000000000E+00  0.00000000000E+00  0.76638734224E+03  0.76638734226E+03  0.50400001928E-02 0.  1.
       -1   -1    0    0    0  501  0.00000000000E+00  0.00000000000E+00 -0.12755395691E+04  0.12755395691E+04  0.50400001928E-02 0. -1.
    10030    2    1    2    0    0  0.00000000000E+00  0.00000000000E+00 -0.50915222689E+03  0.20419269114E+04  0.19774300294E+04 0.  0.
        1    1    3    3  502    0 -0.30867137899E+03 -0.93599144808E+03 -0.17327194371E+03  0.10006903505E+04  0.50400001928E-02 0. -1.
       -1    1    3    3    0  502  0.30867137899E+03  0.93599144808E+03 -0.33588028319E+03  0.10412365609E+04  0.50400001928E-02 0.  1.
</event>
<event>
 5   0  0.3623359E-04  0.1945428E+04  0.7818609E-02  0.8632568E-01
       -2   -1    0    0    0  501  0.00000000000E+00  0.00000000000E+00  0.87727075679E+03  0.87727075680E+03  0.25500000920E-02 0.  1.
        2   -1    0    0  501    0  0.00000000000E+00  0.00000000000E+00 -0.10785414942E+04  0.10785414942E+04  0.25500000920E-02 0. -1.
    10030    2    1    2    0    0  0.00000000000E+00  0.00000000000E+00 -0.20127073739E+03  0.19558122510E+04  0.19454283979E+04 0.  0.
        5    1    3    3  502    0 -0.52288657488E+03 -0.25890805800E+03  0.68179055740E+03  0.89738743408E+03  0.46999998093E+01 0.  1.
       -5    1    3    3    0  502  0.52288657488E+03  0.25890805800E+03 -0.88306129479E+03  0.10584248169E+04  0.46999998093E+01 0. -1.
</event>
<event>
 5   0  0.3459485E-04  0.1903250E+04  0.7818609E-02  0.8653240E-01
        2   -1    0    0  501    0  0.00000000000E+00  0.00000000000E+00  0.50652260687E+03  0.50652260687E+03  0.25500000920E-02 0. -1.
       -2   -1    0    0    0  501  0.00000000000E+00  0.00000000000E+00 -0.17878580844E+04  0.17878580844E+04  0.25500000920E-02 0.  1.
    10030    2    1    2    0    0  0.00000000000E+00  0.00000000000E+00 -0.12813354775E+04  0.22943806913E+04  0.19032504172E+04 0.  0.
        3    1    3    3  502    0  0.43411722223E+03  0.15360808568E+03 -0.16446001230E+04  0.17078532670E+04  0.10100000352E+00 0.  1.
       -3    1    3    3    0  502 -0.43411722223E+03 -0.15360808568E+03  0.36326464548E+03  0.58652742432E+03  0.10100000352E+00 0. -1.
</event>
<event>
 5   0  0.3623359E-04  0.1857610E+04  0.7818609E-02  0.8676249E-01
       -2   -1    0    0    0  501  0.00000000000E+00  0.00000000000E+00  0.70881698599E+03  0.70881698599E+03  0.25500000920E-02 0. -1.
        2   -1    0    0  501    0  0.00000000000E+00  0.00000000000E+00 -0.12170682055E+04  0.12170682055E+04  0.25500000920E-02 0.  1.
    10030    2    1    2    0    0  0.00000000000E+00  0.00000000000E+00 -0.50825121954E+03  0.19258851915E+04  0.18576098807E+04 0.  0.
        5    1    3    3  502    0 -0.18117870713E+03  0.70219276238E+03  0.34751014052E+03  0.80416776061E+03  0.46999998093E+01 0. -1.
       -5    1    3    3    0  502  0.18117870713E+03 -0.70219276238E+03 -0.85576136006E+03  0.11217174309E+04  0.46999998093E+01 0.  1.
</event>
<event>
 5   0  0.1758946E-04  0.1906215E+04  0.7818609E-02  0.8651769E-01
       -1   -1    0    0    0  501  0.00000000000E+00  0.00000000000E+00  0.54231104876E+03  0.54231104879E+03  0.50400001928E-02 0.  1.
        1   -1    0    0  501    0  0.00000000000E+00  0.00000000000E+00 -0.16750787956E+04  0.16750787956E+04  0.50400001928E-02 0. -1.
    10030    2    1    2    0    0  0.00000000000E+00  0.00000000000E+00 -0.11327677469E+04  0.22173898444E+04  0.19062148236E+04 0.  0.
        2    1    3    3  502    0 -0.25964590588E+03  0.60774187965E+03 -0.13652591905E+04  0.15168054740E+04  0.25500000920E-02 0. -1.
       -2    1    3    3    0  502  0.25964590588E+03 -0.60774187965E+03  0.23249144363E+03  0.70058437043E+03  0.25500000920E-02 0.  1.
</event>
<event>
 5   0  0.3516539E-04  0.1906060E+04  0.7818609E-02  0.8651846E-01
        2   -1    0    0  501    0  0.00000000000E+00  0.00000000000E+00  0.11190524828E+04  0.11190524828E+04  0.25500000920E-02 0.  1.
       -2   -1    0    0    0  501  0.00000000000E+00  0.00000000000E+00 -0.81163839951E+03  0.81163839951E+03  0.25500000920E-02 0. -1.
    10030    2    1    2    0    0  0.00000000000E+00  0.00000000000E+00  0.30741408332E+03  0.19306908823E+04  0.19060597747E+04 0.  0.
        4    1    3    3  502    0 -0.35820381911E+03 -0.61321678172E+03  0.79746656918E+03  0.10678479945E+04  0.12699999809E+01 0.  1.
       -4    1    3    3    0  502  0.35820381911E+03  0.61321678172E+03 -0.49005248585E+03  0.86284288790E+03  0.12699999809E+01 0. -1.
</event>
<event>
 5   0  0.1694830E-04  0.1897177E+04  0.7818609E-02  0.8656263E-01
        1   -1    0    0  501    0  0.00000000000E+00  0.00000000000E+00  0.54836710516E+03  0.54836710518E+03  0.50400001928E-02 0.  1.
       -1   -1    0    0    0  501  0.00000000000E+00  0.00000000000E+00 -0.16409090619E+04  0.16409090619E+04  0.50400001928E-02 0. -1.
    10030    2    1    2    0    0  0.00000000000E+00  0.00000000000E+00 -0.10925419567E+04  0.21892761671E+04  0.18971774320E+04 0.  0.
        1    1    3    3  502    0  0.68564150261E+03 -0.63760031270E+02  0.20659799212E+03  0.71892443419E+03  0.50400001928E-02 0.  1.
       -1    1    3    3    0  502 -0.68564150261E+03  0.63760031270E+02 -0.12991399488E+04  0.14703517329E+04  0.50400001928E-02 0. -1.
</event>
<event>
 5   0  0.3459485E-04  0.1883081E+04  0.7818609E-02  0.8663324E-01
        2   -1    0    0  501    0  0.00000000000E+00  0.00000000000E+00  0.90034624614E+03  0.90034624614E+03  0.25500000920E-02 0.  1.
       -2   -1    0    0    0  501  0.00000000000E+00  0.00000000000E+00 -0.98461914724E+03  0.98461914725E+03  0.25500000920E-02 0. -1.
    10030    2    1    2    0    0  0.00000000000E+00  0.00000000000E+00 -0.84272901106E+02  0.18849653934E+04  0.18830806176E+04 0.  0.
        3    1    3    3  502    0  0.69732379744E+03 -0.47690096909E+03  0.37397557835E+03  0.92387918918E+03  0.10100000352E+00 0.  1.
       -3    1    3    3    0  502 -0.69732379744E+03  0.47690096909E+03 -0.45824847946E+03  0.96108620421E+03  0.10100000352E+00 0. -1.
</event>
<event>
 5   0  0.1694830E-04  0.1903893E+04  0.7818609E-02  0.8652921E-01
        1   -1    0    0  501    0  0.00000000000E+00  0.00000000000E+00  0.74950681974E+03  0.74950681976E+03  0.50400001928E-02 0.  1.
       -1   -1    0    0    0  501  0.00000000000E+00  0.00000000000E+00 -0.12090646806E+04  0.12090646807E+04  0.50400001928E-02 0. -1.
    10030    2    1    2    0    0  0.00000000000E+00  0.00000000000E+00 -0.45955786090E+03  0.19585715004E+04  0.19038930891E+04 0.  0.
        1    1    3    3  502    0  0.19067752915E+03  0.92941900935E+03 -0.30962642461E+03  0.99802111095E+03  0.50400001928E-02 0. -1.
       -1    1    3    3    0  502 -0.19067752915E+03 -0.92941900935E+03 -0.14993143629E+03  0.96055038946E+03  0.50400001928E-02 0.  1.
</event>
<event>
 5   0  0.3623359E-04  0.1867901E+04  0.7818609E-02  0.8671001E-01
       -2   -1    0    0    0  501  0.00000000000E+00  0.00000000000E+00  0.19279817942E+04  0.19279817942E+04  0.25500000920E-02 0. -1.
        2   -1    0    0  501    0  0.00000000000E+00  0.00000000000E+00 -0.45242326682E+03  0.45242326682E+03  0.25500000920E-02 0.  1.
    10030    2    1    2    0    0  0.00000000000E+00  0.00000000000E+00  0.14755585274E+04  0.23804050610E+04  0.18679013054E+04 0.  0.
        5    1    3    3  502    0 -0.61683071693E+03 -0.69012701113E+03  0.57919106373E+03  0.10918973409E+04  0.46999998093E+01 0.  1.
       -5    1    3    3    0  502  0.61683071693E+03  0.69012701113E+03  0.89636746366E+03  0.12885077201E+04  0.46999998093E+01 0. -1.
</event>
<event>
 5   0  0.1287000E-04  0.1929374E+04  0.7818609E-02  0.8640371E-01
        3   -1    0    0  501    0  0.00000000000E+00  0.00000000000E+00  0.72793959354E+03  0.72793960055E+03  0.10100000352E+00 0. -1.
       -3   -1    0    0    0  501  0.00000000000E+00  0.00000000000E+00 -0.12784321894E+04  0.12784321934E+04  0.10100000352E+00 0.  1.
    10030    2    1    2    0    0  0.00000000000E+00  0.00000000000E+00 -0.55049259587E+03  0.20063717940E+04  0.19293744265E+04 0.  0.
        3    1    3    3  502    0  0.46875554823E+03 -0.45619954554E+03  0.46211488888E+03  0.80087450332E+03  0.10100000352E+00 0. -1.
       -3    1    3    3    0  502 -0.46875554823E+03  0.45619954554E+03 -0.10126074848E+04  0.12054972906E+04  0.10100000352E+00 0.  1.
</event>
<event>
 5   0  0.1711979E-04  0.1848382E+04  0.7818609E-02  0.8680985E-01
       -1   -1    0    0    0  501  0.00000000000E+00  0.00000000000E+00  0.72129427963E+03  0.72129427965E+03  0.50400001928E-02 0.  1.
        1   -1    0    0  501    0  0.00000000000E+00  0.00000000000E+00 -0.11841619636E+04  0.11841619636E+04  0.50400001928E-02 0. -1.
    10030    2    1    2    0    0  0.00000000000E+00  0.00000000000E+00 -0.46286768397E+03  0.19054562433E+04  0.18483822662E+04 0.  0.
        4    1    3    3  502    0 -0.56869885382E+03  0.62602455038E+03 -0.61549983325E+03  0.10460242739E+04  0.12699999809E+01 0. -1.
       -4    1    3    3    0  502  0.56869885382E+03 -0.62602455038E+03  0.15263214927E+03  0.85943196933E+03  0.12699999809E+01 0.  1.
</event>
<event>
 5   0  0.3535876E-04  0.1941632E+04  0.7818609E-02  0.8634407E-01
       -2   -1    0    0    0  501  0.00000000000E+00  0.00000000000E+00  0.51466197764E+03  0.51466197764E+03  0.25500000920E-02 0. -1.
        2   -1    0    0  501    0  0.00000000000E+00  0.00000000000E+00 -0.18312671054E+04  0.18312671054E+04  0.25500000920E-02 0.  1.
    10030    2    1    2    0    0  0.00000000000E+00  0.00000000000E+00 -0.13166051277E+04  0.23459290830E+04  0.19416318395E+04 0.  0.
        2    1    3    3  502    0 -0.12244590995E+03 -0.22890114819E+03 -0.17885552536E+04  0.18072959446E+04  0.25500000920E-02 0.  1.
       -2    1    3    3    0  502  0.12244590995E+03  0.22890114819E+03  0.47195012581E+03  0.53863313838E+03  0.25500000920E-02 0. -1.
</event>
<event>
 5   0  0.3459485E-04  0.1887262E+04  0.7818609E-02  0.8661223E-01
        2   -1    0    0  501    0  0.00000000000E+00  0.00000000000E+00  0.14397268494E+04  0.14397268494E+04  0.25500000920E-02 0.  1.
       -2   -1    0    0    0  501  0.00000000000E+00  0.00000000000E+00 -0.61847778322E+03  0.61847778322E+03  0.25500000920E-02 0. -1.
    10030    2    1    2    0    0  0.00000000000E+00  0.00000000000E+00  0.82124906620E+03  0.20582046326E+04  0.18872615826E+04 0.  0.
        3    1    3    3  502    0  0.75107925675E+03  0.15941432968E+03 -0.18761062755E+03  0.79039909932E+03  0.10100000352E+00 0. -1.
       -3    1    3    3    0  502 -0.75107925675E+03 -0.15941432968E+03  0.10088596938E+04  0.12678055333E+04  0.10100000352E+00 0.  1.
</event>
<event>
 5   0  0.1813834E-04  0.1932937E+04  0.7818609E-02  0.8638633E-01
        1   -1    0    0  501    0  0.00000000000E+00  0.00000000000E+00  0.89481115837E+03  0.89481115839E+03  0.50400001928E-02 0.  1.
       -1   -1    0    0    0  501  0.00000000000E+00  0.00000000000E+00 -0.10438644655E+04  0.10438644655E+04  0.50400001928E-02 0. -1.
    10030    2    1    2    0    0  0.00000000000E+00  0.00000000000E+00 -0.14905330716E+03  0.19386756239E+04  0.19329372174E+04 0.  0.
        5    1    3    3  502    0  0.52479478891E+03  0.68418324363E+03  0.36325880848E+03  0.93567907600E+03  0.46999998093E+01 0.  1.
       -5    1    3    3    0  502 -0.52479478891E+03 -0.68418324363E+03 -0.51231211563E+03  0.10029965479E+04  0.46999998093E+01 0. -1.
</event>
<event>
 5   0  0.1287000E-04  0.1932281E+04  0.7818609E-02  0.8638953E-01
        4   -1    0    0  501    0  0.00000000000E+00  0.00000000000E+00  0.14029143694E+04  0.14029149443E+04  0.12699999809E+01 0.  1.
       -4   -1    0    0    0  501  0.00000000000E+00  0.00000000000E+00 -0.66534760784E+03  0.66534881991E+03  0.12699999809E+01 0. -1.
    10030    2    1    2    0    0  0.00000000000E+00  0.00000000000E+00  0.73756676161E+03  0.20682637642E+04  0.19322811054E+04 0.  0.
        4    1    3    3  502    0 -0.17767691495E+03  0.50087168322E+03  0.12323998490E+04  0.13421074956E+04  0.12699999809E+01 0.  1.
       -4    1    3    3    0  502  0.17767691495E+03 -0.50087168322E+03 -0.49483308735E+03  0.72615626858E+03  0.12699999809E+01 0. -1.
</event>
<event>
 5   0  0.3516539E-04  0.1932221E+04  0.7818609E-02  0.8638982E-01
        2   -1    0    0  501    0  0.00000000000E+00  0.00000000000E+00  0.21197163861E+04  0.21197163861E+04  0.25500000920E-02 0.  1.
       -2   -1    0    0    0  501  0.00000000000E+00  0.00000000000E+00 -0.44032744689E+03  0.44032744690E+03  0.25500000920E-02 0. -1.
    10030    2    1    2    0    0  0.00000000000E+00  0.00000000000E+00  0.16793889392E+04  0.25600438330E+04  0.19322207994E+04 0.  0.
        4    1    3    3  502    0 -0.52299777772E+02 -0.79621820294E+03  0.11804427837E+03  0.80661933897E+03  0.12699999809E+01 0. -1.
       -4    1    3    3    0  502  0.52299777772E+02  0.79621820294E+03  0.15613446609E+04  0.17534244941E+04  0.12699999809E+01 0.  1.
</event>
<event>
 5   0  0.3535876E-04  0.1845971E+04  0.7818609E-02  0.8682228E-01
       -2   -1    0    0    0  501  0.00000000000E+00  0.00000000000E+00  0.41444659359E+03  0.41444659360E+03  0.25500000920E-02 0. -1.
        2   -1    0    0  501    0  0.00000000000E+00  0.00000000000E+00 -0.20555172429E+04  0.20555172429E+04  0.25500000920E-02 0.  1.
    10030    2    1    2    0    0  0.00000000000E+00  0.00000000000E+00 -0.16410706494E+04  0.24699638366E+04  0.18459708767E+04 0.  0.
        2    1    3    3  502    0 -0.31965246362E+03 -0.72982421281E+03 -0.19712111545E+03  0.82077878461E+03  0.25500000920E-02 0. -1.
       -2    1    3    3    0  502  0.31965246362E+03  0.72982421281E+03 -0.14439495339E+04  0.16491850519E+04  0.25500000920E-02 0.  1.
</event>
<event>
 5   0  0.1758946E-04  0.1896155E+04  0.7818609E-02  0.8656773E-01
        1   -1    0    0  501    0  0.00000000000E+00  0.00000000000E+00  0.18731111535E+04  0.18731111535E+04  0.50400001928E-02 0. -1.
       -1   -1    0    0    0  501  0.00000000000E+00  0.00000000000E+00 -0.47987041586E+03  0.47987041589E+03  0.50400001928E-02 0.  1.
    10030    2    1    2    0    0  0.00000000000E+00  0.00000000000E+00  0.13932407377E+04  0.23529815694E+04  0.18961546648E+04 0.  0.
        2    1    3    3  502    0  0.24149855598E+03 -0.89274091579E+03  0.43767830284E+03  0.10231667469E+04  0.25500000920E-02 0.  1.
       -2    1    3    3    0  502 -0.24149855598E+03  0.89274091579E+03  0.95556243482E+03  0.13298148225E+04  0.25500000920E-02 0. -1.
</event>
<event>
 5   0  0.3535876E-04  0.1890135E+04  0.7818609E-02  0.8659782E-01
        2   -1    0    0  501    0  0.00000000000E+00  0.00000000000E+00  0.16817302703E+04  0.16817302703E+04  0.25500000920E-02 0. -1.
       -2   -1    0    0    0  501  0.00000000000E+00  0.00000000000E+00 -0.53109150427E+03  0.53109150428E+03  0.25500000920E-02 0.  1.
    10030    2    1    2    0    0  0.00000000000E+00  0.00000000000E+00  0.11506387660E+04  0.22128217746E+04  0.18901350841E+04 0.  0.
        2    1    3    3  502    0  0.36408986777E+03 -0.86965417899E+03  0.65202474987E+03  0.11462966882E+04  0.25500000920E-02 0.  1.
       -2    1    3    3    0  502 -0.36408986777E+03  0.86965417899E+03  0.49861401615E+03  0.10665250864E+04  0.25500000920E-02 0. -1.
</event>
<event>
 5   0  0.3623359E-04  0.1814495E+04  0.7818609E-02  0.8698629E-01
        2   -1    0    0  501    0  0.00000000000E+00  0.00000000000E+00  0.17427031780E+04  0.17427031780E+04  0.25500000920E-02 0. -1.
       -2   -1    0    0    0  501  0.00000000000E+00  0.00000000000E+00 -0.47231112132E+03  0.47231112133E+03  0.25500000920E-02 0.  1.
    10030    2    1    2    0    0  0.00000000000E+00  0.00000000000E+00  0.12703920567E+04  0.22150142993E+04  0.18144950726E+04 0.  0.
        5    1    3    3  502    0  0.64450970886E+03  0.21593280283E+02 -0.14379718449E+03  0.66072593020E+03  0.46999998093E+01 0.  1.
       -5    1    3    3    0  502 -0.64450970886E+03 -0.21593280283E+02  0.14141892411E+04  0.15542883691E+04  0.46999998093E+01 0. -1.
</event>
<event>
 5   0  0.3516539E-04  0.1904513E+04  0.7818609E-02  0.8652613E-01
       -2   -1    0    0    0  501  0.00000000000E+00  0.00000000000E+00  0.64974407308E+03  0.64974407309E+03  0.25500000920E-02 0.  1.
        2   -1    0    0  501    0  0.00000000000E+00  0.00000000000E+00 -0.13956152788E+04  0.13956152788E+04  0.25500000920E-02 0. -1.
    10030    2    1    2    0    0  0.00000000000E+00  0.00000000000E+00 -0.74587120576E+03  0.20453593519E+04  0.19045133297E+04 0.  0.
        4    1    3    3  502    0 -0.10115206567E+03 -0.86624951183E+03 -0.78353328096E+03  0.11724103260E+04  0.12699999809E+01 0. -1.
       -4    1    3    3    0  502  0.10115206567E+03  0.86624951183E+03  0.37662075204E+02  0.87294902597E+03  0.12699999809E+01 0.  1.
</event>
<event>
 5   0  0.3535876E-04  0.1925388E+04  0.7818609E-02  0.8642321E-01
        2   -1    0    0  501    0  0.00000000000E+00  0.00000000000E+00  0.80217434568E+03  0.80217434569E+03  0.25500000920E-02 0. -1.
       -2   -1    0    0    0  501  0.00000000000E+00  0.00000000000E+00 -0.11553351022E+04  0.11553351022E+04  0.25500000920E-02 0.  1.
    10030    2    1    2    0    0  0.00000000000E+00  0.00000000000E+00 -0.35316075648E+03  0.19575094479E+04  0.19253884591E+04 0.  0.
        2    1    3    3  502    0 -0.66084906043E+03 -0.96875625009E+02  0.52829239147E+03  0.85158629526E+03  0.25500000920E-02 0. -1.
       -2    1    3    3    0  502  0.66084906043E+03  0.96875625009E+02 -0.88145314796E+03  0.11059231526E+04  0.25500000920E-02 0.  1.
</event>
<event>
 5   0  0.3623359E-04  0.1879838E+04  0.7818609E-02  0.8664958E-01
        2   -1    0    0  501    0  0.00000000000E+00  0.00000000000E+00  0.75233279256E+03  0.75233279256E+03  0.25500000920E-02 0. -1.
       -2   -1    0    0    0  501  0.00000000000E+00  0.00000000000E+00 -0.11742781575E+04  0.11742781575E+04  0.25500000920E-02 0.  1.
    10030    2    1    2    0    0  0.00000000000E+00  0.00000000000E+00 -0.42194536494E+03  0.19266109501E+04  0.18798382542E+04 0.  0.
        5    1    3    3  502    0 -0.74461899911E+03 -0.14874180641E+03 -0.77869055798E+03  0.10876408662E+04  0.46999998093E+01 0.  1.
       -5    1    3    3    0  502  0.74461899911E+03  0.14874180641E+03  0.35674519304E+03  0.83897008383E+03  0.46999998093E+01 0. -1.
</event>
<event>
 5   0  0.1694830E-04  0.1902397E+04  0.7818609E-02  0.8653664E-01
       -1   -1    0    0    0  501  0.00000000000E+00  0.00000000000E+00  0.72808250482E+03  0.72808250483E+03  0.50400001928E-02 0.  1.
        1   -1    0    0  501    0  0.00000000000E+00  0.00000000000E+00 -0.12426868686E+04  0.12426868686E+04  0.50400001928E-02 0. -1.
    10030    2    1    2    0    0  0.00000000000E+00  0.00000000000E+00 -0.51460436374E+03  0.19707693734E+04  0.19023969806E+04 0.  0.
        1    1    3    3  502    0 -0.91123448876E+03 -0.16949964239E+03 -0.35843123592E+02  0.92755762722E+03  0.50400001928E-02 0.  1.
       -1    1    3    3    0  502  0.91123448876E+03  0.16949964239E+03 -0.47876124015E+03  0.10432117462E+04  0.50400001928E-02 0. -1.
</event>
<event>
 5   0  0.3459485E-04  0.1853856E+04  0.7818609E-02  0.8678172E-01
        2   -1    0    0  501    0  0.00000000000E+00  0.00000000000E+00  0.12922038385E+04  0.12922038385E+04  0.25500000920E-02 0.  1.
       -2   -1    0    0    0  501  0.00000000000E+00  0.00000000000E+00 -0.66490702829E+03  0.66490702829E+03  0.25500000920E-02 0. -1.
    10030    2    1    2    0    0  0.00000000000E+00  0.00000000000E+00  0.62729681022E+03  0.19571108668E+04  0.18538558889E+04 0.  0.
        3    1    3    3  502    0  0.66535706786E+03 -0.13106362903E+03 -0.35346357330E+03  0.76473146297E+03  0.10100000352E+00 0. -1.
       -3    1    3    3    0  502 -0.66535706786E+03  0.13106362903E+03  0.98076038351E+03  0.11923794038E+04  0.10100000352E+00 0.  1.
</event>
<event>
 5   0  0.1694830E-04  0.1919124E+04  0.7818609E-02  0.8645395E-01
        1   -1    0    0  501    0  0.00000000000E+00  0.00000000000E+00  0.27290953685E+04  0.27290953685E+04  0.50400001928E-02 0.  1.
       -1   -1    0    0    0  501  0.00000000000E+00  0.00000000000E+00 -0.33738616035E+03  0.33738616038E+03  0.50400001928E-02 0. -1.
    10030    2    1    2    0    0  0.00000000000E+00  0.00000000000E+00  0.23917092082E+04  0.30664815289E+04  0.19191237664E+04 0.  0.
        1    1    3    3  502    0  0.24336483677E+03 -0.96904710385E+02  0.26708591721E+04  0.26836739153E+04  0.50400001928E-02 0.  1.
       -1    1    3    3    0  502 -0.24336483677E+03  0.96904710385E+02 -0.27914996389E+03  0.38280761361E+03  0.50400001928E-02 0. -1.
</event>
<event>
 5   0  0.3535876E-04  0.1821257E+04  0.7818609E-02  0.8695076E-01
       -2   -1    0    0    0  501  0.00000000000E+00  0.00000000000E+00  0.80929972138E+03  0.80929972138E+03  0.25500000920E-02 0.  1.
        2   -1    0    0  501    0  0.00000000000E+00  0.00000000000E+00 -0.10246437557E+04  0.10246437557E+04  0.25500000920E-02 0. -1.
    10030    2    1    2    0    0  0.00000000000E+00  0.00000000000E+00 -0.21534403430E+03  0.18339434771E+04  0.18212566057E+04 0.  0.
        2    1    3    3  502    0  0.13153314526E+03 -0.17855683706E+03  0.78169070170E+03  0.81254160847E+03  0.25500000920E-02 0.  1.
       -2    1    3    3    0  502 -0.13153314526E+03  0.17855683706E+03 -0.99703473600E+03  0.10214018686E+04  0.25500000920E-02 0. -1.
</event>
<event>
 5   0  0.3623359E-04  0.1757978E+04  0.7818609E-02  0.8728971E-01
       -2   -1    0    0    0  501  0.00000000000E+00  0.00000000000E+00  0.30732077684E+03  0.30732077685E+03  0.25500000920E-02 0. -1.
        2   -1    0    0  501    0  0.00000000000E+00  0.00000000000E+00 -0.25140555258E+04  0.25140555258E+04  0.25500000920E-02 0.  1.
    10030    2    1    2    0    0  0.00000000000E+00  0.00000000000E+00 -0.22067347489E+04  0.28213763026E+04  0.17579778124E+04 0.  0.
        5    1    3    3  502    0  0.43870037865E+03  0.69445280649E+03 -0.16054639388E+04  0.18034021380E+04  0.46999998093E+01 0.  1.
       -5    1    3    3    0  502 -0.43870037865E+03 -0.69445280649E+03 -0.60127081015E+03  0.10179741646E+04  0.46999998093E+01 0. -1.
</event>
<event>
 5   0  0.1694830E-04  0.1998808E+04  0.7818609E-02  0.8607178E-01
        1   -1    0    0  501    0  0.00000000000E+00  0.00000000000E+00  0.10561336363E+04  0.10561336363E+04  0.50400001928E-02 0. -1.
       -1   -1    0    0    0  501  0.00000000000E+00  0.00000000000E+00 -0.94572125691E+03  0.94572125692E+03  0.50400001928E-02 0.  1.
    10030    2    1    2    0    0  0.00000000000E+00  0.00000000000E+00  0.11041237938E+03  0.20018548932E+04  0.19988076746E+04 0.  0.
        1    1    3    3  502    0  0.47655724121E+03  0.85791371609E+03 -0.13398728331E+03  0.99049247373E+03  0.50400001928E-02 0.  1.
       -1    1    3    3    0  502 -0.47655724121E+03 -0.85791371609E+03  0.24439966269E+03  0.10113624195E+04  0.50400001928E-02 0. -1.
</event>
<event>
 5   0  0.1711979E-04  0.1884532E+04  0.7818609E-02  0.8662595E-01
       -1   -1    0    0    0  501  0.00000000000E+00  0.00000000000E+00  0.57293881497E+03  0.57293881499E+03  0.50400001928E-02 0.  1.
        1   -1    0    0  501    0  0.00000000000E+00  0.00000000000E+00 -0.15496677843E+04  0.15496677843E+04  0.50400001928E-02 0. -1.
    10030    2    1    2    0    0  0.00000000000E+00  0.00000000000E+00 -0.97672896933E+03  0.21226065993E+04  0.18845315853E+04 0.  0.
        4    1    3    3  502    0 -0.61556677653E+02 -0.64140962629E+03 -0.12627265010E+04  0.14176301924E+04  0.12699999809E+01 0. -1.
       -4    1    3    3    0  502  0.61556677653E+02  0.64140962629E+03  0.28599753164E+03  0.70497640689E+03  0.12699999809E+01 0.  1.
</event>
<event>
 5   0  0.1813834E-04  0.1912883E+04  0.7818609E-02  0.8648470E-01
        1   -1    0    0  501    0  0.00000000000E+00  0.00000000000E+00  0.87389673000E+03  0.87389673001E+03  0.50400001928E-02 0. -1.
       -1   -1    0    0    0  501  0.00000000000E+00  0.00000000000E+00 -0.10467832133E+04  0.10467832134E+04  0.50400001928E-02 0.  1.
    10030    2    1    2    0    0  0.00000000000E+00  0.00000000000E+00 -0.17288648334E+03  0.19206799434E+04  0.19128830881E+04 0.  0.
        5    1    3    3  502    0  0.71982092771E+03  0.45503545933E+03 -0.52360147644E+03  0.99968996861E+03  0.46999998093E+01 0.  1.
       -5    1    3    3    0  502 -0.71982092771E+03 -0.45503545933E+03  0.35071499310E+03  0.92098997475E+03  0.46999998093E+01 0. -1.
</event>
<event>
 5   0  0.1287000E-04  0.1891985E+04  0.7818609E-02  0.8658856E-01
        3   -1    0    0  501    0  0.00000000000E+00  0.00000000000E+00  0.11987199944E+04  0.11987199987E+04  0.10100000352E+00 0.  1.
       -3   -1    0    0    0  501  0.00000000000E+00  0.00000000000E+00 -0.74654763946E+03  0.74654764629E+03  0.10100000352E+00 0. -1.
    10030    2    1    2    0    0  0.00000000000E+00  0.00000000000E+00  0.45217235498E+03  0.19452676450E+04  0.18919847705E+04 0.  0.
        3    1    3    3  502    0 -0.24263352153E+03 -0.18125213799E+03 -0.69535515354E+03  0.75844720519E+03  0.10100000352E+00 0. -1.
       -3    1    3    3    0  502  0.24263352153E+03  0.18125213799E+03  0.11475275085E+04  0.11868204398E+04  0.10100000352E+00 0.  1.
</event>
<event>
 5   0  0.1287000E-04  0.1893477E+04  0.7818609E-02  0.8658110E-01
        3   -1    0    0  501    0  0.00000000000E+00  0.00000000000E+00  0.61511023517E+03  0.61511024346E+03  0.10100000352E+00 0.  1.
       -3   -1    0    0    0  501  0.00000000000E+00  0.00000000000E+00 -0.14571602455E+04  0.14571602490E+04  0.10100000352E+00 0. -1.
    10030    2    1    2    0    0  0.00000000000E+00  0.00000000000E+00 -0.84205001035E+03  0.20722704925E+04  0.18934774290E+04 0.  0.
        4    1    3    3  502    0 -0.93838490589E+03 -0.74197824542E+02 -0.31027132424E+03  0.99113140214E+03  0.12699999809E+01 0. -1.
       -4    1    3    3    0  502  0.93838490589E+03  0.74197824542E+02 -0.53177868611E+03  0.10811390903E+04  0.12699999809E+01 0.  1.
</event>
<event>
 5   0  0.1782613E-04  0.1883411E+04  0.7818609E-02  0.8663158E-01
        1   -1    0    0  501    0  0.00000000000E+00  0.00000000000E+00  0.96733275777E+03  0.96733275778E+03  0.50400001928E-02 0.  1.
       -1   -1    0    0    0  501  0.00000000000E+00  0.00000000000E+00 -0.91675734347E+03  0.91675734348E+03  0.50400001928E-02 0. -1.
    10030    2    1    2    0    0  0.00000000000E+00  0.00000000000E+00  0.50575414302E+02  0.18840901013E+04  0.18834111705E+04 0.  0.
        3    1    3    3  502    0  0.62247086284E+02 -0.93961409428E+03  0.17535516527E+02  0.94183695535E+03  0.10100000352E+00 0.  1.
       -3    1    3    3    0  502 -0.62247086284E+02  0.93961409428E+03  0.33039897776E+02  0.94225314591E+03  0.10100000352E+00 0. -1.
</event>
<event>
 5   0  0.3623359E-04  0.1906522E+04  0.7818609E-02  0.8651617E-01
       -2   -1    0    0    0  501  0.00000000000E+00  0.00000000000E+00  0.46124118163E+03  0.46124118164E+03  0.25500000920E-02 0. -1.
        2   -1    0    0  501    0  0.00000000000E+00  0.00000000000E+00 -0.19701326073E+04  0.19701326073E+04  0.25500000920E-02 0.  1.
    10030    2    1    2    0    0  0.00000000000E+00  0.00000000000E+00 -0.15088914257E+04  0.24313737889E+04  0.19065217458E+04 0.  0.
        5    1    3    3  502    0 -0.87179642913E+03 -0.32232727211E+03 -0.48463664157E+03  0.10482455097E+04  0.46999998093E+01 0.  1.
       -5    1    3    3    0  502  0.87179642913E+03  0.32232727211E+03 -0.10242547841E+04  0.13831282793E+04  0.46999998093E+01 0. -1.
</event>
<event>
 5   0  0.1287000E-04  0.1887325E+04  0.7818609E-02  0.8661191E-01
       -3   -1    0    0    0  501  0.00000000000E+00  0.00000000000E+00  0.13132505904E+04  0.13132505943E+04  0.10100000352E+00 0. -1.
        3   -1    0    0  501    0  0.00000000000E+00  0.00000000000E+00 -0.67808740735E+03  0.67808741487E+03  0.10100000352E+00 0.  1.
    10030    2    1    2    0    0  0.00000000000E+00  0.00000000000E+00  0.63516318307E+03  0.19913380092E+04  0.18873247727E+04 0.  0.
        4    1    3    3  502    0 -0.85559092637E+03  0.28927072169E+03  0.29044383380E+02  0.90363630561E+03  0.12699999809E+01 0.  1.
       -4    1    3    3    0  502  0.85559092637E+03 -0.28927072169E+03  0.60611879970E+03  0.10877017036E+04  0.12699999809E+01 0. -1.
</event>
<event>
 5   0  0.3623359E-04  0.1878395E+04  0.7818609E-02  0.8665686E-01
       -2   -1    0    0    0  501  0.00000000000E+00  0.00000000000E+00  0.10729910404E+04  0.10729910404E+04  0.25500000920E-02 0.  1.
        2   -1    0    0  501    0  0.00000000000E+00  0.00000000000E+00 -0.82208696431E+03  0.82208696431E+03  0.25500000920E-02 0. -1.
    10030    2    1    2    0    0  0.00000000000E+00  0.00000000000E+00  0.25090407607E+03  0.18950780047E+04  0.18783950033E+04 0.  0.
        5    1    3    3  502    0  0.50709385115E+03 -0.64314284743E+03  0.58920071257E+03  0.10089382864E+04  0.46999998093E+01 0.  1.
       -5    1    3    3    0  502 -0.50709385115E+03  0.64314284743E+03 -0.33829663651E+03  0.88613971829E+03  0.46999998093E+01 0. -1.
</event>
<event>
 5   0  0.1711979E-04  0.1727973E+04  0.7818609E-02  0.8745569E-01
       -1   -1    0    0    0  501  0.00000000000E+00  0.00000000000E+00  0.70607066903E+03  0.70607066905E+03  0.50400001928E-02 0. -1.
        1   -1    0    0  501    0  0.00000000000E+00  0.00000000000E+00 -0.10572213276E+04  0.10572213276E+04  0.50400001928E-02 0.  1.
    10030    2    1    2    0    0  0.00000000000E+00  0.00000000000E+00 -0.35115065853E+03  0.17632919966E+04  0.17279733448E+04 0.  0.
        4    1    3    3  502    0  0.44183250138E+03  0.61788915324E+03  0.24450423233E+03  0.79798928407E+03  0.12699999809E+01 0. -1.
       -4    1    3    3    0  502 -0.44183250138E+03 -0.61788915324E+03 -0.59565489086E+03  0.96530271255E+03  0.12699999809E+01 0.  1.
</event>
<event>
 5   0  0.1813834E-04  0.1898487E+04  0.7818609E-02  0.8655610E-01
       -1   -1    0    0    0  501  0.00000000000E+00  0.00000000000E+00  0.34835395215E+03  0.34835395218E+03  0.50400001928E-02 0. -1.
        1   -1    0    0  501    0  0.00000000000E+00  0.00000000000E+00 -0.25866302029E+04  0.25866302029E+04  0.50400001928E-02 0.  1.
    10030    2    1    2    0    0  0.00000000000E+00  0.00000000000E+00 -0.22382762508E+04  0.29349841551E+04  0.18984866120E+04 0.  0.
        5    1    3    3  502    0  0.34012053431E+03 -0.76666864093E+02 -0.24840385939E+04  0.25083918378E+04  0.46999998093E+01 0.  1.
       -5    1    3    3    0  502 -0.34012053431E+03  0.76666864093E+02  0.24576234312E+03  0.42659231733E+03  0.46999998093E+01 0. -1.
</event>
<event>
 5   0  0.3459485E-04  0.1941876E+04  0.7818609E-02  0.8634288E-01
       -2   -1    0    0    0  501  0.00000000000E+00  0.00000000000E+00  0.90432587489E+03  0.90432587490E+03  0.25500000920E-02 0.  1.
        2   -1    0    0  501    0  0.00000000000E+00  0.00000000000E+00 -0.10424570944E+04  0.10424570944E+04  0.25500000920E-02 0. -1.
    10030    2    1    2    0    0  0.00000000000E+00  0.00000000000E+00 -0.13813121953E+03  0.19467829693E+04  0.19418763338E+04 0.  0.
        3    1    3    3  502    0 -0.34748068719E+03  0.53206537597E+03  0.66687678921E+03  0.92117373739E+03  0.10100000352E+00 0.  1.
       -3    1    3    3    0  502  0.34748068719E+03 -0.53206537597E+03 -0.80500800874E+03  0.10256092319E+04  0.10100000352E+00 0. -1.
</event>
<event>
 5   0  0.3623359E-04  0.1795062E+04  0.7818609E-02  0.8708930E-01
        2   -1    0    0  501    0  0.00000000000E+00  0.00000000000E+00  0.63921183065E+03  0.63921183066E+03  0.25500000920E-02 0.  1.
       -2   -1    0    0    0  501  0.00000000000E+00  0.00000000000E+00 -0.12602427169E+04  0.12602427169E+04  0.25500000920E-02 0. -1.
    10030    2    1    2    0    0  0.00000000000E+00  0.00000000000E+00 -0.62103088628E+03  0.18994545476E+04  0.17950621763E+04 0.  0.
        5    1    3    3  502    0 -0.31053632444E+03  0.18756302732E+03  0.55815675780E+03  0.66571296689E+03  0.46999998093E+01 0.  1.
       -5    1    3    3    0  502  0.31053632444E+03 -0.18756302732E+03 -0.11791876441E+04  0.12337415807E+04  0.46999998093E+01 0. -1.
</event>
<event>
 5   0  0.1287000E-04  0.1899833E+04  0.7818609E-02  0.8654940E-01
       -3   -1    0    0    0  501  0.00000000000E+00  0.00000000000E+00  0.64370850858E+03  0.64370851650E+03  0.10100000352E+00 0. -1.
        3   -1    0    0  501    0  0.00000000000E+00  0.00000000000E+00 -0.14017855164E+04  0.14017855200E+04  0.10100000352E+00 0.  1.
    10030    2    1    2    0    0  0.00000000000E+00  0.00000000000E+00 -0.75807700779E+03  0.20454940365E+04  0.18998329147E+04 0.  0.
        1    1    3    3  502    0  0.55782422647E+03  0.25775065158E+03  0.40088870578E+03  0.73369954374E+03  0.50400001928E-02 0. -1.
       -1    1    3    3    0  502 -0.55782422647E+03 -0.25775065158E+03 -0.11589657136E+04  0.13117944928E+04  0.50400001928E-02 0.  1.
</event>
<event>
 5   0  0.3516539E-04  0.1182242E+04  0.7818609E-02  0.9128544E-01
       -2   -1    0    0    0  501  0.00000000000E+00  0.00000000000E+00  0.30608806472E+03  0.30608806473E+03  0.25500000920E-02 0. -1.
        2   -1    0    0  501    0  0.00000000000E+00  0.00000000000E+00 -0.11415798510E+04  0.11415798510E+04  0.25500000920E-02 0.  1.
    10030    2    1    2    0    0  0.00000000000E+00  0.00000000000E+00 -0.83549178629E+03  0.14476679157E+04  0.11822418827E+04 0.  0.
        4    1    3    3  502    0  0.83346968799E+02 -0.14862118131E+03 -0.11108529333E+04  0.11238464419E+04  0.12699999809E+01 0.  1.
       -4    1    3    3    0  502 -0.83346968799E+02  0.14862118131E+03  0.27536114698E+03  0.32382147382E+03  0.12699999809E+01 0. -1.
</event>
<event>
 5   0  0.1694830E-04  0.1885343E+04  0.7818609E-02  0.8662187E-01
       -1   -1    0    0    0  501  0.00000000000E+00  0.00000000000E+00  0.60475191396E+03  0.60475191398E+03  0.50400001928E-02 0.  1.
        1   -1    0    0  501    0  0.00000000000E+00  0.00000000000E+00 -0.14694116243E+04  0.14694116243E+04  0.50400001928E-02 0. -1.
    10030    2    1    2    0    0  0.00000000000E+00  0.00000000000E+00 -0.86465971030E+03  0.20741635382E+04  0.18853429313E+04 0.  0.
        1    1    3    3  502    0  0.35231180052E+03 -0.68207632049E+03  0.16952237710E+03  0.78618671327E+03  0.50400001928E-02 0.  1.
       -1    1    3    3    0  502 -0.35231180052E+03  0.68207632049E+03 -0.10341820874E+04  0.12879768250E+04  0.50400001928E-02 0. -1.
</event>
<event>
 5   0  0.1711979E-04  0.1917454E+04  0.7818609E-02  0.8646217E-01
        1   -1    0    0  501    0  0.00000000000E+00  0.00000000000E+00  0.31998652154E+04  0.31998652154E+04  0.50400001928E-02 0. -1.
       -1   -1    0    0    0  501  0.00000000000E+00  0.00000000000E+00 -0.28724884484E+03  0.28724884488E+03  0.50400001928E-02 0.  1.
    10030    2    1    2    0    0  0.00000000000E+00  0.00000000000E+00  0.29126163706E+04  0.34871140603E+04  0.19174541318E+04 0.  0.
        4    1    3    3  502    0 -0.28882905674E+03  0.77372461369E+03  0.57080063903E+03  0.10039357471E+04  0.12699999809E+01 0.  1.
       -4    1    3    3    0  502  0.28882905674E+03 -0.77372461369E+03  0.23418157315E+04  0.24831783132E+04  0.12699999809E+01 0. -1.
</event>
<event>
 5   0  0.1711979E-04  0.1921425E+04  0.7818609E-02  0.8644265E-01
        1   -1    0    0  501    0  0.00000000000E+00  0.00000000000E+00  0.14554844697E+04  0.14554844697E+04  0.50400001928E-02 0. -1.
       -1   -1    0    0    0  501  0.00000000000E+00  0.00000000000E+00 -0.63413143160E+03  0.63413143162E+03  0.50400001928E-02 0.  1.
    10030    2    1    2    0    0  0.00000000000E+00  0.00000000000E+00  0.82135303812E+03  0.20896159013E+04  0.19214249405E+04 0.  0.
        4    1    3    3  502    0 -0.41227488663E+03  0.70926849427E+03  0.95437248295E+03  0.12585153270E+04  0.12699999809E+01 0. -1.
       -4    1    3    3    0  502  0.41227488663E+03 -0.70926849427E+03 -0.13301944483E+03  0.83110057437E+03  0.12699999809E+01 0.  1.
</event>
<event>
 5   0  0.1711979E-04  0.1867478E+04  0.7818609E-02  0.8671216E-01
        1   -1    0    0  501    0  0.00000000000E+00  0.00000000000E+00  0.89694193237E+03  0.89694193239E+03  0.50400001928E-02 0.  1.
       -1   -1    0    0    0  501  0.00000000000E+00  0.00000000000E+00 -0.97204597740E+03  0.97204597741E+03  0.50400001928E-02 0. -1.
    10030    2    1    2    0    0  0.00000000000E+00  0.00000000000E+00 -0.75104045023E+02  0.18689879098E+04  0.18674782969E+04 0.  0.
        4    1    3    3  502    0  0.88403324881E+03 -0.16710407375E+03 -0.28761121472E+03  0.94454241842E+03  0.12699999809E+01 0.  1.
       -4    1    3    3    0  502 -0.88403324881E+03  0.16710407375E+03  0.21250716970E+03  0.92444549138E+03  0.12699999809E+01 0. -1.
</event>
<event>
 5   0  0.1694830E-04  0.1882442E+04  0.7818609E-02  0.8663646E-01
        1   -1    0    0  501    0  0.00000000000E+00  0.00000000000E+00  0.99405508817E+03  0.99405508819E+03  0.50400001928E-02 0.  1.
       -1   -1    0    0    0  501  0.00000000000E+00  0.00000000000E+00 -0.89119502578E+03  0.89119502580E+03  0.50400001928E-02 0. -1.
    10030    2    1    2    0    0  0.00000000000E+00  0.00000000000E+00  0.10286006239E+03  0.18852501140E+04  0.18824419778E+04 0.  0.
        1    1    3    3  502    0 -0.61983752660E+03 -0.28099018187E+03  0.70258677420E+03  0.97815245079E+03  0.50400001928E-02 0.  1.
       -1    1    3    3    0  502  0.61983752660E+03  0.28099018187E+03 -0.59972671181E+03  0.90709766319E+03  0.50400001928E-02 0. -1.
</event>
<event>
 5   0  0.1813834E-04  0.1749503E+04  0.7818609E-02  0.8733624E-01
        1   -1    0    0  501    0  0.00000000000E+00  0.00000000000E+00  0.86375618761E+03  0.86375618762E+03  0.50400001928E-02 0. -1.
       -1   -1    0    0    0  501  0.00000000000E+00  0.00000000000E+00 -0.88588720606E+03  0.88588720608E+03  0.50400001928E-02 0.  1.
    10030    2    1    2    0    0  0.00000000000E+00  0.00000000000E+00 -0.22131018458E+02  0.17496433937E+04  0.17495034219E+04 0.  0.
        5    1    3    3  502    0 -0.12516667310E+03  0.17338802036E+02 -0.87669881644E+03  0.88577098330E+03  0.46999998093E+01 0.  1.
       -5    1    3    3    0  502  0.12516667310E+03 -0.17338802036E+02  0.85456779798E+03  0.86387241040E+03  0.46999998093E+01 0. -1.
</event>
<event>
 5   0  0.3516539E-04  0.1935394E+04  0.7818609E-02  0.8637437E-01
       -2   -1    0    0    0  501  0.00000000000E+00  0.00000000000E+00  0.62730417558E+03  0.62730417558E+03  0.25500000920E-02 0. -1.
        2   -1    0    0  501    0  0.00000000000E+00  0.00000000000E+00 -0.14927958011E+04  0.14927958011E+04  0.25500000920E-02 0.  1.
    10030    2    1    2    0    0  0.00000000000E+00  0.00000000000E+00 -0.86549162553E+03  0.21200999767E+04  0.19353935407E+04 0.  0.
        4    1    3    3  502    0 -0.26601368708E+03  0.32405131941E+03 -0.13881412607E+04  0.14500725195E+04  0.12699999809E+01 0.  1.
       -4    1    3    3    0  502  0.26601368708E+03 -0.32405131941E+03  0.52264963516E+03  0.67002745717E+03  0.12699999809E+01 0. -1.
</event>
<event>
 5   0  0.1813834E-04  0.1860221E+04  0.7818609E-02  0.8674914E-01
        1   -1    0    0  501    0  0.00000000000E+00  0.00000000000E+00  0.76858959537E+03  0.76858959539E+03  0.50400001928E-02 0. -1.
       -1   -1    0    0    0  501  0.00000000000E+00  0.00000000000E+00 -0.11255749306E+04  0.11255749306E+04  0.50400001928E-02 0.  1.
    10030    2    1    2    0    0  0.00000000000E+00  0.00000000000E+00 -0.35698533526E+03  0.18941645260E+04  0.18602206111E+04 0.  0.
        5    1    3    3  502    0  0.74611509542E+03 -0.24187510333E+03 -0.68750609663E+03  0.10430139137E+04  0.46999998093E+01 0.  1.
       -5    1    3    3    0  502 -0.74611509542E+03  0.24187510333E+03  0.33052076137E+03  0.85115061236E+03  0.46999998093E+01 0. -1.
</event>
<event>
 5   0  0.3516539E-04  0.1880336E+04  0.7818609E-02  0.8664707E-01
        2   -1    0    0  501    0  0.00000000000E+00  0.00000000000E+00  0.16469430487E+04  0.16469430487E+04  0.25500000920E-02 0.  1.
       -2   -1    0    0    0  501  0.00000000000E+00  0.00000000000E+00 -0.53670097958E+03  0.53670097959E+03  0.25500000920E-02 0. -1.
    10030    2    1    2    0    0  0.00000000000E+00  0.00000000000E+00  0.11102420691E+04  0.21836440283E+04  0.18803360844E+04 0.  0.
        4    1    3    3  502    0 -0.56050784906E+03  0.35130057074E+03 -0.22072573404E+03  0.69735400080E+03  0.12699999809E+01 0. -1.
       -4    1    3    3    0  502  0.56050784906E+03 -0.35130057074E+03  0.13309678032E+04  0.14862900275E+04  0.12699999809E+01 0.  1.
</event>
<event>
 5   0  0.1694830E-04  0.1879355E+04  0.7818609E-02  0.8665202E-01
       -1   -1    0    0    0  501  0.00000000000E+00  0.00000000000E+00  0.49106453228E+03  0.49106453231E+03  0.50400001928E-02 0. -1.
        1   -1    0    0  501    0  0.00000000000E+00  0.00000000000E+00 -0.17981211217E+04  0.17981211217E+04  0.50400001928E-02 0.  1.
    10030    2    1    2    0    0  0.00000000000E+00  0.00000000000E+00 -0.13070565894E+04  0.22891856540E+04  0.18793546846E+04 0.  0.
        1    1    3    3  502    0  0.84004301750E+03  0.39619452509E+03 -0.82729500469E+03  0.12438084249E+04  0.50400001928E-02 0.  1.
       -1    1    3    3    0  502 -0.84004301750E+03 -0.39619452509E+03 -0.47976158469E+03  0.10453772291E+04  0.50400001928E-02 0. -1.
</event>
<event>
 5   0  0.3720978E-04  0.1669955E+04  0.7818609E-02  0.8778688E-01
       -2   -1    0    0    0  501  0.00000000000E+00  0.00000000000E+00  0.11068069372E+04  0.11068069372E+04  0.25500000920E-02 0.  1.
        2   -1    0    0  501    0  0.00000000000E+00  0.00000000000E+00 -0.62990859043E+03  0.62990859044E+03  0.25500000920E-02 0. -1.
    10030    2    1    2    0    0  0.00000000000E+00  0.00000000000E+00  0.47689834676E+03  0.17367155276E+04  0.16699547272E+04 0.  0.
        1    1    3    3  502    0  0.56048740111E+03  0.27267424728E+02  0.88146957439E+03  0.10449297823E+04  0.50400001928E-02 0.  1.
       -1    1    3    3    0  502 -0.56048740111E+03 -0.27267424728E+02 -0.40457122762E+03  0.69178574537E+03  0.50400001928E-02 0. -1.
</event>
<event>
 5   0  0.1782613E-04  0.1930952E+04  0.7818609E-02  0.8639601E-01
        1   -1    0    0  501    0  0.00000000000E+00  0.00000000000E+00  0.12123775062E+04  0.12123775063E+04  0.50400001928E-02 0. -1.
       -1   -1    0    0    0  501  0.00000000000E+00  0.00000000000E+00 -0.76885614737E+03  0.76885614739E+03  0.50400001928E-02 0.  1.
    10030    2    1    2    0    0  0.00000000000E+00  0.00000000000E+00  0.44352135887E+03  0.19812336536E+04  0.19309519918E+04 0.  0.
        3    1    3    3  502    0 -0.23721985148E+03  0.36794843684E+03  0.11046824574E+04  0.11882687625E+04  0.10100000352E+00 0. -1.
       -3    1    3    3    0  502  0.23721985148E+03 -0.36794843684E+03 -0.66116109854E+03  0.79296489111E+03  0.10100000352E+00 0.  1.
</event>
<event>
 5   0  0.3535876E-04  0.1963375E+04  0.7818609E-02  0.8623938E-01
        2   -1    0    0  501    0  0.00000000000E+00  0.00000000000E+00  0.28752837565E+04  0.28752837565E+04  0.25500000920E-02 0.  1.
       -2   -1    0    0    0  501  0.00000000000E+00  0.00000000000E+00 -0.33517036112E+03  0.33517036113E+03  0.25500000920E-02 0. -1.
    10030    2    1    2    0    0  0.00000000000E+00  0.00000000000E+00  0.25401133954E+04  0.32104541176E+04  0.19633745389E+04 0.  0.
        2    1    3    3  502    0 -0.27305660870E+03 -0.48471504992E+03 -0.52514362517E+02  0.55880797189E+03  0.25500000920E-02 0. -1.
       -2    1    3    3    0  502  0.27305660870E+03  0.48471504992E+03  0.25926277579E+04  0.26516461458E+04  0.25500000920E-02 0.  1.
</event>
<event>
 5   0  0.1694830E-04  0.1962075E+04  0.7818609E-02  0.8624560E-01
       -1   -1    0    0    0  501  0.00000000000E+00  0.00000000000E+00  0.30596410342E+03  0.30596410346E+03  0.50400001928E-02 0. -1.
        1   -1    0    0  501    0  0.00000000000E+00  0.00000000000E+00 -0.31455789943E+04  0.31455789943E+04  0.50400001928E-02 0.  1.
    10030    2    1    2    0    0  0.00000000000E+00  0.00000000000E+00 -0.28396148909E+04  0.34515430978E+04  0.19620746742E+04 0.  0.
        1    1    3    3  502    0  0.47565526600E+03 -0.72898373634E+03 -0.22158383197E+04  0.23806731567E+04  0.50400001928E-02 0.  1.
       -1    1    3    3    0  502 -0.47565526600E+03  0.72898373634E+03 -0.62377657119E+03  0.10708699411E+04  0.50400001928E-02 0. -1.
</event>
<event>
 5   0  0.1782613E-04  0.1894784E+04  0.7818609E-02  0.8657457E-01
        1   -1    0    0  501    0  0.00000000000E+00  0.00000000000E+00  0.20079205501E+04  0.20079205501E+04  0.50400001928E-02 0.  1.
       -1   -1    0    0    0  501  0.00000000000E+00  0.00000000000E+00 -0.44700574791E+03  0.44700574794E+03  0.50400001928E-02 0. -1.
    10030    2    1    2    0    0  0.00000000000E+00  0.00000000000E+00  0.15609148022E+04  0.24549262980E+04  0.18947844492E+04 0.  0.
        3    1    3    3  502    0  0.41093735430E+03 -0.80535433755E+03  0.11471138983E+04  0.14605942024E+04  0.10100000352E+00 0.  1.
       -3    1    3    3    0  502 -0.41093735430E+03  0.80535433755E+03  0.41380090386E+03  0.99433209563E+03  0.10100000352E+00 0. -1.
</event>
<event>
 5   0  0.1694830E-04  0.1896788E+04  0.7818609E-02  0.8656457E-01
       -1   -1    0    0    0  501  0.00000000000E+00  0.00000000000E+00  0.16218822678E+04  0.16218822678E+04  0.50400001928E-02 0.  1.
        1   -1    0    0  501    0  0.00000000000E+00  0.00000000000E+00 -0.55457219056E+03  0.55457219058E+03  0.50400001928E-02 0. -1.
    10030    2    1    2    0    0  0.00000000000E+00  0.00000000000E+00  0.10673100773E+04  0.21764544584E+04  0.18967876024E+04 0.  0.
        1    1    3    3  502    0 -0.65247500976E+03  0.56716945258E+03  0.98107808126E+03  0.13076387222E+04  0.50400001928E-02 0.  1.
       -1    1    3    3    0  502  0.65247500976E+03 -0.56716945258E+03  0.86231996012E+02  0.86881573619E+03  0.50400001928E-02 0. -1.
</event>
<event>
 5   0  0.3623359E-04  0.1892868E+04  0.7818609E-02  0.8658414E-01
        2   -1    0    0  501    0  0.00000000000E+00  0.00000000000E+00  0.14923187758E+04  0.14923187758E+04  0.25500000920E-02 0. -1.
       -2   -1    0    0    0  501  0.00000000000E+00  0.00000000000E+00 -0.60023218994E+03  0.60023218994E+03  0.25500000920E-02 0.  1.
    10030    2    1    2    0    0  0.00000000000E+00  0.00000000000E+00  0.89208658586E+03  0.20925509657E+04  0.18928684760E+04 0.  0.
        5    1    3    3  502    0 -0.92270767196E+03 -0.10816786529E+03  0.64572447331E+03  0.11314026341E+04  0.46999998093E+01 0. -1.
       -5    1    3    3    0  502  0.92270767196E+03  0.10816786529E+03  0.24636211256E+03  0.96114833167E+03  0.46999998093E+01 0.  1.
</event>
<event>
 5   0  0.3459485E-04  0.1888326E+04  0.7818609E-02  0.8660689E-01
        2   -1    0    0  501    0  0.00000000000E+00  0.00000000000E+00  0.11207514540E+04  0.11207514540E+04  0.25500000920E-02 0.  1.
       -2   -1    0    0    0  501  0.00000000000E+00  0.00000000000E+00 -0.79539803593E+03  0.79539803593E+03  0.25500000920E-02 0. -1.
    10030    2    1    2    0    0  0.00000000000E+00  0.00000000000E+00  0.32535341805E+03  0.19161494899E+04  0.18883257190E+04 0.  0.
        3    1    3    3  502    0 -0.44359070398E+03  0.38870841001E+03  0.91081664445E+03  0.10851054837E+04  0.10100000352E+00 0.  1.
       -3    1    3    3    0  502  0.44359070398E+03 -0.38870841001E+03 -0.58546322640E+03  0.83104400625E+03  0.10100000352E+00 0. -1.
</event>
<event>
 5   0  0.3720978E-04  0.1821012E+04  0.7818609E-02  0.8695205E-01
        2   -1    0    0  501    0  0.00000000000E+00  0.00000000000E+00  0.14972328845E+04  0.14972328845E+04  0.25500000920E-02 0.  1.
       -2   -1    0    0    0  501  0.00000000000E+00  0.00000000000E+00 -0.55370219231E+03  0.55370219232E+03  0.25500000920E-02 0. -1.
    10030    2    1    2    0    0  0.00000000000E+00  0.00000000000E+00  0.94353069216E+03  0.20509350768E+04  0.18210119500E+04 0.  0.
        1    1    3    3  502    0  0.16875263275E+02  0.77147938208E+03  0.10160606109E+04  0.12758700469E+04  0.50400001928E-02 0.  1.
       -1    1    3    3    0  502 -0.16875263275E+02 -0.77147938208E+03 -0.72529918719E+02  0.77506502993E+03  0.50400001928E-02 0. -1.
</event>
<event>
 5   0  0.1758946E-04  0.1860949E+04  0.7818609E-02  0.8674542E-01
       -1   -1    0    0    0  501  0.00000000000E+00  0.00000000000E+00  0.88335450000E+03  0.88335450001E+03  0.50400001928E-02 0.  1.
        1   -1    0    0  501    0  0.00000000000E+00  0.00000000000E+00 -0.98010810089E+03  0.98010810090E+03  0.50400001928E-02 0. -1.
    10030    2    1    2    0    0  0.00000000000E+00  0.00000000000E+00 -0.96753600894E+02  0.18634626009E+04  0.18609491142E+04 0.  0.
        2    1    3    3  502    0 -0.29016881517E+02  0.22922330966E+03 -0.95092519487E+03  0.97859288335E+03  0.25500000920E-02 0. -1.
       -2    1    3    3    0  502  0.29016881517E+02 -0.22922330966E+03  0.85417159398E+03  0.88486971756E+03  0.25500000920E-02 0.  1.
</event>
<event>
 5   0  0.1694830E-04  0.1968264E+04  0.7818609E-02  0.8621603E-01
       -1   -1    0    0    0  501  0.00000000000E+00  0.00000000000E+00  0.98132601424E+03  0.98132601425E+03  0.50400001928E-02 0. -1.
        1   -1    0    0  501    0  0.00000000000E+00  0.00000000000E+00 -0.98694640424E+03  0.98694640425E+03  0.50400001928E-02 0.  1.
    10030    2    1    2    0    0  0.00000000000E+00  0.00000000000E+00 -0.56203899982E+01  0.19682724185E+04  0.19682643940E+04 0.  0.
        1    1    3    3  502    0 -0.94313880364E+03 -0.54898477516E+01  0.27821628728E+03  0.98333373983E+03  0.50400001928E-02 0. -1.
       -1    1    3    3    0  502  0.94313880364E+03  0.54898477516E+01 -0.28383667728E+03  0.98493867867E+03  0.50400001928E-02 0.  1.
</event>
<event>
 5   0  0.3623359E-04  0.1901317E+04  0.7818609E-02  0.8654201E-01
       -2   -1    0    0    0  501  0.00000000000E+00  0.00000000000E+00  0.70709748070E+03  0.70709748070E+03  0.25500000920E-02 0.  1.
        2   -1    0    0  501    0  0.00000000000E+00  0.00000000000E+00 -0.12781145062E+04  0.12781145062E+04  0.25500000920E-02 0. -1.
    10030    2    1    2    0    0  0.00000000000E+00  0.00000000000E+00 -0.57101702553E+03  0.19852119869E+04  0.19013169619E+04 0.  0.
        5    1    3    3  502    0 -0.52931534031E+03  0.69816800079E+03 -0.67072709404E+03  0.11034084518E+04  0.46999998093E+01 0. -1.
       -5    1    3    3    0  502  0.52931534031E+03 -0.69816800079E+03  0.99710068507E+02  0.88180353514E+03  0.46999998093E+01 0.  1.
</event>
<event>
 5   0  0.1782613E-04  0.1870362E+04  0.7818609E-02  0.8669751E-01
       -1   -1    0    0    0  501  0.00000000000E+00  0.00000000000E+00  0.12039285786E+04  0.12039285786E+04  0.50400001928E-02 0. -1.
        1   -1    0    0  501    0  0.00000000000E+00  0.00000000000E+00 -0.72642511261E+03  0.72642511263E+03  0.50400001928E-02 0.  1.
    10030    2    1    2    0    0  0.00000000000E+00  0.00000000000E+00  0.47750346601E+03  0.19303536913E+04  0.18703624818E+04 0.  0.
        3    1    3    3  502    0 -0.35821925542E+03  0.38542069472E+03 -0.55915197294E+03  0.76780276498E+03  0.10100000352E+00 0.  1.
       -3    1    3    3    0  502  0.35821925542E+03 -0.38542069472E+03  0.10366554389E+04  0.11625509263E+04  0.10100000352E+00 0. -1.
</event>
<event>
 5   0  0.1711979E-04  0.1897939E+04  0.7818609E-02  0.8655883E-01
       -1   -1    0    0    0  501  0.00000000000E+00  0.00000000000E+00  0.51656922791E+03  0.51656922794E+03  0.50400001928E-02 0. -1.
        1   -1    0    0  501    0  0.00000000000E+00  0.00000000000E+00 -0.17433157694E+04  0.17433157695E+04  0.50400001928E-02 0.  1.
    10030    2    1    2    0    0  0.00000000000E+00  0.00000000000E+00 -0.12267465415E+04  0.22598849974E+04  0.18979391782E+04 0.  0.
        4    1    3    3  502    0 -0.78037438553E+03  0.12796578321E+02  0.29379788879E+02  0.78103310999E+03  0.12699999809E+01 0. -1.
       -4    1    3    3    0  502  0.78037438553E+03 -0.12796578321E+02 -0.12561263304E+04  0.14788518874E+04  0.12699999809E+01 0.  1.
</event>
<event>
 5   0  0.3623359E-04  0.1868863E+04  0.7818609E-02  0.8670512E-01
        2   -1    0    0  501    0  0.00000000000E+00  0.00000000000E+00  0.82046765714E+03  0.82046765715E+03  0.25500000920E-02 0.  1.
       -2   -1    0    0    0  501  0.00000000000E+00  0.00000000000E+00 -0.10642253559E+04  0.10642253559E+04  0.25500000920E-02 0. -1.
    10030    2    1    2    0    0  0.00000000000E+00  0.00000000000E+00 -0.24375769871E+03  0.18846930130E+04  0.18688632742E+04 0.  0.
        5    1    3    3  502    0 -0.53355797354E+03 -0.17877332157E+03 -0.87418439596E+03  0.10396463147E+04  0.46999998093E+01 0. -1.
       -5    1    3    3    0  502  0.53355797354E+03  0.17877332157E+03  0.63042669725E+03  0.84504669826E+03  0.46999998093E+01 0.  1.
</event>
<event>
 5   0  0.1287000E-04  0.2051922E+04  0.7818609E-02  0.8582723E-01
        3   -1    0    0  501    0  0.00000000000E+00  0.00000000000E+00  0.10997292350E+04  0.10997292396E+04  0.10100000352E+00 0.  1.
       -3   -1    0    0    0  501  0.00000000000E+00  0.00000000000E+00 -0.95714067471E+03  0.95714068004E+03  0.10100000352E+00 0. -1.
    10030    2    1    2    0    0  0.00000000000E+00  0.00000000000E+00  0.14258856027E+03  0.20568699197E+04  0.20519216283E+04 0.  0.
        2    1    3    3  502    0  0.36534228671E+03 -0.53775802383E+03 -0.72430537626E+03  0.97328154032E+03  0.25500000920E-02 0. -1.
       -2    1    3    3    0  502 -0.36534228671E+03  0.53775802383E+03  0.86689393653E+03  0.10835883793E+04  0.25500000920E-02 0.  1.
</event>
<event>
 5   0  0.3623359E-04  0.1510664E+04  0.7818609E-02  0.8877392E-01
        2   -1    0    0  501    0  0.00000000000E+00  0.00000000000E+00  0.87900642880E+03  0.87900642880E+03  0.25500000920E-02 0. -1.
       -2   -1    0    0    0  501  0.00000000000E+00  0.00000000000E+00 -0.64905826255E+03  0.64905826255E+03  0.25500000920E-02 0.  1.
    10030    2    1    2    0    0  0.00000000000E+00  0.00000000000E+00  0.22994816625E+03  0.15280646914E+04  0.15106639407E+04 0.  0.
        5    1    3    3  502    0 -0.26082492276E+02 -0.64659394964E+03 -0.27905138585E+03  0.70473810600E+03  0.46999998093E+01 0.  1.
       -5    1    3    3    0  502  0.26082492276E+02  0.64659394964E+03  0.50899955210E+03  0.82332658535E+03  0.46999998093E+01 0. -1.
</event>
<event>
 5   0  0.3516539E-04  0.1908140E+04  0.7818609E-02  0.8650815E-01
        2   -1    0    0  501    0  0.00000000000E+00  0.00000000000E+00  0.16906048146E+04  0.16906048146E+04  0.25500000920E-02 0.  1.
       -2   -1    0    0    0  501  0.00000000000E+00  0.00000000000E+00 -0.53841626917E+03  0.53841626918E+03  0.25500000920E-02 0. -1.
    10030    2    1    2    0    0  0.00000000000E+00  0.00000000000E+00  0.11521885454E+04  0.22290210838E+04  0.19081395514E+04 0.  0.
        4    1    3    3  502    0  0.24361645908E+03  0.84519813086E+03  0.10077443948E+04  0.13376319515E+04  0.12699999809E+01 0.  1.
       -4    1    3    3    0  502 -0.24361645908E+03 -0.84519813086E+03  0.14444415059E+03  0.89138913224E+03  0.12699999809E+01 0. -1.
</event>
<event>
 5   0  0.3720978E-04  0.1923275E+04  0.7818609E-02  0.8643357E-01
        2   -1    0    0  501    0  0.00000000000E+00  0.00000000000E+00  0.63092123574E+03  0.63092123574E+03  0.25500000920E-02 0. -1.
       -2   -1    0    0    0  501  0.00000000000E+00  0.00000000000E+00 -0.14657084269E+04  0.14657084269E+04  0.25500000920E-02 0.  1.
    10030    2    1    2    0    0  0.00000000000E+00  0.00000000000E+00 -0.83478719118E+03  0.20966296627E+04  0.19232748862E+04 0.  0.
        1    1    3    3  502    0 -0.21976862670E+03  0.35667874762E+03 -0.13609927366E+04  0.14240151710E+04  0.50400001928E-02 0.  1.
       -1    1    3    3    0  502  0.21976862670E+03 -0.35667874762E+03  0.52620554541E+03  0.67261449162E+03  0.50400001928E-02 0. -1.
</event>
<event>
 5   0  0.3720978E-04  0.1855449E+04  0.7818609E-02  0.8677356E-01
       -2   -1    0    0    0  501  0.00000000000E+00  0.00000000000E+00  0.85804809685E+03  0.85804809685E+03  0.25500000920E-02 0.  1.
        2   -1    0    0  501    0  0.00000000000E+00  0.00000000000E+00 -0.10030591477E+04  0.10030591477E+04  0.25500000920E-02 0. -1.
    10030    2    1    2    0    0  0.00000000000E+00  0.00000000000E+00 -0.14501105084E+03  0.18611072445E+04  0.18554492639E+04 0.  0.
        1    1    3    3  502    0  0.15259681046E+03 -0.26953912349E+03 -0.94966396466E+03  0.99889877938E+03  0.50400001928E-02 0. -1.
       -1    1    3    3    0  502 -0.15259681046E+03  0.26953912349E+03  0.80465291382E+03  0.86220846516E+03  0.50400001928E-02 0.  1.
</event>
<event>
 5   0  0.1758946E-04  0.1910698E+04  0.7818609E-02  0.8649549E-01
       -1   -1    0    0    0  501  0.00000000000E+00  0.00000000000E+00  0.65174242140E+03  0.65174242142E+03  0.50400001928E-02 0.  1.
        1   -1    0    0  501    0  0.00000000000E+00  0.00000000000E+00 -0.14003876113E+04  0.14003876113E+04  0.50400001928E-02 0. -1.
    10030    2    1    2    0    0  0.00000000000E+00  0.00000000000E+00 -0.74864518986E+03  0.20521300327E+04  0.19106983150E+04 0.  0.
        2    1    3    3  502    0 -0.63361142301E+03 -0.53770223287E+03  0.13184205600E+03  0.84140920743E+03  0.25500000920E-02 0.  1.
       -2    1    3    3    0  502  0.63361142301E+03  0.53770223287E+03 -0.88048724586E+03  0.12107208253E+04  0.25500000920E-02 0. -1.
</event>
<event>
 5   0  0.3720978E-04  0.1920675E+04  0.7818609E-02  0.8644633E-01
        2   -1    0    0  501    0  0.00000000000E+00  0.00000000000E+00  0.20143136533E+04  0.20143136533E+04  0.25500000920E-02 0.  1.
       -2   -1    0    0    0  501  0.00000000000E+00  0.00000000000E+00 -0.45784744095E+03  0.45784744095E+03  0.25500000920E-02 0. -1.
    10030    2    1    2    0    0  0.00000000000E+00  0.00000000000E+00  0.15564662124E+04  0.24721610943E+04  0.19206752473E+04 0.  0.
        1    1    3    3  502    0 -0.27023688735E+03 -0.89552772025E+03  0.49844713610E+03  0.10599280261E+04  0.50400001928E-02 0.  1.
       -1    1    3    3    0  502  0.27023688735E+03  0.89552772025E+03  0.10580190763E+04  0.14122330681E+04  0.50400001928E-02 0. -1.
</event>
<event>
 5   0  0.1813834E-04  0.1911174E+04  0.7818609E-02  0.8649314E-01
       -1   -1    0    0    0  501  0.00000000000E+00  0.00000000000E+00  0.10037983308E+04  0.10037983308E+04  0.50400001928E-02 0.  1.
        1   -1    0    0  501    0  0.00000000000E+00  0.00000000000E+00 -0.90969105010E+03  0.90969105012E+03  0.50400001928E-02 0. -1.
    10030    2    1    2    0    0  0.00000000000E+00  0.00000000000E+00  0.94107280658E+02  0.19134893809E+04  0.19111738358E+04 0.  0.
        5    1    3    3  502    0  0.97406085300E+02 -0.36634293522E+02 -0.90398893674E+03  0.90997148563E+03  0.46999998093E+01 0. -1.
       -5    1    3    3    0  502 -0.97406085300E+02  0.36634293522E+02  0.99809621740E+03  0.10035178953E+04  0.46999998093E+01 0.  1.
</event>
<event>
 5   0  0.1782613E-04  0.1898084E+04  0.7818609E-02  0.8655811E-01
       -1   -1    0    0    0  501  0.00000000000E+00  0.00000000000E+00  0.63184625937E+03  0.63184625939E+03  0.50400001928E-02 0. -1.
        1   -1    0    0  501    0  0.00000000000E+00  0.00000000000E+00 -0.14254747444E+04  0.14254747444E+04  0.50400001928E-02 0.  1.
    10030    2    1    2    0    0  0.00000000000E+00  0.00000000000E+00 -0.79362848501E+03  0.20573210038E+04  0.18980841763E+04 0.  0.
        3    1    3    3  502    0 -0.26283147516E+03  0.31489530946E+03  0.53081203698E+03  0.67082104101E+03  0.10100000352E+00 0. -1.
       -3    1    3    3    0  502  0.26283147516E+03 -0.31489530946E+03 -0.13244405220E+04  0.13864999628E+04  0.10100000352E+00 0.  1.
</event>
<event>
 5   0  0.3516539E-04  0.1881398E+04  0.7818609E-02  0.8664172E-01
       -2   -1    0    0    0  501  0.00000000000E+00  0.00000000000E+00  0.51032238432E+03  0.51032238433E+03  0.25500000920E-02 0.  1.
        2   -1    0    0  501    0  0.00000000000E+00  0.00000000000E+00 -0.17340305066E+04  0.17340305066E+04  0.25500000920E-02 0. -1.
    10030    2    1    2    0    0  0.00000000000E+00  0.00000000000E+00 -0.12237081223E+04  0.22443528910E+04  0.18813979724E+04 0.  0.
        4    1    3    3  502    0 -0.73335363783E+03 -0.42239929842E+03 -0.11017995154E+04  0.13893136832E+04  0.12699999809E+01 0. -1.
       -4    1    3    3    0  502  0.73335363783E+03  0.42239929842E+03 -0.12190860694E+03  0.85503920774E+03  0.12699999809E+01 0.  1.
</event>
<event>
 5   0  0.1711979E-04  0.1856489E+04  0.7818609E-02  0.8676823E-01
       -1   -1    0    0    0  501  0.00000000000E+00  0.00000000000E+00  0.78163435075E+03  0.78163435077E+03  0.50400001928E-02 0.  1.
        1   -1    0    0  501    0  0.00000000000E+00  0.00000000000E+00 -0.11023546428E+04  0.11023546428E+04  0.50400001928E-02 0. -1.
    10030    2    1    2    0    0  0.00000000000E+00  0.00000000000E+00 -0.32072029203E+03  0.18839889936E+04  0.18564894350E+04 0.  0.
        4    1    3    3  502    0 -0.39376267707E+03 -0.75467621429E+02  0.68923398466E+03  0.79736409892E+03  0.12699999809E+01 0.  1.
       -4    1    3    3    0  502  0.39376267707E+03  0.75467621429E+02 -0.10099542767E+04  0.10866248946E+04  0.12699999809E+01 0. -1.
</event>
<event>
 5   0  0.3459485E-04  0.1911013E+04  0.7818609E-02  0.8649394E-01
       -2   -1    0    0    0  501  0.00000000000E+00  0.00000000000E+00  0.39835587887E+03  0.39835587888E+03  0.25500000920E-02 0.  1.
        2   -1    0    0  501    0  0.00000000000E+00  0.00000000000E+00 -0.22919019556E+04  0.22919019556E+04  0.25500000920E-02 0. -1.
    10030    2    1    2    0    0  0.00000000000E+00  0.00000000000E+00 -0.18935460768E+04  0.26902578345E+04  0.19110129438E+04 0.  0.
        3    1    3    3  502    0 -0.46872519683E+03  0.31664939679E+03  0.13731822899E+03  0.58208801469E+03  0.10100000352E+00 0.  1.
       -3    1    3    3    0  502  0.46872519683E+03 -0.31664939679E+03 -0.20308643058E+04  0.21081698198E+04  0.10100000352E+00 0. -1.
</event>
<event>
 5   0  0.3459485E-04  0.1921039E+04  0.7818609E-02  0.8644454E-01
        2   -1    0    0  501    0  0.00000000000E+00  0.00000000000E+00  0.91204488862E+03  0.91204488863E+03  0.25500000920E-02 0. -1.
       -2   -1    0    0    0  501  0.00000000000E+00  0.00000000000E+00 -0.10115707589E+04  0.10115707589E+04  0.25500000920E-02 0.  1.
    10030    2    1    2    0    0  0.00000000000E+00  0.00000000000E+00 -0.99525870238E+02  0.19236156475E+04  0.19210392397E+04 0.  0.
        3    1    3    3  502    0 -0.24724073381E+03  0.62014804645E+03  0.64173280815E+03  0.92603055415E+03  0.10100000352E+00 0. -1.
       -3    1    3    3    0  502  0.24724073381E+03 -0.62014804645E+03 -0.74125867839E+03  0.99758509334E+03  0.10100000352E+00 0.  1.
</event>
<event>
 5   0  0.3459485E-04  0.1894428E+04  0.7818609E-02  0.8657635E-01
       -2   -1    0    0    0  501  0.00000000000E+00  0.00000000000E+00  0.15980727514E+04  0.15980727514E+04  0.25500000920E-02 0.  1.
        2   -1    0    0  501    0  0.00000000000E+00  0.00000000000E+00 -0.56143530916E+03  0.56143530916E+03  0.25500000920E-02 0. -1.
    10030    2    1    2    0    0  0.00000000000E+00  0.00000000000E+00  0.10366374423E+04  0.21595080606E+04  0.18944281134E+04 0.  0.
        3    1    3    3  502    0 -0.26905985388E+03 -0.42628754031E+03 -0.39582823463E+03  0.64093234707E+03  0.10100000352E+00 0. -1.
       -3    1    3    3    0  502  0.26905985388E+03  0.42628754031E+03  0.14324656769E+04  0.15185757135E+04  0.10100000352E+00 0.  1.
</event>
<event>
 5   0  0.1758946E-04  0.2049214E+04  0.7818609E-02  0.8583951E-01
        1   -1    0    0  501    0  0.00000000000E+00  0.00000000000E+00  0.78628492012E+03  0.78628492014E+03  0.50400001928E-02 0.  1.
       -1   -1    0    0    0  501  0.00000000000E+00  0.00000000000E+00 -0.13351642045E+04  0.13351642045E+04  0.50400001928E-02 0. -1.
    10030    2    1    2    0    0  0.00000000000E+00  0.00000000000E+00 -0.54887928439E+03  0.21214491247E+04  0.20492139761E+04 0.  0.
        2    1    3    3  502    0 -0.43331726172E+03 -0.80887846117E+03 -0.74632668736E+03  0.11828151751E+04  0.25500000920E-02 0. -1.
       -2    1    3    3    0  502  0.43331726172E+03  0.80887846117E+03  0.19744740297E+03  0.93863394952E+03  0.25500000920E-02 0.  1.
</event>
<event>
 5   0  0.3623359E-04  0.1833988E+04  0.7818609E-02  0.8688431E-01
       -2   -1    0    0    0  501  0.00000000000E+00  0.00000000000E+00  0.10110266131E+04  0.10110266131E+04  0.25500000920E-02 0. -1.
        2   -1    0    0  501    0  0.00000000000E+00  0.00000000000E+00 -0.83170675116E+03  0.83170675116E+03  0.25500000920E-02 0.  1.
    10030    2    1    2    0    0  0.00000000000E+00  0.00000000000E+00  0.17931986198E+03  0.18427333643E+04  0.18339876333E+04 0.  0.
        5    1    3    3  502    0  0.24554882378E+03 -0.48371158850E+03  0.83249898802E+03  0.99365375296E+03  0.46999998093E+01 0. -1.
       -5    1    3    3    0  502 -0.24554882378E+03  0.48371158850E+03 -0.65317912604E+03  0.84907961135E+03  0.46999998093E+01 0.  1.
</event>
<event>
 5   0  0.3623359E-04  0.1903695E+04  0.7818609E-02  0.8653019E-01
        2   -1    0    0  501    0  0.00000000000E+00  0.00000000000E+00  0.10568369319E+04  0.10568369319E+04  0.25500000920E-02 0.  1.
       -2   -1    0    0    0  501  0.00000000000E+00  0.00000000000E+00 -0.85728813312E+03  0.85728813312E+03  0.25500000920E-02 0. -1.
    10030    2    1    2    0    0  0.00000000000E+00  0.00000000000E+00  0.19954879875E+03  0.19141250650E+04  0.19036951020E+04 0.  0.
        5    1    3    3  502    0 -0.82554701986E+03  0.24564204405E+03 -0.30756710777E+03  0.91459691208E+03  0.46999998093E+01 0. -1.
       -5    1    3    3    0  502  0.82554701986E+03 -0.24564204405E+03  0.50711590652E+03  0.99952815291E+03  0.46999998093E+01 0.  1.
</event>
<event>
 5   0  0.3516539E-04  0.1702458E+04  0.7818609E-02  0.8759964E-01
       -2   -1    0    0    0  501  0.00000000000E+00  0.00000000000E+00  0.50117383735E+03  0.50117383736E+03  0.25500000920E-02 0.  1.
        2   -1    0    0  501    0  0.00000000000E+00  0.00000000000E+00 -0.14457871087E+04  0.14457871087E+04  0.25500000920E-02 0. -1.
    10030    2    1    2    0    0  0.00000000000E+00  0.00000000000E+00 -0.94461327135E+03  0.19469609461E+04  0.17024578389E+04 0.  0.
        4    1    3    3  502    0 -0.28107520242E+03  0.75033824101E+03 -0.80094168771E+03  0.11329253927E+04  0.12699999809E+01 0. -1.
       -4    1    3    3    0  502  0.28107520242E+03 -0.75033824101E+03 -0.14367158363E+03  0.81403555339E+03  0.12699999809E+01 0.  1.
</event>
<event>
 5   0  0.3516539E-04  0.1906517E+04  0.7818609E-02  0.8651619E-01
        2   -1    0    0  501    0  0.00000000000E+00  0.00000000000E+00  0.14471139156E+04  0.14471139156E+04  0.25500000920E-02 0. -1.
       -2   -1    0    0    0  501  0.00000000000E+00  0.00000000000E+00 -0.62794085475E+03  0.62794085475E+03  0.25500000920E-02 0.  1.
    10030    2    1    2    0    0  0.00000000000E+00  0.00000000000E+00  0.81917306082E+03  0.20750547703E+04  0.19065171901E+04 0.  0.
        4    1    3    3  502    0  0.31503137209E+03  0.80195955441E+03 -0.34284124530E+02  0.86229977757E+03  0.12699999809E+01 0.  1.
       -4    1    3    3    0  502 -0.31503137209E+03 -0.80195955441E+03  0.85345718535E+03  0.12127549927E+04  0.12699999809E+01 0. -1.
</event>
<event>
 5   0  0.1758946E-04  0.1885759E+04  0.7818609E-02  0.8661978E-01
       -1   -1    0    0    0  501  0.00000000000E+00  0.00000000000E+00  0.76839287619E+03  0.76839287621E+03  0.50400001928E-02 0. -1.
        1   -1    0    0  501    0  0.00000000000E+00  0.00000000000E+00 -0.11569887333E+04  0.11569887333E+04  0.50400001928E-02 0.  1.
    10030    2    1    2    0    0  0.00000000000E+00  0.00000000000E+00 -0.38859585712E+03  0.19253816095E+04  0.18857591580E+04 0.  0.
        2    1    3    3  502    0  0.42302684844E+03  0.76221447004E+03 -0.56115130180E+03  0.10367320755E+04  0.25500000920E-02 0.  1.
       -2    1    3    3    0  502 -0.42302684844E+03 -0.76221447004E+03  0.17255544467E+03  0.88864953403E+03  0.25500000920E-02 0. -1.
</event>
<event>
 5   0  0.3459485E-04  0.1923447E+04  0.7818609E-02  0.8643273E-01
       -2   -1    0    0    0  501  0.00000000000E+00  0.00000000000E+00  0.10572186886E+04  0.10572186886E+04  0.25500000920E-02 0.  1.
        2   -1    0    0  501    0  0.00000000000E+00  0.00000000000E+00 -0.87485395107E+03  0.87485395108E+03  0.25500000920E-02 0. -1.
    10030    2    1    2    0    0  0.00000000000E+00  0.00000000000E+00  0.18236473752E+03  0.19320726397E+04  0.19234468507E+04 0.  0.
        3    1    3    3  502    0  0.78501642477E+03 -0.53041017905E+03  0.25723004939E+03  0.98170925111E+03  0.10100000352E+00 0.  1.
       -3    1    3    3    0  502 -0.78501642477E+03  0.53041017905E+03 -0.74865311868E+02  0.95036338856E+03  0.10100000352E+00 0. -1.
</event>
<event>
 5   0  0.1711979E-04  0.1940346E+04  0.7818609E-02  0.8635030E-01
        1   -1    0    0  501    0  0.00000000000E+00  0.00000000000E+00  0.20867511752E+04  0.20867511752E+04  0.50400001928E-02 0.  1.
       -1   -1    0    0    0  501  0.00000000000E+00  0.00000000000E+00 -0.45105328056E+03  0.45105328059E+03  0.50400001928E-02 0. -1.
    10030    2    1    2    0    0  0.00000000000E+00  0.00000000000E+00  0.16356978946E+04  0.25378044558E+04  0.19403463230E+04 0.  0.
        4    1    3    3  502    0 -0.79125439922E+03  0.54031024124E+03  0.61856628870E+03  0.11404580428E+04  0.12699999809E+01 0.  1.
       -4    1    3    3    0  502  0.79125439922E+03 -0.54031024124E+03  0.10171316059E+04  0.13973464129E+04  0.12699999809E+01 0. -1.
</event>
<event>
 5   0  0.3720978E-04  0.1821520E+04  0.7818609E-02  0.8694939E-01
        2   -1    0    0  501    0  0.00000000000E+00  0.00000000000E+00  0.15090148046E+04  0.15090148046E+04  0.25500000920E-02 0.  1.
       -2   -1    0    0    0  501  0.00000000000E+00  0.00000000000E+00 -0.54968535152E+03  0.54968535153E+03  0.25500000920E-02 0. -1.
    10030    2    1    2    0    0  0.00000000000E+00  0.00000000000E+00  0.95932945303E+03  0.20587001561E+04  0.18215195122E+04 0.  0.
        1    1    3    3  502    0  0.42950734079E+03 -0.65124756778E+03  0.10108435984E+04  0.12768730284E+04  0.50400001928E-02 0.  1.
       -1    1    3    3    0  502 -0.42950734079E+03  0.65124756778E+03 -0.51514145345E+02  0.78182712765E+03  0.50400001928E-02 0. -1.
</event>
<event>
 5   0  0.3535876E-04  0.1530217E+04  0.7818609E-02  0.8864604E-01
        2   -1    0    0  501    0  0.00000000000E+00  0.00000000000E+00  0.18584731263E+04  0.18584731263E+04  0.25500000920E-02 0.  1.
       -2   -1    0    0    0  501  0.00000000000E+00  0.00000000000E+00 -0.31498500201E+03  0.31498500202E+03  0.25500000920E-02 0. -1.
    10030    2    1    2    0    0  0.00000000000E+00  0.00000000000E+00  0.15434881243E+04  0.21734581283E+04  0.15302171891E+04 0.  0.
        2    1    3    3  502    0 -0.44786211825E+03  0.35848728947E+03  0.14908128321E+04  0.15973780123E+04  0.25500000920E-02 0.  1.
       -2    1    3    3    0  502  0.44786211825E+03 -0.35848728947E+03  0.52675292144E+02  0.57608011603E+03  0.25500000920E-02 0. -1.
</event>
<event>
 5   0  0.1711979E-04  0.1894876E+04  0.7818609E-02  0.8657411E-01
       -1   -1    0    0    0  501  0.00000000000E+00  0.00000000000E+00  0.73816534031E+03  0.73816534032E+03  0.50400001928E-02 0. -1.
        1   -1    0    0  501    0  0.00000000000E+00  0.00000000000E+00 -0.12160405224E+04  0.12160405224E+04  0.50400001928E-02 0.  1.
    10030    2    1    2    0    0  0.00000000000E+00  0.00000000000E+00 -0.47787518210E+03  0.19542058627E+04  0.18948762135E+04 0.  0.
        4    1    3    3  502    0 -0.21172505987E+03  0.44486670703E+03 -0.10735370752E+04  0.11811931903E+04  0.12699999809E+01 0.  1.
       -4    1    3    3    0  502  0.21172505987E+03 -0.44486670703E+03  0.59566189311E+03  0.77301267247E+03  0.12699999809E+01 0. -1.
</event>
<event>
 5   0  0.1758946E-04  0.1892281E+04  0.7818609E-02  0.8658708E-01
        1   -1    0    0  501    0  0.00000000000E+00  0.00000000000E+00  0.11179291914E+04  0.11179291914E+04  0.50400001928E-02 0. -1.
       -1   -1    0    0    0  501  0.00000000000E+00  0.00000000000E+00 -0.80075032565E+03  0.80075032567E+03  0.50400001928E-02 0.  1.
    10030    2    1    2    0    0  0.00000000000E+00  0.00000000000E+00  0.31717886579E+03  0.19186795171E+04  0.18922813365E+04 0.  0.
        2    1    3    3  502    0  0.11976356308E+03  0.18959316451E+02  0.11100183182E+04  0.11166214369E+04  0.25500000920E-02 0. -1.
       -2    1    3    3    0  502 -0.11976356308E+03 -0.18959316451E+02 -0.79283945239E+03  0.80205808019E+03  0.25500000920E-02 0.  1.
</event>
<event>
 5   0  0.3516539E-04  0.1938951E+04  0.7818609E-02  0.8635707E-01
        2   -1    0    0  501    0  0.00000000000E+00  0.00000000000E+00  0.13616865835E+04  0.13616865835E+04  0.25500000920E-02 0.  1.
       -2   -1    0    0    0  501  0.00000000000E+00  0.00000000000E+00 -0.69023404903E+03  0.69023404904E+03  0.25500000920E-02 0. -1.
    10030    2    1    2    0    0  0.00000000000E+00  0.00000000000E+00  0.67145253451E+03  0.20519206326E+04  0.19389506895E+04 0.  0.
        4    1    3    3  502    0 -0.71339124501E+03  0.47057274283E+03  0.82012323194E+03  0.11844701361E+04  0.12699999809E+01 0.  1.
       -4    1    3    3    0  502  0.71339124501E+03 -0.47057274283E+03 -0.14867069743E+03  0.86745049653E+03  0.12699999809E+01 0. -1.
</event>
<event>
 5   0  0.3516539E-04  0.1788814E+04  0.7818609E-02  0.8712271E-01
        2   -1    0    0  501    0  0.00000000000E+00  0.00000000000E+00  0.12482960568E+04  0.12482960568E+04  0.25500000920E-02 0. -1.
       -2   -1    0    0    0  501  0.00000000000E+00  0.00000000000E+00 -0.64084464524E+03  0.64084464524E+03  0.25500000920E-02 0.  1.
    10030    2    1    2    0    0  0.00000000000E+00  0.00000000000E+00  0.60745141152E+03  0.18891407020E+04  0.17888139575E+04 0.  0.
        4    1    3    3  502    0  0.22133881755E+03 -0.86563785981E+03  0.34652590326E+03  0.95833271415E+03  0.12699999809E+01 0. -1.
       -4    1    3    3    0  502 -0.22133881755E+03  0.86563785981E+03  0.26092550827E+03  0.93080798785E+03  0.12699999809E+01 0.  1.
</event>
<event>
 5   0  0.1711979E-04  0.1894232E+04  0.7818609E-02  0.8657733E-01
       -1   -1    0    0    0  501  0.00000000000E+00  0.00000000000E+00  0.55977026709E+03  0.55977026711E+03  0.50400001928E-02 0. -1.
        1   -1    0    0  501    0  0.00000000000E+00  0.00000000000E+00 -0.16024937245E+04  0.16024937245E+04  0.50400001928E-02 0.  1.
    10030    2    1    2    0    0  0.00000000000E+00  0.00000000000E+00 -0.10427234574E+04  0.21622639916E+04  0.18942316017E+04 0.  0.
        4    1    3    3  502    0 -0.36801016551E+03  0.80519941820E+03 -0.90550488386E+03  0.12663799953E+04  0.12699999809E+01 0.  1.
       -4    1    3    3    0  502  0.36801016551E+03 -0.80519941820E+03 -0.13721857355E+03  0.89588399629E+03  0.12699999809E+01 0. -1.
</event>
<event>
 5   0  0.1758946E-04  0.1896441E+04  0.7818609E-02  0.8656630E-01
        1   -1    0    0  501    0  0.00000000000E+00  0.00000000000E+00  0.48931648480E+03  0.48931648482E+03  0.50400001928E-02 0.  1.
       -1   -1    0    0    0  501  0.00000000000E+00  0.00000000000E+00 -0.18375062364E+04  0.18375062364E+04  0.50400001928E-02 0. -1.
    10030    2    1    2    0    0  0.00000000000E+00  0.00000000000E+00 -0.13481897516E+04  0.23268227212E+04  0.18964409745E+04 0.  0.
        2    1    3    3  502    0 -0.11181032024E+03  0.81594897028E+03 -0.97500334179E+02  0.82932537944E+03  0.25500000920E-02 0. -1.
       -2    1    3    3    0  502  0.11181032024E+03 -0.81594897028E+03 -0.12506894174E+04  0.14974973418E+04  0.25500000920E-02 0.  1.
</event>
<event>
 5   0  0.3623359E-04  0.1875396E+04  0.7818609E-02  0.8667201E-01
        2   -1    0    0  501    0  0.00000000000E+00  0.00000000000E+00  0.12293857257E+04  0.12293857257E+04  0.25500000920E-02 0. -1.
       -2   -1    0    0    0  501  0.00000000000E+00  0.00000000000E+00 -0.71521695408E+03  0.71521695409E+03  0.25500000920E-02 0.  1.
    10030    2    1    2    0    0  0.00000000000E+00  0.00000000000E+00  0.51416877157E+03  0.19446026797E+04  0.18753959732E+04 0.  0.
        5    1    3    3  502    0 -0.27373203501E+03 -0.77842534112E+03  0.71891960267E+03  0.10944143291E+04  0.46999998093E+01 0. -1.
       -5    1    3    3    0  502  0.27373203501E+03  0.77842534112E+03 -0.20475083110E+03  0.85018835062E+03  0.46999998093E+01 0.  1.
</event>
<event>
 5   0  0.3623359E-04  0.1985508E+04  0.7818609E-02  0.8613426E-01
       -2   -1    0    0    0  501  0.00000000000E+00  0.00000000000E+00  0.52495289144E+03  0.52495289144E+03  0.25500000920E-02 0. -1.
        2   -1    0    0  501    0  0.00000000000E+00  0.00000000000E+00 -0.18774258601E+04  0.18774258601E+04  0.25500000920E-02 0.  1.
    10030    2    1    2    0    0  0.00000000000E+00  0.00000000000E+00 -0.13524729687E+04  0.24023787516E+04  0.19855076265E+04 0.  0.
        5    1    3    3  502    0  0.16867611706E+03 -0.72850283894E+03  0.11382929420E+03  0.75640413604E+03  0.46999998093E+01 0. -1.
       -5    1    3    3    0  502 -0.16867611706E+03  0.72850283894E+03 -0.14663022629E+04  0.16459746155E+04  0.46999998093E+01 0.  1.
</event>
<event>
 5   0  0.1813834E-04  0.1901269E+04  0.7818609E-02  0.8654225E-01
       -1   -1    0    0    0  501  0.00000000000E+00  0.00000000000E+00  0.61895149033E+03  0.61895149035E+03  0.50400001928E-02 0. -1.
        1   -1    0    0  501    0  0.00000000000E+00  0.00000000000E+00 -0.14600599871E+04  0.14600599871E+04  0.50400001928E-02 0.  1.
    10030    2    1    2    0    0  0.00000000000E+00  0.00000000000E+00 -0.84110849680E+03  0.20790114775E+04  0.19012693707E+04 0.  0.
        5    1    3    3  502    0 -0.17918571030E+03  0.49794313168E+03  0.44297390759E+03  0.69014697998E+03  0.46999998093E+01 0. -1.
       -5    1    3    3    0  502  0.17918571030E+03 -0.49794313168E+03 -0.12840824044E+04  0.13888644975E+04  0.46999998093E+01 0.  1.
</event>
<event>
 5   0  0.3535876E-04  0.1860621E+04  0.7818609E-02  0.8674710E-01
        2   -1    0    0  501    0  0.00000000000E+00  0.00000000000E+00  0.18114014975E+04  0.18114014975E+04  0.25500000920E-02 0. -1.
       -2   -1    0    0    0  501  0.00000000000E+00  0.00000000000E+00 -0.47779463333E+03  0.47779463334E+03  0.25500000920E-02 0.  1.
    10030    2    1    2    0    0  0.00000000000E+00  0.00000000000E+00  0.13336068642E+04  0.22891961308E+04  0.18606213095E+04 0.  0.
        2    1    3    3  502    0  0.28552223582E+03  0.27319546282E+03 -0.36940201833E+03  0.54094043961E+03  0.25500000920E-02 0.  1.
       -2    1    3    3    0  502 -0.28552223582E+03 -0.27319546282E+03  0.17030088825E+04  0.17482556912E+04  0.25500000920E-02 0. -1.
</event>
<event>
 5   0  0.1711979E-04  0.1906841E+04  0.7818609E-02  0.8651459E-01
        1   -1    0    0  501    0  0.00000000000E+00  0.00000000000E+00  0.90824900804E+03  0.90824900805E+03  0.50400001928E-02 0.  1.
       -1   -1    0    0    0  501  0.00000000000E+00  0.00000000000E+00 -0.10008383431E+04  0.10008383431E+04  0.50400001928E-02 0. -1.
    10030    2    1    2    0    0  0.00000000000E+00  0.00000000000E+00 -0.92589335070E+02  0.19090873512E+04  0.19068407719E+04 0.  0.
        4    1    3    3  502    0  0.51553157217E+03  0.63212182493E+03 -0.54049350859E+03  0.97851195659E+03  0.12699999809E+01 0. -1.
       -4    1    3    3    0  502 -0.51553157217E+03 -0.63212182493E+03  0.44790417352E+03  0.93057539459E+03  0.12699999809E+01 0.  1.
</event>
<event>
 5   0  0.3459485E-04  0.1866320E+04  0.7818609E-02  0.8671805E-01
        2   -1    0    0  501    0  0.00000000000E+00  0.00000000000E+00  0.73485607890E+03  0.73485607890E+03  0.25500000920E-02 0. -1.
       -2   -1    0    0    0  501  0.00000000000E+00  0.00000000000E+00 -0.11849772624E+04  0.11849772624E+04  0.25500000920E-02 0.  1.
    10030    2    1    2    0    0  0.00000000000E+00  0.00000000000E+00 -0.45012118354E+03  0.19198333413E+04  0.18663201705E+04 0.  0.
        3    1    3    3  502    0  0.41319684300E+03 -0.74215376672E+03  0.17236401910E+03  0.86673710536E+03  0.10100000352E+00 0. -1.
       -3    1    3    3    0  502 -0.41319684300E+03  0.74215376672E+03 -0.62248520264E+03  0.10530962360E+04  0.10100000352E+00 0.  1.
</event>
<event>
 5   0  0.1287000E-04  0.1894730E+04  0.7818609E-02  0.8657484E-01
        4   -1    0    0  501    0  0.00000000000E+00  0.00000000000E+00  0.72423870760E+03  0.72423982111E+03  0.12699999809E+01 0.  1.
       -4   -1    0    0    0  501  0.00000000000E+00  0.00000000000E+00 -0.12392299913E+04  0.12392306420E+04  0.12699999809E+01 0. -1.
    10030    2    1    2    0    0  0.00000000000E+00  0.00000000000E+00 -0.51499128365E+03  0.19634704631E+04  0.18947295948E+04 0.  0.
        4    1    3    3  502    0  0.83020730923E+03  0.77680608089E+01  0.21534104192E+03  0.85771667601E+03  0.12699999809E+01 0.  1.
       -4    1    3    3    0  502 -0.83020730923E+03 -0.77680608089E+01 -0.73033232557E+03  0.11057537871E+04  0.12699999809E+01 0. -1.
</event>
<event>
 5   0  0.3535876E-04  0.1856002E+04  0.7818609E-02  0.8677072E-01
        2   -1    0    0  501    0  0.00000000000E+00  0.00000000000E+00  0.89043579226E+03  0.89043579227E+03  0.25500000920E-02 0.  1.
       -2   -1    0    0    0  501  0.00000000000E+00  0.00000000000E+00 -0.96715118622E+03  0.96715118622E+03  0.25500000920E-02 0. -1.
    10030    2    1    2    0    0  0.00000000000E+00  0.00000000000E+00 -0.76715393957E+02  0.18575869785E+04  0.18560021905E+04 0.  0.
        2    1    3    3  502    0 -0.84880446069E+03  0.37376365407E+03 -0.64282442800E+01  0.92747485353E+03  0.25500000920E-02 0.  1.
       -2    1    3    3    0  502  0.84880446069E+03 -0.37376365407E+03 -0.70287149677E+02  0.93011212497E+03  0.25500000920E-02 0. -1.
</event>
<event>
 5   0  0.1782613E-04  0.1862390E+04  0.7818609E-02  0.8673807E-01
       -1   -1    0    0    0  501  0.00000000000E+00  0.00000000000E+00  0.41366880569E+03  0.41366880572E+03  0.50400001928E-02 0. -1.
        1   -1    0    0  501    0  0.00000000000E+00  0.00000000000E+00 -0.20961796422E+04  0.20961796422E+04  0.50400001928E-02 0.  1.
    10030    2    1    2    0    0  0.00000000000E+00  0.00000000000E+00 -0.16825108365E+04  0.25098484479E+04  0.18623900012E+04 0.  0.
        3    1    3    3  502    0  0.66670778295E+03  0.57099145456E+03 -0.42241260747E+03  0.97414728361E+03  0.10100000352E+00 0. -1.
       -3    1    3    3    0  502 -0.66670778295E+03 -0.57099145456E+03 -0.12600982290E+04  0.15357011643E+04  0.10100000352E+00 0.  1.
</event>
<event>
 5   0  0.3535876E-04  0.1931788E+04  0.7818609E-02  0.8639193E-01
        2   -1    0    0  501    0  0.00000000000E+00  0.00000000000E+00  0.26957271974E+04  0.26957271974E+04  0.25500000920E-02 0.  1.
       -2   -1    0    0    0  501  0.00000000000E+00  0.00000000000E+00 -0.34608516518E+03  0.34608516519E+03  0.25500000920E-02 0. -1.
    10030    2    1    2    0    0  0.00000000000E+00  0.00000000000E+00  0.23496420322E+04  0.30418123625E+04  0.19317879722E+04 0.  0.
        2    1    3    3  502    0  0.45594831576E+03  0.62840083829E+03  0.27003711015E+03  0.82200761618E+03  0.25500000920E-02 0. -1.
       -2    1    3    3    0  502 -0.45594831576E+03 -0.62840083829E+03  0.20796049220E+04  0.22198047464E+04  0.25500000920E-02 0.  1.
</event>
<event>
 5   0  0.1813834E-04  0.1891114E+04  0.7818609E-02  0.8659292E-01
        1   -1    0    0  501    0  0.00000000000E+00  0.00000000000E+00  0.66493752801E+03  0.66493752803E+03  0.50400001928E-02 0. -1.
       -1   -1    0    0    0  501  0.00000000000E+00  0.00000000000E+00 -0.13446050090E+04  0.13446050090E+04  0.50400001928E-02 0.  1.
    10030    2    1    2    0    0  0.00000000000E+00  0.00000000000E+00 -0.67966748095E+03  0.20095425370E+04  0.18911143073E+04 0.  0.
        5    1    3    3  502    0  0.33887104495E+03 -0.69017480439E+02  0.59531072296E+03  0.68848670617E+03  0.46999998093E+01 0. -1.
       -5    1    3    3    0  502 -0.33887104495E+03  0.69017480439E+02 -0.12749782039E+04  0.13210558308E+04  0.46999998093E+01 0.  1.
</event>
<event>
 5   0  0.1711979E-04  0.1869312E+04  0.7818609E-02  0.8670284E-01
        1   -1    0    0  501    0  0.00000000000E+00  0.00000000000E+00  0.21435753348E+04  0.21435753348E+04  0.50400001928E-02 0.  1.
       -1   -1    0    0    0  501  0.00000000000E+00  0.00000000000E+00 -0.40753512224E+03  0.40753512227E+03  0.50400001928E-02 0. -1.
    10030    2    1    2    0    0  0.00000000000E+00  0.00000000000E+00  0.17360402126E+04  0.25511104571E+04  0.18693124256E+04 0.  0.
        4    1    3    3  502    0 -0.11954436988E+03  0.79575085388E+03  0.21913296341E+03  0.83398509961E+03  0.12699999809E+01 0.  1.
       -4    1    3    3    0  502  0.11954436988E+03 -0.79575085388E+03  0.15169072492E+04  0.17171253575E+04  0.12699999809E+01 0. -1.
</event>
<event>
 5   0  0.3459485E-04  0.1322101E+04  0.7818609E-02  0.9012221E-01
        2   -1    0    0  501    0  0.00000000000E+00  0.00000000000E+00  0.40686459357E+03  0.40686459358E+03  0.25500000920E-02 0.  1.
       -2   -1    0    0    0  501  0.00000000000E+00  0.00000000000E+00 -0.10740365380E+04  0.10740365380E+04  0.25500000920E-02 0. -1.
    10030    2    1    2    0    0  0.00000000000E+00  0.00000000000E+00 -0.66717194445E+03  0.14809011316E+04  0.13221005098E+04 0.  0.
        3    1    3    3  502    0  0.62524780215E+03 -0.17642743352E+03 -0.19673970333E+03  0.67879892049E+03  0.10100000352E+00 0.  1.
       -3    1    3    3    0  502 -0.62524780215E+03  0.17642743352E+03 -0.47043224111E+03  0.80210221111E+03  0.10100000352E+00 0. -1.
</event>
<event>
 5   0  0.1782613E-04  0.1837187E+04  0.7818609E-02  0.8686770E-01
       -1   -1    0    0    0  501  0.00000000000E+00  0.00000000000E+00  0.72731892999E+03  0.72731893001E+03  0.50400001928E-02 0.  1.
        1   -1    0    0  501    0  0.00000000000E+00  0.00000000000E+00 -0.11601706711E+04  0.11601706711E+04  0.50400001928E-02 0. -1.
    10030    2    1    2    0    0  0.00000000000E+00  0.00000000000E+00 -0.43285174108E+03  0.18874896011E+04  0.18371870793E+04 0.  0.
        3    1    3    3  502    0  0.81793384344E+03 -0.19484992202E+02 -0.64549536417E+03  0.10421418869E+04  0.10100000352E+00 0. -1.
       -3    1    3    3    0  502 -0.81793384344E+03  0.19484992202E+02  0.21264362309E+03  0.84534771415E+03  0.10100000352E+00 0.  1.
</event>
<event>
 5   0  0.1758946E-04  0.1995736E+04  0.7818609E-02  0.8608617E-01
       -1   -1    0    0    0  501  0.00000000000E+00  0.00000000000E+00  0.10538219365E+04  0.10538219365E+04  0.50400001928E-02 0. -1.
        1   -1    0    0  501    0  0.00000000000E+00  0.00000000000E+00 -0.94488461444E+03  0.94488461445E+03  0.50400001928E-02 0.  1.
    10030    2    1    2    0    0  0.00000000000E+00  0.00000000000E+00  0.10893732207E+03  0.19987065510E+04  0.19957355879E+04 0.  0.
        2    1    3    3  502    0  0.99980268288E+02  0.62242250805E+02  0.10468372875E+04  0.10534412458E+04  0.25500000920E-02 0. -1.
       -2    1    3    3    0  502 -0.99980268288E+02 -0.62242250805E+02 -0.93789996548E+03  0.94526530513E+03  0.25500000920E-02 0.  1.
</event>
<event>
 5   0  0.1758946E-04  0.1572633E+04  0.7818609E-02  0.8837539E-01
        1   -1    0    0  501    0  0.00000000000E+00  0.00000000000E+00  0.31061940205E+04  0.31061940205E+04  0.50400001928E-02 0. -1.
       -1   -1    0    0    0  501  0.00000000000E+00  0.00000000000E+00 -0.19905188580E+03  0.19905188586E+03  0.50400001928E-02 0.  1.
    10030    2    1    2    0    0  0.00000000000E+00  0.00000000000E+00  0.29071421347E+04  0.33052459063E+04  0.15726331772E+04 0.  0.
        2    1    3    3  502    0 -0.48810165669E+03  0.55065553370E+03  0.87101325954E+03  0.11402319248E+04  0.25500000920E-02 0.  1.
       -2    1    3    3    0  502  0.48810165669E+03 -0.55065553370E+03  0.20361288751E+04  0.21650139815E+04  0.25500000920E-02 0. -1.
</event>
<event>
 5   0  0.3516539E-04  0.1843137E+04  0.7818609E-02  0.8683690E-01
       -2   -1    0    0    0  501  0.00000000000E+00  0.00000000000E+00  0.62644763845E+03  0.62644763846E+03  0.25500000920E-02 0.  1.
        2   -1    0    0  501    0  0.00000000000E+00  0.00000000000E+00 -0.13557213452E+04  0.13557213452E+04  0.25500000920E-02 0. -1.
    10030    2    1    2    0    0  0.00000000000E+00  0.00000000000E+00 -0.72927370677E+03  0.19821689837E+04  0.18431369294E+04 0.  0.
        4    1    3    3  502    0 -0.89240741866E+03  0.22440101629E+03 -0.41883698989E+03  0.10110256446E+04  0.12699999809E+01 0.  1.
       -4    1    3    3    0  502  0.89240741866E+03 -0.22440101629E+03 -0.31043671688E+03  0.97114333910E+03  0.12699999809E+01 0. -1.
</event>
<event>
 5   0  0.1694830E-04  0.1327790E+04  0.7818609E-02  0.9007813E-01
        1   -1    0    0  501    0  0.00000000000E+00  0.00000000000E+00  0.90623987650E+03  0.90623987651E+03  0.50400001928E-02 0. -1.
       -1   -1    0    0    0  501  0.00000000000E+00  0.00000000000E+00 -0.48635759425E+03  0.48635759428E+03  0.50400001928E-02 0.  1.
    10030    2    1    2    0    0  0.00000000000E+00  0.00000000000E+00  0.41988228225E+03  0.13925974708E+04  0.13277901132E+04 0.  0.
        1    1    3    3  502    0  0.95211599810E+02  0.70904367167E+02 -0.47513549347E+03  0.48974117165E+03  0.50400001928E-02 0.  1.
       -1    1    3    3    0  502 -0.95211599810E+02 -0.70904367167E+02  0.89501777572E+03  0.90285629914E+03  0.50400001928E-02 0. -1.
</event>
<event>
 5   0  0.1694830E-04  0.1723808E+04  0.7818609E-02  0.8747901E-01
       -1   -1    0    0    0  501  0.00000000000E+00  0.00000000000E+00  0.77605432334E+03  0.77605432335E+03  0.50400001928E-02 0.  1.
        1   -1    0    0  501    0  0.00000000000E+00  0.00000000000E+00 -0.95725079444E+03  0.95725079445E+03  0.50400001928E-02 0. -1.
    10030    2    1    2    0    0  0.00000000000E+00  0.00000000000E+00 -0.18119647110E+03  0.17333051178E+04  0.17238081304E+04 0.  0.
        1    1    3    3  502    0 -0.38847398477E+03 -0.76862191475E+03 -0.12523993357E+03  0.87027393714E+03  0.50400001928E-02 0. -1.
       -1    1    3    3    0  502  0.38847398477E+03  0.76862191475E+03 -0.55956537533E+02  0.86303118066E+03  0.50400001928E-02 0.  1.
</event>
<event>
 5   0  0.3623359E-04  0.1904035E+04  0.7818609E-02  0.8652850E-01
        2   -1    0    0  501    0  0.00000000000E+00  0.00000000000E+00  0.80097284084E+03  0.80097284084E+03  0.25500000920E-02 0. -1.
       -2   -1    0    0    0  501  0.00000000000E+00  0.00000000000E+00 -0.11315460075E+04  0.11315460075E+04  0.25500000920E-02 0.  1.
    10030    2    1    2    0    0  0.00000000000E+00  0.00000000000E+00 -0.33057316669E+03  0.19325188484E+04  0.19040353150E+04 0.  0.
        5    1    3    3  502    0 -0.28221665073E+03  0.51673495799E+03 -0.92457828270E+03  0.10961424842E+04  0.46999998093E+01 0.  1.
       -5    1    3    3    0  502  0.28221665073E+03 -0.51673495799E+03  0.59400511601E+03  0.83637636420E+03  0.46999998093E+01 0. -1.
</event>
<event>
 5   0  0.3720978E-04  0.1855384E+04  0.7818609E-02  0.8677389E-01
        2   -1    0    0  501    0  0.00000000000E+00  0.00000000000E+00  0.14107063716E+04  0.14107063716E+04  0.25500000920E-02 0. -1.
       -2   -1    0    0    0  501  0.00000000000E+00  0.00000000000E+00 -0.61005793253E+03  0.61005793254E+03  0.25500000920E-02 0.  1.
    10030    2    1    2    0    0  0.00000000000E+00  0.00000000000E+00  0.80064843911E+03  0.20207643042E+04  0.18553841786E+04 0.  0.
        1    1    3    3  502    0  0.28874411782E+03 -0.16582755843E+03 -0.54273148640E+03  0.63673339088E+03  0.50400001928E-02 0.  1.
       -1    1    3    3    0  502 -0.28874411782E+03  0.16582755843E+03  0.13433799255E+04  0.13840309133E+04  0.50400001928E-02 0. -1.
</event>
<event>
 5   0  0.3720978E-04  0.1920000E+04  0.7818609E-02  0.8644965E-01
        2   -1    0    0  501    0  0.00000000000E+00  0.00000000000E+00  0.85780109585E+03  0.85780109586E+03  0.25500000920E-02 0. -1.
       -2   -1    0    0    0  501  0.00000000000E+00  0.00000000000E+00 -0.10743751029E+04  0.10743751029E+04  0.25500000920E-02 0.  1.
    10030    2    1    2    0    0  0.00000000000E+00  0.00000000000E+00 -0.21657400703E+03  0.19321761987E+04  0.19200001465E+04 0.  0.
        1    1    3    3  502    0 -0.13127175975E+03  0.93937384361E+03 -0.25736370401E+03  0.98279782719E+03  0.50400001928E-02 0. -1.
       -1    1    3    3    0  502  0.13127175975E+03 -0.93937384361E+03  0.40789696980E+02  0.94937837155E+03  0.50400001928E-02 0.  1.
</event>
<event>
 5   0  0.1782613E-04  0.1910533E+04  0.7818609E-02  0.8649631E-01
       -1   -1    0    0    0  501  0.00000000000E+00  0.00000000000E+00  0.39816399458E+03  0.39816399461E+03  0.50400001928E-02 0.  1.
        1   -1    0    0  501    0  0.00000000000E+00  0.00000000000E+00 -0.22918538241E+04  0.22918538241E+04  0.50400001928E-02 0. -1.
    10030    2    1    2    0    0  0.00000000000E+00  0.00000000000E+00 -0.18936898296E+04  0.26900178188E+04  0.19105325683E+04 0.  0.
        3    1    3    3  502    0 -0.83940096962E+03  0.21720751433E+03 -0.38231042240E+03  0.94759398550E+03  0.10100000352E+00 0.  1.
       -3    1    3    3    0  502  0.83940096962E+03 -0.21720751433E+03 -0.15113794072E+04  0.17424238333E+04  0.10100000352E+00 0. -1.
</event>
<event>
 5   0  0.3623359E-04  0.1883558E+04  0.7818609E-02  0.8663084E-01
        2   -1    0    0  501    0  0.00000000000E+00  0.00000000000E+00  0.13121509060E+04  0.13121509060E+04  0.25500000920E-02 0.  1.
       -2   -1    0    0    0  501  0.00000000000E+00  0.00000000000E+00 -0.67594915776E+03  0.67594915776E+03  0.25500000920E-02 0. -1.
    10030    2    1    2    0    0  0.00000000000E+00  0.00000000000E+00  0.63620174824E+03  0.19881000638E+04  0.18835575911E+04 0.  0.
        5    1    3    3  502    0  0.44276563227E+03 -0.32397300261E+03  0.11260433866E+04  0.12525955892E+04  0.46999998093E+01 0.  1.
       -5    1    3    3    0  502 -0.44276563227E+03  0.32397300261E+03 -0.48984163832E+03  0.73550447461E+03  0.46999998093E+01 0. -1.
</event>
<event>
 5   0  0.3535876E-04  0.1891455E+04  0.7818609E-02  0.8659121E-01
        2   -1    0    0  501    0  0.00000000000E+00  0.00000000000E+00  0.11226751697E+04  0.11226751697E+04  0.25500000920E-02 0. -1.
       -2   -1    0    0    0  501  0.00000000000E+00  0.00000000000E+00 -0.79666915913E+03  0.79666915913E+03  0.25500000920E-02 0.  1.
    10030    2    1    2    0    0  0.00000000000E+00  0.00000000000E+00  0.32600601056E+03  0.19193443288E+04  0.18914551894E+04 0.  0.
        2    1    3    3  502    0 -0.24515912659E+03 -0.85829369411E+03 -0.15406150848E+03  0.90581786861E+03  0.25500000920E-02 0.  1.
       -2    1    3    3    0  502  0.24515912659E+03  0.85829369411E+03  0.48006751904E+03  0.10135264602E+04  0.25500000920E-02 0. -1.
</event>
<event>
 5   0  0.1813834E-04  0.1186905E+04  0.7818609E-02  0.9124396E-01
        1   -1    0    0  501    0  0.00000000000E+00  0.00000000000E+00  0.73548726945E+03  0.73548726947E+03  0.50400001928E-02 0. -1.
       -1   -1    0    0    0  501  0.00000000000E+00  0.00000000000E+00 -0.47884730099E+03  0.47884730101E+03  0.50400001928E-02 0.  1.
    10030    2    1    2    0    0  0.00000000000E+00  0.00000000000E+00  0.25663996847E+03  0.12143345705E+04  0.11869053777E+04 0.  0.
        5    1    3    3  502    0 -0.40856607686E+03  0.17918613878E+03  0.52868169258E+03  0.69178055304E+03  0.46999998093E+01 0. -1.
       -5    1    3    3    0  502  0.40856607686E+03 -0.17918613878E+03 -0.27204172411E+03  0.52255401745E+03  0.46999998093E+01 0.  1.
</event>
<event>
 5   0  0.3720978E-04  0.1872959E+04  0.7818609E-02  0.8668435E-01
        2   -1    0    0  501    0  0.00000000000E+00  0.00000000000E+00  0.79389946312E+03  0.79389946312E+03  0.25500000920E-02 0. -1.
       -2   -1    0    0    0  501  0.00000000000E+00  0.00000000000E+00 -0.11046658814E+04  0.11046658814E+04  0.25500000920E-02 0.  1.
    10030    2    1    2    0    0  0.00000000000E+00  0.00000000000E+00 -0.31076641824E+03  0.18985653445E+04  0.18729587824E+04 0.  0.
        1    1    3    3  502    0 -0.49853375219E+03  0.76437124547E+03 -0.36848185519E+03  0.98416369604E+03  0.50400001928E-02 0. -1.
       -1    1    3    3    0  502  0.49853375219E+03 -0.76437124547E+03  0.57715436954E+02  0.91440164844E+03  0.50400001928E-02 0.  1.
</event>
<event>
 5   0  0.3516539E-04  0.1846607E+04  0.7818609E-02  0.8681900E-01
       -2   -1    0    0    0  501  0.00000000000E+00  0.00000000000E+00  0.74682289467E+03  0.74682289467E+03  0.25500000920E-02 0. -1.
        2   -1    0    0  501    0  0.00000000000E+00  0.00000000000E+00 -0.11414875541E+04  0.11414875541E+04  0.25500000920E-02 0.  1.
    10030    2    1    2    0    0  0.00000000000E+00  0.00000000000E+00 -0.39466465943E+03  0.18883104488E+04  0.18466066602E+04 0.  0.
        4    1    3    3  502    0  0.10735633107E+03 -0.37061322824E+03 -0.10550894778E+04  0.11234300004E+04  0.12699999809E+01 0.  1.
       -4    1    3    3    0  502 -0.10735633107E+03  0.37061322824E+03  0.66042481833E+03  0.76488044839E+03  0.12699999809E+01 0. -1.
</event>
<event>
 5   0  0.3720978E-04  0.1899739E+04  0.7818609E-02  0.8654986E-01
       -2   -1    0    0    0  501  0.00000000000E+00  0.00000000000E+00  0.80335644626E+03  0.80335644627E+03  0.25500000920E-02 0.  1.
        2   -1    0    0  501    0  0.00000000000E+00  0.00000000000E+00 -0.11231035563E+04  0.11231035563E+04  0.25500000920E-02 0. -1.
    10030    2    1    2    0    0  0.00000000000E+00  0.00000000000E+00 -0.31974711003E+03  0.19264600026E+04  0.18997394366E+04 0.  0.
        1    1    3    3  502    0  0.75315804674E+03 -0.20373976960E+03 -0.70924580024E+03  0.10544128898E+04  0.50400001928E-02 0. -1.
       -1    1    3    3    0  502 -0.75315804674E+03  0.20373976960E+03  0.38949869021E+03  0.87204711271E+03  0.50400001928E-02 0.  1.
</event>
<event>
 5   0  0.3535876E-04  0.2039177E+04  0.7818609E-02  0.8588520E-01
        2   -1    0    0  501    0  0.00000000000E+00  0.00000000000E+00  0.14768580915E+04  0.14768580915E+04  0.25500000920E-02 0. -1.
       -2   -1    0    0    0  501  0.00000000000E+00  0.00000000000E+00 -0.70389998908E+03  0.70389998909E+03  0.25500000920E-02 0.  1.
    10030    2    1    2    0    0  0.00000000000E+00  0.00000000000E+00  0.77295810244E+03  0.21807580806E+04  0.20391766912E+04 0.  0.
        2    1    3    3  502    0  0.32504983601E+02  0.32641052635E+03  0.14188868246E+04  0.14563104843E+04  0.25500000920E-02 0. -1.
       -2    1    3    3    0  502 -0.32504983601E+02 -0.32641052635E+03 -0.64592872216E+03  0.72444759631E+03  0.25500000920E-02 0.  1.
</event>
<event>
 5   0  0.1758946E-04  0.1910618E+04  0.7818609E-02  0.8649589E-01
        1   -1    0    0  501    0  0.00000000000E+00  0.00000000000E+00  0.90799817806E+03  0.90799817807E+03  0.50400001928E-02 0.  1.
       -1   -1    0    0    0  501  0.00000000000E+00  0.00000000000E+00 -0.10050850320E+04  0.10050850320E+04  0.50400001928E-02 0. -1.
    10030    2    1    2    0    0  0.00000000000E+00  0.00000000000E+00 -0.97086853973E+02  0.19130832101E+04  0.19106180967E+04 0.  0.
        2    1    3    3  502    0  0.31806912237E+03  0.84234915505E+03  0.27107887540E+03  0.94032112722E+03  0.25500000920E-02 0.  1.
       -2    1    3    3    0  502 -0.31806912237E+03 -0.84234915505E+03 -0.36816572937E+03  0.97276208289E+03  0.25500000920E-02 0. -1.
</event>
<event>
 5   0  0.1758946E-04  0.1928289E+04  0.7818609E-02  0.8640902E-01
       -1   -1    0    0    0  501  0.00000000000E+00  0.00000000000E+00  0.61751323954E+03  0.61751323956E+03  0.50400001928E-02 0. -1.
        1   -1    0    0  501    0  0.00000000000E+00  0.00000000000E+00 -0.15053520064E+04  0.15053520065E+04  0.50400001928E-02 0.  1.
    10030    2    1    2    0    0  0.00000000000E+00  0.00000000000E+00 -0.88783876691E+03  0.21228652460E+04  0.19282891839E+04 0.  0.
        2    1    3    3  502    0 -0.71999375053E+03 -0.20599844280E+03 -0.11124408462E+04  0.13410260980E+04  0.25500000920E-02 0.  1.
       -2    1    3    3    0  502  0.71999375053E+03  0.20599844280E+03  0.22460207934E+03  0.78183914796E+03  0.25500000920E-02 0. -1.
</event>
<event>
 5   0  0.3720978E-04  0.1853404E+04  0.7818609E-02  0.8678404E-01
        2   -1    0    0  501    0  0.00000000000E+00  0.00000000000E+00  0.11015103488E+04  0.11015103488E+04  0.25500000920E-02 0.  1.
       -2   -1    0    0    0  501  0.00000000000E+00  0.00000000000E+00 -0.77963528639E+03  0.77963528639E+03  0.25500000920E-02 0. -1.
    10030    2    1    2    0    0  0.00000000000E+00  0.00000000000E+00  0.32187506240E+03  0.18811456352E+04  0.18534037188E+04 0.  0.
        1    1    3    3  502    0  0.41287919874E+03  0.82767171802E+03  0.21894746983E+03  0.95049865867E+03  0.50400001928E-02 0. -1.
       -1    1    3    3    0  502 -0.41287919874E+03 -0.82767171802E+03  0.10292759257E+03  0.93064697651E+03  0.50400001928E-02 0.  1.
</event>
<event>
 5   0  0.1694830E-04  0.1887791E+04  0.7818609E-02  0.8660958E-01
        1   -1    0    0  501    0  0.00000000000E+00  0.00000000000E+00  0.24463941253E+04  0.24463941253E+04  0.50400001928E-02 0. -1.
       -1   -1    0    0    0  501  0.00000000000E+00  0.00000000000E+00 -0.36418435278E+03  0.36418435282E+03  0.50400001928E-02 0.  1.
    10030    2    1    2    0    0  0.00000000000E+00  0.00000000000E+00  0.20822097726E+04  0.28105784782E+04  0.18877907312E+04 0.  0.
        1    1    3    3  502    0 -0.47117812389E+03 -0.81738816290E+03  0.99883113490E+03  0.13739708401E+04  0.50400001928E-02 0.  1.
       -1    1    3    3    0  502  0.47117812389E+03  0.81738816290E+03  0.10833786377E+04  0.14366076381E+04  0.50400001928E-02 0. -1.
</event>
<event>
 5   0  0.1813834E-04  0.1336789E+04  0.7818609E-02  0.9000890E-01
        1   -1    0    0  501    0  0.00000000000E+00  0.00000000000E+00  0.14006176236E+04  0.14006176236E+04  0.50400001928E-02 0.  1.
       -1   -1    0    0    0  501  0.00000000000E+00  0.00000000000E+00 -0.31896712538E+03  0.31896712542E+03  0.50400001928E-02 0. -1.
    10030    2    1    2    0    0  0.00000000000E+00  0.00000000000E+00  0.10816504982E+04  0.17195847490E+04  0.13367886552E+04 0.  0.
        5    1    3    3  502    0  0.35818031644E+03 -0.49323138800E+03  0.89348022686E+03  0.10816188548E+04  0.46999998093E+01 0.  1.
       -5    1    3    3    0  502 -0.35818031644E+03  0.49323138800E+03  0.18817027133E+03  0.63796589423E+03  0.46999998093E+01 0. -1.
</event>
<event>
 5   0  0.3459485E-04  0.1919024E+04  0.7818609E-02  0.8645444E-01
        2   -1    0    0  501    0  0.00000000000E+00  0.00000000000E+00  0.85380932005E+03  0.85380932006E+03  0.25500000920E-02 0. -1.
       -2   -1    0    0    0  501  0.00000000000E+00  0.00000000000E+00 -0.10783012466E+04  0.10783012466E+04  0.25500000920E-02 0.  1.
    10030    2    1    2    0    0  0.00000000000E+00  0.00000000000E+00 -0.22449192650E+03  0.19321105666E+04  0.19190243919E+04 0.  0.
        3    1    3    3  502    0 -0.38008207857E+03 -0.14636325647E+03 -0.98695054358E+03  0.10676872084E+04  0.10100000352E+00 0.  1.
       -3    1    3    3    0  502  0.38008207857E+03  0.14636325647E+03  0.76245861708E+03  0.86442335823E+03  0.10100000352E+00 0. -1.
</event>
<event>
 5   0  0.1711979E-04  0.1865512E+04  0.7818609E-02  0.8672216E-01
        1   -1    0    0  501    0  0.00000000000E+00  0.00000000000E+00  0.14771519995E+04  0.14771519995E+04  0.50400001928E-02 0. -1.
       -1   -1    0    0    0  501  0.00000000000E+00  0.00000000000E+00 -0.58899420000E+03  0.58899420002E+03  0.50400001928E-02 0.  1.
    10030    2    1    2    0    0  0.00000000000E+00  0.00000000000E+00  0.88815779949E+03  0.20661461995E+04  0.18655122195E+04 0.  0.
        4    1    3    3  502    0  0.33822975519E+03  0.81801993386E+03  0.76977433427E+03  0.11730772004E+04  0.12699999809E+01 0. -1.
       -4    1    3    3    0  502 -0.33822975519E+03 -0.81801993386E+03  0.11838346523E+03  0.89306899914E+03  0.12699999809E+01 0.  1.
</event>
<event>
 5   0  0.3535876E-04  0.1959168E+04  0.7818609E-02  0.8625953E-01
       -2   -1    0    0    0  501  0.00000000000E+00  0.00000000000E+00  0.11209070917E+04  0.11209070917E+04  0.25500000920E-02 0. -1.
        2   -1    0    0  501    0  0.00000000000E+00  0.00000000000E+00 -0.85607871184E+03  0.85607871184E+03  0.25500000920E-02 0.  1.
    10030    2    1    2    0    0  0.00000000000E+00  0.00000000000E+00  0.26482837982E+03  0.19769858035E+04  0.19591678837E+04 0.  0.
        2    1    3    3  502    0 -0.97927527575E+03 -0.23399979066E+02  0.12479072263E+03  0.98747169538E+03  0.25500000920E-02 0.  1.
       -2    1    3    3    0  502  0.97927527575E+03  0.23399979066E+02  0.14003765719E+03  0.98951410812E+03  0.25500000920E-02 0. -1.
</event>
<event>
 5   0  0.1711979E-04  0.1437759E+04  0.7818609E-02  0.8926931E-01
        1   -1    0    0  501    0  0.00000000000E+00  0.00000000000E+00  0.41421295451E+03  0.41421295454E+03  0.50400001928E-02 0.  1.
       -1   -1    0    0    0  501  0.00000000000E+00  0.00000000000E+00 -0.12476382774E+04  0.12476382774E+04  0.50400001928E-02 0. -1.
    10030    2    1    2    0    0  0.00000000000E+00  0.00000000000E+00 -0.83342532286E+03  0.16618512319E+04  0.14377592804E+04 0.  0.
        4    1    3    3  502    0 -0.18819694286E+03 -0.30619594511E+03 -0.11363351495E+04  0.11918192946E+04  0.12699999809E+01 0. -1.
       -4    1    3    3    0  502  0.18819694286E+03  0.30619594511E+03  0.30290982665E+03  0.47003193731E+03  0.12699999809E+01 0.  1.
</event>
<event>
 5   0  0.1694830E-04  0.1788655E+04  0.7818609E-02  0.8712356E-01
        1   -1    0    0  501    0  0.00000000000E+00  0.00000000000E+00  0.12457353013E+04  0.12457353013E+04  0.50400001928E-02 0.  1.
       -1   -1    0    0    0  501  0.00000000000E+00  0.00000000000E+00 -0.64204776770E+03  0.64204776772E+03  0.50400001928E-02 0. -1.
    10030    2    1    2    0    0  0.00000000000E+00  0.00000000000E+00  0.60368753364E+03  0.18877830691E+04  0.17886548794E+04 0.  0.
        1    1    3    3  502    0 -0.45557651864E+03 -0.41355895820E+03  0.98684387946E+03  0.11629453206E+04  0.50400001928E-02 0.  1.
       -1    1    3    3    0  502  0.45557651864E+03  0.41355895820E+03 -0.38315634582E+03  0.72483774847E+03  0.50400001928E-02 0. -1.
</event>
<event>
 5   0  0.3623359E-04  0.1892894E+04  0.7818609E-02  0.8658402E-01
        2   -1    0    0  501    0  0.00000000000E+00  0.00000000000E+00  0.13143093839E+04  0.13143093839E+04  0.25500000920E-02 0.  1.
       -2   -1    0    0    0  501  0.00000000000E+00  0.00000000000E+00 -0.68154555556E+03  0.68154555556E+03  0.25500000920E-02 0. -1.
    10030    2    1    2    0    0  0.00000000000E+00  0.00000000000E+00  0.63276382838E+03  0.19958549395E+04  0.18928937839E+04 0.  0.
        5    1    3    3  502    0 -0.33938892179E+03  0.88294000483E+03  0.34925020154E+03  0.10083479983E+04  0.46999998093E+01 0. -1.
       -5    1    3    3    0  502  0.33938892179E+03 -0.88294000483E+03  0.28351362684E+03  0.98750694122E+03  0.46999998093E+01 0.  1.
</event>
<event>
 5   0  0.1782613E-04  0.1915312E+04  0.7818609E-02  0.8647272E-01
       -1   -1    0    0    0  501  0.00000000000E+00  0.00000000000E+00  0.11941609606E+04  0.11941609606E+04  0.50400001928E-02 0.  1.
        1   -1    0    0  501    0  0.00000000000E+00  0.00000000000E+00 -0.76799110276E+03  0.76799110278E+03  0.50400001928E-02 0. -1.
    10030    2    1    2    0    0  0.00000000000E+00  0.00000000000E+00  0.42616985783E+03  0.19621520634E+04  0.19153119777E+04 0.  0.
        3    1    3    3  502    0 -0.11077649722E+03 -0.92962731195E+03  0.65952083245E+01  0.93622747152E+03  0.10100000352E+00 0. -1.
       -3    1    3    3    0  502  0.11077649722E+03  0.92962731195E+03  0.41957464950E+03  0.10259245919E+04  0.10100000352E+00 0.  1.
</event>
<event>
 5   0  0.1782613E-04  0.1884438E+04  0.7818609E-02  0.8662641E-01
       -1   -1    0    0    0  501  0.00000000000E+00  0.00000000000E+00  0.47605167141E+03  0.47605167144E+03  0.50400001928E-02 0. -1.
        1   -1    0    0  501    0  0.00000000000E+00  0.00000000000E+00 -0.18648750061E+04  0.18648750061E+04  0.50400001928E-02 0.  1.
    10030    2    1    2    0    0  0.00000000000E+00  0.00000000000E+00 -0.13888233347E+04  0.23409266775E+04  0.18844382332E+04 0.  0.
        3    1    3    3  502    0  0.23762731141E+02  0.85664754570E+03 -0.20792369917E+03  0.88184009879E+03  0.10100000352E+00 0. -1.
       -3    1    3    3    0  502 -0.23762731141E+02 -0.85664754570E+03 -0.11808996355E+04  0.14590865788E+04  0.10100000352E+00 0.  1.
</event>
<event>
 5   0  0.3535876E-04  0.2002663E+04  0.7818609E-02  0.8605377E-01
       -2   -1    0    0    0  501  0.00000000000E+00  0.00000000000E+00  0.59702819597E+03  0.59702819597E+03  0.25500000920E-02 0.  1.
        2   -1    0    0  501    0  0.00000000000E+00  0.00000000000E+00 -0.16794256214E+04  0.16794256214E+04  0.25500000920E-02 0. -1.
    10030    2    1    2    0    0  0.00000000000E+00  0.00000000000E+00 -0.10823974254E+04  0.22764538174E+04  0.20026626765E+04 0.  0.
        2    1    3    3  502    0  0.15656763056E+03  0.97414812239E+03 -0.34700204908E+03  0.10458912034E+04  0.25500000920E-02 0. -1.
       -2    1    3    3    0  502 -0.15656763056E+03 -0.97414812239E+03 -0.73539537633E+03  0.12305626139E+04  0.25500000920E-02 0.  1.
</event>
<event>
 5   0  0.3516539E-04  0.2133066E+04  0.7818609E-02  0.8546816E-01
        2   -1    0    0  501    0  0.00000000000E+00  0.00000000000E+00  0.27777035793E+04  0.27777035793E+04  0.25500000920E-02 0.  1.
       -2   -1    0    0    0  501  0.00000000000E+00  0.00000000000E+00 -0.40950829109E+03  0.40950829110E+03  0.25500000920E-02 0. -1.
    10030    2    1    2    0    0  0.00000000000E+00  0.00000000000E+00  0.23681952882E+04  0.31872118704E+04  0.21330660055E+04 0.  0.
        4    1    3    3  502    0  0.67851540966E+03  0.73496528858E+03  0.63117786874E+03  0.11827697373E+04  0.12699999809E+01 0. -1.
       -4    1    3    3    0  502 -0.67851540966E+03 -0.73496528858E+03  0.17370174195E+04  0.20044421331E+04  0.12699999809E+01 0.  1.
</event>
<event>
 5   0  0.1782613E-04  0.2009893E+04  0.7818609E-02  0.8602009E-01
        1   -1    0    0  501    0  0.00000000000E+00  0.00000000000E+00  0.17582181544E+04  0.17582181544E+04  0.50400001928E-02 0. -1.
       -1   -1    0    0    0  501  0.00000000000E+00  0.00000000000E+00 -0.57439827326E+03  0.57439827328E+03  0.50400001928E-02 0.  1.
    10030    2    1    2    0    0  0.00000000000E+00  0.00000000000E+00  0.11838198811E+04  0.23326164277E+04  0.20098930040E+04 0.  0.
        3    1    3    3  502    0  0.44586007594E+03 -0.14622201066E+03  0.16232786179E+04  0.16897353537E+04  0.10100000352E+00 0. -1.
       -3    1    3    3    0  502 -0.44586007594E+03  0.14622201066E+03 -0.43945873684E+03  0.64288107400E+03  0.10100000352E+00 0.  1.
</event>
<event>
 5   0  0.3535876E-04  0.1861207E+04  0.7818609E-02  0.8674411E-01
       -2   -1    0    0    0  501  0.00000000000E+00  0.00000000000E+00  0.90081071629E+03  0.90081071629E+03  0.25500000920E-02 0.  1.
        2   -1    0    0  501    0  0.00000000000E+00  0.00000000000E+00 -0.96138142010E+03  0.96138142011E+03  0.25500000920E-02 0. -1.
    10030    2    1    2    0    0  0.00000000000E+00  0.00000000000E+00 -0.60570703819E+02  0.18621921364E+04  0.18612067974E+04 0.  0.
        2    1    3    3  502    0 -0.72486434979E+03  0.80324140637E+02  0.54807118337E+03  0.91228411979E+03  0.25500000920E-02 0.  1.
       -2    1    3    3    0  502  0.72486434979E+03 -0.80324140637E+02 -0.60864188719E+03  0.94990801661E+03  0.25500000920E-02 0. -1.
</event>
<event>
 5   0  0.3516539E-04  0.1909369E+04  0.7818609E-02  0.8650207E-01
        2   -1    0    0  501    0  0.00000000000E+00  0.00000000000E+00  0.11394626089E+04  0.11394626089E+04  0.25500000920E-02 0. -1.
       -2   -1    0    0    0  501  0.00000000000E+00  0.00000000000E+00 -0.79987040635E+03  0.79987040635E+03  0.25500000920E-02 0.  1.
    10030    2    1    2    0    0  0.00000000000E+00  0.00000000000E+00  0.33959220257E+03  0.19393330153E+04  0.19093689219E+04 0.  0.
        4    1    3    3  502    0  0.78754186221E+03  0.53818521253E+03  0.20985228252E+03  0.97668065461E+03  0.12699999809E+01 0. -1.
       -4    1    3    3    0  502 -0.78754186221E+03 -0.53818521253E+03  0.12973992005E+03  0.96265236065E+03  0.12699999809E+01 0.  1.
</event>
<event>
 5   0  0.3459485E-04  0.1907997E+04  0.7818609E-02  0.8650886E-01
       -2   -1    0    0    0  501  0.00000000000E+00  0.00000000000E+00  0.58339574673E+03  0.58339574674E+03  0.25500000920E-02 0.  1.
        2   -1    0    0  501    0  0.00000000000E+00  0.00000000000E+00 -0.15600269766E+04  0.15600269766E+04  0.25500000920E-02 0. -1.
    10030    2    1    2    0    0  0.00000000000E+00  0.00000000000E+00 -0.97663122982E+03  0.21434227233E+04  0.19079969632E+04 0.  0.
        3    1    3    3  502    0  0.50655499589E+03  0.29327857239E+03 -0.13345957734E+04  0.14573112823E+04  0.10100000352E+00 0. -1.
       -3    1    3    3    0  502 -0.50655499589E+03 -0.29327857239E+03  0.35796454355E+03  0.68611144104E+03  0.10100000352E+00 0.  1.
</event>
<event>
 5   0  0.1782613E-04  0.1852795E+04  0.7818609E-02  0.8678717E-01
       -1   -1    0    0    0  501  0.00000000000E+00  0.00000000000E+00  0.12079523810E+04  0.12079523810E+04  0.50400001928E-02 0. -1.
        1   -1    0    0  501    0  0.00000000000E+00  0.00000000000E+00 -0.71046846642E+03  0.71046846644E+03  0.50400001928E-02 0.  1.
    10030    2    1    2    0    0  0.00000000000E+00  0.00000000000E+00  0.49748391462E+03  0.19184208475E+04  0.18527947276E+04 0.  0.
        3    1    3    3  502    0 -0.18234673370E+03  0.85734154270E+03 -0.61758430519E+02  0.87869162171E+03  0.10100000352E+00 0.  1.
       -3    1    3    3    0  502  0.18234673370E+03 -0.85734154270E+03  0.55924234513E+03  0.10397292258E+04  0.10100000352E+00 0. -1.
</event>
<event>
 5   0  0.3535876E-04  0.1903517E+04  0.7818609E-02  0.8653108E-01
       -2   -1    0    0    0  501  0.00000000000E+00  0.00000000000E+00  0.80147897982E+03  0.80147897982E+03  0.25500000920E-02 0. -1.
        2   -1    0    0  501    0  0.00000000000E+00  0.00000000000E+00 -0.11302160439E+04  0.11302160439E+04  0.25500000920E-02 0.  1.
    10030    2    1    2    0    0  0.00000000000E+00  0.00000000000E+00 -0.32873706411E+03  0.19316950237E+04  0.19035171676E+04 0.  0.
        2    1    3    3  502    0 -0.68883407260E+03 -0.35344439335E+03  0.39738621858E+03  0.87024773799E+03  0.25500000920E-02 0. -1.
       -2    1    3    3    0  502  0.68883407260E+03  0.35344439335E+03 -0.72612328269E+03  0.10614472858E+04  0.25500000920E-02 0.  1.
</event>
<event>
 5   0  0.1287000E-04  0.1869257E+04  0.7818609E-02  0.8670312E-01
       -3   -1    0    0    0  501  0.00000000000E+00  0.00000000000E+00  0.87423651257E+03  0.87423651840E+03  0.10100000352E+00 0.  1.
        3   -1    0    0  501    0  0.00000000000E+00  0.00000000000E+00 -0.99919210899E+03  0.99919211410E+03  0.10100000352E+00 0. -1.
    10030    2    1    2    0    0  0.00000000000E+00  0.00000000000E+00 -0.12495559642E+03  0.18734286325E+04  0.18692567881E+04 0.  0.
        2    1    3    3  502    0  0.39645511600E+03 -0.24720187648E+03 -0.87375632545E+03  0.99082568750E+03  0.25500000920E-02 0. -1.
       -2    1    3    3    0  502 -0.39645511600E+03  0.24720187648E+03  0.74880072903E+03  0.88260294501E+03  0.25500000920E-02 0.  1.
</event>
<event>
 5   0  0.1711979E-04  0.1834866E+04  0.7818609E-02  0.8687975E-01
        1   -1    0    0  501    0  0.00000000000E+00  0.00000000000E+00  0.85524845976E+03  0.85524845978E+03  0.50400001928E-02 0. -1.
       -1   -1    0    0    0  501  0.00000000000E+00  0.00000000000E+00 -0.98413860232E+03  0.98413860233E+03  0.50400001928E-02 0.  1.
    10030    2    1    2    0    0  0.00000000000E+00  0.00000000000E+00 -0.12889014255E+03  0.18393870621E+04  0.18348656887E+04 0.  0.
        4    1    3    3  502    0  0.62779660294E+03  0.40244202361E+03  0.47128104709E+03  0.88215395214E+03  0.12699999809E+01 0. -1.
       -4    1    3    3    0  502 -0.62779660294E+03 -0.40244202361E+03 -0.60017118964E+03  0.95723310996E+03  0.12699999809E+01 0.  1.
</event>
<event>
 5   0  0.3535876E-04  0.2164714E+04  0.7818609E-02  0.8533260E-01
       -2   -1    0    0    0  501  0.00000000000E+00  0.00000000000E+00  0.17364637660E+04  0.17364637660E+04  0.25500000920E-02 0.  1.
        2   -1    0    0  501    0  0.00000000000E+00  0.00000000000E+00 -0.67464534236E+03  0.67464534237E+03  0.25500000920E-02 0. -1.
    10030    2    1    2    0    0  0.00000000000E+00  0.00000000000E+00  0.10618184236E+04  0.24111091083E+04  0.21647144771E+04 0.  0.
        2    1    3    3  502    0  0.33671020976E+03 -0.81422876074E+03  0.12310735007E+04  0.15138970256E+04  0.25500000920E-02 0.  1.
       -2    1    3    3    0  502 -0.33671020976E+03  0.81422876074E+03 -0.16925507710E+03  0.89721208267E+03  0.25500000920E-02 0. -1.
</event>
<event>
 5   0  0.1813834E-04  0.1929012E+04  0.7818609E-02  0.8640549E-01
       -1   -1    0    0    0  501  0.00000000000E+00  0.00000000000E+00  0.22838460434E+04  0.22838460434E+04  0.50400001928E-02 0.  1.
        1   -1    0    0  501    0  0.00000000000E+00  0.00000000000E+00 -0.40732669543E+03  0.40732669547E+03  0.50400001928E-02 0. -1.
    10030    2    1    2    0    0  0.00000000000E+00  0.00000000000E+00  0.18765193480E+04  0.26911727389E+04  0.19290116244E+04 0.  0.
        5    1    3    3  502    0 -0.22827314368E+03 -0.21782312497E+03  0.22097914634E+04  0.22322087590E+04  0.46999998093E+01 0.  1.
       -5    1    3    3    0  502  0.22827314368E+03  0.21782312497E+03 -0.33327211545E+03  0.45896397989E+03  0.46999998093E+01 0. -1.
</event>
<event>
 5   0  0.1813834E-04  0.1889733E+04  0.7818609E-02  0.8659984E-01
       -1   -1    0    0    0  501  0.00000000000E+00  0.00000000000E+00  0.99841570321E+03  0.99841570322E+03  0.50400001928E-02 0.  1.
        1   -1    0    0  501    0  0.00000000000E+00  0.00000000000E+00 -0.89418948734E+03  0.89418948735E+03  0.50400001928E-02 0. -1.
    10030    2    1    2    0    0  0.00000000000E+00  0.00000000000E+00  0.10422621587E+03  0.18926051906E+04  0.18897331302E+04 0.  0.
        5    1    3    3  502    0 -0.53660472375E+03 -0.76773944719E+02 -0.72295703824E+03  0.90361929886E+03  0.46999998093E+01 0. -1.
       -5    1    3    3    0  502  0.53660472375E+03  0.76773944719E+02  0.82718325410E+03  0.98898589171E+03  0.46999998093E+01 0.  1.
</event>
<event>
 5   0  0.1782613E-04  0.1718610E+04  0.7818609E-02  0.8750821E-01
        1   -1    0    0  501    0  0.00000000000E+00  0.00000000000E+00  0.60958261754E+03  0.60958261756E+03  0.50400001928E-02 0.  1.
       -1   -1    0    0    0  501  0.00000000000E+00  0.00000000000E+00 -0.12113293985E+04  0.12113293985E+04  0.50400001928E-02 0. -1.
    10030    2    1    2    0    0  0.00000000000E+00  0.00000000000E+00 -0.60174678093E+03  0.18209120160E+04  0.17186103054E+04 0.  0.
        3    1    3    3  502    0 -0.77846343861E+03 -0.18451383565E+03  0.31410287256E+02  0.80064804824E+03  0.10100000352E+00 0.  1.
       -3    1    3    3    0  502  0.77846343861E+03  0.18451383565E+03 -0.63315706819E+03  0.10202639678E+04  0.10100000352E+00 0. -1.
</event>
<event>
 5   0  0.1758946E-04  0.1892669E+04  0.7818609E-02  0.8658514E-01
        1   -1    0    0  501    0  0.00000000000E+00  0.00000000000E+00  0.10601897291E+04  0.10601897291E+04  0.50400001928E-02 0. -1.
       -1   -1    0    0    0  501  0.00000000000E+00  0.00000000000E+00 -0.84470636527E+03  0.84470636528E+03  0.50400001928E-02 0.  1.
    10030    2    1    2    0    0  0.00000000000E+00  0.00000000000E+00  0.21548336380E+03  0.19048960944E+04  0.18926690282E+04 0.  0.
        2    1    3    3  502    0  0.12884383881E+03  0.50548712245E+03  0.90241902145E+03  0.10423425809E+04  0.25500000920E-02 0. -1.
       -2    1    3    3    0  502 -0.12884383881E+03 -0.50548712245E+03 -0.68693565765E+03  0.86255351342E+03  0.25500000920E-02 0.  1.
</event>
<event>
 5   0  0.3623359E-04  0.1877441E+04  0.7818609E-02  0.8666167E-01
        2   -1    0    0  501    0  0.00000000000E+00  0.00000000000E+00  0.10803567880E+04  0.10803567880E+04  0.25500000920E-02 0. -1.
       -2   -1    0    0    0  501  0.00000000000E+00  0.00000000000E+00 -0.81565332522E+03  0.81565332522E+03  0.25500000920E-02 0.  1.
    10030    2    1    2    0    0  0.00000000000E+00  0.00000000000E+00  0.26470346276E+03  0.18960101132E+04  0.18774414575E+04 0.  0.
        5    1    3    3  502    0 -0.61252947965E+03 -0.69626095483E+03 -0.14700365530E+02  0.92747499773E+03  0.46999998093E+01 0.  1.
       -5    1    3    3    0  502  0.61252947965E+03  0.69626095483E+03  0.27940382829E+03  0.96853511549E+03  0.46999998093E+01 0. -1.
</event>
<event>
 5   0  0.1711979E-04  0.1917868E+04  0.7818609E-02  0.8646013E-01
       -1   -1    0    0    0  501  0.00000000000E+00  0.00000000000E+00  0.48048279223E+03  0.48048279225E+03  0.50400001928E-02 0.  1.
        1   -1    0    0  501    0  0.00000000000E+00  0.00000000000E+00 -0.19138131855E+04  0.19138131855E+04  0.50400001928E-02 0. -1.
    10030    2    1    2    0    0  0.00000000000E+00  0.00000000000E+00 -0.14333303932E+04  0.23942959777E+04  0.19178678820E+04 0.  0.
        4    1    3    3  502    0 -0.66251864608E+03 -0.25324902549E+03  0.89009455319E+02  0.71483587022E+03  0.12699999809E+01 0.  1.
       -4    1    3    3    0  502  0.66251864608E+03  0.25324902549E+03 -0.15223398485E+04  0.16794601075E+04  0.12699999809E+01 0. -1.
</event>
<event>
 5   0  0.1813834E-04  0.2076454E+04  0.7818609E-02  0.8571687E-01
       -1   -1    0    0    0  501  0.00000000000E+00  0.00000000000E+00  0.60804432007E+03  0.60804432009E+03  0.50400001928E-02 0.  1.
        1   -1    0    0  501    0  0.00000000000E+00  0.00000000000E+00 -0.17727571069E+04  0.17727571069E+04  0.50400001928E-02 0. -1.
    10030    2    1    2    0    0  0.00000000000E+00  0.00000000000E+00 -0.11647127868E+04  0.23808014270E+04  0.20764536014E+04 0.  0.
        5    1    3    3  502    0 -0.33958595367E+03  0.53203042174E+03  0.36279496967E+03  0.72802284964E+03  0.46999998093E+01 0.  1.
       -5    1    3    3    0  502  0.33958595367E+03 -0.53203042174E+03 -0.15275077565E+04  0.16527785773E+04  0.46999998093E+01 0. -1.
</event>
<event>
 5   0  0.3535876E-04  0.1912660E+04  0.7818609E-02  0.8648580E-01
       -2   -1    0    0    0  501  0.00000000000E+00  0.00000000000E+00  0.49355374081E+03  0.49355374081E+03  0.25500000920E-02 0. -1.
        2   -1    0    0  501    0  0.00000000000E+00  0.00000000000E+00 -0.18530247750E+04  0.18530247750E+04  0.25500000920E-02 0.  1.
    10030    2    1    2    0    0  0.00000000000E+00  0.00000000000E+00 -0.13594710341E+04  0.23465785158E+04  0.19126602516E+04 0.  0.
        2    1    3    3  502    0 -0.39036290978E+03 -0.63767203800E+03  0.51829244764E+02  0.74946320790E+03  0.25500000920E-02 0. -1.
       -2    1    3    3    0  502  0.39036290978E+03  0.63767203800E+03 -0.14113002789E+04  0.15971153079E+04  0.25500000920E-02 0.  1.
</event>
<event>
 5   0  0.1758946E-04  0.1873398E+04  0.7818609E-02  0.8668212E-01
       -1   -1    0    0    0  501  0.00000000000E+00  0.00000000000E+00  0.67861558221E+03  0.67861558223E+03  0.50400001928E-02 0.  1.
        1   -1    0    0  501    0  0.00000000000E+00  0.00000000000E+00 -0.12929335317E+04  0.12929335317E+04  0.50400001928E-02 0. -1.
    10030    2    1    2    0    0  0.00000000000E+00  0.00000000000E+00 -0.61431794949E+03  0.19715491139E+04  0.18733978130E+04 0.  0.
        2    1    3    3  502    0  0.37560586581E+02 -0.35814994755E+03 -0.12171725317E+04  0.12693270479E+04  0.25500000920E-02 0. -1.
       -2    1    3    3    0  502 -0.37560586581E+02  0.35814994755E+03  0.60285458226E+03  0.70222206599E+03  0.25500000920E-02 0.  1.
</event>
<event>
 5   0  0.3623359E-04  0.1860232E+04  0.7818609E-02  0.8674908E-01
       -2   -1    0    0    0  501  0.00000000000E+00  0.00000000000E+00  0.33098319584E+03  0.33098319585E+03  0.25500000920E-02 0.  1.
        2   -1    0    0  501    0  0.00000000000E+00  0.00000000000E+00 -0.26137767374E+04  0.26137767374E+04  0.25500000920E-02 0. -1.
    10030    2    1    2    0    0  0.00000000000E+00  0.00000000000E+00 -0.22827935415E+04  0.29447599332E+04  0.18602324347E+04 0.  0.
        5    1    3    3  502    0 -0.45112325583E+03  0.36953046742E+03  0.56321884599E+01  0.58319702490E+03  0.46999998093E+01 0.  1.
       -5    1    3    3    0  502  0.45112325583E+03 -0.36953046742E+03 -0.22884257300E+04  0.23615629083E+04  0.46999998093E+01 0. -1.
</event>
<event>
 5   0  0.1694830E-04  0.1842411E+04  0.7818609E-02  0.8684065E-01
        1   -1    0    0  501    0  0.00000000000E+00  0.00000000000E+00  0.10783084123E+04  0.10783084123E+04  0.50400001928E-02 0. -1.
       -1   -1    0    0    0  501  0.00000000000E+00  0.00000000000E+00 -0.78699172650E+03  0.78699172652E+03  0.50400001928E-02 0.  1.
    10030    2    1    2    0    0  0.00000000000E+00  0.00000000000E+00  0.29131668582E+03  0.18653001389E+04  0.18424112452E+04 0.  0.
        1    1    3    3  502    0 -0.76334308995E+03 -0.13118248163E+03 -0.35925401696E+03  0.85379445137E+03  0.50400001928E-02 0.  1.
       -1    1    3    3    0  502  0.76334308995E+03  0.13118248163E+03  0.65057070279E+03  0.10115056875E+04  0.50400001928E-02 0. -1.
</event>
<event>
 5   0  0.3459485E-04  0.1904712E+04  0.7818609E-02  0.8652515E-01
        2   -1    0    0  501    0  0.00000000000E+00  0.00000000000E+00  0.89550242412E+03  0.89550242413E+03  0.25500000920E-02 0.  1.
       -2   -1    0    0    0  501  0.00000000000E+00  0.00000000000E+00 -0.10128185695E+04  0.10128185695E+04  0.25500000920E-02 0. -1.
    10030    2    1    2    0    0  0.00000000000E+00  0.00000000000E+00 -0.11731614542E+03  0.19083209937E+04  0.19047115102E+04 0.  0.
        3    1    3    3  502    0 -0.31790474115E+03  0.82456603910E+03  0.29699193823E+03  0.93229651874E+03  0.10100000352E+00 0.  1.
       -3    1    3    3    0  502  0.31790474115E+03 -0.82456603910E+03 -0.41430808365E+03  0.97602447493E+03  0.10100000352E+00 0. -1.
</event>
<event>
 5   0  0.3623359E-04  0.1889868E+04  0.7818609E-02  0.8659916E-01
        2   -1    0    0  501    0  0.00000000000E+00  0.00000000000E+00  0.85755821333E+03  0.85755821334E+03  0.25500000920E-02 0. -1.
       -2   -1    0    0    0  501  0.00000000000E+00  0.00000000000E+00 -0.10412119937E+04  0.10412119937E+04  0.25500000920E-02 0.  1.
    10030    2    1    2    0    0  0.00000000000E+00  0.00000000000E+00 -0.18365378037E+03  0.18987702070E+04  0.18898676113E+04 0.  0.
        5    1    3    3  502    0  0.31739044639E+03  0.43477733856E+03 -0.87208665272E+03  0.10248537698E+04  0.46999998093E+01 0.  1.
       -5    1    3    3    0  502 -0.31739044639E+03 -0.43477733856E+03  0.68843287235E+03  0.87391643726E+03  0.46999998093E+01 0. -1.
</event>
<event>
 5   0  0.1694830E-04  0.1877364E+04  0.7818609E-02  0.8666207E-01
        1   -1    0    0  501    0  0.00000000000E+00  0.00000000000E+00  0.12523409081E+04  0.12523409081E+04  0.50400001928E-02 0.  1.
       -1   -1    0    0    0  501  0.00000000000E+00  0.00000000000E+00 -0.70358144914E+03  0.70358144916E+03  0.50400001928E-02 0. -1.
    10030    2    1    2    0    0  0.00000000000E+00  0.00000000000E+00  0.54875945891E+03  0.19559223572E+04  0.18773639295E+04 0.  0.
        1    1    3    3  502    0  0.20222211655E+01 -0.21254220531E+03 -0.67817982471E+03  0.71070820530E+03  0.50400001928E-02 0. -1.
       -1    1    3    3    0  502 -0.20222211655E+01  0.21254220531E+03  0.12269392836E+04  0.12452141519E+04  0.50400001928E-02 0.  1.
</event>
<event>
 5   0  0.3535876E-04  0.1905086E+04  0.7818609E-02  0.8652329E-01
        2   -1    0    0  501    0  0.00000000000E+00  0.00000000000E+00  0.11904583126E+04  0.11904583126E+04  0.25500000920E-02 0.  1.
       -2   -1    0    0    0  501  0.00000000000E+00  0.00000000000E+00 -0.76217539271E+03  0.76217539271E+03  0.25500000920E-02 0. -1.
    10030    2    1    2    0    0  0.00000000000E+00  0.00000000000E+00  0.42828291986E+03  0.19526337053E+04  0.19050858583E+04 0.  0.
        2    1    3    3  502    0 -0.85871595843E+03  0.23661621003E+03  0.56014303294E+03  0.10522074631E+04  0.25500000920E-02 0.  1.
       -2    1    3    3    0  502  0.85871595843E+03 -0.23661621003E+03 -0.13186011309E+03  0.90042624215E+03  0.25500000920E-02 0. -1.
</event>
<event>
 5   0  0.3623359E-04  0.1918692E+04  0.7818609E-02  0.8645608E-01
        2   -1    0    0  501    0  0.00000000000E+00  0.00000000000E+00  0.80089773415E+03  0.80089773415E+03  0.25500000920E-02 0.  1.
       -2   -1    0    0    0  501  0.00000000000E+00  0.00000000000E+00 -0.11491413618E+04  0.11491413618E+04  0.25500000920E-02 0. -1.
    10030    2    1    2    0    0  0.00000000000E+00  0.00000000000E+00 -0.34824362769E+03  0.19500390960E+04  0.19186919637E+04 0.  0.
        5    1    3    3  502    0 -0.89730943507E+02 -0.10598603807E+01  0.79661103198E+03  0.80166326584E+03  0.46999998093E+01 0.  1.
       -5    1    3    3    0  502  0.89730943507E+02  0.10598603807E+01 -0.11448546597E+04  0.11483758302E+04  0.46999998093E+01 0. -1.
</event>
<event>
 5   0  0.1758946E-04  0.1925665E+04  0.7818609E-02  0.8642186E-01
        1   -1    0    0  501    0  0.00000000000E+00  0.00000000000E+00  0.58681825314E+03  0.58681825316E+03  0.50400001928E-02 0. -1.
       -1   -1    0    0    0  501  0.00000000000E+00  0.00000000000E+00 -0.15797848838E+04  0.15797848838E+04  0.50400001928E-02 0.  1.
    10030    2    1    2    0    0  0.00000000000E+00  0.00000000000E+00 -0.99296663062E+03  0.21666031369E+04  0.19256651899E+04 0.  0.
        2    1    3    3  502    0 -0.91193902385E+03  0.13158012071E+03 -0.18205222650E+03  0.93919599902E+03  0.25500000920E-02 0. -1.
       -2    1    3    3    0  502  0.91193902385E+03 -0.13158012071E+03 -0.81091440412E+03  0.12274071379E+04  0.25500000920E-02 0.  1.
</event>
<event>
 5   0  0.3623359E-04  0.1925053E+04  0.7818609E-02  0.8642485E-01
        2   -1    0    0  501    0  0.00000000000E+00  0.00000000000E+00  0.14353375318E+04  0.14353375318E+04  0.25500000920E-02 0.  1.
       -2   -1    0    0    0  501  0.00000000000E+00  0.00000000000E+00 -0.64546313074E+03  0.64546313075E+03  0.25500000920E-02 0. -1.
    10030    2    1    2    0    0  0.00000000000E+00  0.00000000000E+00  0.78987440106E+03  0.20808006626E+04  0.19250532013E+04 0.  0.
        5    1    3    3  502    0  0.16808203973E+03 -0.13913696776E+03  0.14082391268E+04  0.14250509451E+04  0.46999998093E+01 0.  1.
       -5    1    3    3    0  502 -0.16808203973E+03  0.13913696776E+03 -0.61836472575E+03  0.65574971744E+03  0.46999998093E+01 0. -1.
</event>
<event>
 5   0  0.1711979E-04  0.1906185E+04  0.7818609E-02  0.8651784E-01
       -1   -1    0    0    0  501  0.00000000000E+00  0.00000000000E+00  0.10656144782E+04  0.10656144782E+04  0.50400001928E-02 0. -1.
        1   -1    0    0  501    0  0.00000000000E+00  0.00000000000E+00 -0.85245169114E+03  0.85245169115E+03  0.50400001928E-02 0.  1.
    10030    2    1    2    0    0  0.00000000000E+00  0.00000000000E+00  0.21316278705E+03  0.19180661693E+04  0.19061845284E+04 0.  0.
        4    1    3    3  502    0  0.61298839573E+03  0.43107609896E+03  0.69915098784E+03  0.10248878442E+04  0.12699999809E+01 0. -1.
       -4    1    3    3    0  502 -0.61298839573E+03 -0.43107609896E+03 -0.48598820079E+03  0.89317832520E+03  0.12699999809E+01 0.  1.
</event>
<event>
 5   0  0.1813834E-04  0.1865300E+04  0.7818609E-02  0.8672324E-01
        1   -1    0    0  501    0  0.00000000000E+00  0.00000000000E+00  0.13373412686E+04  0.13373412686E+04  0.50400001928E-02 0. -1.
       -1   -1    0    0    0  501  0.00000000000E+00  0.00000000000E+00 -0.65042186909E+03  0.65042186911E+03  0.50400001928E-02 0.  1.
    10030    2    1    2    0    0  0.00000000000E+00  0.00000000000E+00  0.68691939948E+03  0.19877631377E+04  0.18652999840E+04 0.  0.
        5    1    3    3  502    0 -0.69161466513E+03 -0.62340879463E+03  0.40029557149E+03  0.10135225724E+04  0.46999998093E+01 0.  1.
       -5    1    3    3    0  502  0.69161466513E+03  0.62340879463E+03  0.28662382799E+03  0.97424056527E+03  0.46999998093E+01 0. -1.
</event>
<event>
 5   0  0.1813834E-04  0.1922191E+04  0.7818609E-02  0.8643889E-01
        1   -1    0    0  501    0  0.00000000000E+00  0.00000000000E+00  0.18076386926E+04  0.18076386926E+04  0.50400001928E-02 0.  1.
       -1   -1    0    0    0  501  0.00000000000E+00  0.00000000000E+00 -0.51100060675E+03  0.51100060678E+03  0.50400001928E-02 0. -1.
    10030    2    1    2    0    0  0.00000000000E+00  0.00000000000E+00  0.12966380858E+04  0.23186392994E+04  0.19221909049E+04 0.  0.
        5    1    3    3  502    0 -0.65369115790E+03  0.94685805009E+02 -0.19381572256E+03  0.68837791648E+03  0.46999998093E+01 0. -1.
       -5    1    3    3    0  502  0.65369115790E+03 -0.94685805009E+02  0.14904538084E+04  0.16302613829E+04  0.46999998093E+01 0.  1.
</event>
<event>
 5   0  0.1287000E-04  0.1278774E+04  0.7818609E-02  0.9046569E-01
        3   -1    0    0  501    0  0.00000000000E+00  0.00000000000E+00  0.67016574933E+03  0.67016575694E+03  0.10100000352E+00 0. -1.
       -3   -1    0    0    0  501  0.00000000000E+00  0.00000000000E+00 -0.61002195610E+03  0.61002196446E+03  0.10100000352E+00 0.  1.
    10030    2    1    2    0    0  0.00000000000E+00  0.00000000000E+00  0.60143793230E+02  0.12801877214E+04  0.12787741498E+04 0.  0.
        4    1    3    3  502    0 -0.97409605384E+02  0.36496099504E+03 -0.48637534071E+03  0.61583093790E+03  0.12699999809E+01 0.  1.
       -4    1    3    3    0  502  0.97409605384E+02 -0.36496099504E+03  0.54651913394E+03  0.66435678350E+03  0.12699999809E+01 0. -1.
</event>
<event>
 5   0  0.3459485E-04  0.1858525E+04  0.7818609E-02  0.8675781E-01
        2   -1    0    0  501    0  0.00000000000E+00  0.00000000000E+00  0.16049802465E+04  0.16049802465E+04  0.25500000920E-02 0.  1.
       -2   -1    0    0    0  501  0.00000000000E+00  0.00000000000E+00 -0.53803102850E+03  0.53803102851E+03  0.25500000920E-02 0. -1.
    10030    2    1    2    0    0  0.00000000000E+00  0.00000000000E+00  0.10669492180E+04  0.21430112750E+04  0.18585254077E+04 0.  0.
        3    1    3    3  502    0  0.78227179820E+03  0.15675652617E+03  0.10828585355E+04  0.13450295137E+04  0.10100000352E+00 0.  1.
       -3    1    3    3    0  502 -0.78227179820E+03 -0.15675652617E+03 -0.15909317472E+02  0.79798176128E+03  0.10100000352E+00 0. -1.
</event>
<event>
 5   0  0.1813834E-04  0.1946527E+04  0.7818609E-02  0.8632037E-01
        1   -1    0    0  501    0  0.00000000000E+00  0.00000000000E+00  0.37203686607E+03  0.37203686611E+03  0.50400001928E-02 0. -1.
       -1   -1    0    0    0  501  0.00000000000E+00  0.00000000000E+00 -0.25460968748E+04  0.25460968748E+04  0.50400001928E-02 0.  1.
    10030    2    1    2    0    0  0.00000000000E+00  0.00000000000E+00 -0.21740600087E+04  0.29181337409E+04  0.19465270633E+04 0.  0.
        5    1    3    3  502    0  0.81374683170E+03 -0.46375113572E+03 -0.69047527396E+03  0.11636267511E+04  0.46999998093E+01 0. -1.
       -5    1    3    3    0  502 -0.81374683170E+03  0.46375113572E+03 -0.14835847348E+04  0.17545069898E+04  0.46999998093E+01 0.  1.
</event>
<event>
 5   0  0.1813834E-04  0.1911434E+04  0.7818609E-02  0.8649186E-01
        1   -1    0    0  501    0  0.00000000000E+00  0.00000000000E+00  0.10143319158E+04  0.10143319159E+04  0.50400001928E-02 0.  1.
       -1   -1    0    0    0  501  0.00000000000E+00  0.00000000000E+00 -0.90048927711E+03  0.90048927712E+03  0.50400001928E-02 0. -1.
    10030    2    1    2    0    0  0.00000000000E+00  0.00000000000E+00  0.11384263873E+03  0.19148211930E+04  0.19114340309E+04 0.  0.
        5    1    3    3  502    0  0.50400779282E+02  0.12369331008E+03  0.10049241277E+04  0.10137725908E+04  0.46999998093E+01 0.  1.
       -5    1    3    3    0  502 -0.50400779282E+02 -0.12369331008E+03 -0.89108148894E+03  0.90104860216E+03  0.46999998093E+01 0. -1.
</event>
<event>
 5   0  0.3459485E-04  0.1882777E+04  0.7818609E-02  0.8663477E-01
        2   -1    0    0  501    0  0.00000000000E+00  0.00000000000E+00  0.50953987619E+03  0.50953987620E+03  0.25500000920E-02 0.  1.
       -2   -1    0    0    0  501  0.00000000000E+00  0.00000000000E+00 -0.17392407596E+04  0.17392407596E+04  0.25500000920E-02 0. -1.
    10030    2    1    2    0    0  0.00000000000E+00  0.00000000000E+00 -0.12297008834E+04  0.22487806358E+04  0.18827772267E+04 0.  0.
        3    1    3    3  502    0 -0.56695618035E+03  0.11220396141E+02 -0.15123552533E+04  0.16151729412E+04  0.10100000352E+00 0. -1.
       -3    1    3    3    0  502  0.56695618035E+03 -0.11220396141E+02  0.28265436982E+03  0.63360769464E+03  0.10100000352E+00 0.  1.
</event>
<event>
 5   0  0.3720978E-04  0.1904265E+04  0.7818609E-02  0.8652736E-01
       -2   -1    0    0    0  501  0.00000000000E+00  0.00000000000E+00  0.33662525755E+03  0.33662525756E+03  0.25500000920E-02 0.  1.
        2   -1    0    0  501    0  0.00000000000E+00  0.00000000000E+00 -0.26930735203E+04  0.26930735203E+04  0.25500000920E-02 0. -1.
    10030    2    1    2    0    0  0.00000000000E+00  0.00000000000E+00 -0.23564482628E+04  0.30296987779E+04  0.19042652834E+04 0.  0.
        1    1    3    3  502    0  0.58686387511E+03  0.74287043688E+03 -0.10168261416E+04  0.13893167731E+04  0.50400001928E-02 0.  1.
       -1    1    3    3    0  502 -0.58686387511E+03 -0.74287043688E+03 -0.13396221212E+04  0.16403820047E+04  0.50400001928E-02 0. -1.
</event>
<event>
 5   0  0.3516539E-04  0.1881388E+04  0.7818609E-02  0.8664177E-01
       -2   -1    0    0    0  501  0.00000000000E+00  0.00000000000E+00  0.98882986657E+03  0.98882986657E+03  0.25500000920E-02 0. -1.
        2   -1    0    0  501    0  0.00000000000E+00  0.00000000000E+00 -0.89490095909E+03  0.89490095910E+03  0.25500000920E-02 0.  1.
    10030    2    1    2    0    0  0.00000000000E+00  0.00000000000E+00  0.93928907474E+02  0.18837308257E+04  0.18813875688E+04 0.  0.
        4    1    3    3  502    0 -0.24401595703E+03 -0.26885744018E+03 -0.82191536638E+03  0.89854025665E+03  0.12699999809E+01 0.  1.
       -4    1    3    3    0  502  0.24401595703E+03  0.26885744018E+03  0.91584427386E+03  0.98519056902E+03  0.12699999809E+01 0. -1.
</event>
<event>
 5   0  0.1758946E-04  0.1915220E+04  0.7818609E-02  0.8647318E-01
       -1   -1    0    0    0  501  0.00000000000E+00  0.00000000000E+00  0.11477843250E+04  0.11477843250E+04  0.50400001928E-02 0.  1.
        1   -1    0    0  501    0  0.00000000000E+00  0.00000000000E+00 -0.79894491481E+03  0.79894491483E+03  0.50400001928E-02 0. -1.
    10030    2    1    2    0    0  0.00000000000E+00  0.00000000000E+00  0.34883941017E+03  0.19467292398E+04  0.19152195172E+04 0.  0.
        2    1    3    3  502    0  0.67741064125E+03  0.51457236167E+03 -0.27252645990E+03  0.89327518920E+03  0.25500000920E-02 0. -1.
       -2    1    3    3    0  502 -0.67741064125E+03 -0.51457236167E+03  0.62136587007E+03  0.10534540506E+04  0.25500000920E-02 0.  1.
</event>
<event>
 5   0  0.3623359E-04  0.1758036E+04  0.7818609E-02  0.8728939E-01
       -2   -1    0    0    0  501  0.00000000000E+00  0.00000000000E+00  0.12862998431E+04  0.12862998431E+04  0.25500000920E-02 0.  1.
        2   -1    0    0  501    0  0.00000000000E+00  0.00000000000E+00 -0.60069385468E+03  0.60069385468E+03  0.25500000920E-02 0. -1.
    10030    2    1    2    0    0  0.00000000000E+00  0.00000000000E+00  0.68560598841E+03  0.18869936978E+04  0.17580357346E+04 0.  0.
        5    1    3    3  502    0 -0.87665518577E+02 -0.51669233924E+03  0.11002545324E+04  0.12187035500E+04  0.46999998093E+01 0.  1.
       -5    1    3    3    0  502  0.87665518577E+02  0.51669233924E+03 -0.41464854403E+03  0.66829014779E+03  0.46999998093E+01 0. -1.
</event>
<event>
 5   0  0.1711979E-04  0.1806119E+04  0.7818609E-02  0.8703052E-01
        1   -1    0    0  501    0  0.00000000000E+00  0.00000000000E+00  0.10860311369E+04  0.10860311370E+04  0.50400001928E-02 0.  1.
       -1   -1    0    0    0  501  0.00000000000E+00  0.00000000000E+00 -0.75091406875E+03  0.75091406877E+03  0.50400001928E-02 0. -1.
    10030    2    1    2    0    0  0.00000000000E+00  0.00000000000E+00  0.33511706819E+03  0.18369452057E+04  0.18061185563E+04 0.  0.
        4    1    3    3  502    0  0.43623623026E+02  0.63530876099E+03 -0.48367807490E+03  0.79966639001E+03  0.12699999809E+01 0. -1.
       -4    1    3    3    0  502 -0.43623623026E+02 -0.63530876099E+03  0.81879514310E+03  0.10372788157E+04  0.12699999809E+01 0.  1.
</event>
<event>
 5   0  0.3720978E-04  0.1651857E+04  0.7818609E-02  0.8789308E-01
        2   -1    0    0  501    0  0.00000000000E+00  0.00000000000E+00  0.12499703474E+04  0.12499703474E+04  0.25500000920E-02 0.  1.
       -2   -1    0    0    0  501  0.00000000000E+00  0.00000000000E+00 -0.54573954189E+03  0.54573954190E+03  0.25500000920E-02 0. -1.
    10030    2    1    2    0    0  0.00000000000E+00  0.00000000000E+00  0.70423080549E+03  0.17957098893E+04  0.16518574330E+04 0.  0.
        1    1    3    3  502    0 -0.43193765711E+03  0.66693186914E+03  0.59710783167E+03  0.99393461574E+03  0.50400001928E-02 0.  1.
       -1    1    3    3    0  502  0.43193765711E+03 -0.66693186914E+03  0.10712297382E+03  0.80177527353E+03  0.50400001928E-02 0. -1.
</event>
<event>
 5   0  0.3623359E-04  0.1911744E+04  0.7818609E-02  0.8649033E-01
        2   -1    0    0  501    0  0.00000000000E+00  0.00000000000E+00  0.17917657050E+04  0.17917657050E+04  0.25500000920E-02 0.  1.
       -2   -1    0    0    0  501  0.00000000000E+00  0.00000000000E+00 -0.50993878243E+03  0.50993878244E+03  0.25500000920E-02 0. -1.
    10030    2    1    2    0    0  0.00000000000E+00  0.00000000000E+00  0.12818269226E+04  0.23017044874E+04  0.19117435205E+04 0.  0.
        5    1    3    3  502    0 -0.44434446597E+03  0.79637663399E+03  0.29612243825E+03  0.95883697052E+03  0.46999998093E+01 0. -1.
       -5    1    3    3    0  502  0.44434446597E+03 -0.79637663399E+03  0.98570448432E+03  0.13428675169E+04  0.46999998093E+01 0.  1.
</event>
<event>
 5   0  0.3535876E-04  0.1891026E+04  0.7818609E-02  0.8659336E-01
       -2   -1    0    0    0  501  0.00000000000E+00  0.00000000000E+00  0.31613362883E+03  0.31613362884E+03  0.25500000920E-02 0. -1.
        2   -1    0    0  501    0  0.00000000000E+00  0.00000000000E+00 -0.28279007088E+04  0.28279007088E+04  0.25500000920E-02 0.  1.
    10030    2    1    2    0    0  0.00000000000E+00  0.00000000000E+00 -0.25117670800E+04  0.31440343376E+04  0.18910256614E+04 0.  0.
        2    1    3    3  502    0 -0.41035758800E+02  0.49832138765E+03  0.78338767166E+02  0.50610779616E+03  0.25500000920E-02 0. -1.
       -2    1    3    3    0  502  0.41035758800E+02 -0.49832138765E+03 -0.25901058471E+04  0.26379265415E+04  0.25500000920E-02 0.  1.
</event>
<event>
 5   0  0.1694830E-04  0.1868759E+04  0.7818609E-02  0.8670565E-01
        1   -1    0    0  501    0  0.00000000000E+00  0.00000000000E+00  0.80534534684E+03  0.80534534685E+03  0.50400001928E-02 0.  1.
       -1   -1    0    0    0  501  0.00000000000E+00  0.00000000000E+00 -0.10840874127E+04  0.10840874127E+04  0.50400001928E-02 0. -1.
    10030    2    1    2    0    0  0.00000000000E+00  0.00000000000E+00 -0.27874206582E+03  0.18894327595E+04  0.18687586825E+04 0.  0.
        1    1    3    3  502    0  0.69046296323E+03  0.12987983071E+03 -0.76218656246E+03  0.10365983938E+04  0.50400001928E-02 0. -1.
       -1    1    3    3    0  502 -0.69046296323E+03 -0.12987983071E+03  0.48344449663E+03  0.85283436573E+03  0.50400001928E-02 0.  1.
</event>
<event>
 5   0  0.1711979E-04  0.1908018E+04  0.7818609E-02  0.8650876E-01
        1   -1    0    0  501    0  0.00000000000E+00  0.00000000000E+00  0.10502353378E+04  0.10502353378E+04  0.50400001928E-02 0. -1.
       -1   -1    0    0    0  501  0.00000000000E+00  0.00000000000E+00 -0.86659917843E+03  0.86659917844E+03  0.50400001928E-02 0.  1.
    10030    2    1    2    0    0  0.00000000000E+00  0.00000000000E+00  0.18363615934E+03  0.19168345162E+04  0.19080179044E+04 0.  0.
        4    1    3    3  502    0  0.94732642655E+03  0.76341183027E+01 -0.21155227196E+02  0.94759421418E+03  0.12699999809E+01 0.  1.
       -4    1    3    3    0  502 -0.94732642655E+03 -0.76341183027E+01  0.20479138653E+03  0.96924030204E+03  0.12699999809E+01 0. -1.
</event>
<event>
 5   0  0.3535876E-04  0.1916958E+04  0.7818609E-02  0.8646461E-01
        2   -1    0    0  501    0  0.00000000000E+00  0.00000000000E+00  0.17759764709E+04  0.17759764709E+04  0.25500000920E-02 0.  1.
       -2   -1    0    0    0  501  0.00000000000E+00  0.00000000000E+00 -0.51728292832E+03  0.51728292833E+03  0.25500000920E-02 0. -1.
    10030    2    1    2    0    0  0.00000000000E+00  0.00000000000E+00  0.12586935425E+04  0.22932593992E+04  0.19169583297E+04 0.  0.
        2    1    3    3  502    0 -0.73808072124E+03  0.67194008056E+02  0.13564421417E+04  0.15457080803E+04  0.25500000920E-02 0.  1.
       -2    1    3    3    0  502  0.73808072124E+03 -0.67194008056E+02 -0.97748599106E+02  0.74755131892E+03  0.25500000920E-02 0. -1.
</event>
<event>
 5   0  0.3623359E-04  0.1884326E+04  0.7818609E-02  0.8662698E-01
        2   -1    0    0  501    0  0.00000000000E+00  0.00000000000E+00  0.24767978451E+04  0.24767978451E+04  0.25500000920E-02 0. -1.
       -2   -1    0    0    0  501  0.00000000000E+00  0.00000000000E+00 -0.35839480585E+03  0.35839480586E+03  0.25500000920E-02 0.  1.
    10030    2    1    2    0    0  0.00000000000E+00  0.00000000000E+00  0.21184030393E+04  0.28351926510E+04  0.18843263866E+04 0.  0.
        5    1    3    3  502    0 -0.25997962319E+03  0.58519783841E+03  0.19376685905E+02  0.64065861464E+03  0.46999998093E+01 0.  1.
       -5    1    3    3    0  502  0.25997962319E+03 -0.58519783841E+03  0.20990263534E+04  0.21945340363E+04  0.46999998093E+01 0. -1.
</event>
<event>
 5   0  0.1711979E-04  0.1899796E+04  0.7818609E-02  0.8654958E-01
        1   -1    0    0  501    0  0.00000000000E+00  0.00000000000E+00  0.11478175544E+04  0.11478175544E+04  0.50400001928E-02 0. -1.
       -1   -1    0    0    0  501  0.00000000000E+00  0.00000000000E+00 -0.78610585011E+03  0.78610585012E+03  0.50400001928E-02 0.  1.
    10030    2    1    2    0    0  0.00000000000E+00  0.00000000000E+00  0.36171170429E+03  0.19339234045E+04  0.18997958779E+04 0.  0.
        4    1    3    3  502    0  0.19986769973E+03  0.31429970302E+02 -0.76391629987E+03  0.79025607656E+03  0.12699999809E+01 0.  1.
       -4    1    3    3    0  502 -0.19986769973E+03 -0.31429970302E+02  0.11256280042E+04  0.11436673280E+04  0.12699999809E+01 0. -1.
</event>
<event>
 5   0  0.1758946E-04  0.2002669E+04  0.7818609E-02  0.8605374E-01
       -1   -1    0    0    0  501  0.00000000000E+00  0.00000000000E+00  0.67981704524E+03  0.67981704526E+03  0.50400001928E-02 0.  1.
        1   -1    0    0  501    0  0.00000000000E+00  0.00000000000E+00 -0.14749126495E+04  0.14749126496E+04  0.50400001928E-02 0. -1.
    10030    2    1    2    0    0  0.00000000000E+00  0.00000000000E+00 -0.79509560430E+03  0.21547296948E+04  0.20026689786E+04 0.  0.
        2    1    3    3  502    0 -0.36845057828E+03  0.66208150039E+03 -0.11019017804E+04  0.13372715788E+04  0.25500000920E-02 0.  1.
       -2    1    3    3    0  502  0.36845057828E+03 -0.66208150039E+03  0.30680617608E+03  0.81745811604E+03  0.25500000920E-02 0. -1.
</event>
<event>
 5   0  0.3516539E-04  0.1893122E+04  0.7818609E-02  0.8658288E-01
       -2   -1    0    0    0  501  0.00000000000E+00  0.00000000000E+00  0.81576611916E+03  0.81576611917E+03  0.25500000920E-02 0. -1.
        2   -1    0    0  501    0  0.00000000000E+00  0.00000000000E+00 -0.10983264939E+04  0.10983264939E+04  0.25500000920E-02 0.  1.
    10030    2    1    2    0    0  0.00000000000E+00  0.00000000000E+00 -0.28256037475E+03  0.19140926131E+04  0.18931218043E+04 0.  0.
        4    1    3    3  502    0 -0.47277565558E+03 -0.25264746213E+03 -0.93006853264E+03  0.10734880758E+04  0.12699999809E+01 0.  1.
       -4    1    3    3    0  502  0.47277565558E+03  0.25264746213E+03  0.64750815789E+03  0.84060453726E+03  0.12699999809E+01 0. -1.
</event>
<event>
 5   0  0.1813834E-04  0.1915042E+04  0.7818609E-02  0.8647405E-01
       -1   -1    0    0    0  501  0.00000000000E+00  0.00000000000E+00  0.12525452707E+04  0.12525452708E+04  0.50400001928E-02 0. -1.
        1   -1    0    0  501    0  0.00000000000E+00  0.00000000000E+00 -0.73198648680E+03  0.73198648682E+03  0.50400001928E-02 0.  1.
    10030    2    1    2    0    0  0.00000000000E+00  0.00000000000E+00  0.52055878394E+03  0.19845317576E+04  0.19150417357E+04 0.  0.
        5    1    3    3  502    0  0.78894250753E+03  0.87832274606E+02  0.81513247440E+03  0.11378083448E+04  0.46999998093E+01 0. -1.
       -5    1    3    3    0  502 -0.78894250753E+03 -0.87832274606E+02 -0.29457369046E+03  0.84672341279E+03  0.46999998093E+01 0.  1.
</event>
<event>
 5   0  0.3516539E-04  0.1899505E+04  0.7818609E-02  0.8655103E-01
        2   -1    0    0  501    0  0.00000000000E+00  0.00000000000E+00  0.11253814492E+04  0.11253814492E+04  0.25500000920E-02 0. -1.
       -2   -1    0    0    0  501  0.00000000000E+00  0.00000000000E+00 -0.80153241789E+03  0.80153241789E+03  0.25500000920E-02 0.  1.
    10030    2    1    2    0    0  0.00000000000E+00  0.00000000000E+00  0.32384903134E+03  0.19269138671E+04  0.18995048977E+04 0.  0.
        4    1    3    3  502    0 -0.17832919189E+03  0.81195234904E+03  0.62785607902E+03  0.10417642664E+04  0.12699999809E+01 0. -1.
       -4    1    3    3    0  502  0.17832919189E+03 -0.81195234904E+03 -0.30400704768E+03  0.88514960076E+03  0.12699999809E+01 0.  1.
</event>
<event>
 5   0  0.3516539E-04  0.1849650E+04  0.7818609E-02  0.8680333E-01
        2   -1    0    0  501    0  0.00000000000E+00  0.00000000000E+00  0.10693777697E+04  0.10693777697E+04  0.25500000920E-02 0.  1.
       -2   -1    0    0    0  501  0.00000000000E+00  0.00000000000E+00 -0.79981208715E+03  0.79981208715E+03  0.25500000920E-02 0. -1.
    10030    2    1    2    0    0  0.00000000000E+00  0.00000000000E+00  0.26956568251E+03  0.18691898568E+04  0.18496499841E+04 0.  0.
        4    1    3    3  502    0  0.52883249345E+03 -0.67969927711E+03  0.47545648174E+03  0.98372526264E+03  0.12699999809E+01 0.  1.
       -4    1    3    3    0  502 -0.52883249345E+03  0.67969927711E+03 -0.20589079923E+03  0.88546459417E+03  0.12699999809E+01 0. -1.
</event>
<event>
 5   0  0.3459485E-04  0.1917216E+04  0.7818609E-02  0.8646334E-01
        2   -1    0    0  501    0  0.00000000000E+00  0.00000000000E+00  0.12319890755E+04  0.12319890755E+04  0.25500000920E-02 0. -1.
       -2   -1    0    0    0  501  0.00000000000E+00  0.00000000000E+00 -0.74589060583E+03  0.74589060584E+03  0.25500000920E-02 0.  1.
    10030    2    1    2    0    0  0.00000000000E+00  0.00000000000E+00  0.48609846970E+03  0.19778796814E+04  0.19172157708E+04 0.  0.
        3    1    3    3  502    0  0.47989995441E+03 -0.98372364991E+02  0.10931044307E+04  0.11978557488E+04  0.10100000352E+00 0. -1.
       -3    1    3    3    0  502 -0.47989995441E+03  0.98372364991E+02 -0.60700596099E+03  0.78002393253E+03  0.10100000352E+00 0.  1.
</event>
<event>
 5   0  0.1758946E-04  0.2011424E+04  0.7818609E-02  0.8601298E-01
       -1   -1    0    0    0  501  0.00000000000E+00  0.00000000000E+00  0.13678513582E+04  0.13678513583E+04  0.50400001928E-02 0.  1.
        1   -1    0    0  501    0  0.00000000000E+00  0.00000000000E+00 -0.73944956020E+03  0.73944956022E+03  0.50400001928E-02 0. -1.
    10030    2    1    2    0    0  0.00000000000E+00  0.00000000000E+00  0.62840179804E+03  0.21073009185E+04  0.20114244558E+04 0.  0.
        2    1    3    3  502    0 -0.62455503322E+03 -0.47892487306E+03  0.97015948761E+03  0.12492587622E+04  0.25500000920E-02 0.  1.
       -2    1    3    3    0  502  0.62455503322E+03  0.47892487306E+03 -0.34175768956E+03  0.85804215627E+03  0.25500000920E-02 0. -1.
</event>
<event>
 5   0  0.1694830E-04  0.1894353E+04  0.7818609E-02  0.8657672E-01
        1   -1    0    0  501    0  0.00000000000E+00  0.00000000000E+00  0.86216765860E+03  0.86216765861E+03  0.50400001928E-02 0. -1.
       -1   -1    0    0    0  501  0.00000000000E+00  0.00000000000E+00 -0.10405668922E+04  0.10405668922E+04  0.50400001928E-02 0.  1.
    10030    2    1    2    0    0  0.00000000000E+00  0.00000000000E+00 -0.17839923358E+03  0.19027345508E+04  0.18943527877E+04 0.  0.
        1    1    3    3  502    0 -0.61212188728E+02  0.21316408797E+03  0.83572071128E+03  0.86464730830E+03  0.50400001928E-02 0. -1.
       -1    1    3    3    0  502  0.61212188728E+02 -0.21316408797E+03 -0.10141199449E+04  0.10380872425E+04  0.50400001928E-02 0.  1.
</event>
<event>
 5   0  0.1813834E-04  0.1908285E+04  0.7818609E-02  0.8650744E-01
       -1   -1    0    0    0  501  0.00000000000E+00  0.00000000000E+00  0.44623296728E+03  0.44623296731E+03  0.50400001928E-02 0.  1.
        1   -1    0    0  501    0  0.00000000000E+00  0.00000000000E+00 -0.20401618420E+04  0.20401618420E+04  0.50400001928E-02 0. -1.
    10030    2    1    2    0    0  0.00000000000E+00  0.00000000000E+00 -0.15939288747E+04  0.24863948093E+04  0.19082845412E+04 0.  0.
        5    1    3    3  502    0 -0.66065978906E+03 -0.18232975184E+03  0.67951281536E+02  0.68873431884E+03  0.46999998093E+01 0.  1.
       -5    1    3    3    0  502  0.66065978906E+03  0.18232975184E+03 -0.16618801563E+04  0.17976604905E+04  0.46999998093E+01 0. -1.
</event>
<event>
 5   0  0.3720978E-04  0.1866015E+04  0.7818609E-02  0.8671960E-01
        2   -1    0    0  501    0  0.00000000000E+00  0.00000000000E+00  0.10738766574E+04  0.10738766574E+04  0.25500000920E-02 0.  1.
       -2   -1    0    0    0  501  0.00000000000E+00  0.00000000000E+00 -0.81061725161E+03  0.81061725161E+03  0.25500000920E-02 0. -1.
    10030    2    1    2    0    0  0.00000000000E+00  0.00000000000E+00  0.26325940578E+03  0.18844939090E+04  0.18660149459E+04 0.  0.
        1    1    3    3  502    0  0.50483246100E+03  0.72034904905E+03 -0.18248805542E+03  0.89836543596E+03  0.50400001928E-02 0. -1.
       -1    1    3    3    0  502 -0.50483246100E+03 -0.72034904905E+03  0.44574746119E+03  0.98612847303E+03  0.50400001928E-02 0.  1.
</event>
<event>
 5   0  0.3623359E-04  0.1929660E+04  0.7818609E-02  0.8640232E-01
       -2   -1    0    0    0  501  0.00000000000E+00  0.00000000000E+00  0.15806062690E+04  0.15806062690E+04  0.25500000920E-02 0.  1.
        2   -1    0    0  501    0  0.00000000000E+00  0.00000000000E+00 -0.58894917606E+03  0.58894917607E+03  0.25500000920E-02 0. -1.
    10030    2    1    2    0    0  0.00000000000E+00  0.00000000000E+00  0.99165709296E+03  0.21695554451E+04  0.19296598248E+04 0.  0.
        5    1    3    3  502    0 -0.54530107747E+03 -0.36485871308E+03  0.12911605207E+04  0.14483068480E+04  0.46999998093E+01 0.  1.
       -5    1    3    3    0  502  0.54530107747E+03  0.36485871308E+03 -0.29950342777E+03  0.72124859712E+03  0.46999998093E+01 0. -1.
</event>
<event>
 5   0  0.3516539E-04  0.1876589E+04  0.7818609E-02  0.8666598E-01
       -2   -1    0    0    0  501  0.00000000000E+00  0.00000000000E+00  0.46488138201E+03  0.46488138202E+03  0.25500000920E-02 0.  1.
        2   -1    0    0  501    0  0.00000000000E+00  0.00000000000E+00 -0.18938086531E+04  0.18938086531E+04  0.25500000920E-02 0. -1.
    10030    2    1    2    0    0  0.00000000000E+00  0.00000000000E+00 -0.14289272711E+04  0.23586900351E+04  0.18765888030E+04 0.  0.
        4    1    3    3  502    0 -0.13007041729E+03  0.61903936349E+03  0.15658619385E+03  0.65165090041E+03  0.12699999809E+01 0.  1.
       -4    1    3    3    0  502  0.13007041729E+03 -0.61903936349E+03 -0.15855134650E+04  0.17070391347E+04  0.12699999809E+01 0. -1.
</event>
<event>
 5   0  0.1813834E-04  0.1894289E+04  0.7818609E-02  0.8657704E-01
       -1   -1    0    0    0  501  0.00000000000E+00  0.00000000000E+00  0.80452185742E+03  0.80452185744E+03  0.50400001928E-02 0. -1.
        1   -1    0    0  501    0  0.00000000000E+00  0.00000000000E+00 -0.11150512850E+04  0.11150512850E+04  0.50400001928E-02 0.  1.
    10030    2    1    2    0    0  0.00000000000E+00  0.00000000000E+00 -0.31052942753E+03  0.19195731424E+04  0.18942894509E+04 0.  0.
        5    1    3    3  502    0 -0.35223641980E+03  0.83700011894E+03  0.11743935735E+03  0.91567122221E+03  0.46999998093E+01 0. -1.
       -5    1    3    3    0  502  0.35223641980E+03 -0.83700011894E+03 -0.42796878488E+03  0.10039019202E+04  0.46999998093E+01 0.  1.
</event>
<event>
 5   0  0.1694830E-04  0.1813003E+04  0.7818609E-02  0.8699415E-01
       -1   -1    0    0    0  501  0.00000000000E+00  0.00000000000E+00  0.75802879362E+03  0.75802879364E+03  0.50400001928E-02 0. -1.
        1   -1    0    0  501    0  0.00000000000E+00  0.00000000000E+00 -0.10840551003E+04  0.10840551003E+04  0.50400001928E-02 0.  1.
    10030    2    1    2    0    0  0.00000000000E+00  0.00000000000E+00 -0.32602630671E+03  0.18420838940E+04  0.18130030115E+04 0.  0.
        1    1    3    3  502    0 -0.13988689771E+02  0.79758190757E+02 -0.10803730479E+04  0.10834034221E+04  0.50400001928E-02 0.  1.
       -1    1    3    3    0  502  0.13988689771E+02 -0.79758190757E+02  0.75434674117E+03  0.75868047186E+03  0.50400001928E-02 0. -1.
</event>
<event>
 5   0  0.1758946E-04  0.1911416E+04  0.7818609E-02  0.8649195E-01
       -1   -1    0    0    0  501  0.00000000000E+00  0.00000000000E+00  0.37578363201E+03  0.37578363205E+03  0.50400001928E-02 0.  1.
        1   -1    0    0  501    0  0.00000000000E+00  0.00000000000E+00 -0.24305947341E+04  0.24305947341E+04  0.50400001928E-02 0. -1.
    10030    2    1    2    0    0  0.00000000000E+00  0.00000000000E+00 -0.20548111021E+04  0.28063783662E+04  0.19114159330E+04 0.  0.
        2    1    3    3  502    0  0.10388016265E+02 -0.89293508189E+03 -0.15273267752E+04  0.17692280943E+04  0.25500000920E-02 0. -1.
       -2    1    3    3    0  502 -0.10388016265E+02  0.89293508189E+03 -0.52748432692E+03  0.10371502719E+04  0.25500000920E-02 0.  1.
</event>
<event>
 5   0  0.1758946E-04  0.1898273E+04  0.7818609E-02  0.8655716E-01
       -1   -1    0    0    0  501  0.00000000000E+00  0.00000000000E+00  0.66344953341E+03  0.66344953343E+03  0.50400001928E-02 0.  1.
        1   -1    0    0  501    0  0.00000000000E+00  0.00000000000E+00 -0.13578432790E+04  0.13578432790E+04  0.50400001928E-02 0. -1.
    10030    2    1    2    0    0  0.00000000000E+00  0.00000000000E+00 -0.69439374554E+03  0.20212928124E+04  0.18982734154E+04 0.  0.
        2    1    3    3  502    0  0.41207393937E+03 -0.85495976688E+03 -0.35781055796E+03  0.10142926254E+04  0.25500000920E-02 0.  1.
       -2    1    3    3    0  502 -0.41207393937E+03  0.85495976688E+03 -0.33658318759E+03  0.10070001870E+04  0.25500000920E-02 0. -1.
</event>
<event>
 5   0  0.1813834E-04  0.1908902E+04  0.7818609E-02  0.8650438E-01
       -1   -1    0    0    0  501  0.00000000000E+00  0.00000000000E+00  0.73337445407E+03  0.73337445409E+03  0.50400001928E-02 0.  1.
        1   -1    0    0  501    0  0.00000000000E+00  0.00000000000E+00 -0.12421713676E+04  0.12421713676E+04  0.50400001928E-02 0. -1.
    10030    2    1    2    0    0  0.00000000000E+00  0.00000000000E+00 -0.50879691353E+03  0.19755458217E+04  0.19089020390E+04 0.  0.
        5    1    3    3  502    0  0.83029957433E+03  0.41198567152E+03 -0.18799445154E+02  0.92709497130E+03  0.46999998093E+01 0.  1.
       -5    1    3    3    0  502 -0.83029957433E+03 -0.41198567152E+03 -0.48999746837E+03  0.10484508504E+04  0.46999998093E+01 0. -1.
</event>
<event>
 5   0  0.3720978E-04  0.1902632E+04  0.7818609E-02  0.8653547E-01
        2   -1    0    0  501    0  0.00000000000E+00  0.00000000000E+00  0.67482663005E+03  0.67482663005E+03  0.25500000920E-02 0. -1.
       -2   -1    0    0    0  501  0.00000000000E+00  0.00000000000E+00 -0.13410887913E+04  0.13410887913E+04  0.25500000920E-02 0.  1.
    10030    2    1    2    0    0  0.00000000000E+00  0.00000000000E+00 -0.66626216122E+03  0.20159154213E+04  0.19026323130E+04 0.  0.
        1    1    3    3  502    0  0.13374563433E+03  0.25960981496E+02  0.66443632169E+03  0.67826063786E+03  0.50400001928E-02 0. -1.
       -1    1    3    3    0  502 -0.13374563433E+03 -0.25960981496E+02 -0.13306984829E+04  0.13376547835E+04  0.50400001928E-02 0.  1.
</event>
<event>
 5   0  0.1758946E-04  0.1915254E+04  0.7818609E-02  0.8647300E-01
       -1   -1    0    0    0  501  0.00000000000E+00  0.00000000000E+00  0.87576344973E+03  0.87576344974E+03  0.50400001928E-02 0.  1.
        1   -1    0    0  501    0  0.00000000000E+00  0.00000000000E+00 -0.10471432075E+04  0.10471432075E+04  0.50400001928E-02 0. -1.
    10030    2    1    2    0    0  0.00000000000E+00  0.00000000000E+00 -0.17137975777E+03  0.19229066572E+04  0.19152542889E+04 0.  0.
        2    1    3    3  502    0 -0.19886236712E+03  0.65827948245E+03  0.58343498384E+03  0.90181733097E+03  0.25500000920E-02 0.  1.
       -2    1    3    3    0  502  0.19886236712E+03 -0.65827948245E+03 -0.75481474161E+03  0.10210893263E+04  0.25500000920E-02 0. -1.
</event>
<event>
 5   0  0.1694830E-04  0.1832013E+04  0.7818609E-02  0.8689458E-01
        1   -1    0    0  501    0  0.00000000000E+00  0.00000000000E+00  0.96502328026E+03  0.96502328027E+03  0.50400001928E-02 0.  1.
       -1   -1    0    0    0  501  0.00000000000E+00  0.00000000000E+00 -0.86947908171E+03  0.86947908173E+03  0.50400001928E-02 0. -1.
    10030    2    1    2    0    0  0.00000000000E+00  0.00000000000E+00  0.95544198542E+02  0.18345023620E+04  0.18320126152E+04 0.  0.
        1    1    3    3  502    0  0.28765530650E+02  0.83004317095E+02  0.96079541044E+03  0.96480308517E+03  0.50400001928E-02 0.  1.
       -1    1    3    3    0  502 -0.28765530650E+02 -0.83004317095E+02 -0.86525121189E+03  0.86969927683E+03  0.50400001928E-02 0. -1.
</event>
<event>
 5   0  0.3516539E-04  0.1556003E+04  0.7818609E-02  0.8848043E-01
        2   -1    0    0  501    0  0.00000000000E+00  0.00000000000E+00  0.18902885833E+04  0.18902885833E+04  0.25500000920E-02 0. -1.
       -2   -1    0    0    0  501  0.00000000000E+00  0.00000000000E+00 -0.32020826046E+03  0.32020826047E+03  0.25500000920E-02 0.  1.
    10030    2    1    2    0    0  0.00000000000E+00  0.00000000000E+00  0.15700803228E+04  0.22104968437E+04  0.15560025952E+04 0.  0.
        4    1    3    3  502    0 -0.77364870521E+03  0.44545809302E+02  0.68694746310E+03  0.10355747574E+04  0.12699999809E+01 0.  1.
       -4    1    3    3    0  502  0.77364870521E+03 -0.44545809302E+02  0.88313285971E+03  0.11749220863E+04  0.12699999809E+01 0. -1.
</event>
<event>
 5   0  0.1813834E-04  0.2261418E+04  0.7818609E-02  0.8493291E-01
       -1   -1    0    0    0  501  0.00000000000E+00  0.00000000000E+00  0.19800777139E+04  0.19800777139E+04  0.50400001928E-02 0.  1.
        1   -1    0    0  501    0  0.00000000000E+00  0.00000000000E+00 -0.64568292012E+03  0.64568292014E+03  0.50400001928E-02 0. -1.
    10030    2    1    2    0    0  0.00000000000E+00  0.00000000000E+00  0.13343947937E+04  0.26257606340E+04  0.22614175735E+04 0.  0.
        5    1    3    3  502    0 -0.15338451748E+03  0.10718141532E+04  0.10455275407E+04  0.15051452812E+04  0.46999998093E+01 0.  1.
       -5    1    3    3    0  502  0.15338451748E+03 -0.10718141532E+04  0.28886725308E+03  0.11206153528E+04  0.46999998093E+01 0. -1.
</event>
<event>
 5   0  0.1813834E-04  0.1964121E+04  0.7818609E-02  0.8623582E-01
       -1   -1    0    0    0  501  0.00000000000E+00  0.00000000000E+00  0.70223695678E+03  0.70223695680E+03  0.50400001928E-02 0. -1.
        1   -1    0    0  501    0  0.00000000000E+00  0.00000000000E+00 -0.13733860049E+04  0.13733860049E+04  0.50400001928E-02 0.  1.
    10030    2    1    2    0    0  0.00000000000E+00  0.00000000000E+00 -0.67114904813E+03  0.20756229617E+04  0.19641205753E+04 0.  0.
        5    1    3    3  502    0 -0.58822022318E+03  0.71482939913E+03 -0.68195681220E+03  0.11498135869E+04  0.46999998093E+01 0.  1.
       -5    1    3    3    0  502  0.58822022318E+03 -0.71482939913E+03  0.10807764074E+02  0.92580937486E+03  0.46999998093E+01 0. -1.
</event>
<event>
 5   0  0.1758946E-04  0.1839707E+04  0.7818609E-02  0.8685464E-01
       -1   -1    0    0    0  501  0.00000000000E+00  0.00000000000E+00  0.80585912257E+03  0.80585912259E+03  0.50400001928E-02 0.  1.
        1   -1    0    0  501    0  0.00000000000E+00  0.00000000000E+00 -0.10499727740E+04  0.10499727740E+04  0.50400001928E-02 0. -1.
    10030    2    1    2    0    0  0.00000000000E+00  0.00000000000E+00 -0.24411365138E+03  0.18558318965E+04  0.18397066488E+04 0.  0.
        2    1    3    3  502    0  0.81665813382E+03 -0.57492255406E+02  0.30101675342E+03  0.87226541420E+03  0.25500000920E-02 0.  1.
       -2    1    3    3    0  502 -0.81665813382E+03  0.57492255406E+02 -0.54513040480E+03  0.98356648235E+03  0.25500000920E-02 0. -1.
</event>
<event>
 5   0  0.3720978E-04  0.1891869E+04  0.7818609E-02  0.8658914E-01
        2   -1    0    0  501    0  0.00000000000E+00  0.00000000000E+00  0.58588879190E+03  0.58588879191E+03  0.25500000920E-02 0. -1.
       -2   -1    0    0    0  501  0.00000000000E+00  0.00000000000E+00 -0.15272388761E+04  0.15272388761E+04  0.25500000920E-02 0.  1.
    10030    2    1    2    0    0  0.00000000000E+00  0.00000000000E+00 -0.94135008418E+03  0.21131276680E+04  0.18918690653E+04 0.  0.
        1    1    3    3  502    0 -0.18743624456E+03  0.30340406518E+03 -0.14492718056E+04  0.14925063280E+04  0.50400001928E-02 0.  1.
       -1    1    3    3    0  502  0.18743624456E+03 -0.30340406518E+03  0.50792172142E+03  0.62062134000E+03  0.50400001928E-02 0. -1.
</event>
<event>
 5   0  0.1711979E-04  0.1920154E+04  0.7818609E-02  0.8644889E-01
        1   -1    0    0  501    0  0.00000000000E+00  0.00000000000E+00  0.23866315680E+04  0.23866315680E+04  0.50400001928E-02 0. -1.
       -1   -1    0    0    0  501  0.00000000000E+00  0.00000000000E+00 -0.38621271983E+03  0.38621271987E+03  0.50400001928E-02 0.  1.
    10030    2    1    2    0    0  0.00000000000E+00  0.00000000000E+00  0.20004188482E+04  0.27728442879E+04  0.19201536076E+04 0.  0.
        4    1    3    3  502    0  0.72628806715E+03  0.57059967604E+03  0.62179719981E+03  0.11134234223E+04  0.12699999809E+01 0. -1.
       -4    1    3    3    0  502 -0.72628806715E+03 -0.57059967604E+03  0.13786216483E+04  0.16594208655E+04  0.12699999809E+01 0.  1.
</event>
<event>
 5   0  0.3720978E-04  0.1933473E+04  0.7818609E-02  0.8638372E-01
       -2   -1    0    0    0  501  0.00000000000E+00  0.00000000000E+00  0.49403839576E+03  0.49403839577E+03  0.25500000920E-02 0. -1.
        2   -1    0    0  501    0  0.00000000000E+00  0.00000000000E+00 -0.18917147727E+04  0.18917147727E+04  0.25500000920E-02 0.  1.
    10030    2    1    2    0    0  0.00000000000E+00  0.00000000000E+00 -0.13976763770E+04  0.23857531685E+04  0.19334732805E+04 0.  0.
        1    1    3    3  502    0 -0.48807279559E+02  0.28068909475E+03  0.44106116398E+03  0.52507472692E+03  0.50400001928E-02 0. -1.
       -1    1    3    3    0  502  0.48807279559E+02 -0.28068909475E+03 -0.18387375409E+04  0.18606784416E+04  0.50400001928E-02 0.  1.
</event>
<event>
 5   0  0.3459485E-04  0.1771211E+04  0.7818609E-02  0.8721761E-01
        2   -1    0    0  501    0  0.00000000000E+00  0.00000000000E+00  0.11128274903E+04  0.11128274903E+04  0.25500000920E-02 0. -1.
       -2   -1    0    0    0  501  0.00000000000E+00  0.00000000000E+00 -0.70477848020E+03  0.70477848021E+03  0.25500000920E-02 0.  1.
    10030    2    1    2    0    0  0.00000000000E+00  0.00000000000E+00  0.40804901014E+03  0.18176059706E+04  0.17712107355E+04 0.  0.
        3    1    3    3  502    0 -0.21456124662E+03 -0.64673747507E+03  0.78451934574E+03  0.10391229495E+04  0.10100000352E+00 0. -1.
       -3    1    3    3    0  502  0.21456124662E+03  0.64673747507E+03 -0.37647033560E+03  0.77848302101E+03  0.10100000352E+00 0.  1.
</event>
<event>
 5   0  0.3459485E-04  0.1902021E+04  0.7818609E-02  0.8653851E-01
       -2   -1    0    0    0  501  0.00000000000E+00  0.00000000000E+00  0.73975025244E+03  0.73975025244E+03  0.25500000920E-02 0.  1.
        2   -1    0    0  501    0  0.00000000000E+00  0.00000000000E+00 -0.12226037185E+04  0.12226037185E+04  0.25500000920E-02 0. -1.
    10030    2    1    2    0    0  0.00000000000E+00  0.00000000000E+00 -0.48285346608E+03  0.19623539710E+04  0.19020214609E+04 0.  0.
        3    1    3    3  502    0  0.54365846863E+03 -0.97201205213E+02  0.55734647739E+03  0.78463221376E+03  0.10100000352E+00 0.  1.
       -3    1    3    3    0  502 -0.54365846863E+03  0.97201205213E+02 -0.10401999435E+04  0.11777217572E+04  0.10100000352E+00 0. -1.
</event>
<event>
 5   0  0.1694830E-04  0.1876950E+04  0.7818609E-02  0.8666415E-01
        1   -1    0    0  501    0  0.00000000000E+00  0.00000000000E+00  0.21080100064E+04  0.21080100064E+04  0.50400001928E-02 0.  1.
       -1   -1    0    0    0  501  0.00000000000E+00  0.00000000000E+00 -0.41780431410E+03  0.41780431413E+03  0.50400001928E-02 0. -1.
    10030    2    1    2    0    0  0.00000000000E+00  0.00000000000E+00  0.16902056923E+04  0.25258143205E+04  0.18769503722E+04 0.  0.
        1    1    3    3  502    0 -0.67103812062E+03  0.62233656568E+03  0.11246095950E+04  0.14499454133E+04  0.50400001928E-02 0.  1.
       -1    1    3    3    0  502  0.67103812062E+03 -0.62233656568E+03  0.56559609733E+03  0.10758689073E+04  0.50400001928E-02 0. -1.
</event>
<event>
 5   0  0.1813834E-04  0.1871141E+04  0.7818609E-02  0.8669356E-01
       -1   -1    0    0    0  501  0.00000000000E+00  0.00000000000E+00  0.66456760136E+03  0.66456760137E+03  0.50400001928E-02 0. -1.
        1   -1    0    0  501    0  0.00000000000E+00  0.00000000000E+00 -0.13170851022E+04  0.13170851022E+04  0.50400001928E-02 0.  1.
    10030    2    1    2    0    0  0.00000000000E+00  0.00000000000E+00 -0.65251750080E+03  0.19816527035E+04  0.18711409216E+04 0.  0.
        5    1    3    3  502    0  0.21522056431E+03 -0.50300300582E+03  0.47746896600E+03  0.72617533603E+03  0.46999998093E+01 0. -1.
       -5    1    3    3    0  502 -0.21522056431E+03  0.50300300582E+03 -0.11299864668E+04  0.12554773675E+04  0.46999998093E+01 0.  1.
</event>
<event>
 5   0  0.3459485E-04  0.1906998E+04  0.7818609E-02  0.8651381E-01
       -2   -1    0    0    0  501  0.00000000000E+00  0.00000000000E+00  0.87462325565E+03  0.87462325565E+03  0.25500000920E-02 0.  1.
        2   -1    0    0  501    0  0.00000000000E+00  0.00000000000E+00 -0.10394877168E+04  0.10394877168E+04  0.25500000920E-02 0. -1.
    10030    2    1    2    0    0  0.00000000000E+00  0.00000000000E+00 -0.16486446118E+03  0.19141109725E+04  0.19069977778E+04 0.  0.
        3    1    3    3  502    0  0.81531644269E+03  0.40503277963E+03  0.20211712440E+03  0.93254694062E+03  0.10100000352E+00 0. -1.
       -3    1    3    3    0  502 -0.81531644269E+03 -0.40503277963E+03 -0.36698158557E+03  0.98156403186E+03  0.10100000352E+00 0.  1.
</event>
<event>
 5   0  0.1813834E-04  0.1876994E+04  0.7818609E-02  0.8666393E-01
        1   -1    0    0  501    0  0.00000000000E+00  0.00000000000E+00  0.10586000091E+04  0.10586000091E+04  0.50400001928E-02 0. -1.
       -1   -1    0    0    0  501  0.00000000000E+00  0.00000000000E+00 -0.83202047578E+03  0.83202047580E+03  0.50400001928E-02 0.  1.
    10030    2    1    2    0    0  0.00000000000E+00  0.00000000000E+00  0.22657953330E+03  0.18906204849E+04  0.18769942815E+04 0.  0.
        5    1    3    3  502    0  0.33706330759E+03  0.29601228274E+03 -0.71702446732E+03  0.84580205816E+03  0.46999998093E+01 0.  1.
       -5    1    3    3    0  502 -0.33706330759E+03 -0.29601228274E+03  0.94360400061E+03  0.10448184267E+04  0.46999998093E+01 0. -1.
</event>
<event>
 5   0  0.3535876E-04  0.1924667E+04  0.7818609E-02  0.8642674E-01
       -2   -1    0    0    0  501  0.00000000000E+00  0.00000000000E+00  0.50977456192E+03  0.50977456192E+03  0.25500000920E-02 0.  1.
        2   -1    0    0  501    0  0.00000000000E+00  0.00000000000E+00 -0.18166578475E+04  0.18166578475E+04  0.25500000920E-02 0. -1.
    10030    2    1    2    0    0  0.00000000000E+00  0.00000000000E+00 -0.13068832856E+04  0.23264324094E+04  0.19246672007E+04 0.  0.
        2    1    3    3  502    0  0.21619222617E+01  0.34369836764E+03 -0.17399367297E+04  0.17735594338E+04  0.25500000920E-02 0. -1.
       -2    1    3    3    0  502 -0.21619222617E+01 -0.34369836764E+03  0.43305344406E+03  0.55287297569E+03  0.25500000920E-02 0.  1.
</event>
<event>
 5   0  0.1694830E-04  0.1858386E+04  0.7818609E-02  0.8675852E-01
        1   -1    0    0  501    0  0.00000000000E+00  0.00000000000E+00  0.10148286345E+04  0.10148286345E+04  0.50400001928E-02 0.  1.
       -1   -1    0    0    0  501  0.00000000000E+00  0.00000000000E+00 -0.85078360072E+03  0.85078360074E+03  0.50400001928E-02 0. -1.
    10030    2    1    2    0    0  0.00000000000E+00  0.00000000000E+00  0.16404503377E+03  0.18656122352E+04  0.18583859231E+04 0.  0.
        1    1    3    3  502    0  0.79187034623E+03  0.72665268301E+02  0.56457937420E+03  0.97523779472E+03  0.50400001928E-02 0.  1.
       -1    1    3    3    0  502 -0.79187034623E+03 -0.72665268301E+02 -0.40053434043E+03  0.89037444053E+03  0.50400001928E-02 0. -1.
</event>
<event>
 5   0  0.1694830E-04  0.1934366E+04  0.7818609E-02  0.8637937E-01
        1   -1    0    0  501    0  0.00000000000E+00  0.00000000000E+00  0.79900844328E+03  0.79900844330E+03  0.50400001928E-02 0. -1.
       -1   -1    0    0    0  501  0.00000000000E+00  0.00000000000E+00 -0.11707546818E+04  0.11707546818E+04  0.50400001928E-02 0.  1.
    10030    2    1    2    0    0  0.00000000000E+00  0.00000000000E+00 -0.37174623849E+03  0.19697631251E+04  0.19343659176E+04 0.  0.
        1    1    3    3  502    0  0.80727219211E+03 -0.22676323951E+03  0.30495647891E+03  0.89224907565E+03  0.50400001928E-02 0. -1.
       -1    1    3    3    0  502 -0.80727219211E+03  0.22676323951E+03 -0.67670271740E+03  0.10775140494E+04  0.50400001928E-02 0.  1.
</event>
<event>
 5   0  0.1711979E-04  0.1894377E+04  0.7818609E-02  0.8657660E-01
       -1   -1    0    0    0  501  0.00000000000E+00  0.00000000000E+00  0.40948334793E+03  0.40948334796E+03  0.50400001928E-02 0.  1.
        1   -1    0    0  501    0  0.00000000000E+00  0.00000000000E+00 -0.21909710115E+04  0.21909710115E+04  0.50400001928E-02 0. -1.
    10030    2    1    2    0    0  0.00000000000E+00  0.00000000000E+00 -0.17814876636E+04  0.26004543595E+04  0.18943770956E+04 0.  0.
        4    1    3    3  502    0  0.69456850971E+03 -0.15471960369E+03 -0.32598955798E+02  0.71233971901E+03  0.12699999809E+01 0.  1.
       -4    1    3    3    0  502 -0.69456850971E+03  0.15471960369E+03 -0.17488887078E+04  0.18881146405E+04  0.12699999809E+01 0. -1.
</event>
<event>
 5   0  0.3516539E-04  0.1701196E+04  0.7818609E-02  0.8760682E-01
        2   -1    0    0  501    0  0.00000000000E+00  0.00000000000E+00  0.18213592153E+04  0.18213592153E+04  0.25500000920E-02 0. -1.
       -2   -1    0    0    0  501  0.00000000000E+00  0.00000000000E+00 -0.39724031166E+03  0.39724031167E+03  0.25500000920E-02 0.  1.
    10030    2    1    2    0    0  0.00000000000E+00  0.00000000000E+00  0.14241189037E+04  0.22185995270E+04  0.17011964053E+04 0.  0.
        4    1    3    3  502    0  0.25064707478E+03  0.48764817836E+02  0.17701940499E+04  0.17885162987E+04  0.12699999809E+01 0. -1.
       -4    1    3    3    0  502 -0.25064707478E+03 -0.48764817836E+02 -0.34607514621E+03  0.43008322831E+03  0.12699999809E+01 0.  1.
</event>
<event>
 5   0  0.1782613E-04  0.1896475E+04  0.7818609E-02  0.8656613E-01
       -1   -1    0    0    0  501  0.00000000000E+00  0.00000000000E+00  0.52672184692E+03  0.52672184694E+03  0.50400001928E-02 0. -1.
        1   -1    0    0  501    0  0.00000000000E+00  0.00000000000E+00 -0.17070766625E+04  0.17070766625E+04  0.50400001928E-02 0.  1.
    10030    2    1    2    0    0  0.00000000000E+00  0.00000000000E+00 -0.11803548155E+04  0.22337985094E+04  0.18964752279E+04 0.  0.
        3    1    3    3  502    0 -0.32206811044E+02 -0.92746492295E+03 -0.81956288442E+03  0.12381081511E+04  0.10100000352E+00 0.  1.
       -3    1    3    3    0  502  0.32206811044E+02  0.92746492295E+03 -0.36079193112E+03  0.99569035836E+03  0.10100000352E+00 0. -1.
</event>
<event>
 5   0  0.1813834E-04  0.1901838E+04  0.7818609E-02  0.8653942E-01
       -1   -1    0    0    0  501  0.00000000000E+00  0.00000000000E+00  0.66019542399E+03  0.66019542401E+03  0.50400001928E-02 0.  1.
        1   -1    0    0  501    0  0.00000000000E+00  0.00000000000E+00 -0.13696657198E+04  0.13696657198E+04  0.50400001928E-02 0. -1.
    10030    2    1    2    0    0  0.00000000000E+00  0.00000000000E+00 -0.70947029580E+03  0.20298611438E+04  0.19018381010E+04 0.  0.
        5    1    3    3  502    0 -0.41844346780E+03 -0.69355524672E+03 -0.88637302355E+03  0.12007468688E+04  0.46999998093E+01 0. -1.
       -5    1    3    3    0  502  0.41844346780E+03  0.69355524672E+03  0.17690272774E+03  0.82911427505E+03  0.46999998093E+01 0.  1.
</event>
<event>
 5   0  0.1711979E-04  0.2010923E+04  0.7818609E-02  0.8601531E-01
        1   -1    0    0  501    0  0.00000000000E+00  0.00000000000E+00  0.12290838630E+04  0.12290838630E+04  0.50400001928E-02 0. -1.
       -1   -1    0    0    0  501  0.00000000000E+00  0.00000000000E+00 -0.82252590037E+03  0.82252590038E+03  0.50400001928E-02 0.  1.
    10030    2    1    2    0    0  0.00000000000E+00  0.00000000000E+00  0.40655796264E+03  0.20516097634E+04  0.20109234805E+04 0.  0.
        4    1    3    3  502    0  0.92279291451E+02  0.96597512647E+03  0.47190893819E+03  0.10790380306E+04  0.12699999809E+01 0. -1.
       -4    1    3    3    0  502 -0.92279291451E+02 -0.96597512647E+03 -0.65350975555E+02  0.97257173282E+03  0.12699999809E+01 0.  1.
</event>
<event>
 5   0  0.3535876E-04  0.1927231E+04  0.7818609E-02  0.8641419E-01
        2   -1    0    0  501    0  0.00000000000E+00  0.00000000000E+00  0.13658847792E+04  0.13658847792E+04  0.25500000920E-02 0. -1.
       -2   -1    0    0    0  501  0.00000000000E+00  0.00000000000E+00 -0.67981938458E+03  0.67981938459E+03  0.25500000920E-02 0.  1.
    10030    2    1    2    0    0  0.00000000000E+00  0.00000000000E+00  0.68606539463E+03  0.20457041638E+04  0.19272311226E+04 0.  0.
        2    1    3    3  502    0 -0.94305596708E+03 -0.16468435287E+02  0.55246645107E+03  0.10930896331E+04  0.25500000920E-02 0.  1.
       -2    1    3    3    0  502  0.94305596708E+03  0.16468435287E+02  0.13359894356E+03  0.95261453072E+03  0.25500000920E-02 0. -1.
</event>
<event>
 5   0  0.3516539E-04  0.1887523E+04  0.7818609E-02  0.8661092E-01
        2   -1    0    0  501    0  0.00000000000E+00  0.00000000000E+00  0.11800288462E+04  0.11800288462E+04  0.25500000920E-02 0. -1.
       -2   -1    0    0    0  501  0.00000000000E+00  0.00000000000E+00 -0.75479985639E+03  0.75479985640E+03  0.25500000920E-02 0.  1.
    10030    2    1    2    0    0  0.00000000000E+00  0.00000000000E+00  0.42522898976E+03  0.19348287026E+04  0.18875228249E+04 0.  0.
        4    1    3    3  502    0  0.44405604610E+03 -0.25839705890E+03 -0.59888876102E+03  0.78906537949E+03  0.12699999809E+01 0.  1.
       -4    1    3    3    0  502 -0.44405604610E+03  0.25839705890E+03  0.10241177508E+04  0.11457633231E+04  0.12699999809E+01 0. -1.
</event>
<event>
 5   0  0.3516539E-04  0.1904046E+04  0.7818609E-02  0.8652845E-01
        2   -1    0    0  501    0  0.00000000000E+00  0.00000000000E+00  0.13471369552E+04  0.13471369552E+04  0.25500000920E-02 0. -1.
       -2   -1    0    0    0  501  0.00000000000E+00  0.00000000000E+00 -0.67279585927E+03  0.67279585927E+03  0.25500000920E-02 0.  1.
    10030    2    1    2    0    0  0.00000000000E+00  0.00000000000E+00  0.67434109590E+03  0.20199328144E+04  0.19040463916E+04 0.  0.
        4    1    3    3  502    0 -0.85255474463E+03  0.29535155649E+03  0.65940837618E+03  0.11175433567E+04  0.12699999809E+01 0.  1.
       -4    1    3    3    0  502  0.85255474463E+03 -0.29535155649E+03  0.14932719716E+02  0.90238945779E+03  0.12699999809E+01 0. -1.
</event>
<event>
 5   0  0.1711979E-04  0.1736339E+04  0.7818609E-02  0.8740906E-01
        1   -1    0    0  501    0  0.00000000000E+00  0.00000000000E+00  0.14144190644E+04  0.14144190645E+04  0.50400001928E-02 0.  1.
       -1   -1    0    0    0  501  0.00000000000E+00  0.00000000000E+00 -0.53288182021E+03  0.53288182024E+03  0.50400001928E-02 0. -1.
    10030    2    1    2    0    0  0.00000000000E+00  0.00000000000E+00  0.88153724423E+03  0.19473008847E+04  0.17363389135E+04 0.  0.
        4    1    3    3  502    0  0.46872302718E+03 -0.39104847363E+03 -0.25156590443E+03  0.66023268785E+03  0.12699999809E+01 0. -1.
       -4    1    3    3    0  502 -0.46872302718E+03  0.39104847363E+03  0.11331031487E+04  0.12870681968E+04  0.12699999809E+01 0.  1.
</event>
<event>
 5   0  0.3535876E-04  0.1890252E+04  0.7818609E-02  0.8659724E-01
       -2   -1    0    0    0  501  0.00000000000E+00  0.00000000000E+00  0.58958449736E+03  0.58958449737E+03  0.25500000920E-02 0.  1.
        2   -1    0    0  501    0  0.00000000000E+00  0.00000000000E+00 -0.15150722828E+04  0.15150722828E+04  0.25500000920E-02 0. -1.
    10030    2    1    2    0    0  0.00000000000E+00  0.00000000000E+00 -0.92548778546E+03  0.21046567802E+04  0.18902519730E+04 0.  0.
        2    1    3    3  502    0 -0.78085001011E+03 -0.40683796713E+03 -0.84524969497E+03  0.12205289495E+04  0.25500000920E-02 0. -1.
       -2    1    3    3    0  502  0.78085001011E+03  0.40683796713E+03 -0.80238090490E+02  0.88412783066E+03  0.25500000920E-02 0.  1.
</event>
<event>
 5   0  0.3516539E-04  0.1845150E+04  0.7818609E-02  0.8682651E-01
        2   -1    0    0  501    0  0.00000000000E+00  0.00000000000E+00  0.10456065240E+04  0.10456065240E+04  0.25500000920E-02 0.  1.
       -2   -1    0    0    0  501  0.00000000000E+00  0.00000000000E+00 -0.81401990888E+03  0.81401990888E+03  0.25500000920E-02 0. -1.
    10030    2    1    2    0    0  0.00000000000E+00  0.00000000000E+00  0.23158661516E+03  0.18596264329E+04  0.18451498881E+04 0.  0.
        4    1    3    3  502    0 -0.39646395425E+03 -0.58499477399E+03  0.71352345749E+03  0.10042509098E+04  0.12699999809E+01 0.  1.
       -4    1    3    3    0  502  0.39646395425E+03  0.58499477399E+03 -0.48193684233E+03  0.85537552309E+03  0.12699999809E+01 0. -1.
</event>
<event>
 5   0  0.3623359E-04  0.1848584E+04  0.7818609E-02  0.8680881E-01
       -2   -1    0    0    0  501  0.00000000000E+00  0.00000000000E+00  0.63286313196E+03  0.63286313196E+03  0.25500000920E-02 0. -1.
        2   -1    0    0  501    0  0.00000000000E+00  0.00000000000E+00 -0.13499217302E+04  0.13499217302E+04  0.25500000920E-02 0.  1.
    10030    2    1    2    0    0  0.00000000000E+00  0.00000000000E+00 -0.71705859820E+03  0.19827848621E+04  0.18485839922E+04 0.  0.
        5    1    3    3  502    0  0.48918277337E+03 -0.66599784653E+03  0.85583567413E+02  0.83078249521E+03  0.46999998093E+01 0.  1.
       -5    1    3    3    0  502 -0.48918277337E+03  0.66599784653E+03 -0.80264216561E+03  0.11520023669E+04  0.46999998093E+01 0. -1.
</event>
<event>
 5   0  0.1287000E-04  0.1850161E+04  0.7818609E-02  0.8680070E-01
       -4   -1    0    0    0  501  0.00000000000E+00  0.00000000000E+00  0.10430206365E+04  0.10430214097E+04  0.12699999809E+01 0.  1.
        4   -1    0    0  501    0  0.00000000000E+00  0.00000000000E+00 -0.82047455780E+03  0.82047554071E+03  0.12699999809E+01 0. -1.
    10030    2    1    2    0    0  0.00000000000E+00  0.00000000000E+00  0.22254607870E+03  0.18634969504E+04  0.18501605679E+04 0.  0.
        5    1    3    3  502    0  0.19721771241E+03  0.78865478856E+03  0.55590755100E+03  0.98484846391E+03  0.46999998093E+01 0.  1.
       -5    1    3    3    0  502 -0.19721771241E+03 -0.78865478856E+03 -0.33336147230E+03  0.87864848649E+03  0.46999998093E+01 0. -1.
</event>
<event>
 5   0  0.3623359E-04  0.1877069E+04  0.7818609E-02  0.8666355E-01
       -2   -1    0    0    0  501  0.00000000000E+00  0.00000000000E+00  0.65497921333E+03  0.65497921333E+03  0.25500000920E-02 0. -1.
        2   -1    0    0  501    0  0.00000000000E+00  0.00000000000E+00 -0.13448477348E+04  0.13448477348E+04  0.25500000920E-02 0.  1.
    10030    2    1    2    0    0  0.00000000000E+00  0.00000000000E+00 -0.68986852149E+03  0.19998269482E+04  0.18770693236E+04 0.  0.
        5    1    3    3  502    0  0.84943438510E+02 -0.29036323489E+03  0.60159247887E+03  0.67339572062E+03  0.46999998093E+01 0. -1.
       -5    1    3    3    0  502 -0.84943438510E+02  0.29036323489E+03 -0.12914610004E+04  0.13264312275E+04  0.46999998093E+01 0.  1.
</event>
<event>
 5   0  0.1813834E-04  0.1977551E+04  0.7818609E-02  0.8617189E-01
        1   -1    0    0  501    0  0.00000000000E+00  0.00000000000E+00  0.72568556644E+03  0.72568556646E+03  0.50400001928E-02 0.  1.
       -1   -1    0    0    0  501  0.00000000000E+00  0.00000000000E+00 -0.13472454345E+04  0.13472454345E+04  0.50400001928E-02 0. -1.
    10030    2    1    2    0    0  0.00000000000E+00  0.00000000000E+00 -0.62155986803E+03  0.20729310009E+04  0.19775505721E+04 0.  0.
        5    1    3    3  502    0  0.31770375337E+03 -0.60472739118E+03 -0.10601178697E+04  0.12611514105E+04  0.46999998093E+01 0. -1.
       -5    1    3    3    0  502 -0.31770375337E+03  0.60472739118E+03  0.43855800171E+03  0.81177959041E+03  0.46999998093E+01 0.  1.
</event>
<event>
 5   0  0.1758946E-04  0.1894440E+04  0.7818609E-02  0.8657629E-01
       -1   -1    0    0    0  501  0.00000000000E+00  0.00000000000E+00  0.67880328881E+03  0.67880328883E+03  0.50400001928E-02 0. -1.
        1   -1    0    0  501    0  0.00000000000E+00  0.00000000000E+00 -0.13217751558E+04  0.13217751558E+04  0.50400001928E-02 0.  1.
    10030    2    1    2    0    0  0.00000000000E+00  0.00000000000E+00 -0.64297186698E+03  0.20005784446E+04  0.18944395719E+04 0.  0.
        2    1    3    3  502    0 -0.70076010492E+03  0.51760215776E+03 -0.71413557598E+03  0.11264840608E+04  0.25500000920E-02 0.  1.
       -2    1    3    3    0  502  0.70076010492E+03 -0.51760215776E+03  0.71163708995E+02  0.87409438383E+03  0.25500000920E-02 0. -1.
</event>
<event>
 5   0  0.3720978E-04  0.1663447E+04  0.7818609E-02  0.8782491E-01
        2   -1    0    0  501    0  0.00000000000E+00  0.00000000000E+00  0.10208024071E+04  0.10208024071E+04  0.25500000920E-02 0. -1.
       -2   -1    0    0    0  501  0.00000000000E+00  0.00000000000E+00 -0.67766701929E+03  0.67766701929E+03  0.25500000920E-02 0.  1.
    10030    2    1    2    0    0  0.00000000000E+00  0.00000000000E+00  0.34313538777E+03  0.16984694264E+04  0.16634471732E+04 0.  0.
        1    1    3    3  502    0 -0.17483015394E+03  0.69508352835E+03 -0.25928495872E+03  0.76219117284E+03  0.50400001928E-02 0.  1.
       -1    1    3    3    0  502  0.17483015394E+03 -0.69508352835E+03  0.60242034649E+03  0.93627825351E+03  0.50400001928E-02 0. -1.
</event>
<event>
 5   0  0.1711979E-04  0.1901881E+04  0.7818609E-02  0.8653921E-01
       -1   -1    0    0    0  501  0.00000000000E+00  0.00000000000E+00  0.21809710597E+04  0.21809710597E+04  0.50400001928E-02 0.  1.
        1   -1    0    0  501    0  0.00000000000E+00  0.00000000000E+00 -0.41462636504E+03  0.41462636507E+03  0.50400001928E-02 0. -1.
    10030    2    1    2    0    0  0.00000000000E+00  0.00000000000E+00  0.17663446947E+04  0.25955974248E+04  0.19018812821E+04 0.  0.
        4    1    3    3  502    0 -0.15901502138E+03 -0.44412242713E+03  0.20100283156E+04  0.20646418454E+04  0.12699999809E+01 0.  1.
       -4    1    3    3    0  502  0.15901502138E+03  0.44412242713E+03 -0.24368362092E+03  0.53095557941E+03  0.12699999809E+01 0. -1.
</event>
<event>
 5   0  0.3459485E-04  0.1904300E+04  0.7818609E-02  0.8652719E-01
        2   -1    0    0  501    0  0.00000000000E+00  0.00000000000E+00  0.67166816883E+03  0.67166816884E+03  0.25500000920E-02 0.  1.
       -2   -1    0    0    0  501  0.00000000000E+00  0.00000000000E+00 -0.13497578764E+04  0.13497578764E+04  0.25500000920E-02 0. -1.
    10030    2    1    2    0    0  0.00000000000E+00  0.00000000000E+00 -0.67808970757E+03  0.20214260452E+04  0.19042997676E+04 0.  0.
        3    1    3    3  502    0  0.29209103357E+03 -0.44720142203E+03  0.49765041909E+03  0.73004262449E+03  0.10100000352E+00 0.  1.
       -3    1    3    3    0  502 -0.29209103357E+03  0.44720142203E+03 -0.11757401267E+04  0.12913834208E+04  0.10100000352E+00 0. -1.
</event>
<event>
 5   0  0.1813834E-04  0.1922745E+04  0.7818609E-02  0.8643617E-01
        1   -1    0    0  501    0  0.00000000000E+00  0.00000000000E+00  0.11245397953E+04  0.11245397953E+04  0.50400001928E-02 0.  1.
       -1   -1    0    0    0  501  0.00000000000E+00  0.00000000000E+00 -0.82188033107E+03  0.82188033108E+03  0.50400001928E-02 0. -1.
    10030    2    1    2    0    0  0.00000000000E+00  0.00000000000E+00  0.30265946418E+03  0.19464201263E+04  0.19227450577E+04 0.  0.
        5    1    3    3  502    0 -0.89091375438E+03  0.11273859847E+03  0.49874307253E+03  0.10272312552E+04  0.46999998093E+01 0.  1.
       -5    1    3    3    0  502  0.89091375438E+03 -0.11273859847E+03 -0.19608360835E+03  0.91918887112E+03  0.46999998093E+01 0. -1.
</event>
<event>
 5   0  0.1782613E-04  0.1162554E+04  0.7818609E-02  0.9146280E-01
       -1   -1    0    0    0  501  0.00000000000E+00  0.00000000000E+00  0.21294644052E+03  0.21294644058E+03  0.50400001928E-02 0. -1.
        1   -1    0    0  501    0  0.00000000000E+00  0.00000000000E+00 -0.15867034700E+04  0.15867034700E+04  0.50400001928E-02 0.  1.
    10030    2    1    2    0    0  0.00000000000E+00  0.00000000000E+00 -0.13737570295E+04  0.17996499106E+04  0.11625538373E+04 0.  0.
        3    1    3    3  502    0  0.75614748032E+02  0.41232463575E+03 -0.63519390967E+02  0.42398575282E+03  0.10100000352E+00 0. -1.
       -3    1    3    3    0  502 -0.75614748032E+02 -0.41232463575E+03 -0.13102376385E+04  0.13756641578E+04  0.10100000352E+00 0.  1.
</event>
<event>
 5   0  0.1287000E-04  0.1336703E+04  0.7818609E-02  0.9000956E-01
        3   -1    0    0  501    0  0.00000000000E+00  0.00000000000E+00  0.98299015224E+03  0.98299015743E+03  0.10100000352E+00 0.  1.
       -3   -1    0    0    0  501  0.00000000000E+00  0.00000000000E+00 -0.45442309618E+03  0.45442310740E+03  0.10100000352E+00 0. -1.
    10030    2    1    2    0    0  0.00000000000E+00  0.00000000000E+00  0.52856705606E+03  0.14374132648E+04  0.13367025702E+04 0.  0.
        4    1    3    3  502    0 -0.24120069121E+03  0.53322926972E+03 -0.82805025960E+02  0.59107487914E+03  0.12699999809E+01 0. -1.
       -4    1    3    3    0  502  0.24120069121E+03 -0.53322926972E+03  0.61137208202E+03  0.84633838570E+03  0.12699999809E+01 0.  1.
</event>
<event>
 5   0  0.3535876E-04  0.1887388E+04  0.7818609E-02  0.8661160E-01
       -2   -1    0    0    0  501  0.00000000000E+00  0.00000000000E+00  0.97882276396E+03  0.97882276396E+03  0.25500000920E-02 0.  1.
        2   -1    0    0  501    0  0.00000000000E+00  0.00000000000E+00 -0.90982595118E+03  0.90982595119E+03  0.25500000920E-02 0. -1.
    10030    2    1    2    0    0  0.00000000000E+00  0.00000000000E+00  0.68996812773E+02  0.18886487151E+04  0.18873879858E+04 0.  0.
        2    1    3    3  502    0 -0.68951766877E+03 -0.29989838272E+03 -0.53613218585E+03  0.92347786991E+03  0.25500000920E-02 0. -1.
       -2    1    3    3    0  502  0.68951766877E+03  0.29989838272E+03  0.60512899862E+03  0.96517084523E+03  0.25500000920E-02 0.  1.
</event>
<event>
 5   0  0.3623359E-04  0.1890344E+04  0.7818609E-02  0.8659678E-01
        2   -1    0    0  501    0  0.00000000000E+00  0.00000000000E+00  0.11066564518E+04  0.11066564518E+04  0.25500000920E-02 0.  1.
       -2   -1    0    0    0  501  0.00000000000E+00  0.00000000000E+00 -0.80725120180E+03  0.80725120180E+03  0.25500000920E-02 0. -1.
    10030    2    1    2    0    0  0.00000000000E+00  0.00000000000E+00  0.29940524999E+03  0.19139076536E+04  0.18903436203E+04 0.  0.
        5    1    3    3  502    0 -0.50344603827E+03 -0.79742183764E+03  0.85763525507E+02  0.94695141000E+03  0.46999998093E+01 0. -1.
       -5    1    3    3    0  502  0.50344603827E+03  0.79742183764E+03  0.21364172448E+03  0.96695624360E+03  0.46999998093E+01 0.  1.
</event>
<event>
 5   0  0.1711979E-04  0.1874306E+04  0.7818609E-02  0.8667753E-01
        1   -1    0    0  501    0  0.00000000000E+00  0.00000000000E+00  0.44832202449E+03  0.44832202452E+03  0.50400001928E-02 0. -1.
       -1   -1    0    0    0  501  0.00000000000E+00  0.00000000000E+00 -0.19589835919E+04  0.19589835919E+04  0.50400001928E-02 0.  1.
    10030    2    1    2    0    0  0.00000000000E+00  0.00000000000E+00 -0.15106615674E+04  0.24073056164E+04  0.18743057274E+04 0.  0.
        4    1    3    3  502    0  0.20283279753E+03  0.91431264352E+03 -0.79879350280E+03  0.12309270599E+04  0.12699999809E+01 0.  1.
       -4    1    3    3    0  502 -0.20283279753E+03 -0.91431264352E+03 -0.71186806460E+03  0.11763785565E+04  0.12699999809E+01 0. -1.
</event>
<event>
 5   0  0.3516539E-04  0.1895774E+04  0.7818609E-02  0.8656963E-01
        2   -1    0    0  501    0  0.00000000000E+00  0.00000000000E+00  0.99447338623E+03  0.99447338623E+03  0.25500000920E-02 0.  1.
       -2   -1    0    0    0  501  0.00000000000E+00  0.00000000000E+00 -0.90348306161E+03  0.90348306161E+03  0.25500000920E-02 0. -1.
    10030    2    1    2    0    0  0.00000000000E+00  0.00000000000E+00  0.90990324618E+02  0.18979564478E+04  0.18957741001E+04 0.  0.
        4    1    3    3  502    0  0.23258839799E+03  0.66005163805E+03 -0.59455505037E+03  0.91829344362E+03  0.12699999809E+01 0. -1.
       -4    1    3    3    0  502 -0.23258839799E+03 -0.66005163805E+03  0.68554537499E+03  0.97966300422E+03  0.12699999809E+01 0.  1.
</event>
<event>
 5   0  0.1813834E-04  0.1890343E+04  0.7818609E-02  0.8659678E-01
        1   -1    0    0  501    0  0.00000000000E+00  0.00000000000E+00  0.11618060168E+04  0.11618060168E+04  0.50400001928E-02 0. -1.
       -1   -1    0    0    0  501  0.00000000000E+00  0.00000000000E+00 -0.76893138523E+03  0.76893138524E+03  0.50400001928E-02 0.  1.
    10030    2    1    2    0    0  0.00000000000E+00  0.00000000000E+00  0.39287463160E+03  0.19307374021E+04  0.18903429423E+04 0.  0.
        5    1    3    3  502    0  0.27756333060E+03  0.39984014685E+03  0.10239437005E+04  0.11337532083E+04  0.46999998093E+01 0. -1.
       -5    1    3    3    0  502 -0.27756333060E+03 -0.39984014685E+03 -0.63106906886E+03  0.79698419382E+03  0.46999998093E+01 0.  1.
</event>
<event>
 5   0  0.3535876E-04  0.1906362E+04  0.7818609E-02  0.8651696E-01
        2   -1    0    0  501    0  0.00000000000E+00  0.00000000000E+00  0.99597845746E+03  0.99597845746E+03  0.25500000920E-02 0. -1.
       -2   -1    0    0    0  501  0.00000000000E+00  0.00000000000E+00 -0.91222284508E+03  0.91222284508E+03  0.25500000920E-02 0.  1.
    10030    2    1    2    0    0  0.00000000000E+00  0.00000000000E+00  0.83755612380E+02  0.19082013025E+04  0.19063622973E+04 0.  0.
        2    1    3    3  502    0  0.29476967418E+03 -0.20424345559E+03 -0.84212177634E+03  0.91529975208E+03  0.25500000920E-02 0.  1.
       -2    1    3    3    0  502 -0.29476967418E+03  0.20424345559E+03  0.92587738872E+03  0.99290155046E+03  0.25500000920E-02 0. -1.
</event>
<event>
 5   0  0.3459485E-04  0.1313187E+04  0.7818609E-02  0.9019173E-01
       -2   -1    0    0    0  501  0.00000000000E+00  0.00000000000E+00  0.38248614896E+03  0.38248614897E+03  0.25500000920E-02 0.  1.
        2   -1    0    0  501    0  0.00000000000E+00  0.00000000000E+00 -0.11271386479E+04  0.11271386479E+04  0.25500000920E-02 0. -1.
    10030    2    1    2    0    0  0.00000000000E+00  0.00000000000E+00 -0.74465249893E+03  0.15096247969E+04  0.13131868424E+04 0.  0.
        3    1    3    3  502    0  0.28725380704E+03  0.16671231295E+03 -0.10234514862E+04  0.10759928902E+04  0.10100000352E+00 0. -1.
       -3    1    3    3    0  502 -0.28725380704E+03 -0.16671231295E+03  0.27879898729E+03  0.43363190665E+03  0.10100000352E+00 0.  1.
</event>
<event>
 5   0  0.1758946E-04  0.1901564E+04  0.7818609E-02  0.8654078E-01
       -1   -1    0    0    0  501  0.00000000000E+00  0.00000000000E+00  0.14783611682E+04  0.14783611682E+04  0.50400001928E-02 0.  1.
        1   -1    0    0  501    0  0.00000000000E+00  0.00000000000E+00 -0.61147874531E+03  0.61147874533E+03  0.50400001928E-02 0. -1.
    10030    2    1    2    0    0  0.00000000000E+00  0.00000000000E+00  0.86688242290E+03  0.20898399135E+04  0.19015640218E+04 0.  0.
        2    1    3    3  502    0 -0.60420920019E+03 -0.48818670237E+03 -0.16910499486E+03  0.79497893887E+03  0.25500000920E-02 0. -1.
       -2    1    3    3    0  502  0.60420920019E+03  0.48818670237E+03  0.10359874178E+04  0.12948609747E+04  0.25500000920E-02 0.  1.
</event>
<event>
 5   0  0.1813834E-04  0.1902588E+04  0.7818609E-02  0.8653569E-01
       -1   -1    0    0    0  501  0.00000000000E+00  0.00000000000E+00  0.79255482225E+03  0.79255482226E+03  0.50400001928E-02 0.  1.
        1   -1    0    0  501    0  0.00000000000E+00  0.00000000000E+00 -0.11418265462E+04  0.11418265462E+04  0.50400001928E-02 0. -1.
    10030    2    1    2    0    0  0.00000000000E+00  0.00000000000E+00 -0.34927172394E+03  0.19343813685E+04  0.19025878538E+04 0.  0.
        5    1    3    3  502    0 -0.38279668672E+03  0.29614990879E+03 -0.10072840192E+04  0.11175335598E+04  0.46999998093E+01 0. -1.
       -5    1    3    3    0  502  0.38279668672E+03 -0.29614990879E+03  0.65801229527E+03  0.81684780869E+03  0.46999998093E+01 0.  1.
</event>
<event>
 5   0  0.3459485E-04  0.1880269E+04  0.7818609E-02  0.8664741E-01
       -2   -1    0    0    0  501  0.00000000000E+00  0.00000000000E+00  0.72511396326E+03  0.72511396326E+03  0.25500000920E-02 0.  1.
        2   -1    0    0  501    0  0.00000000000E+00  0.00000000000E+00 -0.12189156599E+04  0.12189156599E+04  0.25500000920E-02 0. -1.
    10030    2    1    2    0    0  0.00000000000E+00  0.00000000000E+00 -0.49380169664E+03  0.19440296232E+04  0.18802688797E+04 0.  0.
        3    1    3    3  502    0 -0.43587711192E+03  0.78627222106E+03 -0.53125421325E+03  0.10442432243E+04  0.10100000352E+00 0.  1.
       -3    1    3    3    0  502  0.43587711192E+03 -0.78627222106E+03  0.37452516609E+02  0.89978639882E+03  0.10100000352E+00 0. -1.
</event>
<event>
 5   0  0.3459485E-04  0.1834048E+04  0.7818609E-02  0.8688400E-01
        2   -1    0    0  501    0  0.00000000000E+00  0.00000000000E+00  0.64200644621E+03  0.64200644622E+03  0.25500000920E-02 0. -1.
       -2   -1    0    0    0  501  0.00000000000E+00  0.00000000000E+00 -0.13098507860E+04  0.13098507860E+04  0.25500000920E-02 0.  1.
    10030    2    1    2    0    0  0.00000000000E+00  0.00000000000E+00 -0.66784433974E+03  0.19518572322E+04  0.18340475983E+04 0.  0.
        3    1    3    3  502    0 -0.70739786743E+03  0.58242100326E+03 -0.37239201338E+03  0.98909139603E+03  0.10100000352E+00 0.  1.
       -3    1    3    3    0  502  0.70739786743E+03 -0.58242100326E+03 -0.29545232637E+03  0.96276583614E+03  0.10100000352E+00 0. -1.
</event>
<event>
 5   0  0.3535876E-04  0.1910761E+04  0.7818609E-02  0.8649518E-01
        2   -1    0    0  501    0  0.00000000000E+00  0.00000000000E+00  0.11754352794E+04  0.11754352794E+04  0.25500000920E-02 0.  1.
       -2   -1    0    0    0  501  0.00000000000E+00  0.00000000000E+00 -0.77652281799E+03  0.77652281800E+03  0.25500000920E-02 0. -1.
    10030    2    1    2    0    0  0.00000000000E+00  0.00000000000E+00  0.39891246143E+03  0.19519580974E+04  0.19107614352E+04 0.  0.
        2    1    3    3  502    0 -0.50277256505E+03  0.21132134990E+03 -0.60187652941E+03  0.81221445551E+03  0.25500000920E-02 0. -1.
       -2    1    3    3    0  502  0.50277256505E+03 -0.21132134990E+03  0.10007889908E+04  0.11397436419E+04  0.25500000920E-02 0.  1.
</event>
<event>
 5   0  0.1694830E-04  0.2011956E+04  0.7818609E-02  0.8601051E-01
        1   -1    0    0  501    0  0.00000000000E+00  0.00000000000E+00  0.11555607448E+04  0.11555607448E+04  0.50400001928E-02 0. -1.
       -1   -1    0    0    0  501  0.00000000000E+00  0.00000000000E+00 -0.87575781075E+03  0.87575781076E+03  0.50400001928E-02 0.  1.
    10030    2    1    2    0    0  0.00000000000E+00  0.00000000000E+00  0.27980293409E+03  0.20313185556E+04  0.20119556139E+04 0.  0.
        1    1    3    3  502    0 -0.84225445269E+03  0.53375258189E+03  0.27424962649E+03  0.10341649962E+04  0.50400001928E-02 0. -1.
       -1    1    3    3    0  502  0.84225445269E+03 -0.53375258189E+03  0.55533076004E+01  0.99715355939E+03  0.50400001928E-02 0.  1.
</event>
<event>
 5   0  0.3516539E-04  0.1885659E+04  0.7818609E-02  0.8662028E-01
        2   -1    0    0  501    0  0.00000000000E+00  0.00000000000E+00  0.17452533798E+04  0.17452533798E+04  0.25500000920E-02 0. -1.
       -2   -1    0    0    0  501  0.00000000000E+00  0.00000000000E+00 -0.50933990810E+03  0.50933990811E+03  0.25500000920E-02 0.  1.
    10030    2    1    2    0    0  0.00000000000E+00  0.00000000000E+00  0.12359134717E+04  0.22545932879E+04  0.18856587136E+04 0.  0.
        4    1    3    3  502    0 -0.51004142319E+03  0.12079026823E+03  0.15549955121E+04  0.16409586216E+04  0.12699999809E+01 0. -1.
       -4    1    3    3    0  502  0.51004142319E+03 -0.12079026823E+03 -0.31908204041E+03  0.61363466630E+03  0.12699999809E+01 0.  1.
</event>
<event>
 5   0  0.3459485E-04  0.2056069E+04  0.7818609E-02  0.8580846E-01
       -2   -1    0    0    0  501  0.00000000000E+00  0.00000000000E+00  0.51413554730E+03  0.51413554730E+03  0.25500000920E-02 0. -1.
        2   -1    0    0  501    0  0.00000000000E+00  0.00000000000E+00 -0.20555961118E+04  0.20555961118E+04  0.25500000920E-02 0.  1.
    10030    2    1    2    0    0  0.00000000000E+00  0.00000000000E+00 -0.15414605645E+04  0.25697316591E+04  0.20560690961E+04 0.  0.
        3    1    3    3  502    0 -0.87801762281E+03 -0.46822056349E+03 -0.10935381951E+04  0.14785030390E+04  0.10100000352E+00 0. -1.
       -3    1    3    3    0  502  0.87801762281E+03  0.46822056349E+03 -0.44792236936E+03  0.10912286200E+04  0.10100000352E+00 0.  1.
</event>
<event>
 5   0  0.1758946E-04  0.1968000E+04  0.7818609E-02  0.8621729E-01
       -1   -1    0    0    0  501  0.00000000000E+00  0.00000000000E+00  0.10167956906E+04  0.10167956906E+04  0.50400001928E-02 0.  1.
        1   -1    0    0  501    0  0.00000000000E+00  0.00000000000E+00 -0.95226239033E+03  0.95226239034E+03  0.50400001928E-02 0. -1.
    10030    2    1    2    0    0  0.00000000000E+00  0.00000000000E+00  0.64533300270E+02  0.19690580810E+04  0.19680002996E+04 0.  0.
        2    1    3    3  502    0 -0.10497617466E+03 -0.62615257269E+03 -0.71991481913E+03  0.95987727775E+03  0.25500000920E-02 0. -1.
       -2    1    3    3    0  502  0.10497617466E+03  0.62615257269E+03  0.78444811940E+03  0.10091808032E+04  0.25500000920E-02 0.  1.
</event>
<event>
 5   0  0.1694830E-04  0.1951621E+04  0.7818609E-02  0.8629580E-01
       -1   -1    0    0    0  501  0.00000000000E+00  0.00000000000E+00  0.85251106986E+03  0.85251106987E+03  0.50400001928E-02 0. -1.
        1   -1    0    0  501    0  0.00000000000E+00  0.00000000000E+00 -0.11169426421E+04  0.11169426421E+04  0.50400001928E-02 0.  1.
    10030    2    1    2    0    0  0.00000000000E+00  0.00000000000E+00 -0.26443157225E+03  0.19694537120E+04  0.19516208308E+04 0.  0.
        1    1    3    3  502    0  0.78778724656E+03 -0.40735645113E+03  0.27851425140E+03  0.92957958905E+03  0.50400001928E-02 0. -1.
       -1    1    3    3    0  502 -0.78778724656E+03  0.40735645113E+03 -0.54294582365E+03  0.10398741229E+04  0.50400001928E-02 0.  1.
</event>
<event>
 5   0  0.3720978E-04  0.1932741E+04  0.7818609E-02  0.8638729E-01
        2   -1    0    0  501    0  0.00000000000E+00  0.00000000000E+00  0.82790649930E+03  0.82790649930E+03  0.25500000920E-02 0.  1.
       -2   -1    0    0    0  501  0.00000000000E+00  0.00000000000E+00 -0.11279922012E+04  0.11279922012E+04  0.25500000920E-02 0. -1.
    10030    2    1    2    0    0  0.00000000000E+00  0.00000000000E+00 -0.30008570193E+03  0.19558987005E+04  0.19327411359E+04 0.  0.
        1    1    3    3  502    0  0.39000185538E+03  0.65417787387E+03  0.45191356211E+03  0.88559358935E+03  0.50400001928E-02 0.  1.
       -1    1    3    3    0  502 -0.39000185538E+03 -0.65417787387E+03 -0.75199926404E+03  0.10703051112E+04  0.50400001928E-02 0. -1.
</event>
<event>
 5   0  0.1813834E-04  0.1927315E+04  0.7818609E-02  0.8641378E-01
        1   -1    0    0  501    0  0.00000000000E+00  0.00000000000E+00  0.13023881461E+04  0.13023881461E+04  0.50400001928E-02 0.  1.
       -1   -1    0    0    0  501  0.00000000000E+00  0.00000000000E+00 -0.71302539352E+03  0.71302539354E+03  0.50400001928E-02 0. -1.
    10030    2    1    2    0    0  0.00000000000E+00  0.00000000000E+00  0.58936275257E+03  0.20154135396E+04  0.19273150447E+04 0.  0.
        5    1    3    3  502    0 -0.66203390714E+02 -0.76551684801E+03 -0.31346449453E+03  0.82986806955E+03  0.46999998093E+01 0.  1.
       -5    1    3    3    0  502  0.66203390714E+02  0.76551684801E+03  0.90282724710E+03  0.11855454701E+04  0.46999998093E+01 0. -1.
</event>
<event>
 5   0  0.1694830E-04  0.1865803E+04  0.7818609E-02  0.8672068E-01
       -1   -1    0    0    0  501  0.00000000000E+00  0.00000000000E+00  0.54570301632E+03  0.54570301634E+03  0.50400001928E-02 0.  1.
        1   -1    0    0  501    0  0.00000000000E+00  0.00000000000E+00 -0.15948333684E+04  0.15948333684E+04  0.50400001928E-02 0. -1.
    10030    2    1    2    0    0  0.00000000000E+00  0.00000000000E+00 -0.10491303521E+04  0.21405363847E+04  0.18658031833E+04 0.  0.
        1    1    3    3  502    0 -0.70226379235E+03 -0.20010927519E+03  0.14151718149E+03  0.74380459043E+03  0.50400001928E-02 0.  1.
       -1    1    3    3    0  502  0.70226379235E+03  0.20010927519E+03 -0.11906475335E+04  0.13967317943E+04  0.50400001928E-02 0. -1.
</event>
<event>
 5   0  0.3459485E-04  0.1780297E+04  0.7818609E-02  0.8716848E-01
       -2   -1    0    0    0  501  0.00000000000E+00  0.00000000000E+00  0.32989830153E+03  0.32989830154E+03  0.25500000920E-02 0. -1.
        2   -1    0    0  501    0  0.00000000000E+00  0.00000000000E+00 -0.24018451115E+04  0.24018451115E+04  0.25500000920E-02 0.  1.
    10030    2    1    2    0    0  0.00000000000E+00  0.00000000000E+00 -0.20719468099E+04  0.27317434130E+04  0.17802973042E+04 0.  0.
        3    1    3    3  502    0  0.28474578632E+02  0.60632797596E+03 -0.20350284662E+04  0.21236255047E+04  0.10100000352E+00 0.  1.
       -3    1    3    3    0  502 -0.28474578632E+02 -0.60632797596E+03 -0.36918343779E+02  0.60811790828E+03  0.10100000352E+00 0. -1.
</event>
<event>
 5   0  0.1694830E-04  0.1889880E+04  0.7818609E-02  0.8659910E-01
       -1   -1    0    0    0  501  0.00000000000E+00  0.00000000000E+00  0.79773766085E+03  0.79773766087E+03  0.50400001928E-02 0. -1.
        1   -1    0    0  501    0  0.00000000000E+00  0.00000000000E+00 -0.11193044187E+04  0.11193044187E+04  0.50400001928E-02 0.  1.
    10030    2    1    2    0    0  0.00000000000E+00  0.00000000000E+00 -0.32156675784E+03  0.19170420796E+04  0.18898796668E+04 0.  0.
        1    1    3    3  502    0  0.42971474302E+03 -0.72710016123E+03  0.26907832417E+03  0.88641556247E+03  0.50400001928E-02 0. -1.
       -1    1    3    3    0  502 -0.42971474302E+03  0.72710016123E+03 -0.59064508201E+03  0.10306265171E+04  0.50400001928E-02 0.  1.
</event>
<event>
 5   0  0.1694830E-04  0.1908438E+04  0.7818609E-02  0.8650668E-01
       -1   -1    0    0    0  501  0.00000000000E+00  0.00000000000E+00  0.12078529625E+04  0.12078529625E+04  0.50400001928E-02 0. -1.
        1   -1    0    0  501    0  0.00000000000E+00  0.00000000000E+00 -0.75384508730E+03  0.75384508732E+03  0.50400001928E-02 0.  1.
    10030    2    1    2    0    0  0.00000000000E+00  0.00000000000E+00  0.45400787516E+03  0.19616980498E+04  0.19084381278E+04 0.  0.
        1    1    3    3  502    0  0.74504878851E+03  0.18479836876E+03  0.80964340585E+03  0.11156928695E+04  0.50400001928E-02 0. -1.
       -1    1    3    3    0  502 -0.74504878851E+03 -0.18479836876E+03 -0.35563553070E+03  0.84600518029E+03  0.50400001928E-02 0.  1.
</event>
<event>
 5   0  0.1758946E-04  0.1485075E+04  0.7818609E-02  0.8894439E-01
        1   -1    0    0  501    0  0.00000000000E+00  0.00000000000E+00  0.16152536862E+04  0.16152536862E+04  0.50400001928E-02 0. -1.
       -1   -1    0    0    0  501  0.00000000000E+00  0.00000000000E+00 -0.34134676764E+03  0.34134676768E+03  0.50400001928E-02 0.  1.
    10030    2    1    2    0    0  0.00000000000E+00  0.00000000000E+00  0.12739069185E+04  0.19566004539E+04  0.14850745769E+04 0.  0.
        2    1    3    3  502    0  0.14703291688E+03  0.65415962563E+03  0.10573570777E+04  0.12520173658E+04  0.25500000920E-02 0. -1.
       -2    1    3    3    0  502 -0.14703291688E+03 -0.65415962563E+03  0.21654984085E+03  0.70458308810E+03  0.25500000920E-02 0.  1.
</event>
<event>
 5   0  0.3720978E-04  0.1896206E+04  0.7818609E-02  0.8656747E-01
        2   -1    0    0  501    0  0.00000000000E+00  0.00000000000E+00  0.13024968322E+04  0.13024968322E+04  0.25500000920E-02 0.  1.
       -2   -1    0    0    0  501  0.00000000000E+00  0.00000000000E+00 -0.69013517943E+03  0.69013517944E+03  0.25500000920E-02 0. -1.
    10030    2    1    2    0    0  0.00000000000E+00  0.00000000000E+00  0.61236165277E+03  0.19926320116E+04  0.18962055638E+04 0.  0.
        1    1    3    3  502    0 -0.46304025542E+03  0.29787027228E+02 -0.56266838184E+03  0.72930737901E+03  0.50400001928E-02 0. -1.
       -1    1    3    3    0  502  0.46304025542E+03 -0.29787027228E+02  0.11750300346E+04  0.12633246326E+04  0.50400001928E-02 0.  1.
</event>
<event>
 5   0  0.1287000E-04  0.1904072E+04  0.7818609E-02  0.8652832E-01
       -3   -1    0    0    0  501  0.00000000000E+00  0.00000000000E+00  0.85020536232E+03  0.85020536832E+03  0.10100000352E+00 0.  1.
        3   -1    0    0  501    0  0.00000000000E+00  0.00000000000E+00 -0.10660635235E+04  0.10660635282E+04  0.10100000352E+00 0. -1.
    10030    2    1    2    0    0  0.00000000000E+00  0.00000000000E+00 -0.21585816114E+03  0.19162688966E+04  0.19040724089E+04 0.  0.
        4    1    3    3  502    0  0.51654015971E+03 -0.57615079380E+03 -0.66610577091E+03  0.10210102765E+04  0.12699999809E+01 0. -1.
       -4    1    3    3    0  502 -0.51654015971E+03  0.57615079380E+03  0.45024760977E+03  0.89525862006E+03  0.12699999809E+01 0.  1.
</event>
<event>
 5   0  0.3459485E-04  0.1895809E+04  0.7818609E-02  0.8656945E-01
       -2   -1    0    0    0  501  0.00000000000E+00  0.00000000000E+00  0.49622980718E+03  0.49622980719E+03  0.25500000920E-02 0. -1.
        2   -1    0    0  501    0  0.00000000000E+00  0.00000000000E+00 -0.18106991917E+04  0.18106991917E+04  0.25500000920E-02 0.  1.
    10030    2    1    2    0    0  0.00000000000E+00  0.00000000000E+00 -0.13144693845E+04  0.23069289989E+04  0.18958089680E+04 0.  0.
        3    1    3    3  502    0  0.63481996390E+03  0.51956830414E+03 -0.79291145993E+02  0.82415696640E+03  0.10100000352E+00 0. -1.
       -3    1    3    3    0  502 -0.63481996390E+03 -0.51956830414E+03 -0.12351782385E+04  0.14827720325E+04  0.10100000352E+00 0.  1.
</event>
<event>
 5   0  0.3535876E-04  0.1892592E+04  0.7818609E-02  0.8658552E-01
        2   -1    0    0  501    0  0.00000000000E+00  0.00000000000E+00  0.22469579471E+04  0.22469579471E+04  0.25500000920E-02 0. -1.
       -2   -1    0    0    0  501  0.00000000000E+00  0.00000000000E+00 -0.39852834144E+03  0.39852834144E+03  0.25500000920E-02 0.  1.
    10030    2    1    2    0    0  0.00000000000E+00  0.00000000000E+00  0.18484296057E+04  0.26454862885E+04  0.18925923216E+04 0.  0.
        2    1    3    3  502    0  0.80830380943E+03 -0.39205802099E+03  0.13398418131E+04  0.16131461881E+04  0.25500000920E-02 0. -1.
       -2    1    3    3    0  502 -0.80830380943E+03  0.39205802099E+03  0.50858779258E+03  0.10323401004E+04  0.25500000920E-02 0.  1.
</event>
<event>
 5   0  0.3516539E-04  0.1897082E+04  0.7818609E-02  0.8656310E-01
       -2   -1    0    0    0  501  0.00000000000E+00  0.00000000000E+00  0.32580480174E+03  0.32580480175E+03  0.25500000920E-02 0.  1.
        2   -1    0    0  501    0  0.00000000000E+00  0.00000000000E+00 -0.27615607704E+04  0.27615607704E+04  0.25500000920E-02 0. -1.
    10030    2    1    2    0    0  0.00000000000E+00  0.00000000000E+00 -0.24357559687E+04  0.30873655721E+04  0.18970817160E+04 0.  0.
        4    1    3    3  502    0  0.81637248356E+03 -0.13013714244E+02 -0.20035988235E+04  0.21635718724E+04  0.12699999809E+01 0. -1.
       -4    1    3    3    0  502 -0.81637248356E+03  0.13013714244E+02 -0.43215714520E+03  0.92379369977E+03  0.12699999809E+01 0.  1.
</event>
<event>
 5   0  0.3459485E-04  0.1887073E+04  0.7818609E-02  0.8661318E-01
       -2   -1    0    0    0  501  0.00000000000E+00  0.00000000000E+00  0.65356400151E+03  0.65356400152E+03  0.25500000920E-02 0.  1.
        2   -1    0    0  501    0  0.00000000000E+00  0.00000000000E+00 -0.13621638493E+04  0.13621638493E+04  0.25500000920E-02 0. -1.
    10030    2    1    2    0    0  0.00000000000E+00  0.00000000000E+00 -0.70859984776E+03  0.20157278508E+04  0.18870731370E+04 0.  0.
        3    1    3    3  502    0 -0.14297602364E+03 -0.37361089330E+03 -0.12670968941E+04  0.13287444420E+04  0.10100000352E+00 0. -1.
       -3    1    3    3    0  502  0.14297602364E+03  0.37361089330E+03  0.55849704636E+03  0.68698340877E+03  0.10100000352E+00 0.  1.
</event>
<event>
 5   0  0.1694830E-04  0.1779478E+04  0.7818609E-02  0.8717290E-01
       -1   -1    0    0    0  501  0.00000000000E+00  0.00000000000E+00  0.82604989516E+03  0.82604989517E+03  0.50400001928E-02 0. -1.
        1   -1    0    0  501    0  0.00000000000E+00  0.00000000000E+00 -0.95833853021E+03  0.95833853022E+03  0.50400001928E-02 0.  1.
    10030    2    1    2    0    0  0.00000000000E+00  0.00000000000E+00 -0.13228863505E+03  0.17843884254E+04  0.17794779486E+04 0.  0.
        1    1    3    3  502    0 -0.34055503474E+03 -0.27048771374E+03  0.71220256228E+03  0.83449015854E+03  0.50400001928E-02 0. -1.
       -1    1    3    3    0  502  0.34055503474E+03  0.27048771374E+03 -0.84449119733E+03  0.94989826685E+03  0.50400001928E-02 0.  1.
</event>
<event>
 5   0  0.1287000E-04  0.1901673E+04  0.7818609E-02  0.8654024E-01
       -3   -1    0    0    0  501  0.00000000000E+00  0.00000000000E+00  0.19750866537E+04  0.19750866563E+04  0.10100000352E+00 0.  1.
        3   -1    0    0  501    0  0.00000000000E+00  0.00000000000E+00 -0.45774708360E+03  0.45774709474E+03  0.10100000352E+00 0. -1.
    10030    2    1    2    0    0  0.00000000000E+00  0.00000000000E+00  0.15173395701E+04  0.24328337510E+04  0.19016731289E+04 0.  0.
        4    1    3    3  502    0 -0.62584774913E+03 -0.17246420266E+03  0.16474551211E+04  0.17707454066E+04  0.12699999809E+01 0.  1.
       -4    1    3    3    0  502  0.62584774913E+03  0.17246420266E+03 -0.13011555095E+03  0.66208834440E+03  0.12699999809E+01 0. -1.
</event>
<event>
 5   0  0.1287000E-04  0.1897335E+04  0.7818609E-02  0.8656184E-01
       -3   -1    0    0    0  501  0.00000000000E+00  0.00000000000E+00  0.63521866270E+03  0.63521867073E+03  0.10100000352E+00 0.  1.
        3   -1    0    0  501    0  0.00000000000E+00  0.00000000000E+00 -0.14167877582E+04  0.14167877618E+04  0.10100000352E+00 0. -1.
    10030    2    1    2    0    0  0.00000000000E+00  0.00000000000E+00 -0.78156909551E+03  0.20520064325E+04  0.18973350121E+04 0.  0.
        5    1    3    3  502    0  0.68468181051E+03  0.65295262575E+03 -0.46580522583E+03  0.10545771245E+04  0.46999998093E+01 0. -1.
       -5    1    3    3    0  502 -0.68468181051E+03 -0.65295262575E+03 -0.31576386968E+03  0.99742930803E+03  0.46999998093E+01 0.  1.
</event>
<event>
 5   0  0.3516539E-04  0.1865580E+04  0.7818609E-02  0.8672182E-01
        2   -1    0    0  501    0  0.00000000000E+00  0.00000000000E+00  0.99889323912E+03  0.99889323912E+03  0.25500000920E-02 0. -1.
       -2   -1    0    0    0  501  0.00000000000E+00  0.00000000000E+00 -0.87106119403E+03  0.87106119403E+03  0.25500000920E-02 0.  1.
    10030    2    1    2    0    0  0.00000000000E+00  0.00000000000E+00  0.12783204509E+03  0.18699544332E+04  0.18655799501E+04 0.  0.
        4    1    3    3  502    0 -0.11705765947E+03  0.53561816693E+03  0.82034192067E+03  0.98668728384E+03  0.12699999809E+01 0. -1.
       -4    1    3    3    0  502  0.11705765947E+03 -0.53561816693E+03 -0.69250987557E+03  0.88326714931E+03  0.12699999809E+01 0.  1.
</event>
<event>
 5   0  0.3535876E-04  0.1892957E+04  0.7818609E-02  0.8658370E-01
       -2   -1    0    0    0  501  0.00000000000E+00  0.00000000000E+00  0.90101154413E+03  0.90101154413E+03  0.25500000920E-02 0.  1.
        2   -1    0    0  501    0  0.00000000000E+00  0.00000000000E+00 -0.99423999564E+03  0.99423999564E+03  0.25500000920E-02 0. -1.
    10030    2    1    2    0    0  0.00000000000E+00  0.00000000000E+00 -0.93228451513E+02  0.18952515398E+04  0.18929571719E+04 0.  0.
        2    1    3    3  502    0  0.76659626849E+03  0.53673468580E+03  0.95218167619E+02  0.94064895750E+03  0.25500000920E-02 0.  1.
       -2    1    3    3    0  502 -0.76659626849E+03 -0.53673468580E+03 -0.18844661913E+03  0.95460258227E+03  0.25500000920E-02 0. -1.
</event>
<event>
 5   0  0.1758946E-04  0.1741502E+04  0.7818609E-02  0.8738042E-01
       -1   -1    0    0    0  501  0.00000000000E+00  0.00000000000E+00  0.47040330954E+03  0.47040330957E+03  0.50400001928E-02 0.  1.
        1   -1    0    0  501    0  0.00000000000E+00  0.00000000000E+00 -0.16118236365E+04  0.16118236365E+04  0.50400001928E-02 0. -1.
    10030    2    1    2    0    0  0.00000000000E+00  0.00000000000E+00 -0.11414203270E+04  0.20822269461E+04  0.17415018496E+04 0.  0.
        2    1    3    3  502    0 -0.48227464971E+03 -0.70803332024E+02  0.29198702556E+03  0.56820627652E+03  0.25500000920E-02 0.  1.
       -2    1    3    3    0  502  0.48227464971E+03  0.70803332024E+02 -0.14334073526E+04  0.15140206696E+04  0.25500000920E-02 0. -1.
</event>
<event>
 5   0  0.1287000E-04  0.1803563E+04  0.7818609E-02  0.8704407E-01
        4   -1    0    0  501    0  0.00000000000E+00  0.00000000000E+00  0.14592572515E+04  0.14592578041E+04  0.12699999809E+01 0. -1.
       -4   -1    0    0    0  501  0.00000000000E+00  0.00000000000E+00 -0.55727506488E+03  0.55727651201E+03  0.12699999809E+01 0.  1.
    10030    2    1    2    0    0  0.00000000000E+00  0.00000000000E+00  0.90198218658E+03  0.20165343161E+04  0.18035628027E+04 0.  0.
        5    1    3    3  502    0 -0.20063173483E+03  0.39334244711E+03 -0.42812159682E+03  0.61504598639E+03  0.46999998093E+01 0.  1.
       -5    1    3    3    0  502  0.20063173483E+03 -0.39334244711E+03  0.13301037834E+04  0.14014883297E+04  0.46999998093E+01 0. -1.
</event>
<event>
 5   0  0.3720978E-04  0.1917807E+04  0.7818609E-02  0.8646043E-01
       -2   -1    0    0    0  501  0.00000000000E+00  0.00000000000E+00  0.16290597960E+04  0.16290597960E+04  0.25500000920E-02 0.  1.
        2   -1    0    0  501    0  0.00000000000E+00  0.00000000000E+00 -0.56443360314E+03  0.56443360315E+03  0.25500000920E-02 0. -1.
    10030    2    1    2    0    0  0.00000000000E+00  0.00000000000E+00  0.10646261929E+04  0.21934933992E+04  0.19178071753E+04 0.  0.
        1    1    3    3  502    0  0.68921133173E+03  0.64374684995E+03  0.73066013375E+03  0.11930157156E+04  0.50400001928E-02 0.  1.
       -1    1    3    3    0  502 -0.68921133173E+03 -0.64374684995E+03  0.33396605911E+03  0.10004776835E+04  0.50400001928E-02 0. -1.
</event>
<event>
 5   0  0.1694830E-04  0.1936967E+04  0.7818609E-02  0.8636671E-01
       -1   -1    0    0    0  501  0.00000000000E+00  0.00000000000E+00  0.83115022524E+03  0.83115022525E+03  0.50400001928E-02 0.  1.
        1   -1    0    0  501    0  0.00000000000E+00  0.00000000000E+00 -0.11285087730E+04  0.11285087730E+04  0.50400001928E-02 0. -1.
    10030    2    1    2    0    0  0.00000000000E+00  0.00000000000E+00 -0.29735854775E+03  0.19596589983E+04  0.19369670321E+04 0.  0.
        1    1    3    3  502    0  0.78739683104E+03  0.11559615447E+03  0.40969594466E+03  0.89510167442E+03  0.50400001928E-02 0.  1.
       -1    1    3    3    0  502 -0.78739683104E+03 -0.11559615447E+03 -0.70705449241E+03  0.10645573238E+04  0.50400001928E-02 0. -1.
</event>
<event>
 5   0  0.1813834E-04  0.1889891E+04  0.7818609E-02  0.8659905E-01
       -1   -1    0    0    0  501  0.00000000000E+00  0.00000000000E+00  0.96489839507E+03  0.96489839508E+03  0.50400001928E-02 0.  1.
        1   -1    0    0  501    0  0.00000000000E+00  0.00000000000E+00 -0.92540514290E+03  0.92540514291E+03  0.50400001928E-02 0. -1.
    10030    2    1    2    0    0  0.00000000000E+00  0.00000000000E+00  0.39493252168E+02  0.18903035380E+04  0.18898909357E+04 0.  0.
        5    1    3    3  502    0 -0.22824748416E+03  0.62277510448E+03  0.69291220936E+03  0.95921591139E+03  0.46999998093E+01 0.  1.
       -5    1    3    3    0  502  0.22824748416E+03 -0.62277510448E+03 -0.65341895720E+03  0.93108762660E+03  0.46999998093E+01 0. -1.
</event>
<event>
 5   0  0.1694830E-04  0.1787121E+04  0.7818609E-02  0.8713178E-01
       -1   -1    0    0    0  501  0.00000000000E+00  0.00000000000E+00  0.64611628439E+03  0.64611628441E+03  0.50400001928E-02 0. -1.
        1   -1    0    0  501    0  0.00000000000E+00  0.00000000000E+00 -0.12357693383E+04  0.12357693383E+04  0.50400001928E-02 0.  1.
    10030    2    1    2    0    0  0.00000000000E+00  0.00000000000E+00 -0.58965305391E+03  0.18818856227E+04  0.17871213649E+04 0.  0.
        1    1    3    3  502    0 -0.25349344787E+03 -0.21637348274E+03  0.57821683932E+03  0.66739128362E+03  0.50400001928E-02 0. -1.
       -1    1    3    3    0  502  0.25349344787E+03  0.21637348274E+03 -0.11678698932E+04  0.12144943391E+04  0.50400001928E-02 0.  1.
</event>
<event>
 5   0  0.1782613E-04  0.2230113E+04  0.7818609E-02  0.8505998E-01
       -1   -1    0    0    0  501  0.00000000000E+00  0.00000000000E+00  0.93879881051E+03  0.93879881053E+03  0.50400001928E-02 0.  1.
        1   -1    0    0  501    0  0.00000000000E+00  0.00000000000E+00 -0.13244056595E+04  0.13244056595E+04  0.50400001928E-02 0. -1.
    10030    2    1    2    0    0  0.00000000000E+00  0.00000000000E+00 -0.38560684899E+03  0.22632044700E+04  0.22301125154E+04 0.  0.
        3    1    3    3  502    0  0.49577286398E+03  0.24594400111E+03  0.78958520498E+03  0.96422196120E+03  0.10100000352E+00 0.  1.
       -3    1    3    3    0  502 -0.49577286398E+03 -0.24594400111E+03 -0.11751920540E+04  0.12989825088E+04  0.10100000352E+00 0. -1.
</event>
<event>
 5   0  0.3459485E-04  0.1900753E+04  0.7818609E-02  0.8654481E-01
        2   -1    0    0  501    0  0.00000000000E+00  0.00000000000E+00  0.18063809796E+04  0.18063809796E+04  0.25500000920E-02 0. -1.
       -2   -1    0    0    0  501  0.00000000000E+00  0.00000000000E+00 -0.50001407835E+03  0.50001407835E+03  0.25500000920E-02 0.  1.
    10030    2    1    2    0    0  0.00000000000E+00  0.00000000000E+00  0.13063669013E+04  0.23063950580E+04  0.19007534513E+04 0.  0.
        3    1    3    3  502    0 -0.84531719861E+03  0.91019781773E+02  0.11685191591E+04  0.14450892022E+04  0.10100000352E+00 0. -1.
       -3    1    3    3    0  502  0.84531719861E+03 -0.91019781773E+02  0.13784774215E+03  0.86130585575E+03  0.10100000352E+00 0.  1.
</event>
<event>
 5   0  0.3720978E-04  0.2166960E+04  0.7818609E-02  0.8532307E-01
       -2   -1    0    0    0  501  0.00000000000E+00  0.00000000000E+00  0.10707858876E+04  0.10707858876E+04  0.25500000920E-02 0. -1.
        2   -1    0    0  501    0  0.00000000000E+00  0.00000000000E+00 -0.10963250973E+04  0.10963250973E+04  0.25500000920E-02 0.  1.
    10030    2    1    2    0    0  0.00000000000E+00  0.00000000000E+00 -0.25539209720E+02  0.21671109848E+04  0.21669604909E+04 0.  0.
        1    1    3    3  502    0  0.56856224591E+03  0.87992038134E+03  0.26366691673E+03  0.10802977127E+04  0.50400001928E-02 0.  1.
       -1    1    3    3    0  502 -0.56856224591E+03 -0.87992038134E+03 -0.28920612645E+03  0.10868132722E+04  0.50400001928E-02 0. -1.
</event>
<event>
 5   0  0.1287000E-04  0.1877601E+04  0.7818609E-02  0.8666087E-01
        3   -1    0    0  501    0  0.00000000000E+00  0.00000000000E+00  0.15399771869E+04  0.15399771902E+04  0.10100000352E+00 0.  1.
       -3   -1    0    0    0  501  0.00000000000E+00  0.00000000000E+00 -0.57231136405E+03  0.57231137296E+03  0.10100000352E+00 0. -1.
    10030    2    1    2    0    0  0.00000000000E+00  0.00000000000E+00  0.96766582281E+03  0.21122885631E+04  0.18776010836E+04 0.  0.
        1    1    3    3  502    0 -0.74606292217E+03  0.56965566289E+03  0.46680870393E+03  0.10483452791E+04  0.50400001928E-02 0.  1.
       -1    1    3    3    0  502  0.74606292217E+03 -0.56965566289E+03  0.50085711888E+03  0.10639432840E+04  0.50400001928E-02 0. -1.
</event>
<event>
 5   0  0.3516539E-04  0.1911367E+04  0.7818609E-02  0.8649219E-01
        2   -1    0    0  501    0  0.00000000000E+00  0.00000000000E+00  0.12686425369E+04  0.12686425369E+04  0.25500000920E-02 0.  1.
       -2   -1    0    0    0  501  0.00000000000E+00  0.00000000000E+00 -0.71992746355E+03  0.71992746356E+03  0.25500000920E-02 0. -1.
    10030    2    1    2    0    0  0.00000000000E+00  0.00000000000E+00  0.54871507335E+03  0.19885700005E+04  0.19113666354E+04 0.  0.
        4    1    3    3  502    0  0.10960946170E+03  0.54366692756E+03 -0.53537273937E+03  0.77085247952E+03  0.12699999809E+01 0. -1.
       -4    1    3    3    0  502 -0.10960946170E+03 -0.54366692756E+03  0.10840878127E+04  0.12177175209E+04  0.12699999809E+01 0.  1.
</event>
<event>
 5   0  0.1758946E-04  0.1914883E+04  0.7818609E-02  0.8647483E-01
        1   -1    0    0  501    0  0.00000000000E+00  0.00000000000E+00  0.67863116445E+03  0.67863116447E+03  0.50400001928E-02 0. -1.
       -1   -1    0    0    0  501  0.00000000000E+00  0.00000000000E+00 -0.13507991230E+04  0.13507991230E+04  0.50400001928E-02 0.  1.
    10030    2    1    2    0    0  0.00000000000E+00  0.00000000000E+00 -0.67216795859E+03  0.20294302875E+04  0.19148831628E+04 0.  0.
        2    1    3    3  502    0 -0.77760548866E+03 -0.28433386743E+03  0.17348786697E+03  0.84593976390E+03  0.25500000920E-02 0. -1.
       -2    1    3    3    0  502  0.77760548866E+03  0.28433386743E+03 -0.84565582556E+03  0.11834905236E+04  0.25500000920E-02 0.  1.
</event>
<event>
 5   0  0.3623359E-04  0.1921445E+04  0.7818609E-02  0.8644255E-01
        2   -1    0    0  501    0  0.00000000000E+00  0.00000000000E+00  0.10610444728E+04  0.10610444728E+04  0.25500000920E-02 0.  1.
       -2   -1    0    0    0  501  0.00000000000E+00  0.00000000000E+00 -0.86988608182E+03  0.86988608183E+03  0.25500000920E-02 0. -1.
    10030    2    1    2    0    0  0.00000000000E+00  0.00000000000E+00  0.19115839099E+03  0.19309305546E+04  0.19214451011E+04 0.  0.
        5    1    3    3  502    0  0.26308743340E+03 -0.27426079193E+03 -0.79112107001E+03  0.87768366568E+03  0.46999998093E+01 0. -1.
       -5    1    3    3    0  502 -0.26308743340E+03  0.27426079193E+03  0.98227946100E+03  0.10532468890E+04  0.46999998093E+01 0.  1.
</event>
<event>
 5   0  0.3623359E-04  0.2140423E+04  0.7818609E-02  0.8543643E-01
        2   -1    0    0  501    0  0.00000000000E+00  0.00000000000E+00  0.15165807840E+04  0.15165807840E+04  0.25500000920E-02 0. -1.
       -2   -1    0    0    0  501  0.00000000000E+00  0.00000000000E+00 -0.75522054556E+03  0.75522054557E+03  0.25500000920E-02 0.  1.
    10030    2    1    2    0    0  0.00000000000E+00  0.00000000000E+00  0.76136023842E+03  0.22718013296E+04  0.21404232919E+04 0.  0.
        5    1    3    3  502    0 -0.43469696211E+03  0.70376528162E+03 -0.34003003278E+03  0.89436543631E+03  0.46999998093E+01 0.  1.
       -5    1    3    3    0  502  0.43469696211E+03 -0.70376528162E+03  0.11013902712E+04  0.13774358932E+04  0.46999998093E+01 0. -1.
</event>
<event>
 5   0  0.3459485E-04  0.1893676E+04  0.7818609E-02  0.8658011E-01
        2   -1    0    0  501    0  0.00000000000E+00  0.00000000000E+00  0.85453616152E+03  0.85453616152E+03  0.25500000920E-02 0. -1.
       -2   -1    0    0    0  501  0.00000000000E+00  0.00000000000E+00 -0.10491095180E+04  0.10491095180E+04  0.25500000920E-02 0.  1.
    10030    2    1    2    0    0  0.00000000000E+00  0.00000000000E+00 -0.19457335646E+03  0.19036456795E+04  0.18936758123E+04 0.  0.
        3    1    3    3  502    0  0.10262197837E+03 -0.93545782552E+03 -0.20218834576E+03  0.96254493461E+03  0.10100000352E+00 0. -1.
       -3    1    3    3    0  502 -0.10262197837E+03  0.93545782552E+03  0.76149893048E+01  0.94110074489E+03  0.10100000352E+00 0.  1.
</event>
<event>
 5   0  0.3623359E-04  0.1869721E+04  0.7818609E-02  0.8670077E-01
        2   -1    0    0  501    0  0.00000000000E+00  0.00000000000E+00  0.13721671216E+04  0.13721671216E+04  0.25500000920E-02 0.  1.
       -2   -1    0    0    0  501  0.00000000000E+00  0.00000000000E+00 -0.63692264054E+03  0.63692264055E+03  0.25500000920E-02 0. -1.
    10030    2    1    2    0    0  0.00000000000E+00  0.00000000000E+00  0.73524448107E+03  0.20090897622E+04  0.18697211625E+04 0.  0.
        5    1    3    3  502    0 -0.12726006772E+03  0.16460249155E+03  0.13469596516E+04  0.13629422211E+04  0.46999998093E+01 0.  1.
       -5    1    3    3    0  502  0.12726006772E+03 -0.16460249155E+03 -0.61171517048E+03  0.64614754109E+03  0.46999998093E+01 0. -1.
</event>
<event>
 5   0  0.3535876E-04  0.1827257E+04  0.7818609E-02  0.8691937E-01
        2   -1    0    0  501    0  0.00000000000E+00  0.00000000000E+00  0.14122403023E+04  0.14122403023E+04  0.25500000920E-02 0. -1.
       -2   -1    0    0    0  501  0.00000000000E+00  0.00000000000E+00 -0.59105897581E+03  0.59105897582E+03  0.25500000920E-02 0.  1.
    10030    2    1    2    0    0  0.00000000000E+00  0.00000000000E+00  0.82118132645E+03  0.20032992781E+04  0.18272572962E+04 0.  0.
        2    1    3    3  502    0  0.33102214712E+03  0.90960447460E+02 -0.51766087836E+03  0.62114591674E+03  0.25500000920E-02 0.  1.
       -2    1    3    3    0  502 -0.33102214712E+03 -0.90960447460E+02  0.13388422048E+04  0.13821533613E+04  0.25500000920E-02 0. -1.
</event>
<event>
 5   0  0.3623359E-04  0.1902650E+04  0.7818609E-02  0.8653539E-01
        2   -1    0    0  501    0  0.00000000000E+00  0.00000000000E+00  0.12134920492E+04  0.12134920492E+04  0.25500000920E-02 0. -1.
       -2   -1    0    0    0  501  0.00000000000E+00  0.00000000000E+00 -0.74579712752E+03  0.74579712753E+03  0.25500000920E-02 0.  1.
    10030    2    1    2    0    0  0.00000000000E+00  0.00000000000E+00  0.46769492171E+03  0.19592891768E+04  0.19026496100E+04 0.  0.
        5    1    3    3  502    0  0.51518040828E+03  0.72380947666E+03 -0.11640380876E+03  0.89603735875E+03  0.46999998093E+01 0.  1.
       -5    1    3    3    0  502 -0.51518040828E+03 -0.72380947666E+03  0.58409873047E+03  0.10632518180E+04  0.46999998093E+01 0. -1.
</event>
<event>
 5   0  0.3535876E-04  0.1892158E+04  0.7818609E-02  0.8658769E-01
       -2   -1    0    0    0  501  0.00000000000E+00  0.00000000000E+00  0.66926475177E+03  0.66926475177E+03  0.25500000920E-02 0.  1.
        2   -1    0    0  501    0  0.00000000000E+00  0.00000000000E+00 -0.13373868626E+04  0.13373868626E+04  0.25500000920E-02 0. -1.
    10030    2    1    2    0    0  0.00000000000E+00  0.00000000000E+00 -0.66812211088E+03  0.20066516144E+04  0.18921584359E+04 0.  0.
        2    1    3    3  502    0  0.26911828017E+02 -0.70233349687E+03 -0.10056819365E+04  0.12269444750E+04  0.25500000920E-02 0. -1.
       -2    1    3    3    0  502 -0.26911828017E+02  0.70233349687E+03  0.33755982567E+03  0.77970713939E+03  0.25500000920E-02 0.  1.
</event>
<event>
 5   0  0.3516539E-04  0.1836648E+04  0.7818609E-02  0.8687049E-01
        2   -1    0    0  501    0  0.00000000000E+00  0.00000000000E+00  0.79909142056E+03  0.79909142056E+03  0.25500000920E-02 0. -1.
       -2   -1    0    0    0  501  0.00000000000E+00  0.00000000000E+00 -0.10553478513E+04  0.10553478513E+04  0.25500000920E-02 0.  1.
    10030    2    1    2    0    0  0.00000000000E+00  0.00000000000E+00 -0.25625643076E+03  0.18544392719E+04  0.18366484843E+04 0.  0.
        4    1    3    3  502    0 -0.85510936893E+03 -0.98052920914E+01 -0.46604848360E+03  0.97391528305E+03  0.12699999809E+01 0.  1.
       -4    1    3    3    0  502  0.85510936893E+03  0.98052920914E+01  0.20979205283E+03  0.88052398884E+03  0.12699999809E+01 0. -1.
</event>
<event>
 5   0  0.3720978E-04  0.1838881E+04  0.7818609E-02  0.8685892E-01
        2   -1    0    0  501    0  0.00000000000E+00  0.00000000000E+00  0.21915187868E+04  0.21915187868E+04  0.25500000920E-02 0.  1.
       -2   -1    0    0    0  501  0.00000000000E+00  0.00000000000E+00 -0.38574658712E+03  0.38574658713E+03  0.25500000920E-02 0. -1.
    10030    2    1    2    0    0  0.00000000000E+00  0.00000000000E+00  0.18057721997E+04  0.25772653739E+04  0.18388810648E+04 0.  0.
        1    1    3    3  502    0  0.20468072802E+03 -0.13706255640E+03 -0.33863672635E+03  0.41875431609E+03  0.50400001928E-02 0. -1.
       -1    1    3    3    0  502 -0.20468072802E+03  0.13706255640E+03  0.21444089260E+04  0.21585110578E+04  0.50400001928E-02 0.  1.
</event>
<event>
 5   0  0.1694830E-04  0.1833325E+04  0.7818609E-02  0.8688776E-01
       -1   -1    0    0    0  501  0.00000000000E+00  0.00000000000E+00  0.68394790792E+03  0.68394790794E+03  0.50400001928E-02 0. -1.
        1   -1    0    0  501    0  0.00000000000E+00  0.00000000000E+00 -0.12285590808E+04  0.12285590808E+04  0.50400001928E-02 0.  1.
    10030    2    1    2    0    0  0.00000000000E+00  0.00000000000E+00 -0.54461117287E+03  0.19125069887E+04  0.18333252991E+04 0.  0.
        1    1    3    3  502    0 -0.59595050398E+03 -0.20612035645E+02 -0.99857019500E+03  0.11630667623E+04  0.50400001928E-02 0.  1.
       -1    1    3    3    0  502  0.59595050398E+03  0.20612035645E+02  0.45395902213E+03  0.74944022644E+03  0.50400001928E-02 0. -1.
</event>
<event>
 5   0  0.1813834E-04  0.1920440E+04  0.7818609E-02  0.8644748E-01
       -1   -1    0    0    0  501  0.00000000000E+00  0.00000000000E+00  0.81566575446E+03  0.81566575448E+03  0.50400001928E-02 0. -1.
        1   -1    0    0  501    0  0.00000000000E+00  0.00000000000E+00 -0.11303925119E+04  0.11303925119E+04  0.50400001928E-02 0.  1.
    10030    2    1    2    0    0  0.00000000000E+00  0.00000000000E+00 -0.31472675740E+03  0.19460582664E+04  0.19204400132E+04 0.  0.
        5    1    3    3  502    0 -0.12803405064E+03  0.18721148136E+03  0.78812093117E+03  0.82012044788E+03  0.46999998093E+01 0. -1.
       -5    1    3    3    0  502  0.12803405064E+03 -0.18721148136E+03 -0.11028476886E+04  0.11259378185E+04  0.46999998093E+01 0.  1.
</event>
<event>
 5   0  0.1758946E-04  0.1932145E+04  0.7818609E-02  0.8639019E-01
       -1   -1    0    0    0  501  0.00000000000E+00  0.00000000000E+00  0.78358348068E+03  0.78358348070E+03  0.50400001928E-02 0.  1.
        1   -1    0    0  501    0  0.00000000000E+00  0.00000000000E+00 -0.11910618502E+04  0.11910618502E+04  0.50400001928E-02 0. -1.
    10030    2    1    2    0    0  0.00000000000E+00  0.00000000000E+00 -0.40747836952E+03  0.19746453309E+04  0.19321453261E+04 0.  0.
        2    1    3    3  502    0 -0.77041401705E+03  0.27339773503E+03  0.32237781967E+03  0.87875567584E+03  0.25500000920E-02 0.  1.
       -2    1    3    3    0  502  0.77041401705E+03 -0.27339773503E+03 -0.72985618919E+03  0.10958896551E+04  0.25500000920E-02 0. -1.
</event>
<event>
 5   0  0.1813834E-04  0.1900840E+04  0.7818609E-02  0.8654438E-01
       -1   -1    0    0    0  501  0.00000000000E+00  0.00000000000E+00  0.52321144435E+03  0.52321144437E+03  0.50400001928E-02 0.  1.
        1   -1    0    0  501    0  0.00000000000E+00  0.00000000000E+00 -0.17264492993E+04  0.17264492993E+04  0.50400001928E-02 0. -1.
    10030    2    1    2    0    0  0.00000000000E+00  0.00000000000E+00 -0.12032378550E+04  0.22496607437E+04  0.19008398476E+04 0.  0.
        5    1    3    3  502    0 -0.30773510670E+03  0.88715054891E+03 -0.77531250424E+03  0.12177309069E+04  0.46999998093E+01 0. -1.
       -5    1    3    3    0  502  0.30773510670E+03 -0.88715054891E+03 -0.42792535073E+03  0.10319298368E+04  0.46999998093E+01 0.  1.
</event>
<event>
 5   0  0.3720978E-04  0.2462238E+04  0.7818609E-02  0.8416563E-01
       -2   -1    0    0    0  501  0.00000000000E+00  0.00000000000E+00  0.97076566222E+03  0.97076566222E+03  0.25500000920E-02 0.  1.
        2   -1    0    0  501    0  0.00000000000E+00  0.00000000000E+00 -0.15612969744E+04  0.15612969744E+04  0.25500000920E-02 0. -1.
    10030    2    1    2    0    0  0.00000000000E+00  0.00000000000E+00 -0.59053131214E+03  0.25320626366E+04  0.24622375931E+04 0.  0.
        1    1    3    3  502    0 -0.45288465084E+03 -0.49054728166E+03 -0.13589642546E+04  0.15141086447E+04  0.50400001928E-02 0. -1.
       -1    1    3    3    0  502  0.45288465084E+03  0.49054728166E+03  0.76843294249E+03  0.10179539919E+04  0.50400001928E-02 0.  1.
</event>
<event>
 5   0  0.3516539E-04  0.1610533E+04  0.7818609E-02  0.8814103E-01
        2   -1    0    0  501    0  0.00000000000E+00  0.00000000000E+00  0.88454377677E+03  0.88454377677E+03  0.25500000920E-02 0.  1.
       -2   -1    0    0    0  501  0.00000000000E+00  0.00000000000E+00 -0.73309483204E+03  0.73309483205E+03  0.25500000920E-02 0. -1.
    10030    2    1    2    0    0  0.00000000000E+00  0.00000000000E+00  0.15144894472E+03  0.16176386088E+04  0.16105334166E+04 0.  0.
        4    1    3    3  502    0 -0.53043055980E+03  0.21767790852E+03  0.64365033332E+03  0.86199049596E+03  0.12699999809E+01 0. -1.
       -4    1    3    3    0  502  0.53043055980E+03 -0.21767790852E+03 -0.49220138860E+03  0.75564811286E+03  0.12699999809E+01 0.  1.
</event>
<event>
 5   0  0.1711979E-04  0.1926299E+04  0.7818609E-02  0.8641876E-01
       -1   -1    0    0    0  501  0.00000000000E+00  0.00000000000E+00  0.11170120057E+04  0.11170120057E+04  0.50400001928E-02 0.  1.
        1   -1    0    0  501    0  0.00000000000E+00  0.00000000000E+00 -0.83048031381E+03  0.83048031383E+03  0.50400001928E-02 0. -1.
    10030    2    1    2    0    0  0.00000000000E+00  0.00000000000E+00  0.28653169186E+03  0.19474923195E+04  0.19262985034E+04 0.  0.
        4    1    3    3  502    0  0.23815344818E+03 -0.84484904048E+03 -0.25754004348E+03  0.91477617643E+03  0.12699999809E+01 0. -1.
       -4    1    3    3    0  502 -0.23815344818E+03  0.84484904048E+03  0.54407173534E+03  0.10327161431E+04  0.12699999809E+01 0.  1.
</event>
<event>
 5   0  0.1758946E-04  0.1997958E+04  0.7818609E-02  0.8607576E-01
       -1   -1    0    0    0  501  0.00000000000E+00  0.00000000000E+00  0.15972401219E+04  0.15972401219E+04  0.50400001928E-02 0. -1.
        1   -1    0    0  501    0  0.00000000000E+00  0.00000000000E+00 -0.62480243882E+03  0.62480243884E+03  0.50400001928E-02 0.  1.
    10030    2    1    2    0    0  0.00000000000E+00  0.00000000000E+00  0.97243768311E+03  0.22220425608E+04  0.19979584817E+04 0.  0.
        2    1    3    3  502    0  0.77470992072E+03  0.42317692325E+03  0.10063293415E+04  0.13386384550E+04  0.25500000920E-02 0. -1.
       -2    1    3    3    0  502 -0.77470992072E+03 -0.42317692325E+03 -0.33891658366E+02  0.88340410580E+03  0.25500000920E-02 0.  1.
</event>
<event>
 5   0  0.1758946E-04  0.1921916E+04  0.7818609E-02  0.8644024E-01
        1   -1    0    0  501    0  0.00000000000E+00  0.00000000000E+00  0.17324663965E+04  0.17324663965E+04  0.50400001928E-02 0.  1.
       -1   -1    0    0    0  501  0.00000000000E+00  0.00000000000E+00 -0.53302054462E+03  0.53302054464E+03  0.50400001928E-02 0. -1.
    10030    2    1    2    0    0  0.00000000000E+00  0.00000000000E+00  0.11994458519E+04  0.22654869411E+04  0.19219159006E+04 0.  0.
        2    1    3    3  502    0 -0.38519205676E+03  0.59034409978E+03  0.13695936587E+04  0.15403460218E+04  0.25500000920E-02 0.  1.
       -2    1    3    3    0  502  0.38519205676E+03 -0.59034409978E+03 -0.17014780687E+03  0.72514091936E+03  0.25500000920E-02 0. -1.
</event>
<event>
 5   0  0.3535876E-04  0.1893017E+04  0.7818609E-02  0.8658340E-01
        2   -1    0    0  501    0  0.00000000000E+00  0.00000000000E+00  0.22692900711E+04  0.22692900711E+04  0.25500000920E-02 0. -1.
       -2   -1    0    0    0  501  0.00000000000E+00  0.00000000000E+00 -0.39478364475E+03  0.39478364476E+03  0.25500000920E-02 0.  1.
    10030    2    1    2    0    0  0.00000000000E+00  0.00000000000E+00  0.18745064264E+04  0.26640737159E+04  0.18930172797E+04 0.  0.
        2    1    3    3  502    0  0.31474111036E+03  0.85521095193E+03  0.57726938168E+03  0.10787435645E+04  0.25500000920E-02 0. -1.
       -2    1    3    3    0  502 -0.31474111036E+03 -0.85521095193E+03  0.12972370447E+04  0.15853301514E+04  0.25500000920E-02 0.  1.
</event>
<event>
 5   0  0.1694830E-04  0.1894943E+04  0.7818609E-02  0.8657378E-01
       -1   -1    0    0    0  501  0.00000000000E+00  0.00000000000E+00  0.17607937585E+04  0.17607937585E+04  0.50400001928E-02 0. -1.
        1   -1    0    0  501    0  0.00000000000E+00  0.00000000000E+00 -0.50982810854E+03  0.50982810857E+03  0.50400001928E-02 0.  1.
    10030    2    1    2    0    0  0.00000000000E+00  0.00000000000E+00  0.12509656499E+04  0.22706218670E+04  0.18949429030E+04 0.  0.
        1    1    3    3  502    0 -0.14956356370E+03  0.24731023616E+03 -0.45571802617E+03  0.53963926090E+03  0.50400001928E-02 0.  1.
       -1    1    3    3    0  502  0.14956356370E+03 -0.24731023616E+03  0.17066836761E+04  0.17309826061E+04  0.50400001928E-02 0. -1.
</event>
<event>
 5   0  0.1758946E-04  0.1898024E+04  0.7818609E-02  0.8655840E-01
       -1   -1    0    0    0  501  0.00000000000E+00  0.00000000000E+00  0.59673582366E+03  0.59673582369E+03  0.50400001928E-02 0.  1.
        1   -1    0    0  501    0  0.00000000000E+00  0.00000000000E+00 -0.15092510862E+04  0.15092510862E+04  0.50400001928E-02 0. -1.
    10030    2    1    2    0    0  0.00000000000E+00  0.00000000000E+00 -0.91251526254E+03  0.21059869099E+04  0.18980244362E+04 0.  0.
        2    1    3    3  502    0 -0.49164109660E+03  0.54460687387E+03  0.21162164700E+03  0.76360417523E+03  0.25500000920E-02 0.  1.
       -2    1    3    3    0  502  0.49164109660E+03 -0.54460687387E+03 -0.11241369095E+04  0.13423827347E+04  0.25500000920E-02 0. -1.
</event>
<event>
 5   0  0.1782613E-04  0.1837041E+04  0.7818609E-02  0.8686846E-01
       -1   -1    0    0    0  501  0.00000000000E+00  0.00000000000E+00  0.79957317087E+03  0.79957317089E+03  0.50400001928E-02 0. -1.
        1   -1    0    0  501    0  0.00000000000E+00  0.00000000000E+00 -0.10551628740E+04  0.10551628741E+04  0.50400001928E-02 0.  1.
    10030    2    1    2    0    0  0.00000000000E+00  0.00000000000E+00 -0.25558970317E+03  0.18547360449E+04  0.18370410175E+04 0.  0.
        3    1    3    3  502    0  0.13532761609E+03  0.27384937562E+03  0.74678973809E+03  0.80684692930E+03  0.10100000352E+00 0. -1.
       -3    1    3    3    0  502 -0.13532761609E+03 -0.27384937562E+03 -0.10023794413E+04  0.10478891156E+04  0.10100000352E+00 0.  1.
</event>
<event>
 5   0  0.1711979E-04  0.1859784E+04  0.7818609E-02  0.8675138E-01
       -1   -1    0    0    0  501  0.00000000000E+00  0.00000000000E+00  0.41775954887E+03  0.41775954890E+03  0.50400001928E-02 0. -1.
        1   -1    0    0  501    0  0.00000000000E+00  0.00000000000E+00 -0.20698487253E+04  0.20698487253E+04  0.50400001928E-02 0.  1.
    10030    2    1    2    0    0  0.00000000000E+00  0.00000000000E+00 -0.16520891764E+04  0.24876082742E+04  0.18597839334E+04 0.  0.
        4    1    3    3  502    0 -0.78944427845E+03  0.44715915866E+03 -0.10986085532E+04  0.14248213740E+04  0.12699999809E+01 0. -1.
       -4    1    3    3    0  502  0.78944427845E+03 -0.44715915866E+03 -0.55348062327E+03  0.10627869002E+04  0.12699999809E+01 0.  1.
</event>
<event>
 5   0  0.3516539E-04  0.1905281E+04  0.7818609E-02  0.8652232E-01
        2   -1    0    0  501    0  0.00000000000E+00  0.00000000000E+00  0.19086996985E+04  0.19086996985E+04  0.25500000920E-02 0.  1.
       -2   -1    0    0    0  501  0.00000000000E+00  0.00000000000E+00 -0.47546688734E+03  0.47546688734E+03  0.25500000920E-02 0. -1.
    10030    2    1    2    0    0  0.00000000000E+00  0.00000000000E+00  0.14332328112E+04  0.23841665859E+04  0.19052805615E+04 0.  0.
        4    1    3    3  502    0  0.93071347905E+03 -0.27509695814E+02  0.46467108751E+03  0.10406273088E+04  0.12699999809E+01 0.  1.
       -4    1    3    3    0  502 -0.93071347905E+03  0.27509695814E+02  0.96856172370E+03  0.13435392770E+04  0.12699999809E+01 0. -1.
</event>
<event>
 5   0  0.3535876E-04  0.1861157E+04  0.7818609E-02  0.8674436E-01
        2   -1    0    0  501    0  0.00000000000E+00  0.00000000000E+00  0.10923421786E+04  0.10923421786E+04  0.25500000920E-02 0.  1.
       -2   -1    0    0    0  501  0.00000000000E+00  0.00000000000E+00 -0.79277004041E+03  0.79277004042E+03  0.25500000920E-02 0. -1.
    10030    2    1    2    0    0  0.00000000000E+00  0.00000000000E+00  0.29957213819E+03  0.18851122190E+04  0.18611567941E+04 0.  0.
        2    1    3    3  502    0 -0.63112439878E+03  0.68012074597E+03  0.22207639597E+03  0.95404410878E+03  0.25500000920E-02 0.  1.
       -2    1    3    3    0  502  0.63112439878E+03 -0.68012074597E+03  0.77495742213E+02  0.93106811024E+03  0.25500000920E-02 0. -1.
</event>
<event>
 5   0  0.3623359E-04  0.1805052E+04  0.7818609E-02  0.8703617E-01
        2   -1    0    0  501    0  0.00000000000E+00  0.00000000000E+00  0.87986496058E+03  0.87986496059E+03  0.25500000920E-02 0. -1.
       -2   -1    0    0    0  501  0.00000000000E+00  0.00000000000E+00 -0.92577087865E+03  0.92577087865E+03  0.25500000920E-02 0.  1.
    10030    2    1    2    0    0  0.00000000000E+00  0.00000000000E+00 -0.45905918067E+02  0.18056358392E+04  0.18050521961E+04 0.  0.
        5    1    3    3  502    0  0.10960880414E+03  0.83365078175E+03  0.30509141148E+03  0.89447782265E+03  0.46999998093E+01 0. -1.
       -5    1    3    3    0  502 -0.10960880414E+03 -0.83365078175E+03 -0.35099732955E+03  0.91115801659E+03  0.46999998093E+01 0.  1.
</event>
<event>
 5   0  0.3459485E-04  0.1751383E+04  0.7818609E-02  0.8732589E-01
        2   -1    0    0  501    0  0.00000000000E+00  0.00000000000E+00  0.11539761415E+04  0.11539761415E+04  0.25500000920E-02 0. -1.
       -2   -1    0    0    0  501  0.00000000000E+00  0.00000000000E+00 -0.66451591451E+03  0.66451591452E+03  0.25500000920E-02 0.  1.
    10030    2    1    2    0    0  0.00000000000E+00  0.00000000000E+00  0.48946022699E+03  0.18184920560E+04  0.17513828948E+04 0.  0.
        3    1    3    3  502    0 -0.53606489218E+03  0.56780406812E+03  0.65623482728E+03  0.10200054839E+04  0.10100000352E+00 0. -1.
       -3    1    3    3    0  502  0.53606489218E+03 -0.56780406812E+03 -0.16677460029E+03  0.79848657215E+03  0.10100000352E+00 0.  1.
</event>
<event>
 5   0  0.3720978E-04  0.1907885E+04  0.7818609E-02  0.8650941E-01
       -2   -1    0    0    0  501  0.00000000000E+00  0.00000000000E+00  0.53859711336E+03  0.53859711336E+03  0.25500000920E-02 0.  1.
        2   -1    0    0  501    0  0.00000000000E+00  0.00000000000E+00 -0.16895869074E+04  0.16895869074E+04  0.25500000920E-02 0. -1.
    10030    2    1    2    0    0  0.00000000000E+00  0.00000000000E+00 -0.11509897940E+04  0.22281840207E+04  0.19078853541E+04 0.  0.
        1    1    3    3  502    0 -0.28745148674E+03 -0.87501014385E+03 -0.86567414008E+03  0.12639868773E+04  0.50400001928E-02 0. -1.
       -1    1    3    3    0  502  0.28745148674E+03  0.87501014385E+03 -0.28531565392E+03  0.96419714347E+03  0.50400001928E-02 0.  1.
</event>
<event>
 5   0  0.1782613E-04  0.1919187E+04  0.7818609E-02  0.8645365E-01
       -1   -1    0    0    0  501  0.00000000000E+00  0.00000000000E+00  0.96191279446E+03  0.96191279447E+03  0.50400001928E-02 0.  1.
        1   -1    0    0  501    0  0.00000000000E+00  0.00000000000E+00 -0.95727937420E+03  0.95727937421E+03  0.50400001928E-02 0. -1.
    10030    2    1    2    0    0  0.00000000000E+00  0.00000000000E+00  0.46334202586E+01  0.19191921687E+04  0.19191865755E+04 0.  0.
        3    1    3    3  502    0 -0.59109880427E+03 -0.57732705566E+03 -0.48565493865E+03  0.95841799610E+03  0.10100000352E+00 0. -1.
       -3    1    3    3    0  502  0.59109880427E+03  0.57732705566E+03  0.49028835891E+03  0.96077417258E+03  0.10100000352E+00 0.  1.
</event>
<event>
 5   0  0.1782613E-04  0.1886574E+04  0.7818609E-02  0.8661569E-01
        1   -1    0    0  501    0  0.00000000000E+00  0.00000000000E+00  0.12136923338E+04  0.12136923338E+04  0.50400001928E-02 0.  1.
       -1   -1    0    0    0  501  0.00000000000E+00  0.00000000000E+00 -0.73312640446E+03  0.73312640448E+03  0.50400001928E-02 0. -1.
    10030    2    1    2    0    0  0.00000000000E+00  0.00000000000E+00  0.48056592934E+03  0.19468187383E+04  0.18865735044E+04 0.  0.
        3    1    3    3  502    0 -0.67237779192E+03  0.62631038565E+03  0.20325405458E+02  0.91911355476E+03  0.10100000352E+00 0. -1.
       -3    1    3    3    0  502  0.67237779192E+03 -0.62631038565E+03  0.46024052388E+03  0.10277051835E+04  0.10100000352E+00 0.  1.
</event>
<event>
 5   0  0.3623359E-04  0.1813573E+04  0.7818609E-02  0.8699114E-01
       -2   -1    0    0    0  501  0.00000000000E+00  0.00000000000E+00  0.79390409109E+03  0.79390409110E+03  0.25500000920E-02 0.  1.
        2   -1    0    0  501    0  0.00000000000E+00  0.00000000000E+00 -0.10357198003E+04  0.10357198003E+04  0.25500000920E-02 0. -1.
    10030    2    1    2    0    0  0.00000000000E+00  0.00000000000E+00 -0.24181570922E+03  0.18296238914E+04  0.18135734743E+04 0.  0.
        5    1    3    3  502    0  0.34799758037E+03 -0.77944475559E+03  0.18774696890E+03  0.87401799598E+03  0.46999998093E+01 0.  1.
       -5    1    3    3    0  502 -0.34799758037E+03  0.77944475559E+03 -0.42956267812E+03  0.95560589544E+03  0.46999998093E+01 0. -1.
</event>
<event>
 5   0  0.1711979E-04  0.1876462E+04  0.7818609E-02  0.8666662E-01
       -1   -1    0    0    0  501  0.00000000000E+00  0.00000000000E+00  0.89248073229E+03  0.89248073230E+03  0.50400001928E-02 0. -1.
        1   -1    0    0  501    0  0.00000000000E+00  0.00000000000E+00 -0.98632622292E+03  0.98632622293E+03  0.50400001928E-02 0.  1.
    10030    2    1    2    0    0  0.00000000000E+00  0.00000000000E+00 -0.93845490630E+02  0.18788069552E+04  0.18764617233E+04 0.  0.
        4    1    3    3  502    0 -0.17894992133E+03  0.27505457823E+03 -0.92699652498E+03  0.98336273347E+03  0.12699999809E+01 0.  1.
       -4    1    3    3    0  502  0.17894992133E+03 -0.27505457823E+03  0.83315103435E+03  0.89544422176E+03  0.12699999809E+01 0. -1.
</event>
<event>
 5   0  0.3720978E-04  0.1862675E+04  0.7818609E-02  0.8673662E-01
       -2   -1    0    0    0  501  0.00000000000E+00  0.00000000000E+00  0.11475320809E+04  0.11475320809E+04  0.25500000920E-02 0.  1.
        2   -1    0    0  501    0  0.00000000000E+00  0.00000000000E+00 -0.75587370197E+03  0.75587370198E+03  0.25500000920E-02 0. -1.
    10030    2    1    2    0    0  0.00000000000E+00  0.00000000000E+00  0.39165837888E+03  0.19034057828E+04  0.18626747672E+04 0.  0.
        1    1    3    3  502    0 -0.16420116890E+03  0.26260320198E+03 -0.70170910938E+03  0.76701899570E+03  0.50400001928E-02 0. -1.
       -1    1    3    3    0  502  0.16420116890E+03 -0.26260320198E+03  0.10933674883E+04  0.11363867871E+04  0.50400001928E-02 0.  1.
</event>
<event>
 5   0  0.3459485E-04  0.1910192E+04  0.7818609E-02  0.8649800E-01
        2   -1    0    0  501    0  0.00000000000E+00  0.00000000000E+00  0.93686859001E+03  0.93686859001E+03  0.25500000920E-02 0.  1.
       -2   -1    0    0    0  501  0.00000000000E+00  0.00000000000E+00 -0.97367824941E+03  0.97367824942E+03  0.25500000920E-02 0. -1.
    10030    2    1    2    0    0  0.00000000000E+00  0.00000000000E+00 -0.36809659402E+02  0.19105468394E+04  0.19101922088E+04 0.  0.
        3    1    3    3  502    0  0.78913876913E+03  0.49137769749E+03 -0.23757223214E+03  0.95949602095E+03  0.10100000352E+00 0. -1.
       -3    1    3    3    0  502 -0.78913876913E+03 -0.49137769749E+03  0.20076257274E+03  0.95105081848E+03  0.10100000352E+00 0.  1.
</event>
<event>
 5   0  0.1694830E-04  0.2030902E+04  0.7818609E-02  0.8592308E-01
        1   -1    0    0  501    0  0.00000000000E+00  0.00000000000E+00  0.29477815313E+04  0.29477815313E+04  0.50400001928E-02 0. -1.
       -1   -1    0    0    0  501  0.00000000000E+00  0.00000000000E+00 -0.34980215191E+03  0.34980215195E+03  0.50400001928E-02 0.  1.
    10030    2    1    2    0    0  0.00000000000E+00  0.00000000000E+00  0.25979793794E+04  0.32975836833E+04  0.20309015959E+04 0.  0.
        1    1    3    3  502    0  0.72842828226E+03 -0.67836703825E+03  0.16251511179E+04  0.19057559542E+04  0.50400001928E-02 0. -1.
       -1    1    3    3    0  502 -0.72842828226E+03  0.67836703825E+03  0.97282826156E+03  0.13918277291E+04  0.50400001928E-02 0.  1.
</event>
<event>
 5   0  0.3459485E-04  0.1962536E+04  0.7818609E-02  0.8624339E-01
       -2   -1    0    0    0  501  0.00000000000E+00  0.00000000000E+00  0.65073470985E+03  0.65073470986E+03  0.25500000920E-02 0. -1.
        2   -1    0    0  501    0  0.00000000000E+00  0.00000000000E+00 -0.14796919522E+04  0.14796919522E+04  0.25500000920E-02 0.  1.
    10030    2    1    2    0    0  0.00000000000E+00  0.00000000000E+00 -0.82895724239E+03  0.21304266621E+04  0.19625360259E+04 0.  0.
        3    1    3    3  502    0  0.13499769683E+03 -0.67019894698E+03 -0.11786116674E+04  0.13625404506E+04  0.10100000352E+00 0.  1.
       -3    1    3    3    0  502 -0.13499769683E+03  0.67019894698E+03  0.34965442504E+03  0.76788621152E+03  0.10100000352E+00 0. -1.
</event>
<event>
 5   0  0.3720978E-04  0.1907665E+04  0.7818609E-02  0.8651051E-01
       -2   -1    0    0    0  501  0.00000000000E+00  0.00000000000E+00  0.11821439417E+04  0.11821439417E+04  0.25500000920E-02 0. -1.
        2   -1    0    0  501    0  0.00000000000E+00  0.00000000000E+00 -0.76961541048E+03  0.76961541049E+03  0.25500000920E-02 0.  1.
    10030    2    1    2    0    0  0.00000000000E+00  0.00000000000E+00  0.41252853122E+03  0.19517593522E+04  0.19076647451E+04 0.  0.
        1    1    3    3  502    0 -0.24674735244E+02  0.73803104157E+03 -0.41142707433E+03  0.84532295509E+03  0.50400001928E-02 0.  1.
       -1    1    3    3    0  502  0.24674735244E+02 -0.73803104157E+03  0.82395560555E+03  0.11064363971E+04  0.50400001928E-02 0. -1.
</event>
<event>
 5   0  0.1758946E-04  0.1891819E+04  0.7818609E-02  0.8658939E-01
        1   -1    0    0  501    0  0.00000000000E+00  0.00000000000E+00  0.14230394861E+04  0.14230394861E+04  0.50400001928E-02 0. -1.
       -1   -1    0    0    0  501  0.00000000000E+00  0.00000000000E+00 -0.62875610693E+03  0.62875610695E+03  0.50400001928E-02 0.  1.
    10030    2    1    2    0    0  0.00000000000E+00  0.00000000000E+00  0.79428337915E+03  0.20517955930E+04  0.18918189843E+04 0.  0.
        2    1    3    3  502    0 -0.34181936302E+03  0.72802708040E+03  0.93711962123E+03  0.12349320189E+04  0.25500000920E-02 0. -1.
       -2    1    3    3    0  502  0.34181936302E+03 -0.72802708040E+03 -0.14283624208E+03  0.81686357416E+03  0.25500000920E-02 0.  1.
</event>
<event>
 5   0  0.3516539E-04  0.1847242E+04  0.7818609E-02  0.8681572E-01
        2   -1    0    0  501    0  0.00000000000E+00  0.00000000000E+00  0.99595321147E+03  0.99595321148E+03  0.25500000920E-02 0.  1.
       -2   -1    0    0    0  501  0.00000000000E+00  0.00000000000E+00 -0.85654237290E+03  0.85654237290E+03  0.25500000920E-02 0. -1.
    10030    2    1    2    0    0  0.00000000000E+00  0.00000000000E+00  0.13941083858E+03  0.18524955844E+04  0.18472424065E+04 0.  0.
        4    1    3    3  502    0 -0.13989930130E+03 -0.46612548519E+03  0.85694082041E+03  0.98549173768E+03  0.12699999809E+01 0.  1.
       -4    1    3    3    0  502  0.13989930130E+03  0.46612548519E+03 -0.71752998184E+03  0.86700384669E+03  0.12699999809E+01 0. -1.
</event>
<event>
 5   0  0.3535876E-04  0.1490603E+04  0.7818609E-02  0.8890726E-01
       -2   -1    0    0    0  501  0.00000000000E+00  0.00000000000E+00  0.32287656871E+03  0.32287656872E+03  0.25500000920E-02 0. -1.
        2   -1    0    0  501    0  0.00000000000E+00  0.00000000000E+00 -0.17203925619E+04  0.17203925619E+04  0.25500000920E-02 0.  1.
    10030    2    1    2    0    0  0.00000000000E+00  0.00000000000E+00 -0.13975159932E+04  0.20432691306E+04  0.14906031628E+04 0.  0.
        2    1    3    3  502    0 -0.42615594940E+03  0.47904957445E+03 -0.17790804131E+03  0.66539361220E+03  0.25500000920E-02 0. -1.
       -2    1    3    3    0  502  0.42615594940E+03 -0.47904957445E+03 -0.12196079519E+04  0.13778755184E+04  0.25500000920E-02 0.  1.
</event>
<event>
 5   0  0.1782613E-04  0.1888976E+04  0.7818609E-02  0.8660363E-01
        1   -1    0    0  501    0  0.00000000000E+00  0.00000000000E+00  0.10917618011E+04  0.10917618011E+04  0.50400001928E-02 0. -1.
       -1   -1    0    0    0  501  0.00000000000E+00  0.00000000000E+00 -0.81708091543E+03  0.81708091545E+03  0.50400001928E-02 0.  1.
    10030    2    1    2    0    0  0.00000000000E+00  0.00000000000E+00  0.27468088564E+03  0.19088427165E+04  0.18889761585E+04 0.  0.
        3    1    3    3  502    0  0.94530194640E+02  0.54057447299E+03 -0.63944491784E+03  0.84264258835E+03  0.10100000352E+00 0.  1.
       -3    1    3    3    0  502 -0.94530194640E+02 -0.54057447299E+03  0.91412580348E+03  0.10662001282E+04  0.10100000352E+00 0. -1.
</event>
<event>
 5   0  0.1711979E-04  0.1877091E+04  0.7818609E-02  0.8666344E-01
        1   -1    0    0  501    0  0.00000000000E+00  0.00000000000E+00  0.23084237032E+04  0.23084237032E+04  0.50400001928E-02 0. -1.
       -1   -1    0    0    0  501  0.00000000000E+00  0.00000000000E+00 -0.38158843397E+03  0.38158843401E+03  0.50400001928E-02 0.  1.
    10030    2    1    2    0    0  0.00000000000E+00  0.00000000000E+00  0.19268352692E+04  0.26900121372E+04  0.18770911389E+04 0.  0.
        4    1    3    3  502    0  0.30009056783E+03 -0.77079936371E+03  0.32786845572E+03  0.88976701735E+03  0.12699999809E+01 0.  1.
       -4    1    3    3    0  502 -0.30009056783E+03  0.77079936371E+03  0.15989668135E+04  0.18002451199E+04  0.12699999809E+01 0. -1.
</event>
<event>
 5   0  0.1813834E-04  0.1760096E+04  0.7818609E-02  0.8727812E-01
       -1   -1    0    0    0  501  0.00000000000E+00  0.00000000000E+00  0.10130237225E+04  0.10130237225E+04  0.50400001928E-02 0. -1.
        1   -1    0    0  501    0  0.00000000000E+00  0.00000000000E+00 -0.76452789603E+03  0.76452789605E+03  0.50400001928E-02 0.  1.
    10030    2    1    2    0    0  0.00000000000E+00  0.00000000000E+00  0.24849582649E+03  0.17775516186E+04  0.17600964692E+04 0.  0.
        5    1    3    3  502    0 -0.58598144093E+01 -0.18597338678E+03 -0.74442313695E+03  0.76733847475E+03  0.46999998093E+01 0.  1.
       -5    1    3    3    0  502  0.58598144093E+01  0.18597338678E+03  0.99291896344E+03  0.10102131438E+04  0.46999998093E+01 0. -1.
</event>
<event>
 5   0  0.1711979E-04  0.1900773E+04  0.7818609E-02  0.8654472E-01
       -1   -1    0    0    0  501  0.00000000000E+00  0.00000000000E+00  0.82120705886E+03  0.82120705887E+03  0.50400001928E-02 0.  1.
        1   -1    0    0  501    0  0.00000000000E+00  0.00000000000E+00 -0.10998860435E+04  0.10998860436E+04  0.50400001928E-02 0. -1.
    10030    2    1    2    0    0  0.00000000000E+00  0.00000000000E+00 -0.27867898469E+03  0.19210931024E+04  0.19007726670E+04 0.  0.
        4    1    3    3  502    0 -0.12380757164E+03  0.81088725715E+03 -0.62443530991E+03  0.10309158684E+04  0.12699999809E+01 0. -1.
       -4    1    3    3    0  502  0.12380757164E+03 -0.81088725715E+03  0.34575632522E+03  0.89017723400E+03  0.12699999809E+01 0.  1.
</event>
<event>
 5   0  0.1694830E-04  0.1888208E+04  0.7818609E-02  0.8660748E-01
        1   -1    0    0  501    0  0.00000000000E+00  0.00000000000E+00  0.99526140733E+03  0.99526140734E+03  0.50400001928E-02 0.  1.
       -1   -1    0    0    0  501  0.00000000000E+00  0.00000000000E+00 -0.89557624454E+03  0.89557624456E+03  0.50400001928E-02 0. -1.
    10030    2    1    2    0    0  0.00000000000E+00  0.00000000000E+00  0.99685162787E+02  0.18908376519E+04  0.18882081173E+04 0.  0.
        1    1    3    3  502    0  0.11917944038E+03 -0.76968298900E+03  0.58417429602E+03  0.97358885096E+03  0.50400001928E-02 0.  1.
       -1    1    3    3    0  502 -0.11917944038E+03  0.76968298900E+03 -0.48448913324E+03  0.91724880093E+03  0.50400001928E-02 0. -1.
</event>
<event>
 5   0  0.3623359E-04  0.1744832E+04  0.7818609E-02  0.8736200E-01
        2   -1    0    0  501    0  0.00000000000E+00  0.00000000000E+00  0.93779940296E+03  0.93779940297E+03  0.25500000920E-02 0.  1.
       -2   -1    0    0    0  501  0.00000000000E+00  0.00000000000E+00 -0.81159137840E+03  0.81159137841E+03  0.25500000920E-02 0. -1.
    10030    2    1    2    0    0  0.00000000000E+00  0.00000000000E+00  0.12620802456E+03  0.17493907814E+04  0.17448322671E+04 0.  0.
        5    1    3    3  502    0  0.39474647936E+03 -0.72452644096E+03 -0.22105215962E+03  0.85419523171E+03  0.46999998093E+01 0. -1.
       -5    1    3    3    0  502 -0.39474647936E+03  0.72452644096E+03  0.34726018418E+03  0.89519554966E+03  0.46999998093E+01 0.  1.
</event>
<event>
 5   0  0.1711979E-04  0.1913083E+04  0.7818609E-02  0.8648371E-01
       -1   -1    0    0    0  501  0.00000000000E+00  0.00000000000E+00  0.85050372093E+03  0.85050372094E+03  0.50400001928E-02 0. -1.
        1   -1    0    0  501    0  0.00000000000E+00  0.00000000000E+00 -0.10757998941E+04  0.10757998941E+04  0.50400001928E-02 0.  1.
    10030    2    1    2    0    0  0.00000000000E+00  0.00000000000E+00 -0.22529617314E+03  0.19263036150E+04  0.19130831795E+04 0.  0.
        4    1    3    3  502    0 -0.88125805873E+03 -0.20792053590E+03 -0.42320039523E+03  0.99947331268E+03  0.12699999809E+01 0.  1.
       -4    1    3    3    0  502  0.88125805873E+03  0.20792053590E+03  0.19790422209E+03  0.92683030235E+03  0.12699999809E+01 0. -1.
</event>
<event>
 5   0  0.1287000E-04  0.1888312E+04  0.7818609E-02  0.8660696E-01
        4   -1    0    0  501    0  0.00000000000E+00  0.00000000000E+00  0.62050077877E+03  0.62050207844E+03  0.12699999809E+01 0. -1.
       -4   -1    0    0    0  501  0.00000000000E+00  0.00000000000E+00 -0.14366271171E+04  0.14366276784E+04  0.12699999809E+01 0.  1.
    10030    2    1    2    0    0  0.00000000000E+00  0.00000000000E+00 -0.81612633831E+03  0.20571297569E+04  0.18883115835E+04 0.  0.
        4    1    3    3  502    0 -0.81329087122E+03 -0.53237979119E+02 -0.92727732487E+03  0.12345530259E+04  0.12699999809E+01 0.  1.
       -4    1    3    3    0  502  0.81329087122E+03  0.53237979119E+02  0.11115098656E+03  0.82257673098E+03  0.12699999809E+01 0. -1.
</event>
<event>
 5   0  0.3459485E-04  0.1866371E+04  0.7818609E-02  0.8671779E-01
        2   -1    0    0  501    0  0.00000000000E+00  0.00000000000E+00  0.13887526790E+04  0.13887526790E+04  0.25500000920E-02 0.  1.
       -2   -1    0    0    0  501  0.00000000000E+00  0.00000000000E+00 -0.62706255996E+03  0.62706255997E+03  0.25500000920E-02 0. -1.
    10030    2    1    2    0    0  0.00000000000E+00  0.00000000000E+00  0.76169011902E+03  0.20158152390E+04  0.18663706063E+04 0.  0.
        3    1    3    3  502    0  0.48799982286E+03  0.60856134553E+03  0.93405306580E+03  0.12169411976E+04  0.10100000352E+00 0.  1.
       -3    1    3    3    0  502 -0.48799982286E+03 -0.60856134553E+03 -0.17236294678E+03  0.79887404140E+03  0.10100000352E+00 0. -1.
</event>
<event>
 5   0  0.3459485E-04  0.1901919E+04  0.7818609E-02  0.8653902E-01
        2   -1    0    0  501    0  0.00000000000E+00  0.00000000000E+00  0.19682770674E+04  0.19682770674E+04  0.25500000920E-02 0. -1.
       -2   -1    0    0    0  501  0.00000000000E+00  0.00000000000E+00 -0.45944976714E+03  0.45944976715E+03  0.25500000920E-02 0.  1.
    10030    2    1    2    0    0  0.00000000000E+00  0.00000000000E+00  0.15088273002E+04  0.24277268345E+04  0.19019194939E+04 0.  0.
        3    1    3    3  502    0 -0.20566182690E+03 -0.91664906855E+03  0.56602365131E+03  0.10967794154E+04  0.10100000352E+00 0. -1.
       -3    1    3    3    0  502  0.20566182690E+03  0.91664906855E+03  0.94280364891E+03  0.13309474191E+04  0.10100000352E+00 0.  1.
</event>
<event>
 5   0  0.1813834E-04  0.1864578E+04  0.7818609E-02  0.8672692E-01
        1   -1    0    0  501    0  0.00000000000E+00  0.00000000000E+00  0.58449914078E+03  0.58449914080E+03  0.50400001928E-02 0. -1.
       -1   -1    0    0    0  501  0.00000000000E+00  0.00000000000E+00 -0.14870221018E+04  0.14870221018E+04  0.50400001928E-02 0.  1.
    10030    2    1    2    0    0  0.00000000000E+00  0.00000000000E+00 -0.90252296105E+03  0.20715212426E+04  0.18645783876E+04 0.  0.
        5    1    3    3  502    0  0.80726697478E+03  0.28710665887E+03 -0.85951058796E+03  0.12136271021E+04  0.46999998093E+01 0.  1.
       -5    1    3    3    0  502 -0.80726697478E+03 -0.28710665887E+03 -0.43012373099E+02  0.85789414054E+03  0.46999998093E+01 0. -1.
</event>
<event>
 5   0  0.3623359E-04  0.1871270E+04  0.7818609E-02  0.8669291E-01
        2   -1    0    0  501    0  0.00000000000E+00  0.00000000000E+00  0.11860561041E+04  0.11860561041E+04  0.25500000920E-02 0. -1.
       -2   -1    0    0    0  501  0.00000000000E+00  0.00000000000E+00 -0.73808720573E+03  0.73808720574E+03  0.25500000920E-02 0.  1.
    10030    2    1    2    0    0  0.00000000000E+00  0.00000000000E+00  0.44796889833E+03  0.19241433098E+04  0.18712699813E+04 0.  0.
        5    1    3    3  502    0 -0.11552330771E+03  0.90674830338E+03  0.42925631637E+03  0.10098619685E+04  0.46999998093E+01 0. -1.
       -5    1    3    3    0  502  0.11552330771E+03 -0.90674830338E+03  0.18712581962E+02  0.91428134129E+03  0.46999998093E+01 0.  1.
</event>
<event>
 5   0  0.3459485E-04  0.1958042E+04  0.7818609E-02  0.8626493E-01
        2   -1    0    0  501    0  0.00000000000E+00  0.00000000000E+00  0.16432862348E+04  0.16432862348E+04  0.25500000920E-02 0.  1.
       -2   -1    0    0    0  501  0.00000000000E+00  0.00000000000E+00 -0.58327141738E+03  0.58327141738E+03  0.25500000920E-02 0. -1.
    10030    2    1    2    0    0  0.00000000000E+00  0.00000000000E+00  0.10600148174E+04  0.22265576522E+04  0.19580417680E+04 0.  0.
        3    1    3    3  502    0  0.22407289811E+03 -0.93732128065E+03  0.72598440212E+03  0.12065791351E+04  0.10100000352E+00 0. -1.
       -3    1    3    3    0  502 -0.22407289811E+03  0.93732128065E+03  0.33403041528E+03  0.10199785171E+04  0.10100000352E+00 0.  1.
</event>
<event>
 5   0  0.1782613E-04  0.1934316E+04  0.7818609E-02  0.8637961E-01
       -1   -1    0    0    0  501  0.00000000000E+00  0.00000000000E+00  0.47508676950E+03  0.47508676953E+03  0.50400001928E-02 0.  1.
        1   -1    0    0  501    0  0.00000000000E+00  0.00000000000E+00 -0.19688927222E+04  0.19688927222E+04  0.50400001928E-02 0. -1.
    10030    2    1    2    0    0  0.00000000000E+00  0.00000000000E+00 -0.14938059527E+04  0.24439794917E+04  0.19343162957E+04 0.  0.
        3    1    3    3  502    0 -0.25262828963E+03 -0.68849849089E+03  0.49737697102E+02  0.73506807398E+03  0.10100000352E+00 0.  1.
       -3    1    3    3    0  502  0.25262828963E+03  0.68849849089E+03 -0.15435436498E+04  0.17089114177E+04  0.10100000352E+00 0. -1.
</event>
<event>
 5   0  0.1782613E-04  0.1959034E+04  0.7818609E-02  0.8626017E-01
        1   -1    0    0  501    0  0.00000000000E+00  0.00000000000E+00  0.14351365034E+04  0.14351365034E+04  0.50400001928E-02 0. -1.
       -1   -1    0    0    0  501  0.00000000000E+00  0.00000000000E+00 -0.66854545376E+03  0.66854545378E+03  0.50400001928E-02 0.  1.
    10030    2    1    2    0    0  0.00000000000E+00  0.00000000000E+00  0.76659104967E+03  0.21036819572E+04  0.19590344407E+04 0.  0.
        3    1    3    3  502    0  0.43357613989E+03 -0.87290212148E+03  0.27858911270E+03  0.10136854969E+04  0.10100000352E+00 0.  1.
       -3    1    3    3    0  502 -0.43357613989E+03  0.87290212148E+03  0.48800193697E+03  0.10899964603E+04  0.10100000352E+00 0. -1.
</event>
<event>
 5   0  0.1711979E-04  0.1932034E+04  0.7818609E-02  0.8639073E-01
        1   -1    0    0  501    0  0.00000000000E+00  0.00000000000E+00  0.14740728035E+04  0.14740728035E+04  0.50400001928E-02 0.  1.
       -1   -1    0    0    0  501  0.00000000000E+00  0.00000000000E+00 -0.63306840789E+03  0.63306840791E+03  0.50400001928E-02 0. -1.
    10030    2    1    2    0    0  0.00000000000E+00  0.00000000000E+00  0.84100439558E+03  0.21071412114E+04  0.19320340813E+04 0.  0.
        4    1    3    3  502    0  0.84555879774E+03  0.33940795359E+03  0.70444721170E+02  0.91385530093E+03  0.12699999809E+01 0. -1.
       -4    1    3    3    0  502 -0.84555879774E+03 -0.33940795359E+03  0.77055967441E+03  0.11932859105E+04  0.12699999809E+01 0.  1.
</event>
<event>
 5   0  0.3720978E-04  0.1951114E+04  0.7818609E-02  0.8629824E-01
        2   -1    0    0  501    0  0.00000000000E+00  0.00000000000E+00  0.10984364382E+04  0.10984364382E+04  0.25500000920E-02 0. -1.
       -2   -1    0    0    0  501  0.00000000000E+00  0.00000000000E+00 -0.86642364546E+03  0.86642364546E+03  0.25500000920E-02 0.  1.
    10030    2    1    2    0    0  0.00000000000E+00  0.00000000000E+00  0.23201279275E+03  0.19648600837E+04  0.19511138389E+04 0.  0.
        1    1    3    3  502    0 -0.76998829053E+03 -0.23101036623E+03  0.67258783032E+03  0.10481517764E+04  0.50400001928E-02 0. -1.
       -1    1    3    3    0  502  0.76998829053E+03  0.23101036623E+03 -0.44057503756E+03  0.91670830727E+03  0.50400001928E-02 0.  1.
</event>
<event>
 5   0  0.1287000E-04  0.1897902E+04  0.7818609E-02  0.8655901E-01
        4   -1    0    0  501    0  0.00000000000E+00  0.00000000000E+00  0.71489488671E+03  0.71489601478E+03  0.12699999809E+01 0. -1.
       -4   -1    0    0    0  501  0.00000000000E+00  0.00000000000E+00 -0.12596348414E+04  0.12596354816E+04  0.12699999809E+01 0.  1.
    10030    2    1    2    0    0  0.00000000000E+00  0.00000000000E+00 -0.54473995469E+03  0.19745314964E+04  0.18979022662E+04 0.  0.
        2    1    3    3  502    0  0.21369966854E+03  0.77970483472E+03  0.24458379888E+03  0.84464691576E+03  0.25500000920E-02 0. -1.
       -2    1    3    3    0  502 -0.21369966854E+03 -0.77970483472E+03 -0.78932375357E+03  0.11298845806E+04  0.25500000920E-02 0.  1.
</event>
<event>
 5   0  0.3535876E-04  0.1898028E+04  0.7818609E-02  0.8655838E-01
        2   -1    0    0  501    0  0.00000000000E+00  0.00000000000E+00  0.15379258238E+04  0.15379258238E+04  0.25500000920E-02 0.  1.
       -2   -1    0    0    0  501  0.00000000000E+00  0.00000000000E+00 -0.58561213568E+03  0.58561213569E+03  0.25500000920E-02 0. -1.
    10030    2    1    2    0    0  0.00000000000E+00  0.00000000000E+00  0.95231368807E+03  0.21235379594E+04  0.18980284784E+04 0.  0.
        2    1    3    3  502    0  0.75412022630E+03 -0.46648056092E+03  0.85445214101E+03  0.12314178376E+04  0.25500000920E-02 0.  1.
       -2    1    3    3    0  502 -0.75412022630E+03  0.46648056092E+03  0.97861547066E+02  0.89212012186E+03  0.25500000920E-02 0. -1.
</event>
<event>
 5   0  0.3459485E-04  0.1716368E+04  0.7818609E-02  0.8752084E-01
       -2   -1    0    0    0  501  0.00000000000E+00  0.00000000000E+00  0.38795564746E+03  0.38795564746E+03  0.25500000920E-02 0.  1.
        2   -1    0    0  501    0  0.00000000000E+00  0.00000000000E+00 -0.18983600554E+04  0.18983600554E+04  0.25500000920E-02 0. -1.
    10030    2    1    2    0    0  0.00000000000E+00  0.00000000000E+00 -0.15104044080E+04  0.22863157029E+04  0.17163676814E+04 0.  0.
        3    1    3    3  502    0 -0.16287699479E+03  0.36877866281E+03 -0.17643714086E+04  0.18098433897E+04  0.10100000352E+00 0. -1.
       -3    1    3    3    0  502  0.16287699479E+03 -0.36877866281E+03  0.25396700067E+03  0.47647231315E+03  0.10100000352E+00 0.  1.
</event>
<event>
 5   0  0.1758946E-04  0.1913464E+04  0.7818609E-02  0.8648183E-01
       -1   -1    0    0    0  501  0.00000000000E+00  0.00000000000E+00  0.92671077006E+03  0.92671077008E+03  0.50400001928E-02 0.  1.
        1   -1    0    0  501    0  0.00000000000E+00  0.00000000000E+00 -0.98772597329E+03  0.98772597331E+03  0.50400001928E-02 0. -1.
    10030    2    1    2    0    0  0.00000000000E+00  0.00000000000E+00 -0.61015203232E+02  0.19144367434E+04  0.19134641856E+04 0.  0.
        2    1    3    3  502    0 -0.67807326448E+03  0.65031348242E+03  0.15026439198E+03  0.95145696956E+03  0.25500000920E-02 0. -1.
       -2    1    3    3    0  502  0.67807326448E+03 -0.65031348242E+03 -0.21127959522E+03  0.96297977382E+03  0.25500000920E-02 0.  1.
</event>
<event>
 5   0  0.1694830E-04  0.1610418E+04  0.7818609E-02  0.8814173E-01
        1   -1    0    0  501    0  0.00000000000E+00  0.00000000000E+00  0.10613127139E+04  0.10613127139E+04  0.50400001928E-02 0.  1.
       -1   -1    0    0    0  501  0.00000000000E+00  0.00000000000E+00 -0.61090556059E+03  0.61090556061E+03  0.50400001928E-02 0. -1.
    10030    2    1    2    0    0  0.00000000000E+00  0.00000000000E+00  0.45040715333E+03  0.16722182745E+04  0.16104183785E+04 0.  0.
        1    1    3    3  502    0  0.42159956490E+03  0.60818658488E+03 -0.10434716134E+03  0.74734559961E+03  0.50400001928E-02 0. -1.
       -1    1    3    3    0  502 -0.42159956490E+03 -0.60818658488E+03  0.55475431466E+03  0.92487267492E+03  0.50400001928E-02 0.  1.
</event>
<event>
 5   0  0.3459485E-04  0.1900427E+04  0.7818609E-02  0.8654644E-01
       -2   -1    0    0    0  501  0.00000000000E+00  0.00000000000E+00  0.78523660092E+03  0.78523660092E+03  0.25500000920E-02 0. -1.
        2   -1    0    0  501    0  0.00000000000E+00  0.00000000000E+00 -0.11498523441E+04  0.11498523441E+04  0.25500000920E-02 0.  1.
    10030    2    1    2    0    0  0.00000000000E+00  0.00000000000E+00 -0.36461574321E+03  0.19350889451E+04  0.19004274743E+04 0.  0.
        3    1    3    3  502    0 -0.47343979659E+03  0.24705280494E+03 -0.98259808148E+03  0.11183377528E+04  0.10100000352E+00 0.  1.
       -3    1    3    3    0  502  0.47343979659E+03 -0.24705280494E+03  0.61798233827E+03  0.81675119225E+03  0.10100000352E+00 0. -1.
</event>
<event>
 5   0  0.3623359E-04  0.1878595E+04  0.7818609E-02  0.8665585E-01
        2   -1    0    0  501    0  0.00000000000E+00  0.00000000000E+00  0.20597285033E+04  0.20597285033E+04  0.25500000920E-02 0. -1.
       -2   -1    0    0    0  501  0.00000000000E+00  0.00000000000E+00 -0.42834760558E+03  0.42834760559E+03  0.25500000920E-02 0.  1.
    10030    2    1    2    0    0  0.00000000000E+00  0.00000000000E+00  0.16313808977E+04  0.24880761089E+04  0.18785949777E+04 0.  0.
        5    1    3    3  502    0  0.40516486668E+03 -0.52754313507E+03  0.16940186156E+04  0.18199399684E+04  0.46999998093E+01 0. -1.
       -5    1    3    3    0  502 -0.40516486668E+03  0.52754313507E+03 -0.62637717877E+02  0.66813614051E+03  0.46999998093E+01 0.  1.
</event>
<event>
 5   0  0.1782613E-04  0.1865653E+04  0.7818609E-02  0.8672145E-01
       -1   -1    0    0    0  501  0.00000000000E+00  0.00000000000E+00  0.37530784394E+03  0.37530784397E+03  0.50400001928E-02 0.  1.
        1   -1    0    0  501    0  0.00000000000E+00  0.00000000000E+00 -0.23185364083E+04  0.23185364083E+04  0.50400001928E-02 0. -1.
    10030    2    1    2    0    0  0.00000000000E+00  0.00000000000E+00 -0.19432285643E+04  0.26938442522E+04  0.18656525942E+04 0.  0.
        3    1    3    3  502    0 -0.38397288630E+02  0.61538654640E+03  0.39116021819E+02  0.61782281168E+03  0.10100000352E+00 0.  1.
       -3    1    3    3    0  502  0.38397288630E+02 -0.61538654640E+03 -0.19823445861E+04  0.20760214406E+04  0.10100000352E+00 0. -1.
</event>
<event>
 5   0  0.1758946E-04  0.1823550E+04  0.7818609E-02  0.8693875E-01
       -1   -1    0    0    0  501  0.00000000000E+00  0.00000000000E+00  0.14522828497E+04  0.14522828497E+04  0.50400001928E-02 0.  1.
        1   -1    0    0  501    0  0.00000000000E+00  0.00000000000E+00 -0.57243248345E+03  0.57243248347E+03  0.50400001928E-02 0. -1.
    10030    2    1    2    0    0  0.00000000000E+00  0.00000000000E+00  0.87985036624E+03  0.20247153332E+04  0.18235502498E+04 0.  0.
        2    1    3    3  502    0  0.64948160723E+03 -0.30771392182E+03  0.10629095678E+04  0.12830787058E+04  0.25500000920E-02 0.  1.
       -2    1    3    3    0  502 -0.64948160723E+03  0.30771392182E+03 -0.18305920158E+03  0.74163662740E+03  0.25500000920E-02 0. -1.
</event>
<event>
 5   0  0.1758946E-04  0.1862018E+04  0.7818609E-02  0.8673997E-01
       -1   -1    0    0    0  501  0.00000000000E+00  0.00000000000E+00  0.10869859236E+04  0.10869859236E+04  0.50400001928E-02 0.  1.
        1   -1    0    0  501    0  0.00000000000E+00  0.00000000000E+00 -0.79741385825E+03  0.79741385827E+03  0.50400001928E-02 0. -1.
    10030    2    1    2    0    0  0.00000000000E+00  0.00000000000E+00  0.28957206533E+03  0.18843997819E+04  0.18620178723E+04 0.  0.
        2    1    3    3  502    0 -0.66609036222E+03  0.41612060408E+03  0.65074040094E+03  0.10199489189E+04  0.25500000920E-02 0.  1.
       -2    1    3    3    0  502  0.66609036222E+03 -0.41612060408E+03 -0.36116833561E+03  0.86445086294E+03  0.25500000920E-02 0. -1.
</event>
<event>
 5   0  0.3516539E-04  0.1838122E+04  0.7818609E-02  0.8686285E-01
        2   -1    0    0  501    0  0.00000000000E+00  0.00000000000E+00  0.81081961149E+03  0.81081961150E+03  0.25500000920E-02 0. -1.
       -2   -1    0    0    0  501  0.00000000000E+00  0.00000000000E+00 -0.10417523698E+04  0.10417523698E+04  0.25500000920E-02 0.  1.
    10030    2    1    2    0    0  0.00000000000E+00  0.00000000000E+00 -0.23093275826E+03  0.18525719813E+04  0.18381221415E+04 0.  0.
        4    1    3    3  502    0  0.52134964106E+03  0.75496608417E+03 -0.61262536254E+02  0.91952919895E+03  0.12699999809E+01 0.  1.
       -4    1    3    3    0  502 -0.52134964106E+03 -0.75496608417E+03 -0.16967022201E+03  0.93304278231E+03  0.12699999809E+01 0. -1.
</event>
<event>
 5   0  0.1813834E-04  0.1874768E+04  0.7818609E-02  0.8667519E-01
        1   -1    0    0  501    0  0.00000000000E+00  0.00000000000E+00  0.89256498811E+03  0.89256498813E+03  0.50400001928E-02 0. -1.
       -1   -1    0    0    0  501  0.00000000000E+00  0.00000000000E+00 -0.98445390863E+03  0.98445390865E+03  0.50400001928E-02 0.  1.
    10030    2    1    2    0    0  0.00000000000E+00  0.00000000000E+00 -0.91888920519E+02  0.18770188968E+04  0.18747683497E+04 0.  0.
        5    1    3    3  502    0 -0.30961624065E+03 -0.80286918360E+03 -0.41815122229E+03  0.95673072343E+03  0.46999998093E+01 0. -1.
       -5    1    3    3    0  502  0.30961624065E+03  0.80286918360E+03  0.32626230177E+03  0.92028817335E+03  0.46999998093E+01 0.  1.
</event>
<event>
 5   0  0.3623359E-04  0.1801830E+04  0.7818609E-02  0.8705327E-01
        2   -1    0    0  501    0  0.00000000000E+00  0.00000000000E+00  0.72452509949E+03  0.72452509949E+03  0.25500000920E-02 0.  1.
       -2   -1    0    0    0  501  0.00000000000E+00  0.00000000000E+00 -0.11202477164E+04  0.11202477164E+04  0.25500000920E-02 0. -1.
    10030    2    1    2    0    0  0.00000000000E+00  0.00000000000E+00 -0.39572261689E+03  0.18447728159E+04  0.18018297236E+04 0.  0.
        5    1    3    3  502    0  0.64709708717E+03  0.45362449217E+03 -0.64073943600E+03  0.10173882911E+04  0.46999998093E+01 0. -1.
       -5    1    3    3    0  502 -0.64709708717E+03 -0.45362449217E+03  0.24501681911E+03  0.82738452473E+03  0.46999998093E+01 0.  1.
</event>
<event>
 5   0  0.1758946E-04  0.1942551E+04  0.7818609E-02  0.8633961E-01
        1   -1    0    0  501    0  0.00000000000E+00  0.00000000000E+00  0.16996330224E+04  0.16996330224E+04  0.50400001928E-02 0.  1.
       -1   -1    0    0    0  501  0.00000000000E+00  0.00000000000E+00 -0.55504667432E+03  0.55504667434E+03  0.50400001928E-02 0. -1.
    10030    2    1    2    0    0  0.00000000000E+00  0.00000000000E+00  0.11445863481E+04  0.22546796967E+04  0.19425505468E+04 0.  0.
        2    1    3    3  502    0  0.28318097727E+03  0.46847050458E+03 -0.35894524399E+03  0.65459740890E+03  0.25500000920E-02 0. -1.
       -2    1    3    3    0  502 -0.28318097727E+03 -0.46847050458E+03  0.15035315921E+04  0.16000822879E+04  0.25500000920E-02 0.  1.
</event>
<event>
 5   0  0.3720978E-04  0.1866064E+04  0.7818609E-02  0.8671935E-01
       -2   -1    0    0    0  501  0.00000000000E+00  0.00000000000E+00  0.92689411685E+03  0.92689411686E+03  0.25500000920E-02 0.  1.
        2   -1    0    0  501    0  0.00000000000E+00  0.00000000000E+00 -0.93921087133E+03  0.93921087133E+03  0.25500000920E-02 0. -1.
    10030    2    1    2    0    0  0.00000000000E+00  0.00000000000E+00 -0.12316754474E+02  0.18661049882E+04  0.18660643409E+04 0.  0.
        1    1    3    3  502    0  0.53187755155E+02  0.14986336267E+03 -0.92555920944E+03  0.93912076698E+03  0.50400001928E-02 0. -1.
       -1    1    3    3    0  502 -0.53187755155E+02 -0.14986336267E+03  0.91324245497E+03  0.92698422120E+03  0.50400001928E-02 0.  1.
</event>
<event>
 5   0  0.1813834E-04  0.1528399E+04  0.7818609E-02  0.8865784E-01
       -1   -1    0    0    0  501  0.00000000000E+00  0.00000000000E+00  0.66529172260E+03  0.66529172262E+03  0.50400001928E-02 0.  1.
        1   -1    0    0  501    0  0.00000000000E+00  0.00000000000E+00 -0.87781217157E+03  0.87781217159E+03  0.50400001928E-02 0. -1.
    10030    2    1    2    0    0  0.00000000000E+00  0.00000000000E+00 -0.21252044897E+03  0.15431038942E+04  0.15283993873E+04 0.  0.
        5    1    3    3  502    0  0.37135029785E+03 -0.64833089632E+03  0.55736224110E+02  0.74924135731E+03  0.46999998093E+01 0. -1.
       -5    1    3    3    0  502 -0.37135029785E+03  0.64833089632E+03 -0.26825667308E+03  0.79386253689E+03  0.46999998093E+01 0.  1.
</event>
<event>
 5   0  0.1758946E-04  0.1801130E+04  0.7818609E-02  0.8705699E-01
       -1   -1    0    0    0  501  0.00000000000E+00  0.00000000000E+00  0.60081405043E+03  0.60081405046E+03  0.50400001928E-02 0. -1.
        1   -1    0    0  501    0  0.00000000000E+00  0.00000000000E+00 -0.13498640646E+04  0.13498640647E+04  0.50400001928E-02 0.  1.
    10030    2    1    2    0    0  0.00000000000E+00  0.00000000000E+00 -0.74905001421E+03  0.19506781151E+04  0.18011299745E+04 0.  0.
        2    1    3    3  502    0  0.68369914610E+03 -0.58605882768E+03 -0.38577103116E+03  0.97965747094E+03  0.25500000920E-02 0.  1.
       -2    1    3    3    0  502 -0.68369914610E+03  0.58605882768E+03 -0.36327898305E+03  0.97102064417E+03  0.25500000920E-02 0. -1.
</event>
<event>
 5   0  0.3535876E-04  0.2145881E+04  0.7818609E-02  0.8541298E-01
        2   -1    0    0  501    0  0.00000000000E+00  0.00000000000E+00  0.17562501931E+04  0.17562501931E+04  0.25500000920E-02 0.  1.
       -2   -1    0    0    0  501  0.00000000000E+00  0.00000000000E+00 -0.65548808895E+03  0.65548808896E+03  0.25500000920E-02 0. -1.
    10030    2    1    2    0    0  0.00000000000E+00  0.00000000000E+00  0.11007621041E+04  0.24117382820E+04  0.21458807821E+04 0.  0.
        2    1    3    3  502    0  0.43997524343E+03 -0.20680296832E+03 -0.52460001336E+03  0.71522783542E+03  0.25500000920E-02 0. -1.
       -2    1    3    3    0  502 -0.43997524343E+03  0.20680296832E+03  0.16253621175E+04  0.16965104466E+04  0.25500000920E-02 0.  1.
</event>
<event>
 5   0  0.3535876E-04  0.1883317E+04  0.7818609E-02  0.8663206E-01
        2   -1    0    0  501    0  0.00000000000E+00  0.00000000000E+00  0.10017822234E+04  0.10017822234E+04  0.25500000920E-02 0.  1.
       -2   -1    0    0    0  501  0.00000000000E+00  0.00000000000E+00 -0.88514302569E+03  0.88514302569E+03  0.25500000920E-02 0. -1.
    10030    2    1    2    0    0  0.00000000000E+00  0.00000000000E+00  0.11663919775E+03  0.18869252491E+04  0.18833168064E+04 0.  0.
        2    1    3    3  502    0  0.29392543602E+03 -0.74093904124E+03  0.56061609941E+03  0.97451179351E+03  0.25500000920E-02 0.  1.
       -2    1    3    3    0  502 -0.29392543602E+03  0.74093904124E+03 -0.44397690166E+03  0.91241345562E+03  0.25500000920E-02 0. -1.
</event>
<event>
 5   0  0.3516539E-04  0.1905077E+04  0.7818609E-02  0.8652333E-01
       -2   -1    0    0    0  501  0.00000000000E+00  0.00000000000E+00  0.12274678646E+04  0.12274678646E+04  0.25500000920E-02 0.  1.
        2   -1    0    0  501    0  0.00000000000E+00  0.00000000000E+00 -0.73918817774E+03  0.73918817774E+03  0.25500000920E-02 0. -1.
    10030    2    1    2    0    0  0.00000000000E+00  0.00000000000E+00  0.48827968688E+03  0.19666560424E+04  0.19050771471E+04 0.  0.
        4    1    3    3  502    0 -0.81426662942E+03  0.28545877919E+02  0.75352966620E+03  0.11097988924E+04  0.12699999809E+01 0. -1.
       -4    1    3    3    0  502  0.81426662942E+03 -0.28545877919E+02 -0.26524997932E+03  0.85685714992E+03  0.12699999809E+01 0.  1.
</event>
<event>
 5   0  0.3535876E-04  0.1882110E+04  0.7818609E-02  0.8663813E-01
        2   -1    0    0  501    0  0.00000000000E+00  0.00000000000E+00  0.11065771335E+04  0.11065771335E+04  0.25500000920E-02 0.  1.
       -2   -1    0    0    0  501  0.00000000000E+00  0.00000000000E+00 -0.80029191546E+03  0.80029191547E+03  0.25500000920E-02 0. -1.
    10030    2    1    2    0    0  0.00000000000E+00  0.00000000000E+00  0.30628521803E+03  0.19068690490E+04  0.18821102346E+04 0.  0.
        2    1    3    3  502    0 -0.16433128199E+03  0.50783458284E+02 -0.78423149244E+03  0.80287157356E+03  0.25500000920E-02 0. -1.
       -2    1    3    3    0  502  0.16433128199E+03 -0.50783458284E+02  0.10905167105E+04  0.11039974754E+04  0.25500000920E-02 0.  1.
</event>
<event>
 5   0  0.3535876E-04  0.1870392E+04  0.7818609E-02  0.8669736E-01
       -2   -1    0    0    0  501  0.00000000000E+00  0.00000000000E+00  0.11213419673E+04  0.11213419673E+04  0.25500000920E-02 0.  1.
        2   -1    0    0  501    0  0.00000000000E+00  0.00000000000E+00 -0.77995057469E+03  0.77995057469E+03  0.25500000920E-02 0. -1.
    10030    2    1    2    0    0  0.00000000000E+00  0.00000000000E+00  0.34139139259E+03  0.19012925420E+04  0.18703917363E+04 0.  0.
        2    1    3    3  502    0 -0.41197007737E+03  0.57409341388E+03 -0.45203335215E+03  0.83883058121E+03  0.25500000920E-02 0. -1.
       -2    1    3    3    0  502  0.41197007737E+03 -0.57409341388E+03  0.79342474474E+03  0.10624619608E+04  0.25500000920E-02 0.  1.
</event>
<event>
 5   0  0.3459485E-04  0.1856412E+04  0.7818609E-02  0.8676863E-01
        2   -1    0    0  501    0  0.00000000000E+00  0.00000000000E+00  0.96083753295E+03  0.96083753296E+03  0.25500000920E-02 0. -1.
       -2   -1    0    0    0  501  0.00000000000E+00  0.00000000000E+00 -0.89668229368E+03  0.89668229369E+03  0.25500000920E-02 0.  1.
    10030    2    1    2    0    0  0.00000000000E+00  0.00000000000E+00  0.64155239270E+02  0.18575198266E+04  0.18564115954E+04 0.  0.
        3    1    3    3  502    0 -0.66981435872E+03 -0.62042759219E+03 -0.13530739243E+03  0.92297875000E+03  0.10100000352E+00 0. -1.
       -3    1    3    3    0  502  0.66981435872E+03  0.62042759219E+03  0.19946263170E+03  0.93454107665E+03  0.10100000352E+00 0.  1.
</event>
<event>
 5   0  0.1711979E-04  0.1893897E+04  0.7818609E-02  0.8657900E-01
       -1   -1    0    0    0  501  0.00000000000E+00  0.00000000000E+00  0.68456485397E+03  0.68456485399E+03  0.50400001928E-02 0. -1.
        1   -1    0    0  501    0  0.00000000000E+00  0.00000000000E+00 -0.13099005812E+04  0.13099005812E+04  0.50400001928E-02 0.  1.
    10030    2    1    2    0    0  0.00000000000E+00  0.00000000000E+00 -0.62533572719E+03  0.19944654352E+04  0.18938974630E+04 0.  0.
        4    1    3    3  502    0 -0.34724462838E+03  0.85433171219E+03 -0.86192901255E+02  0.92622477591E+03  0.12699999809E+01 0.  1.
       -4    1    3    3    0  502  0.34724462838E+03 -0.85433171219E+03 -0.53914282593E+03  0.10682406592E+04  0.12699999809E+01 0. -1.
</event>
<event>
 5   0  0.1694830E-04  0.1830425E+04  0.7818609E-02  0.8690285E-01
       -1   -1    0    0    0  501  0.00000000000E+00  0.00000000000E+00  0.76924566782E+03  0.76924566784E+03  0.50400001928E-02 0. -1.
        1   -1    0    0  501    0  0.00000000000E+00  0.00000000000E+00 -0.10888769472E+04  0.10888769472E+04  0.50400001928E-02 0.  1.
    10030    2    1    2    0    0  0.00000000000E+00  0.00000000000E+00 -0.31963127938E+03  0.18581226151E+04  0.18304249501E+04 0.  0.
        1    1    3    3  502    0  0.69954962294E+03  0.19058573524E+02  0.43892367862E+03  0.82606712793E+03  0.50400001928E-02 0. -1.
       -1    1    3    3    0  502 -0.69954962294E+03 -0.19058573524E+02 -0.75855495800E+03  0.10320554871E+04  0.50400001928E-02 0.  1.
</event>
<event>
 5   0  0.1782613E-04  0.1889695E+04  0.7818609E-02  0.8660003E-01
        1   -1    0    0  501    0  0.00000000000E+00  0.00000000000E+00  0.17521342421E+04  0.17521342421E+04  0.50400001928E-02 0. -1.
       -1   -1    0    0    0  501  0.00000000000E+00  0.00000000000E+00 -0.50951401025E+03  0.50951401028E+03  0.50400001928E-02 0.  1.
    10030    2    1    2    0    0  0.00000000000E+00  0.00000000000E+00  0.12426202319E+04  0.22616482524E+04  0.18896951545E+04 0.  0.
        3    1    3    3  502    0  0.68536630752E+03  0.27098205241E+02  0.13990445527E+04  0.15581357319E+04  0.10100000352E+00 0. -1.
       -3    1    3    3    0  502 -0.68536630752E+03 -0.27098205241E+02 -0.15642432085E+03  0.70351252054E+03  0.10100000352E+00 0.  1.
</event>
<event>
 5   0  0.1758946E-04  0.1831005E+04  0.7818609E-02  0.8689983E-01
        1   -1    0    0  501    0  0.00000000000E+00  0.00000000000E+00  0.12794919411E+04  0.12794919411E+04  0.50400001928E-02 0.  1.
       -1   -1    0    0    0  501  0.00000000000E+00  0.00000000000E+00 -0.65506093684E+03  0.65506093686E+03  0.50400001928E-02 0. -1.
    10030    2    1    2    0    0  0.00000000000E+00  0.00000000000E+00  0.62443100428E+03  0.19345528780E+04  0.18310053956E+04 0.  0.
        2    1    3    3  502    0 -0.36182365058E+03 -0.13838265116E+03 -0.56420021445E+03  0.68438877420E+03  0.25500000920E-02 0. -1.
       -2    1    3    3    0  502  0.36182365058E+03  0.13838265116E+03  0.11886312187E+04  0.12501641038E+04  0.25500000920E-02 0.  1.
</event>
<event>
 5   0  0.1694830E-04  0.1885577E+04  0.7818609E-02  0.8662069E-01
       -1   -1    0    0    0  501  0.00000000000E+00  0.00000000000E+00  0.60738547423E+03  0.60738547425E+03  0.50400001928E-02 0. -1.
        1   -1    0    0  501    0  0.00000000000E+00  0.00000000000E+00 -0.14634040877E+04  0.14634040877E+04  0.50400001928E-02 0.  1.
    10030    2    1    2    0    0  0.00000000000E+00  0.00000000000E+00 -0.85601861344E+03  0.20707895619E+04  0.18855772440E+04 0.  0.
        1    1    3    3  502    0 -0.10174079735E+03 -0.39804129922E+03 -0.13599251210E+04  0.14206281711E+04  0.50400001928E-02 0.  1.
       -1    1    3    3    0  502  0.10174079735E+03  0.39804129922E+03  0.50390650757E+03  0.65016139083E+03  0.50400001928E-02 0. -1.
</event>
<event>
 5   0  0.3516539E-04  0.1888197E+04  0.7818609E-02  0.8660754E-01
       -2   -1    0    0    0  501  0.00000000000E+00  0.00000000000E+00  0.96305087373E+03  0.96305087374E+03  0.25500000920E-02 0. -1.
        2   -1    0    0  501    0  0.00000000000E+00  0.00000000000E+00 -0.92551888494E+03  0.92551888494E+03  0.25500000920E-02 0.  1.
    10030    2    1    2    0    0  0.00000000000E+00  0.00000000000E+00  0.37531988793E+02  0.18885697587E+04  0.18881967809E+04 0.  0.
        4    1    3    3  502    0  0.89604421498E+03  0.85065992461E+02 -0.26622659745E+03  0.93862115487E+03  0.12699999809E+01 0.  1.
       -4    1    3    3    0  502 -0.89604421498E+03 -0.85065992461E+02  0.30375858624E+03  0.94994860381E+03  0.12699999809E+01 0. -1.
</event>
<event>
 5   0  0.3516539E-04  0.1958569E+04  0.7818609E-02  0.8626240E-01
       -2   -1    0    0    0  501  0.00000000000E+00  0.00000000000E+00  0.48340874056E+03  0.48340874057E+03  0.25500000920E-02 0. -1.
        2   -1    0    0  501    0  0.00000000000E+00  0.00000000000E+00 -0.19838240709E+04  0.19838240710E+04  0.25500000920E-02 0.  1.
    10030    2    1    2    0    0  0.00000000000E+00  0.00000000000E+00 -0.15004153304E+04  0.24672328115E+04  0.19585687587E+04 0.  0.
        4    1    3    3  502    0 -0.40952549121E+03 -0.65736503286E+03  0.47334790693E+01  0.77450883346E+03  0.12699999809E+01 0.  1.
       -4    1    3    3    0  502  0.40952549121E+03  0.65736503286E+03 -0.15051488095E+04  0.16927239781E+04  0.12699999809E+01 0. -1.
</event>
<event>
 5   0  0.3535876E-04  0.1914380E+04  0.7818609E-02  0.8647731E-01
       -2   -1    0    0    0  501  0.00000000000E+00  0.00000000000E+00  0.37076169590E+03  0.37076169591E+03  0.25500000920E-02 0.  1.
        2   -1    0    0  501    0  0.00000000000E+00  0.00000000000E+00 -0.24711633319E+04  0.24711633319E+04  0.25500000920E-02 0. -1.
    10030    2    1    2    0    0  0.00000000000E+00  0.00000000000E+00 -0.21004016360E+04  0.28419250278E+04  0.19143800122E+04 0.  0.
        2    1    3    3  502    0 -0.75153119894E+02 -0.49068841481E+03  0.16473591826E+03  0.52303062495E+03  0.25500000920E-02 0.  1.
       -2    1    3    3    0  502  0.75153119894E+02  0.49068841481E+03 -0.22651375542E+04  0.23188944028E+04  0.25500000920E-02 0. -1.
</event>
<event>
 5   0  0.1287000E-04  0.1877995E+04  0.7818609E-02  0.8665888E-01
        3   -1    0    0  501    0  0.00000000000E+00  0.00000000000E+00  0.30274491566E+04  0.30274491582E+04  0.10100000352E+00 0. -1.
       -3   -1    0    0    0  501  0.00000000000E+00  0.00000000000E+00 -0.29124069007E+03  0.29124070758E+03  0.10100000352E+00 0.  1.
    10030    2    1    2    0    0  0.00000000000E+00  0.00000000000E+00  0.27362084665E+04  0.33186898658E+04  0.18779951154E+04 0.  0.
        4    1    3    3  502    0  0.20646549577E+03 -0.82195979070E+03  0.20825837515E+04  0.22484222454E+04  0.12699999809E+01 0. -1.
       -4    1    3    3    0  502 -0.20646549577E+03  0.82195979070E+03  0.65362471497E+03  0.10702676205E+04  0.12699999809E+01 0.  1.
</event>
<event>
 5   0  0.1711979E-04  0.1856555E+04  0.7818609E-02  0.8676789E-01
        1   -1    0    0  501    0  0.00000000000E+00  0.00000000000E+00  0.11724969114E+04  0.11724969114E+04  0.50400001928E-02 0. -1.
       -1   -1    0    0    0  501  0.00000000000E+00  0.00000000000E+00 -0.73492657022E+03  0.73492657024E+03  0.50400001928E-02 0.  1.
    10030    2    1    2    0    0  0.00000000000E+00  0.00000000000E+00  0.43757034119E+03  0.19074234817E+04  0.18565550180E+04 0.  0.
        4    1    3    3  502    0 -0.93570169018E+02 -0.91671490407E+03  0.33400025400E+03  0.98014252762E+03  0.12699999809E+01 0.  1.
       -4    1    3    3    0  502  0.93570169018E+02  0.91671490407E+03  0.10357008719E+03  0.92728095404E+03  0.12699999809E+01 0. -1.
</event>
<event>
 5   0  0.1782613E-04  0.1914636E+04  0.7818609E-02  0.8647605E-01
       -1   -1    0    0    0  501  0.00000000000E+00  0.00000000000E+00  0.94906656040E+03  0.94906656041E+03  0.50400001928E-02 0. -1.
        1   -1    0    0  501    0  0.00000000000E+00  0.00000000000E+00 -0.96564147057E+03  0.96564147058E+03  0.50400001928E-02 0.  1.
    10030    2    1    2    0    0  0.00000000000E+00  0.00000000000E+00 -0.16574910171E+02  0.19147080310E+04  0.19146362883E+04 0.  0.
        3    1    3    3  502    0  0.30565760907E+03  0.45080839785E+03  0.77901787520E+03  0.95053860818E+03  0.10100000352E+00 0. -1.
       -3    1    3    3    0  502 -0.30565760907E+03 -0.45080839785E+03 -0.79559278537E+03  0.96416942282E+03  0.10100000352E+00 0.  1.
</event>
<event>
 5   0  0.1711979E-04  0.1899244E+04  0.7818609E-02  0.8655233E-01
        1   -1    0    0  501    0  0.00000000000E+00  0.00000000000E+00  0.97560090590E+03  0.97560090592E+03  0.50400001928E-02 0.  1.
       -1   -1    0    0    0  501  0.00000000000E+00  0.00000000000E+00 -0.92433492463E+03  0.92433492465E+03  0.50400001928E-02 0. -1.
    10030    2    1    2    0    0  0.00000000000E+00  0.00000000000E+00  0.51265981272E+02  0.18999358306E+04  0.18992440495E+04 0.  0.
        4    1    3    3  502    0 -0.11280593225E+03  0.80693030512E+03 -0.46231376052E+03  0.93680164482E+03  0.12699999809E+01 0. -1.
       -4    1    3    3    0  502  0.11280593225E+03 -0.80693030512E+03  0.51357974179E+03  0.96313418574E+03  0.12699999809E+01 0.  1.
</event>
<event>
 5   0  0.1711979E-04  0.1921459E+04  0.7818609E-02  0.8644248E-01
        1   -1    0    0  501    0  0.00000000000E+00  0.00000000000E+00  0.15059285442E+04  0.15059285442E+04  0.50400001928E-02 0. -1.
       -1   -1    0    0    0  501  0.00000000000E+00  0.00000000000E+00 -0.61291150186E+03  0.61291150188E+03  0.50400001928E-02 0.  1.
    10030    2    1    2    0    0  0.00000000000E+00  0.00000000000E+00  0.89301704238E+03  0.21188400461E+04  0.19214587435E+04 0.  0.
        4    1    3    3  502    0  0.66150876119E+03 -0.87625721423E+02  0.12086877257E+04  0.13806519255E+04  0.12699999809E+01 0. -1.
       -4    1    3    3    0  502 -0.66150876119E+03  0.87625721423E+02 -0.31567068335E+03  0.73818812061E+03  0.12699999809E+01 0.  1.
</event>
<event>
 5   0  0.3720978E-04  0.1685554E+04  0.7818609E-02  0.8769646E-01
        2   -1    0    0  501    0  0.00000000000E+00  0.00000000000E+00  0.10308097108E+04  0.10308097108E+04  0.25500000920E-02 0. -1.
       -2   -1    0    0    0  501  0.00000000000E+00  0.00000000000E+00 -0.68904399870E+03  0.68904399871E+03  0.25500000920E-02 0.  1.
    10030    2    1    2    0    0  0.00000000000E+00  0.00000000000E+00  0.34176571205E+03  0.17198537095E+04  0.16855542056E+04 0.  0.
        1    1    3    3  502    0  0.30534638313E+03 -0.48280696972E+03 -0.46135022840E+03  0.73429082587E+03  0.50400001928E-02 0.  1.
       -1    1    3    3    0  502 -0.30534638313E+03  0.48280696972E+03  0.80311594044E+03  0.98556288359E+03  0.50400001928E-02 0. -1.
</event>
<event>
 5   0  0.3535876E-04  0.1918307E+04  0.7818609E-02  0.8645797E-01
        2   -1    0    0  501    0  0.00000000000E+00  0.00000000000E+00  0.14307519659E+04  0.14307519659E+04  0.25500000920E-02 0. -1.
       -2   -1    0    0    0  501  0.00000000000E+00  0.00000000000E+00 -0.64300117063E+03  0.64300117063E+03  0.25500000920E-02 0.  1.
    10030    2    1    2    0    0  0.00000000000E+00  0.00000000000E+00  0.78775079524E+03  0.20737531365E+04  0.19183067418E+04 0.  0.
        2    1    3    3  502    0  0.18419836025E+03 -0.92018884984E+03  0.60817813978E+03  0.11182831506E+04  0.25500000920E-02 0.  1.
       -2    1    3    3    0  502 -0.18419836025E+03  0.92018884984E+03  0.17957265545E+03  0.95546998586E+03  0.25500000920E-02 0. -1.
</event>
<event>
 5   0  0.3459485E-04  0.1895793E+04  0.7818609E-02  0.8656953E-01
        2   -1    0    0  501    0  0.00000000000E+00  0.00000000000E+00  0.14232532177E+04  0.14232532177E+04  0.25500000920E-02 0. -1.
       -2   -1    0    0    0  501  0.00000000000E+00  0.00000000000E+00 -0.63130553585E+03  0.63130553585E+03  0.25500000920E-02 0.  1.
    10030    2    1    2    0    0  0.00000000000E+00  0.00000000000E+00  0.79194768185E+03  0.20545587536E+04  0.18957928529E+04 0.  0.
        3    1    3    3  502    0  0.35111357500E+03  0.88014342123E+03  0.36999915918E+03  0.10172672080E+04  0.10100000352E+00 0.  1.
       -3    1    3    3    0  502 -0.35111357500E+03 -0.88014342123E+03  0.42194852267E+03  0.10372915455E+04  0.10100000352E+00 0. -1.
</event>
<event>
 5   0  0.3623359E-04  0.1873303E+04  0.7818609E-02  0.8668261E-01
       -2   -1    0    0    0  501  0.00000000000E+00  0.00000000000E+00  0.81038642439E+03  0.81038642439E+03  0.25500000920E-02 0.  1.
        2   -1    0    0  501    0  0.00000000000E+00  0.00000000000E+00 -0.10825895357E+04  0.10825895357E+04  0.25500000920E-02 0. -1.
    10030    2    1    2    0    0  0.00000000000E+00  0.00000000000E+00 -0.27220311129E+03  0.18929759601E+04  0.18733028190E+04 0.  0.
        5    1    3    3  502    0  0.55665464478E+03 -0.59108959163E+03  0.33575246778E+03  0.87863707440E+03  0.46999998093E+01 0.  1.
       -5    1    3    3    0  502 -0.55665464478E+03  0.59108959163E+03 -0.60795557906E+03  0.10143388857E+04  0.46999998093E+01 0. -1.
</event>
<event>
 5   0  0.1813834E-04  0.1865442E+04  0.7818609E-02  0.8672252E-01
       -1   -1    0    0    0  501  0.00000000000E+00  0.00000000000E+00  0.69147804934E+03  0.69147804936E+03  0.50400001928E-02 0. -1.
        1   -1    0    0  501    0  0.00000000000E+00  0.00000000000E+00 -0.12581285154E+04  0.12581285154E+04  0.50400001928E-02 0.  1.
    10030    2    1    2    0    0  0.00000000000E+00  0.00000000000E+00 -0.56665046604E+03  0.19496065648E+04  0.18654417725E+04 0.  0.
        5    1    3    3  502    0  0.66774499565E+03  0.65030755444E+03 -0.24768583814E+03  0.96444474128E+03  0.46999998093E+01 0.  1.
       -5    1    3    3    0  502 -0.66774499565E+03 -0.65030755444E+03 -0.31896462790E+03  0.98516182347E+03  0.46999998093E+01 0. -1.
</event>
<event>
 5   0  0.1758946E-04  0.1840741E+04  0.7818609E-02  0.8684929E-01
        1   -1    0    0  501    0  0.00000000000E+00  0.00000000000E+00  0.89317012939E+03  0.89317012940E+03  0.50400001928E-02 0.  1.
       -1   -1    0    0    0  501  0.00000000000E+00  0.00000000000E+00 -0.94839922923E+03  0.94839922925E+03  0.50400001928E-02 0. -1.
    10030    2    1    2    0    0  0.00000000000E+00  0.00000000000E+00 -0.55229099845E+02  0.18415693586E+04  0.18407410055E+04 0.  0.
        2    1    3    3  502    0 -0.17480765487E+03  0.58203961946E+03 -0.71912312766E+03  0.94152318483E+03  0.25500000920E-02 0. -1.
       -2    1    3    3    0  502  0.17480765487E+03 -0.58203961946E+03  0.66389402782E+03  0.90004617382E+03  0.25500000920E-02 0.  1.
</event>
<event>
 5   0  0.1813834E-04  0.1874271E+04  0.7818609E-02  0.8667770E-01
       -1   -1    0    0    0  501  0.00000000000E+00  0.00000000000E+00  0.17509762590E+04  0.17509762590E+04  0.50400001928E-02 0. -1.
        1   -1    0    0  501    0  0.00000000000E+00  0.00000000000E+00 -0.50156185014E+03  0.50156185016E+03  0.50400001928E-02 0.  1.
    10030    2    1    2    0    0  0.00000000000E+00  0.00000000000E+00  0.12494144089E+04  0.22525381092E+04  0.18742709431E+04 0.  0.
        5    1    3    3  502    0 -0.30471481806E+03 -0.86223109143E+03  0.37867937477E+03  0.98980489706E+03  0.46999998093E+01 0.  1.
       -5    1    3    3    0  502  0.30471481806E+03  0.86223109143E+03  0.87073503409E+03  0.12627332121E+04  0.46999998093E+01 0. -1.
</event>
<event>
 5   0  0.3535876E-04  0.1959896E+04  0.7818609E-02  0.8625604E-01
       -2   -1    0    0    0  501  0.00000000000E+00  0.00000000000E+00  0.54234469052E+03  0.54234469053E+03  0.25500000920E-02 0.  1.
        2   -1    0    0  501    0  0.00000000000E+00  0.00000000000E+00 -0.17706415042E+04  0.17706415042E+04  0.25500000920E-02 0. -1.
    10030    2    1    2    0    0  0.00000000000E+00  0.00000000000E+00 -0.12282968137E+04  0.23129861948E+04  0.19598959346E+04 0.  0.
        2    1    3    3  502    0  0.25881266539E+03 -0.73969855487E+03 -0.13084985256E+04  0.15252233736E+04  0.25500000920E-02 0. -1.
       -2    1    3    3    0  502 -0.25881266539E+03  0.73969855487E+03  0.80201711869E+02  0.78776282118E+03  0.25500000920E-02 0.  1.
</event>
<event>
 5   0  0.3720978E-04  0.1954923E+04  0.7818609E-02  0.8627990E-01
        2   -1    0    0  501    0  0.00000000000E+00  0.00000000000E+00  0.17888750816E+04  0.17888750816E+04  0.25500000920E-02 0. -1.
       -2   -1    0    0    0  501  0.00000000000E+00  0.00000000000E+00 -0.53409614801E+03  0.53409614801E+03  0.25500000920E-02 0.  1.
    10030    2    1    2    0    0  0.00000000000E+00  0.00000000000E+00  0.12547789336E+04  0.23229712296E+04  0.19549233134E+04 0.  0.
        1    1    3    3  502    0 -0.34539499473E+03 -0.46367065462E+03 -0.30911519159E+03  0.65562213205E+03  0.50400001928E-02 0.  1.
       -1    1    3    3    0  502  0.34539499473E+03  0.46367065462E+03  0.15638941251E+04  0.16673490975E+04  0.50400001928E-02 0. -1.
</event>
<event>
 5   0  0.3720978E-04  0.2101051E+04  0.7818609E-02  0.8560780E-01
        2   -1    0    0  501    0  0.00000000000E+00  0.00000000000E+00  0.10995232187E+04  0.10995232187E+04  0.25500000920E-02 0.  1.
       -2   -1    0    0    0  501  0.00000000000E+00  0.00000000000E+00 -0.10037115312E+04  0.10037115313E+04  0.25500000920E-02 0. -1.
    10030    2    1    2    0    0  0.00000000000E+00  0.00000000000E+00  0.95811687489E+02  0.21032347500E+04  0.21010512926E+04 0.  0.
        1    1    3    3  502    0  0.64767945649E+03 -0.82133731234E+03  0.14558016253E+03  0.10560668742E+04  0.50400001928E-02 0.  1.
       -1    1    3    3    0  502 -0.64767945649E+03  0.82133731234E+03 -0.49768475039E+02  0.10471678758E+04  0.50400001928E-02 0. -1.
</event>
<event>
 5   0  0.3459485E-04  0.1883447E+04  0.7818609E-02  0.8663140E-01
        2   -1    0    0  501    0  0.00000000000E+00  0.00000000000E+00  0.89337032123E+03  0.89337032123E+03  0.25500000920E-02 0. -1.
       -2   -1    0    0    0  501  0.00000000000E+00  0.00000000000E+00 -0.99269379092E+03  0.99269379092E+03  0.25500000920E-02 0.  1.
    10030    2    1    2    0    0  0.00000000000E+00  0.00000000000E+00 -0.99323469692E+02  0.18860641122E+04  0.18834470217E+04 0.  0.
        3    1    3    3  502    0 -0.81545521632E+03  0.20939265405E+03  0.37286136033E+03  0.92078124309E+03  0.10100000352E+00 0. -1.
       -3    1    3    3    0  502  0.81545521632E+03 -0.20939265405E+03 -0.47218483002E+03  0.96528286906E+03  0.10100000352E+00 0.  1.
</event>
<event>
 5   0  0.1711979E-04  0.1898221E+04  0.7818609E-02  0.8655742E-01
       -1   -1    0    0    0  501  0.00000000000E+00  0.00000000000E+00  0.10936949851E+04  0.10936949851E+04  0.50400001928E-02 0.  1.
        1   -1    0    0  501    0  0.00000000000E+00  0.00000000000E+00 -0.82363968135E+03  0.82363968137E+03  0.50400001928E-02 0. -1.
    10030    2    1    2    0    0  0.00000000000E+00  0.00000000000E+00  0.27005530371E+03  0.19173346664E+04  0.18982208397E+04 0.  0.
        4    1    3    3  502    0  0.62160321895E+03  0.70469502078E+03  0.17926422119E+00  0.93967402813E+03  0.12699999809E+01 0. -1.
       -4    1    3    3    0  502 -0.62160321895E+03 -0.70469502078E+03  0.26987603949E+03  0.97766063831E+03  0.12699999809E+01 0.  1.
</event>
<event>
 5   0  0.3459485E-04  0.1847734E+04  0.7818609E-02  0.8681319E-01
        2   -1    0    0  501    0  0.00000000000E+00  0.00000000000E+00  0.17737364337E+04  0.17737364337E+04  0.25500000920E-02 0.  1.
       -2   -1    0    0    0  501  0.00000000000E+00  0.00000000000E+00 -0.48120475861E+03  0.48120475862E+03  0.25500000920E-02 0. -1.
    10030    2    1    2    0    0  0.00000000000E+00  0.00000000000E+00  0.12925316751E+04  0.22549411923E+04  0.18477341935E+04 0.  0.
        3    1    3    3  502    0 -0.63153456120E+03  0.67423226911E+03  0.65879170791E+03  0.11346504216E+04  0.10100000352E+00 0.  1.
       -3    1    3    3    0  502  0.63153456120E+03 -0.67423226911E+03  0.63373996719E+03  0.11202907707E+04  0.10100000352E+00 0. -1.
</event>
<event>
 5   0  0.1758946E-04  0.1818277E+04  0.7818609E-02  0.8696640E-01
        1   -1    0    0  501    0  0.00000000000E+00  0.00000000000E+00  0.57800763981E+03  0.57800763983E+03  0.50400001928E-02 0.  1.
       -1   -1    0    0    0  501  0.00000000000E+00  0.00000000000E+00 -0.14299679888E+04  0.14299679888E+04  0.50400001928E-02 0. -1.
    10030    2    1    2    0    0  0.00000000000E+00  0.00000000000E+00 -0.85196034894E+03  0.20079756286E+04  0.18182765710E+04 0.  0.
        2    1    3    3  502    0 -0.69684720078E+03 -0.41990655039E+03 -0.87403695350E+03  0.11940930150E+04  0.25500000920E-02 0. -1.
       -2    1    3    3    0  502  0.69684720078E+03  0.41990655039E+03  0.22076604556E+02  0.81388261363E+03  0.25500000920E-02 0.  1.
</event>
<event>
 5   0  0.3623359E-04  0.1876953E+04  0.7818609E-02  0.8666414E-01
        2   -1    0    0  501    0  0.00000000000E+00  0.00000000000E+00  0.12250762541E+04  0.12250762541E+04  0.25500000920E-02 0.  1.
       -2   -1    0    0    0  501  0.00000000000E+00  0.00000000000E+00 -0.71892547701E+03  0.71892547701E+03  0.25500000920E-02 0. -1.
    10030    2    1    2    0    0  0.00000000000E+00  0.00000000000E+00  0.50615077713E+03  0.19440017312E+04  0.18769534149E+04 0.  0.
        5    1    3    3  502    0 -0.31387092232E+03 -0.30231507383E+03 -0.60776283727E+03  0.74786838153E+03  0.46999998093E+01 0. -1.
       -5    1    3    3    0  502  0.31387092232E+03  0.30231507383E+03  0.11139136144E+04  0.11961333496E+04  0.46999998093E+01 0.  1.
</event>
<event>
 5   0  0.3459485E-04  0.1910233E+04  0.7818609E-02  0.8649780E-01
        2   -1    0    0  501    0  0.00000000000E+00  0.00000000000E+00  0.86771690336E+03  0.86771690336E+03  0.25500000920E-02 0.  1.
       -2   -1    0    0    0  501  0.00000000000E+00  0.00000000000E+00 -0.10513192005E+04  0.10513192005E+04  0.25500000920E-02 0. -1.
    10030    2    1    2    0    0  0.00000000000E+00  0.00000000000E+00 -0.18360229715E+03  0.19190361039E+04  0.19102329084E+04 0.  0.
        3    1    3    3  502    0  0.79069046737E+03 -0.30848525435E+03 -0.53187567950E+03  0.10016218428E+04  0.10100000352E+00 0. -1.
       -3    1    3    3    0  502 -0.79069046737E+03  0.30848525435E+03  0.34827338235E+03  0.91741426106E+03  0.10100000352E+00 0.  1.
</event>
<event>
 5   0  0.1758946E-04  0.1894124E+04  0.7818609E-02  0.8657787E-01
        1   -1    0    0  501    0  0.00000000000E+00  0.00000000000E+00  0.10336227847E+04  0.10336227847E+04  0.50400001928E-02 0. -1.
       -1   -1    0    0    0  501  0.00000000000E+00  0.00000000000E+00 -0.86775056875E+03  0.86775056876E+03  0.50400001928E-02 0.  1.
    10030    2    1    2    0    0  0.00000000000E+00  0.00000000000E+00  0.16587221593E+03  0.19013733535E+04  0.18941243458E+04 0.  0.
        2    1    3    3  502    0  0.86224791596E+03 -0.35875545360E+02  0.47451648483E+03  0.98484740834E+03  0.25500000920E-02 0. -1.
       -2    1    3    3    0  502 -0.86224791596E+03  0.35875545360E+02 -0.30864426890E+03  0.91652594511E+03  0.25500000920E-02 0.  1.
</event>
<event>
 5   0  0.1758946E-04  0.1925719E+04  0.7818609E-02  0.8642159E-01
        1   -1    0    0  501    0  0.00000000000E+00  0.00000000000E+00  0.74496231351E+03  0.74496231353E+03  0.50400001928E-02 0. -1.
       -1   -1    0    0    0  501  0.00000000000E+00  0.00000000000E+00 -0.12444908798E+04  0.12444908798E+04  0.50400001928E-02 0.  1.
    10030    2    1    2    0    0  0.00000000000E+00  0.00000000000E+00 -0.49952856631E+03  0.19894531934E+04  0.19257194032E+04 0.  0.
        2    1    3    3  502    0 -0.29536251276E+03  0.40230520377E+03  0.60090131485E+03  0.78113435536E+03  0.25500000920E-02 0. -1.
       -2    1    3    3    0  502  0.29536251276E+03 -0.40230520377E+03 -0.11004298812E+04  0.12083188380E+04  0.25500000920E-02 0.  1.
</event>
<event>
 5   0  0.1813834E-04  0.1863193E+04  0.7818609E-02  0.8673398E-01
        1   -1    0    0  501    0  0.00000000000E+00  0.00000000000E+00  0.92147686359E+03  0.92147686360E+03  0.50400001928E-02 0. -1.
       -1   -1    0    0    0  501  0.00000000000E+00  0.00000000000E+00 -0.94182685844E+03  0.94182685845E+03  0.50400001928E-02 0.  1.
    10030    2    1    2    0    0  0.00000000000E+00  0.00000000000E+00 -0.20349994854E+02  0.18633037221E+04  0.18631925929E+04 0.  0.
        5    1    3    3  502    0 -0.57229871959E+03  0.42748582069E+03  0.58784028232E+03  0.92512066178E+03  0.46999998093E+01 0. -1.
       -5    1    3    3    0  502  0.57229871959E+03 -0.42748582069E+03 -0.60819027718E+03  0.93818306027E+03  0.46999998093E+01 0.  1.
</event>
<event>
 5   0  0.3535876E-04  0.1921728E+04  0.7818609E-02  0.8644116E-01
       -2   -1    0    0    0  501  0.00000000000E+00  0.00000000000E+00  0.49813376143E+03  0.49813376144E+03  0.25500000920E-02 0. -1.
        2   -1    0    0  501    0  0.00000000000E+00  0.00000000000E+00 -0.18534378371E+04  0.18534378371E+04  0.25500000920E-02 0.  1.
    10030    2    1    2    0    0  0.00000000000E+00  0.00000000000E+00 -0.13553040757E+04  0.23515715985E+04  0.19217283485E+04 0.  0.
        2    1    3    3  502    0  0.33874287076E+03  0.36801395703E+02 -0.17770267061E+04  0.18093990686E+04  0.25500000920E-02 0.  1.
       -2    1    3    3    0  502 -0.33874287076E+03 -0.36801395703E+02  0.42172263043E+03  0.54217252996E+03  0.25500000920E-02 0. -1.
</event>
<event>
 5   0  0.3535876E-04  0.1886831E+04  0.7818609E-02  0.8661439E-01
       -2   -1    0    0    0  501  0.00000000000E+00  0.00000000000E+00  0.57921105520E+03  0.57921105521E+03  0.25500000920E-02 0. -1.
        2   -1    0    0  501    0  0.00000000000E+00  0.00000000000E+00 -0.15366298711E+04  0.15366298711E+04  0.25500000920E-02 0.  1.
    10030    2    1    2    0    0  0.00000000000E+00  0.00000000000E+00 -0.95741881588E+03  0.21158409263E+04  0.18868312156E+04 0.  0.
        2    1    3    3  502    0 -0.17549372916E+03  0.50602486924E+03 -0.13496152268E+04  0.14520056741E+04  0.25500000920E-02 0.  1.
       -2    1    3    3    0  502  0.17549372916E+03 -0.50602486924E+03  0.39219641093E+03  0.66383525216E+03  0.25500000920E-02 0. -1.
</event>
<event>
 5   0  0.1782613E-04  0.1888368E+04  0.7818609E-02  0.8660668E-01
       -1   -1    0    0    0  501  0.00000000000E+00  0.00000000000E+00  0.81774224069E+03  0.81774224070E+03  0.50400001928E-02 0. -1.
        1   -1    0    0  501    0  0.00000000000E+00  0.00000000000E+00 -0.10901765833E+04  0.10901765833E+04  0.50400001928E-02 0.  1.
    10030    2    1    2    0    0  0.00000000000E+00  0.00000000000E+00 -0.27243434258E+03  0.19079188240E+04  0.18883680171E+04 0.  0.
        3    1    3    3  502    0  0.10451108573E+03 -0.69272153722E+03  0.50334342868E+03  0.86263567777E+03  0.10100000352E+00 0. -1.
       -3    1    3    3    0  502 -0.10451108573E+03  0.69272153722E+03 -0.77577777126E+03  0.10452831462E+04  0.10100000352E+00 0.  1.
</event>
<event>
 5   0  0.3516539E-04  0.1913711E+04  0.7818609E-02  0.8648062E-01
        2   -1    0    0  501    0  0.00000000000E+00  0.00000000000E+00  0.58116081701E+03  0.58116081702E+03  0.25500000920E-02 0.  1.
       -2   -1    0    0    0  501  0.00000000000E+00  0.00000000000E+00 -0.15754195206E+04  0.15754195206E+04  0.25500000920E-02 0. -1.
    10030    2    1    2    0    0  0.00000000000E+00  0.00000000000E+00 -0.99425870364E+03  0.21565803377E+04  0.19137106320E+04 0.  0.
        4    1    3    3  502    0  0.84169169251E+02  0.10979866449E+03  0.56982940526E+03  0.58638499279E+03  0.12699999809E+01 0.  1.
       -4    1    3    3    0  502 -0.84169169251E+02 -0.10979866449E+03 -0.15640881089E+04  0.15701953449E+04  0.12699999809E+01 0. -1.
</event>
<event>
 5   0  0.1694830E-04  0.1877642E+04  0.7818609E-02  0.8666066E-01
       -1   -1    0    0    0  501  0.00000000000E+00  0.00000000000E+00  0.59370375689E+03  0.59370375691E+03  0.50400001928E-02 0.  1.
        1   -1    0    0  501    0  0.00000000000E+00  0.00000000000E+00 -0.14845537434E+04  0.14845537434E+04  0.50400001928E-02 0. -1.
    10030    2    1    2    0    0  0.00000000000E+00  0.00000000000E+00 -0.89084998648E+03  0.20782575003E+04  0.18776422820E+04 0.  0.
        1    1    3    3  502    0 -0.32213687187E+03  0.25129451769E+03 -0.13809958530E+04  0.14401634090E+04  0.50400001928E-02 0. -1.
       -1    1    3    3    0  502  0.32213687187E+03 -0.25129451769E+03  0.49014586647E+03  0.63809409125E+03  0.50400001928E-02 0.  1.
</event>
<event>
 5   0  0.3535876E-04  0.2478869E+04  0.7818609E-02  0.8410553E-01
        2   -1    0    0  501    0  0.00000000000E+00  0.00000000000E+00  0.18646264984E+04  0.18646264984E+04  0.25500000920E-02 0.  1.
       -2   -1    0    0    0  501  0.00000000000E+00  0.00000000000E+00 -0.82386343207E+03  0.82386343208E+03  0.25500000920E-02 0. -1.
    10030    2    1    2    0    0  0.00000000000E+00  0.00000000000E+00  0.10407630663E+04  0.26884899305E+04  0.24788687634E+04 0.  0.
        2    1    3    3  502    0  0.11486519269E+04  0.29101247975E+03  0.91458420158E+03  0.14968479463E+04  0.25500000920E-02 0.  1.
       -2    1    3    3    0  502 -0.11486519269E+04 -0.29101247975E+03  0.12617886474E+03  0.11916419842E+04  0.25500000920E-02 0. -1.
</event>
<event>
 5   0  0.1782613E-04  0.1976251E+04  0.7818609E-02  0.8617805E-01
       -1   -1    0    0    0  501  0.00000000000E+00  0.00000000000E+00  0.36051558517E+04  0.36051558517E+04  0.50400001928E-02 0.  1.
        1   -1    0    0  501    0  0.00000000000E+00  0.00000000000E+00 -0.27083208646E+03  0.27083208651E+03  0.50400001928E-02 0. -1.
    10030    2    1    2    0    0  0.00000000000E+00  0.00000000000E+00  0.33343237653E+04  0.38759879382E+04  0.19762508762E+04 0.  0.
        3    1    3    3  502    0  0.31255862692E+03 -0.61338269622E+03  0.30574069623E+04  0.31339541430E+04  0.10100000352E+00 0.  1.
       -3    1    3    3    0  502 -0.31255862692E+03  0.61338269622E+03  0.27691680297E+03  0.74203379522E+03  0.10100000352E+00 0. -1.
</event>
<event>
 5   0  0.3720978E-04  0.2007463E+04  0.7818609E-02  0.8603139E-01
       -2   -1    0    0    0  501  0.00000000000E+00  0.00000000000E+00  0.11790290315E+04  0.11790290315E+04  0.25500000920E-02 0. -1.
        2   -1    0    0  501    0  0.00000000000E+00  0.00000000000E+00 -0.85449707584E+03  0.85449707584E+03  0.25500000920E-02 0.  1.
    10030    2    1    2    0    0  0.00000000000E+00  0.00000000000E+00  0.32453195568E+03  0.20335261074E+04  0.20074629359E+04 0.  0.
        1    1    3    3  502    0 -0.22844606757E+03  0.97705109302E+03  0.13623377800E+03  0.10126085554E+04  0.50400001928E-02 0.  1.
       -1    1    3    3    0  502  0.22844606757E+03 -0.97705109302E+03  0.18829817769E+03  0.10209175520E+04  0.50400001928E-02 0. -1.
</event>
<event>
 5   0  0.3623359E-04  0.1906790E+04  0.7818609E-02  0.8651484E-01
       -2   -1    0    0    0  501  0.00000000000E+00  0.00000000000E+00  0.54201898871E+03  0.54201898871E+03  0.25500000920E-02 0.  1.
        2   -1    0    0  501    0  0.00000000000E+00  0.00000000000E+00 -0.16769921196E+04  0.16769921196E+04  0.25500000920E-02 0. -1.
    10030    2    1    2    0    0  0.00000000000E+00  0.00000000000E+00 -0.11349731309E+04  0.22190111083E+04  0.19067895246E+04 0.  0.
        5    1    3    3  502    0 -0.18610208125E+03  0.80851886476E+03 -0.11140771841E+04  0.13890740807E+04  0.46999998093E+01 0. -1.
       -5    1    3    3    0  502  0.18610208125E+03 -0.80851886476E+03 -0.20895946770E+02  0.82993702768E+03  0.46999998093E+01 0.  1.
</event>
<event>
 5   0  0.1694830E-04  0.1924827E+04  0.7818609E-02  0.8642596E-01
       -1   -1    0    0    0  501  0.00000000000E+00  0.00000000000E+00  0.14547003382E+04  0.14547003382E+04  0.50400001928E-02 0.  1.
        1   -1    0    0  501    0  0.00000000000E+00  0.00000000000E+00 -0.63672202455E+03  0.63672202457E+03  0.50400001928E-02 0. -1.
    10030    2    1    2    0    0  0.00000000000E+00  0.00000000000E+00  0.81797831362E+03  0.20914223628E+04  0.19248269995E+04 0.  0.
        1    1    3    3  502    0  0.38969757246E+03 -0.81366602829E+03  0.77314280491E+03  0.11881356827E+04  0.50400001928E-02 0.  1.
       -1    1    3    3    0  502 -0.38969757246E+03  0.81366602829E+03  0.44835508712E+02  0.90328668010E+03  0.50400001928E-02 0. -1.
</event>
<event>
 5   0  0.1711979E-04  0.1890219E+04  0.7818609E-02  0.8659740E-01
        1   -1    0    0  501    0  0.00000000000E+00  0.00000000000E+00  0.21541144996E+04  0.21541144997E+04  0.50400001928E-02 0.  1.
       -1   -1    0    0    0  501  0.00000000000E+00  0.00000000000E+00 -0.41466327032E+03  0.41466327035E+03  0.50400001928E-02 0. -1.
    10030    2    1    2    0    0  0.00000000000E+00  0.00000000000E+00  0.17394512293E+04  0.25687777700E+04  0.18902192075E+04 0.  0.
        4    1    3    3  502    0  0.52237686403E+03 -0.25149450920E+03 -0.14461145085E+03  0.59752921338E+03  0.12699999809E+01 0. -1.
       -4    1    3    3    0  502 -0.52237686403E+03  0.25149450920E+03  0.18840626802E+04  0.19712485566E+04  0.12699999809E+01 0.  1.
</event>
<event>
 5   0  0.1711979E-04  0.1870192E+04  0.7818609E-02  0.8669838E-01
        1   -1    0    0  501    0  0.00000000000E+00  0.00000000000E+00  0.17602299797E+04  0.17602299797E+04  0.50400001928E-02 0.  1.
       -1   -1    0    0    0  501  0.00000000000E+00  0.00000000000E+00 -0.49675564726E+03  0.49675564729E+03  0.50400001928E-02 0. -1.
    10030    2    1    2    0    0  0.00000000000E+00  0.00000000000E+00  0.12634743325E+04  0.22569856270E+04  0.18701916297E+04 0.  0.
        4    1    3    3  502    0 -0.72590420638E+03  0.25980521615E+03  0.12702888155E+04  0.14859579250E+04  0.12699999809E+01 0.  1.
       -4    1    3    3    0  502  0.72590420638E+03 -0.25980521615E+03 -0.68144830555E+01  0.77102770201E+03  0.12699999809E+01 0. -1.
</event>
<event>
 5   0  0.3535876E-04  0.1893686E+04  0.7818609E-02  0.8658006E-01
        2   -1    0    0  501    0  0.00000000000E+00  0.00000000000E+00  0.19763294314E+04  0.19763294314E+04  0.25500000920E-02 0.  1.
       -2   -1    0    0    0  501  0.00000000000E+00  0.00000000000E+00 -0.45362450834E+03  0.45362450835E+03  0.25500000920E-02 0. -1.
    10030    2    1    2    0    0  0.00000000000E+00  0.00000000000E+00  0.15227049230E+04  0.24299539397E+04  0.18936857888E+04 0.  0.
        2    1    3    3  502    0 -0.94529075671E+03 -0.17340120057E+01  0.83085628778E+03  0.12585308071E+04  0.25500000920E-02 0.  1.
       -2    1    3    3    0  502  0.94529075671E+03  0.17340120057E+01  0.69184863526E+03  0.11714231326E+04  0.25500000920E-02 0. -1.
</event>
<event>
 5   0  0.3535876E-04  0.1916603E+04  0.7818609E-02  0.8646636E-01
       -2   -1    0    0    0  501  0.00000000000E+00  0.00000000000E+00  0.12716398596E+04  0.12716398596E+04  0.25500000920E-02 0. -1.
        2   -1    0    0  501    0  0.00000000000E+00  0.00000000000E+00 -0.72217109288E+03  0.72217109288E+03  0.25500000920E-02 0.  1.
    10030    2    1    2    0    0  0.00000000000E+00  0.00000000000E+00  0.54946876669E+03  0.19938109525E+04  0.19166027728E+04 0.  0.
        2    1    3    3  502    0 -0.41396377338E+03  0.48629445569E+03  0.10180048292E+04  0.12017412931E+04  0.25500000920E-02 0. -1.
       -2    1    3    3    0  502  0.41396377338E+03 -0.48629445569E+03 -0.46853606253E+03  0.79206965932E+03  0.25500000920E-02 0.  1.
</event>
<event>
 5   0  0.3516539E-04  0.1910050E+04  0.7818609E-02  0.8649870E-01
       -2   -1    0    0    0  501  0.00000000000E+00  0.00000000000E+00  0.95387561299E+03  0.95387561299E+03  0.25500000920E-02 0.  1.
        2   -1    0    0  501    0  0.00000000000E+00  0.00000000000E+00 -0.95617617149E+03  0.95617617149E+03  0.25500000920E-02 0. -1.
    10030    2    1    2    0    0  0.00000000000E+00  0.00000000000E+00 -0.23005584978E+01  0.19100517845E+04  0.19100503990E+04 0.  0.
        4    1    3    3  502    0  0.79907563996E+03 -0.52286171151E+03  0.11705509591E+02  0.95501040811E+03  0.12699999809E+01 0.  1.
       -4    1    3    3    0  502 -0.79907563996E+03  0.52286171151E+03 -0.14006068089E+02  0.95504137637E+03  0.12699999809E+01 0. -1.
</event>
<event>
 5   0  0.3623359E-04  0.1927378E+04  0.7818609E-02  0.8641348E-01
        2   -1    0    0  501    0  0.00000000000E+00  0.00000000000E+00  0.15261366279E+04  0.15261366279E+04  0.25500000920E-02 0.  1.
       -2   -1    0    0    0  501  0.00000000000E+00  0.00000000000E+00 -0.60852749540E+03  0.60852749541E+03  0.25500000920E-02 0. -1.
    10030    2    1    2    0    0  0.00000000000E+00  0.00000000000E+00  0.91760913252E+03  0.21346641233E+04  0.19273775965E+04 0.  0.
        5    1    3    3  502    0 -0.40795580879E+03 -0.14595421383E+03  0.14121609345E+04  0.14771429075E+04  0.46999998093E+01 0.  1.
       -5    1    3    3    0  502  0.40795580879E+03  0.14595421383E+03 -0.49455180193E+03  0.65752121582E+03  0.46999998093E+01 0. -1.
</event>
<event>
 5   0  0.3535876E-04  0.1838371E+04  0.7818609E-02  0.8686156E-01
       -2   -1    0    0    0  501  0.00000000000E+00  0.00000000000E+00  0.51365169087E+03  0.51365169088E+03  0.25500000920E-02 0.  1.
        2   -1    0    0  501    0  0.00000000000E+00  0.00000000000E+00 -0.16448931460E+04  0.16448931460E+04  0.25500000920E-02 0. -1.
    10030    2    1    2    0    0  0.00000000000E+00  0.00000000000E+00 -0.11312414551E+04  0.21585448369E+04  0.18383711766E+04 0.  0.
        2    1    3    3  502    0  0.58129095310E+03  0.71115821869E+03 -0.52399240872E+03  0.10574560173E+04  0.25500000920E-02 0. -1.
       -2    1    3    3    0  502 -0.58129095310E+03 -0.71115821869E+03 -0.60724904639E+03  0.11010888195E+04  0.25500000920E-02 0.  1.
</event>
<event>
 5   0  0.3720978E-04  0.2176960E+04  0.7818609E-02  0.8528079E-01
       -2   -1    0    0    0  501  0.00000000000E+00  0.00000000000E+00  0.14592448586E+04  0.14592448586E+04  0.25500000920E-02 0.  1.
        2   -1    0    0  501    0  0.00000000000E+00  0.00000000000E+00 -0.81191920945E+03  0.81191920945E+03  0.25500000920E-02 0. -1.
    10030    2    1    2    0    0  0.00000000000E+00  0.00000000000E+00  0.64732564913E+03  0.22711640680E+04  0.21769602036E+04 0.  0.
        1    1    3    3  502    0 -0.78391720261E+03  0.24766991774E+03  0.10679212955E+04  0.13477100809E+04  0.50400001928E-02 0.  1.
       -1    1    3    3    0  502  0.78391720261E+03 -0.24766991774E+03 -0.42059564633E+03  0.92345398718E+03  0.50400001928E-02 0. -1.
</event>
<event>
 5   0  0.3516539E-04  0.1920653E+04  0.7818609E-02  0.8644644E-01
        2   -1    0    0  501    0  0.00000000000E+00  0.00000000000E+00  0.98799591621E+03  0.98799591621E+03  0.25500000920E-02 0. -1.
       -2   -1    0    0    0  501  0.00000000000E+00  0.00000000000E+00 -0.93343154026E+03  0.93343154026E+03  0.25500000920E-02 0.  1.
    10030    2    1    2    0    0  0.00000000000E+00  0.00000000000E+00  0.54564375947E+02  0.19214274565E+04  0.19206525452E+04 0.  0.
        4    1    3    3  502    0 -0.59463570906E+03 -0.58273484186E+03  0.50607053447E+03  0.97431027972E+03  0.12699999809E+01 0.  1.
       -4    1    3    3    0  502  0.59463570906E+03  0.58273484186E+03 -0.45150615853E+03  0.94711717675E+03  0.12699999809E+01 0. -1.
</event>
<event>
 5   0  0.3516539E-04  0.1899609E+04  0.7818609E-02  0.8655051E-01
        2   -1    0    0  501    0  0.00000000000E+00  0.00000000000E+00  0.10039112155E+04  0.10039112155E+04  0.25500000920E-02 0. -1.
       -2   -1    0    0    0  501  0.00000000000E+00  0.00000000000E+00 -0.89861398411E+03  0.89861398411E+03  0.25500000920E-02 0.  1.
    10030    2    1    2    0    0  0.00000000000E+00  0.00000000000E+00  0.10529723135E+03  0.19025251996E+04  0.18996090724E+04 0.  0.
        4    1    3    3  502    0  0.62820397457E+03  0.13987734096E+03  0.75223443915E+03  0.98998190312E+03  0.12699999809E+01 0. -1.
       -4    1    3    3    0  502 -0.62820397457E+03 -0.13987734096E+03 -0.64693720779E+03  0.91254329645E+03  0.12699999809E+01 0.  1.
</event>
<event>
 5   0  0.3623359E-04  0.1868688E+04  0.7818609E-02  0.8670601E-01
       -2   -1    0    0    0  501  0.00000000000E+00  0.00000000000E+00  0.65649123362E+03  0.65649123363E+03  0.25500000920E-02 0.  1.
        2   -1    0    0  501    0  0.00000000000E+00  0.00000000000E+00 -0.13297948862E+04  0.13297948862E+04  0.25500000920E-02 0. -1.
    10030    2    1    2    0    0  0.00000000000E+00  0.00000000000E+00 -0.67330365256E+03  0.19862861198E+04  0.18686879732E+04 0.  0.
        5    1    3    3  502    0 -0.80987941192E+03  0.46349205300E+03 -0.38703800352E+03  0.10102227731E+04  0.46999998093E+01 0.  1.
       -5    1    3    3    0  502  0.80987941192E+03 -0.46349205300E+03 -0.28626564905E+03  0.97606334675E+03  0.46999998093E+01 0. -1.
</event>
<event>
 5   0  0.1711979E-04  0.1882359E+04  0.7818609E-02  0.8663687E-01
       -1   -1    0    0    0  501  0.00000000000E+00  0.00000000000E+00  0.99837462877E+03  0.99837462878E+03  0.50400001928E-02 0.  1.
        1   -1    0    0  501    0  0.00000000000E+00  0.00000000000E+00 -0.88726121943E+03  0.88726121945E+03  0.50400001928E-02 0. -1.
    10030    2    1    2    0    0  0.00000000000E+00  0.00000000000E+00  0.11111340933E+03  0.18856358482E+04  0.18823592543E+04 0.  0.
        4    1    3    3  502    0  0.19060305304E+02  0.43013358096E+03 -0.78282262187E+03  0.89341539214E+03  0.12699999809E+01 0. -1.
       -4    1    3    3    0  502 -0.19060305304E+02 -0.43013358096E+03  0.89393603120E+03  0.99222045609E+03  0.12699999809E+01 0.  1.
</event>
<event>
 5   0  0.3623359E-04  0.1921274E+04  0.7818609E-02  0.8644339E-01
       -2   -1    0    0    0  501  0.00000000000E+00  0.00000000000E+00  0.11428545342E+04  0.11428545342E+04  0.25500000920E-02 0. -1.
        2   -1    0    0  501    0  0.00000000000E+00  0.00000000000E+00 -0.80747273961E+03  0.80747273961E+03  0.25500000920E-02 0.  1.
    10030    2    1    2    0    0  0.00000000000E+00  0.00000000000E+00  0.33538179457E+03  0.19503272738E+04  0.19212744538E+04 0.  0.
        5    1    3    3  502    0 -0.75880752911E+03 -0.23976974259E+03 -0.37851944363E+03  0.88123632182E+03  0.46999998093E+01 0.  1.
       -5    1    3    3    0  502  0.75880752911E+03  0.23976974259E+03  0.71390123820E+03  0.10690909520E+04  0.46999998093E+01 0. -1.
</event>
<event>
 5   0  0.3459485E-04  0.1716439E+04  0.7818609E-02  0.8752044E-01
        2   -1    0    0  501    0  0.00000000000E+00  0.00000000000E+00  0.11312290925E+04  0.11312290925E+04  0.25500000920E-02 0. -1.
       -2   -1    0    0    0  501  0.00000000000E+00  0.00000000000E+00 -0.65109739520E+03  0.65109739520E+03  0.25500000920E-02 0.  1.
    10030    2    1    2    0    0  0.00000000000E+00  0.00000000000E+00  0.48013169729E+03  0.17823264877E+04  0.17164385401E+04 0.  0.
        3    1    3    3  502    0 -0.40439567081E+03 -0.75574588977E+03  0.28475987294E+03  0.90320313546E+03  0.10100000352E+00 0.  1.
       -3    1    3    3    0  502  0.40439567081E+03  0.75574588977E+03  0.19537182435E+03  0.87912335222E+03  0.10100000352E+00 0. -1.
</event>
<event>
 5   0  0.1287000E-04  0.1964388E+04  0.7818609E-02  0.8623454E-01
       -4   -1    0    0    0  501  0.00000000000E+00  0.00000000000E+00  0.94649183591E+03  0.94649268795E+03  0.12699999809E+01 0. -1.
        4   -1    0    0  501    0  0.00000000000E+00  0.00000000000E+00 -0.10192409555E+04  0.10192417468E+04  0.12699999809E+01 0.  1.
    10030    2    1    2    0    0  0.00000000000E+00  0.00000000000E+00 -0.72749119617E+02  0.19657344347E+04  0.19643878012E+04 0.  0.
        4    1    3    3  502    0  0.34528638279E+03 -0.50413547420E+03 -0.80588024467E+03  0.10113455612E+04  0.12699999809E+01 0. -1.
       -4    1    3    3    0  502 -0.34528638279E+03  0.50413547420E+03  0.73313112505E+03  0.95438887352E+03  0.12699999809E+01 0.  1.
</event>
<event>
 5   0  0.1694830E-04  0.1933724E+04  0.7818609E-02  0.8638249E-01
       -1   -1    0    0    0  501  0.00000000000E+00  0.00000000000E+00  0.20340934863E+04  0.20340934863E+04  0.50400001928E-02 0. -1.
        1   -1    0    0  501    0  0.00000000000E+00  0.00000000000E+00 -0.45957692539E+03  0.45957692542E+03  0.50400001928E-02 0.  1.
    10030    2    1    2    0    0  0.00000000000E+00  0.00000000000E+00  0.15745165609E+04  0.24936704118E+04  0.19337243138E+04 0.  0.
        1    1    3    3  502    0  0.84017673481E+03 -0.39979702068E+03  0.11262157906E+04  0.14608547534E+04  0.50400001928E-02 0.  1.
       -1    1    3    3    0  502 -0.84017673481E+03  0.39979702068E+03  0.44830077033E+03  0.10328156584E+04  0.50400001928E-02 0. -1.
</event>
<event>
 5   0  0.1813834E-04  0.1879216E+04  0.7818609E-02  0.8665272E-01
       -1   -1    0    0    0  501  0.00000000000E+00  0.00000000000E+00  0.97145543053E+03  0.97145543054E+03  0.50400001928E-02 0. -1.
        1   -1    0    0  501    0  0.00000000000E+00  0.00000000000E+00 -0.90880468260E+03  0.90880468261E+03  0.50400001928E-02 0.  1.
    10030    2    1    2    0    0  0.00000000000E+00  0.00000000000E+00  0.62650747932E+02  0.18802601132E+04  0.18792160538E+04 0.  0.
        5    1    3    3  502    0  0.82963163088E+03 -0.91034188989E+01 -0.40990674962E+03  0.92542808936E+03  0.46999998093E+01 0.  1.
       -5    1    3    3    0  502 -0.82963163088E+03  0.91034188989E+01  0.47255749755E+03  0.95483202380E+03  0.46999998093E+01 0. -1.
</event>
<event>
 5   0  0.1813834E-04  0.1979967E+04  0.7818609E-02  0.8616045E-01
        1   -1    0    0  501    0  0.00000000000E+00  0.00000000000E+00  0.13046491574E+04  0.13046491574E+04  0.50400001928E-02 0.  1.
       -1   -1    0    0    0  501  0.00000000000E+00  0.00000000000E+00 -0.75121125233E+03  0.75121125234E+03  0.50400001928E-02 0. -1.
    10030    2    1    2    0    0  0.00000000000E+00  0.00000000000E+00  0.55343790507E+03  0.20558604097E+04  0.19799667951E+04 0.  0.
        5    1    3    3  502    0 -0.71660909139E+02 -0.27537227363E+03  0.12612623215E+04  0.12929694152E+04  0.46999998093E+01 0.  1.
       -5    1    3    3    0  502  0.71660909139E+02  0.27537227363E+03 -0.70782441647E+03  0.76289099453E+03  0.46999998093E+01 0. -1.
</event>
<event>
 5   0  0.3720978E-04  0.1891044E+04  0.7818609E-02  0.8659327E-01
        2   -1    0    0  501    0  0.00000000000E+00  0.00000000000E+00  0.20520842227E+04  0.20520842227E+04  0.25500000920E-02 0. -1.
       -2   -1    0    0    0  501  0.00000000000E+00  0.00000000000E+00 -0.43566037673E+03  0.43566037674E+03  0.25500000920E-02 0.  1.
    10030    2    1    2    0    0  0.00000000000E+00  0.00000000000E+00  0.16164238460E+04  0.24877445995E+04  0.18910439292E+04 0.  0.
        1    1    3    3  502    0 -0.66227658070E+03 -0.44138869765E+02  0.16940828450E+04  0.18194711305E+04  0.50400001928E-02 0.  1.
       -1    1    3    3    0  502  0.66227658070E+03  0.44138869765E+02 -0.77658998960E+02  0.66827346895E+03  0.50400001928E-02 0. -1.
</event>
<event>
 5   0  0.3720978E-04  0.1872857E+04  0.7818609E-02  0.8668486E-01
        2   -1    0    0  501    0  0.00000000000E+00  0.00000000000E+00  0.75611207916E+03  0.75611207916E+03  0.25500000920E-02 0. -1.
       -2   -1    0    0    0  501  0.00000000000E+00  0.00000000000E+00 -0.11597467663E+04  0.11597467663E+04  0.25500000920E-02 0.  1.
    10030    2    1    2    0    0  0.00000000000E+00  0.00000000000E+00 -0.40363468715E+03  0.19158588455E+04  0.18728572170E+04 0.  0.
        1    1    3    3  502    0 -0.44008857138E+03 -0.80891556832E+03 -0.27985716338E+02  0.92130643527E+03  0.50400001928E-02 0.  1.
       -1    1    3    3    0  502  0.44008857138E+03  0.80891556832E+03 -0.37564897081E+03  0.99455241020E+03  0.50400001928E-02 0. -1.
</event>
<event>
 5   0  0.1711979E-04  0.2031526E+04  0.7818609E-02  0.8592022E-01
       -1   -1    0    0    0  501  0.00000000000E+00  0.00000000000E+00  0.83352113727E+03  0.83352113729E+03  0.50400001928E-02 0. -1.
        1   -1    0    0  501    0  0.00000000000E+00  0.00000000000E+00 -0.12378501521E+04  0.12378501521E+04  0.50400001928E-02 0.  1.
    10030    2    1    2    0    0  0.00000000000E+00  0.00000000000E+00 -0.40432901478E+03  0.20713712894E+04  0.20315257976E+04 0.  0.
        4    1    3    3  502    0 -0.11598291863E+03 -0.32749466950E+03 -0.11753843908E+04  0.12256569157E+04  0.12699999809E+01 0.  1.
       -4    1    3    3    0  502  0.11598291863E+03  0.32749466950E+03  0.77105537603E+03  0.84571437364E+03  0.12699999809E+01 0. -1.
</event>
<event>
 5   0  0.3535876E-04  0.1910240E+04  0.7818609E-02  0.8649776E-01
        2   -1    0    0  501    0  0.00000000000E+00  0.00000000000E+00  0.89037606412E+03  0.89037606413E+03  0.25500000920E-02 0.  1.
       -2   -1    0    0    0  501  0.00000000000E+00  0.00000000000E+00 -0.10245722098E+04  0.10245722098E+04  0.25500000920E-02 0. -1.
    10030    2    1    2    0    0  0.00000000000E+00  0.00000000000E+00 -0.13419614568E+03  0.19149482739E+04  0.19102403740E+04 0.  0.
        2    1    3    3  502    0  0.40698313626E+02 -0.94726554816E+03 -0.18264793245E+03  0.96557166420E+03  0.25500000920E-02 0. -1.
       -2    1    3    3    0  502 -0.40698313626E+02  0.94726554816E+03  0.48451786766E+02  0.94937660974E+03  0.25500000920E-02 0.  1.
</event>
<event>
 5   0  0.1287000E-04  0.1455417E+04  0.7818609E-02  0.8914654E-01
        3   -1    0    0  501    0  0.00000000000E+00  0.00000000000E+00  0.50278305634E+03  0.50278306649E+03  0.10100000352E+00 0.  1.
       -3   -1    0    0    0  501  0.00000000000E+00  0.00000000000E+00 -0.10532568401E+04  0.10532568449E+04  0.10100000352E+00 0. -1.
    10030    2    1    2    0    0  0.00000000000E+00  0.00000000000E+00 -0.55047378373E+03  0.15560399114E+04  0.14554170603E+04 0.  0.
        3    1    3    3  502    0  0.30900249783E+03  0.23940351696E+03 -0.93148408012E+03  0.10101778008E+04  0.10100000352E+00 0. -1.
       -3    1    3    3    0  502 -0.30900249783E+03 -0.23940351696E+03  0.38101029639E+03  0.54586211057E+03  0.10100000352E+00 0.  1.
</event>
<event>
 5   0  0.3623359E-04  0.2229829E+04  0.7818609E-02  0.8506114E-01
       -2   -1    0    0    0  501  0.00000000000E+00  0.00000000000E+00  0.63580824589E+03  0.63580824589E+03  0.25500000920E-02 0.  1.
        2   -1    0    0  501    0  0.00000000000E+00  0.00000000000E+00 -0.19550463067E+04  0.19550463067E+04  0.25500000920E-02 0. -1.
    10030    2    1    2    0    0  0.00000000000E+00  0.00000000000E+00 -0.13192380608E+04  0.25908545526E+04  0.22298291978E+04 0.  0.
        5    1    3    3  502    0 -0.50195827196E+03 -0.96676308646E+03 -0.93560439638E+03  0.14359563533E+04  0.46999998093E+01 0. -1.
       -5    1    3    3    0  502  0.50195827196E+03  0.96676308646E+03 -0.38363366439E+03  0.11548981992E+04  0.46999998093E+01 0.  1.
</event>
<event>
 5   0  0.3623359E-04  0.1912732E+04  0.7818609E-02  0.8648545E-01
        2   -1    0    0  501    0  0.00000000000E+00  0.00000000000E+00  0.21887066256E+04  0.21887066256E+04  0.25500000920E-02 0.  1.
       -2   -1    0    0    0  501  0.00000000000E+00  0.00000000000E+00 -0.41788878789E+03  0.41788878790E+03  0.25500000920E-02 0. -1.
    10030    2    1    2    0    0  0.00000000000E+00  0.00000000000E+00  0.17708178377E+04  0.26065954135E+04  0.19127320344E+04 0.  0.
        5    1    3    3  502    0  0.76015327857E+03 -0.13344027713E+03  0.11575140256E+03  0.78042282877E+03  0.46999998093E+01 0. -1.
       -5    1    3    3    0  502 -0.76015327857E+03  0.13344027713E+03  0.16550664352E+04  0.18261725848E+04  0.46999998093E+01 0.  1.
</event>
<event>
 5   0  0.1694830E-04  0.1843096E+04  0.7818609E-02  0.8683712E-01
       -1   -1    0    0    0  501  0.00000000000E+00  0.00000000000E+00  0.80416916623E+03  0.80416916624E+03  0.50400001928E-02 0. -1.
        1   -1    0    0  501    0  0.00000000000E+00  0.00000000000E+00 -0.10560593769E+04  0.10560593769E+04  0.50400001928E-02 0.  1.
    10030    2    1    2    0    0  0.00000000000E+00  0.00000000000E+00 -0.25189021064E+03  0.18602285431E+04  0.18430956444E+04 0.  0.
        1    1    3    3  502    0  0.59571562722E+03  0.42039286125E+03 -0.69478252691E+03  0.10071395266E+04  0.50400001928E-02 0.  1.
       -1    1    3    3    0  502 -0.59571562722E+03 -0.42039286125E+03  0.44289231626E+03  0.85308901654E+03  0.50400001928E-02 0. -1.
</event>
<event>
 5   0  0.1711979E-04  0.1893807E+04  0.7818609E-02  0.8657945E-01
        1   -1    0    0  501    0  0.00000000000E+00  0.00000000000E+00  0.11572951946E+04  0.11572951946E+04  0.50400001928E-02 0. -1.
       -1   -1    0    0    0  501  0.00000000000E+00  0.00000000000E+00 -0.77475994021E+03  0.77475994023E+03  0.50400001928E-02 0.  1.
    10030    2    1    2    0    0  0.00000000000E+00  0.00000000000E+00  0.38253525434E+03  0.19320551348E+04  0.18938067016E+04 0.  0.
        4    1    3    3  502    0 -0.22857499458E+03 -0.46717153104E+03 -0.61599645347E+03  0.80619415227E+03  0.12699999809E+01 0.  1.
       -4    1    3    3    0  502  0.22857499458E+03  0.46717153104E+03  0.99853170781E+03  0.11258609825E+04  0.12699999809E+01 0. -1.
</event>
<event>
 5   0  0.3459485E-04  0.1751593E+04  0.7818609E-02  0.8732474E-01
        2   -1    0    0  501    0  0.00000000000E+00  0.00000000000E+00  0.81966380750E+03  0.81966380750E+03  0.25500000920E-02 0. -1.
       -2   -1    0    0    0  501  0.00000000000E+00  0.00000000000E+00 -0.93577337442E+03  0.93577337442E+03  0.25500000920E-02 0.  1.
    10030    2    1    2    0    0  0.00000000000E+00  0.00000000000E+00 -0.11610956692E+03  0.17554371819E+04  0.17515930658E+04 0.  0.
        3    1    3    3  502    0  0.50775887929E+03  0.63984942159E+03 -0.37464868098E+03  0.89865900439E+03  0.10100000352E+00 0.  1.
       -3    1    3    3    0  502 -0.50775887929E+03 -0.63984942159E+03  0.25853911406E+03  0.85677817754E+03  0.10100000352E+00 0. -1.
</event>
<event>
 5   0  0.3720978E-04  0.1900888E+04  0.7818609E-02  0.8654414E-01
       -2   -1    0    0    0  501  0.00000000000E+00  0.00000000000E+00  0.39926597621E+03  0.39926597622E+03  0.25500000920E-02 0. -1.
        2   -1    0    0  501    0  0.00000000000E+00  0.00000000000E+00 -0.22625120519E+04  0.22625120519E+04  0.25500000920E-02 0.  1.
    10030    2    1    2    0    0  0.00000000000E+00  0.00000000000E+00 -0.18632460757E+04  0.26617780282E+04  0.19008883009E+04 0.  0.
        1    1    3    3  502    0  0.57142657768E+03 -0.44088385149E+03 -0.65668104045E+02  0.72472008672E+03  0.50400001928E-02 0. -1.
       -1    1    3    3    0  502 -0.57142657768E+03  0.44088385149E+03 -0.17975779717E+04  0.19370579414E+04  0.50400001928E-02 0.  1.
</event>
<event>
 5   0  0.3623359E-04  0.1949882E+04  0.7818609E-02  0.8630418E-01
       -2   -1    0    0    0  501  0.00000000000E+00  0.00000000000E+00  0.80185329030E+03  0.80185329031E+03  0.25500000920E-02 0.  1.
        2   -1    0    0  501    0  0.00000000000E+00  0.00000000000E+00 -0.11853917575E+04  0.11853917575E+04  0.25500000920E-02 0. -1.
    10030    2    1    2    0    0  0.00000000000E+00  0.00000000000E+00 -0.38353846716E+03  0.19872450478E+04  0.19498823360E+04 0.  0.
        5    1    3    3  502    0 -0.51578592096E+03 -0.47191233241E+03  0.50077469911E+03  0.85996148461E+03  0.46999998093E+01 0.  1.
       -5    1    3    3    0  502  0.51578592096E+03  0.47191233241E+03 -0.88431316627E+03  0.11272835632E+04  0.46999998093E+01 0. -1.
</event>
<event>
 5   0  0.1287000E-04  0.1910775E+04  0.7818609E-02  0.8649512E-01
       -4   -1    0    0    0  501  0.00000000000E+00  0.00000000000E+00  0.72118807957E+03  0.72118919779E+03  0.12699999809E+01 0.  1.
        4   -1    0    0  501    0  0.00000000000E+00  0.00000000000E+00 -0.12656384586E+04  0.12656390958E+04  0.12699999809E+01 0. -1.
    10030    2    1    2    0    0  0.00000000000E+00  0.00000000000E+00 -0.54445037904E+03  0.19868282936E+04  0.19107748305E+04 0.  0.
        1    1    3    3  502    0 -0.31939158781E+03 -0.11482822449E+03  0.65638800326E+03  0.73894635689E+03  0.50400001928E-02 0.  1.
       -1    1    3    3    0  502  0.31939158781E+03  0.11482822449E+03 -0.12008383823E+04  0.12478819367E+04  0.50400001928E-02 0. -1.
</event>
<event>
 5   0  0.3459485E-04  0.1721512E+04  0.7818609E-02  0.8749189E-01
        2   -1    0    0  501    0  0.00000000000E+00  0.00000000000E+00  0.89867945946E+03  0.89867945947E+03  0.25500000920E-02 0.  1.
       -2   -1    0    0    0  501  0.00000000000E+00  0.00000000000E+00 -0.82443290533E+03  0.82443290534E+03  0.25500000920E-02 0. -1.
    10030    2    1    2    0    0  0.00000000000E+00  0.00000000000E+00  0.74246554129E+02  0.17231123648E+04  0.17215120304E+04 0.  0.
        3    1    3    3  502    0 -0.77452803632E+03  0.29294553694E+03  0.27226748633E+03  0.87168822464E+03  0.10100000352E+00 0.  1.
       -3    1    3    3    0  502  0.77452803632E+03 -0.29294553694E+03 -0.19802093221E+03  0.85142414016E+03  0.10100000352E+00 0. -1.
</event>
<event>
 5   0  0.3516539E-04  0.1884749E+04  0.7818609E-02  0.8662485E-01
        2   -1    0    0  501    0  0.00000000000E+00  0.00000000000E+00  0.13830484588E+04  0.13830484588E+04  0.25500000920E-02 0. -1.
       -2   -1    0    0    0  501  0.00000000000E+00  0.00000000000E+00 -0.64211007734E+03  0.64211007734E+03  0.25500000920E-02 0.  1.
    10030    2    1    2    0    0  0.00000000000E+00  0.00000000000E+00  0.74093838142E+03  0.20251585361E+04  0.18847486334E+04 0.  0.
        4    1    3    3  502    0  0.57966044858E+03 -0.30582411645E+03  0.10980662618E+04  0.12787829191E+04  0.12699999809E+01 0. -1.
       -4    1    3    3    0  502 -0.57966044858E+03  0.30582411645E+03 -0.35712788039E+03  0.74637561704E+03  0.12699999809E+01 0.  1.
</event>
<event>
 5   0  0.1287000E-04  0.1963847E+04  0.7818609E-02  0.8623713E-01
        3   -1    0    0  501    0  0.00000000000E+00  0.00000000000E+00  0.64618293433E+03  0.64618294223E+03  0.10100000352E+00 0. -1.
       -3   -1    0    0    0  501  0.00000000000E+00  0.00000000000E+00 -0.14921059686E+04  0.14921059720E+04  0.10100000352E+00 0.  1.
    10030    2    1    2    0    0  0.00000000000E+00  0.00000000000E+00 -0.84592303429E+03  0.21382889143E+04  0.19638466592E+04 0.  0.
        2    1    3    3  502    0 -0.13630387182E+03 -0.45688733433E+01  0.63582042693E+03  0.65028242740E+03  0.25500000920E-02 0. -1.
       -2    1    3    3    0  502  0.13630387182E+03  0.45688733433E+01 -0.14817434612E+04  0.14880064869E+04  0.25500000920E-02 0.  1.
</event>
<event>
 5   0  0.3459485E-04  0.1886158E+04  0.7818609E-02  0.8661777E-01
        2   -1    0    0  501    0  0.00000000000E+00  0.00000000000E+00  0.79982411140E+03  0.79982411140E+03  0.25500000920E-02 0. -1.
       -2   -1    0    0    0  501  0.00000000000E+00  0.00000000000E+00 -0.11119915276E+04  0.11119915276E+04  0.25500000920E-02 0.  1.
    10030    2    1    2    0    0  0.00000000000E+00  0.00000000000E+00 -0.31216741621E+03  0.19118156390E+04  0.18861576132E+04 0.  0.
        3    1    3    3  502    0  0.67179174238E+02  0.78508177403E+03 -0.68133290704E+03  0.10416722007E+04  0.10100000352E+00 0.  1.
       -3    1    3    3    0  502 -0.67179174238E+02 -0.78508177403E+03  0.36916549083E+03  0.87014343828E+03  0.10100000352E+00 0. -1.
</event>
<event>
 5   0  0.3516539E-04  0.1896980E+04  0.7818609E-02  0.8656361E-01
       -2   -1    0    0    0  501  0.00000000000E+00  0.00000000000E+00  0.47893562636E+03  0.47893562637E+03  0.25500000920E-02 0. -1.
        2   -1    0    0  501    0  0.00000000000E+00  0.00000000000E+00 -0.18784011168E+04  0.18784011168E+04  0.25500000920E-02 0.  1.
    10030    2    1    2    0    0  0.00000000000E+00  0.00000000000E+00 -0.13994654904E+04  0.23573367432E+04  0.18969799318E+04 0.  0.
        4    1    3    3  502    0  0.90492202415E+03 -0.28349967810E+03 -0.72381845249E+03  0.11929671841E+04  0.12699999809E+01 0.  1.
       -4    1    3    3    0  502 -0.90492202415E+03  0.28349967810E+03 -0.67564703794E+03  0.11643695591E+04  0.12699999809E+01 0. -1.
</event>
<event>
 5   0  0.3720978E-04  0.1908115E+04  0.7818609E-02  0.8650827E-01
        2   -1    0    0  501    0  0.00000000000E+00  0.00000000000E+00  0.11708330698E+04  0.11708330698E+04  0.25500000920E-02 0.  1.
       -2   -1    0    0    0  501  0.00000000000E+00  0.00000000000E+00 -0.77741750808E+03  0.77741750808E+03  0.25500000920E-02 0. -1.
    10030    2    1    2    0    0  0.00000000000E+00  0.00000000000E+00  0.39341556172E+03  0.19482505779E+04  0.19081154341E+04 0.  0.
        1    1    3    3  502    0 -0.35226053107E+03  0.50855199935E+03  0.93828599462E+03  0.11238742036E+04  0.50400001928E-02 0.  1.
       -1    1    3    3    0  502  0.35226053107E+03 -0.50855199935E+03 -0.54487043290E+03  0.82437637428E+03  0.50400001928E-02 0. -1.
</event>
<event>
 5   0  0.1711979E-04  0.1907376E+04  0.7818609E-02  0.8651193E-01
        1   -1    0    0  501    0  0.00000000000E+00  0.00000000000E+00  0.12811774786E+04  0.12811774786E+04  0.50400001928E-02 0. -1.
       -1   -1    0    0    0  501  0.00000000000E+00  0.00000000000E+00 -0.70991032286E+03  0.70991032288E+03  0.50400001928E-02 0.  1.
    10030    2    1    2    0    0  0.00000000000E+00  0.00000000000E+00  0.57126715572E+03  0.19910878015E+04  0.19073763315E+04 0.  0.
        4    1    3    3  502    0  0.71639527239E+03  0.35625429972E+03 -0.25616374116E+03  0.84009570142E+03  0.12699999809E+01 0.  1.
       -4    1    3    3    0  502 -0.71639527239E+03 -0.35625429972E+03  0.82743089688E+03  0.11509921000E+04  0.12699999809E+01 0. -1.
</event>
<event>
 5   0  0.3459485E-04  0.1293726E+04  0.7818609E-02  0.9034555E-01
        2   -1    0    0  501    0  0.00000000000E+00  0.00000000000E+00  0.12608593516E+04  0.12608593516E+04  0.25500000920E-02 0. -1.
       -2   -1    0    0    0  501  0.00000000000E+00  0.00000000000E+00 -0.33186235036E+03  0.33186235037E+03  0.25500000920E-02 0.  1.
    10030    2    1    2    0    0  0.00000000000E+00  0.00000000000E+00  0.92899700125E+03  0.15927217020E+04  0.12937260110E+04 0.  0.
        3    1    3    3  502    0 -0.28941091485E+03 -0.39193674907E+03  0.98834882894E+03  0.11019103914E+04  0.10100000352E+00 0. -1.
       -3    1    3    3    0  502  0.28941091485E+03  0.39193674907E+03 -0.59351827694E+02  0.49081131054E+03  0.10100000352E+00 0.  1.
</event>
<event>
 5   0  0.3623359E-04  0.1893476E+04  0.7818609E-02  0.8658111E-01
        2   -1    0    0  501    0  0.00000000000E+00  0.00000000000E+00  0.97159181000E+03  0.97159181001E+03  0.25500000920E-02 0. -1.
       -2   -1    0    0    0  501  0.00000000000E+00  0.00000000000E+00 -0.92252007817E+03  0.92252007818E+03  0.25500000920E-02 0.  1.
    10030    2    1    2    0    0  0.00000000000E+00  0.00000000000E+00  0.49071731827E+02  0.18941118882E+04  0.18934761182E+04 0.  0.
        5    1    3    3  502    0  0.93724399243E+03 -0.26248005608E+01  0.15821333485E+03  0.95051919510E+03  0.46999998093E+01 0. -1.
       -5    1    3    3    0  502 -0.93724399243E+03  0.26248005608E+01 -0.10914160302E+03  0.94359269308E+03  0.46999998093E+01 0.  1.
</event>
<event>
 5   0  0.1782613E-04  0.1892216E+04  0.7818609E-02  0.8658741E-01
        1   -1    0    0  501    0  0.00000000000E+00  0.00000000000E+00  0.95548890323E+03  0.95548890324E+03  0.50400001928E-02 0.  1.
       -1   -1    0    0    0  501  0.00000000000E+00  0.00000000000E+00 -0.93681945623E+03  0.93681945624E+03  0.50400001928E-02 0. -1.
    10030    2    1    2    0    0  0.00000000000E+00  0.00000000000E+00  0.18669447004E+02  0.18923083595E+04  0.18922162612E+04 0.  0.
        3    1    3    3  502    0 -0.56049732133E+03 -0.73864211540E+03  0.19741610477E+03  0.94800978396E+03  0.10100000352E+00 0.  1.
       -3    1    3    3    0  502  0.56049732133E+03  0.73864211540E+03 -0.17874665777E+03  0.94429857552E+03  0.10100000352E+00 0. -1.
</event>
<event>
 5   0  0.1711979E-04  0.2108851E+04  0.7818609E-02  0.8557355E-01
        1   -1    0    0  501    0  0.00000000000E+00  0.00000000000E+00  0.22378598554E+04  0.22378598554E+04  0.50400001928E-02 0. -1.
       -1   -1    0    0    0  501  0.00000000000E+00  0.00000000000E+00 -0.49681961964E+03  0.49681961966E+03  0.50400001928E-02 0.  1.
    10030    2    1    2    0    0  0.00000000000E+00  0.00000000000E+00  0.17410402358E+04  0.27346794751E+04  0.21088505705E+04 0.  0.
        4    1    3    3  502    0  0.87075948214E+03 -0.54799045387E+03  0.11698883515E+04  0.15579332403E+04  0.12699999809E+01 0. -1.
       -4    1    3    3    0  502 -0.87075948214E+03  0.54799045387E+03  0.57115188423E+03  0.11767462348E+04  0.12699999809E+01 0.  1.
</event>
<event>
 5   0  0.3516539E-04  0.1944184E+04  0.7818609E-02  0.8633171E-01
       -2   -1    0    0    0  501  0.00000000000E+00  0.00000000000E+00  0.64899820969E+03  0.64899820969E+03  0.25500000920E-02 0. -1.
        2   -1    0    0  501    0  0.00000000000E+00  0.00000000000E+00 -0.14560323614E+04  0.14560323614E+04  0.25500000920E-02 0.  1.
    10030    2    1    2    0    0  0.00000000000E+00  0.00000000000E+00 -0.80703415167E+03  0.21050305711E+04  0.19441835261E+04 0.  0.
        4    1    3    3  502    0  0.29306911189E+03 -0.40230651957E+03  0.50056175062E+03  0.70590631044E+03  0.12699999809E+01 0. -1.
       -4    1    3    3    0  502 -0.29306911189E+03  0.40230651957E+03 -0.13075959023E+04  0.13991242606E+04  0.12699999809E+01 0.  1.
</event>
<event>
 5   0  0.1782613E-04  0.1886983E+04  0.7818609E-02  0.8661363E-01
       -1   -1    0    0    0  501  0.00000000000E+00  0.00000000000E+00  0.38840659228E+03  0.38840659231E+03  0.50400001928E-02 0. -1.
        1   -1    0    0  501    0  0.00000000000E+00  0.00000000000E+00 -0.22918680227E+04  0.22918680228E+04  0.50400001928E-02 0.  1.
    10030    2    1    2    0    0  0.00000000000E+00  0.00000000000E+00 -0.19034614305E+04  0.26802746151E+04  0.18869834644E+04 0.  0.
        3    1    3    3  502    0  0.90135583783E+02 -0.66834122848E+03 -0.18889507300E+04  0.20057266243E+04  0.10100000352E+00 0.  1.
       -3    1    3    3    0  502 -0.90135583783E+02  0.66834122848E+03 -0.14510700495E+02  0.67454799071E+03  0.10100000352E+00 0. -1.
</event>
<event>
 5   0  0.3623359E-04  0.1854382E+04  0.7818609E-02  0.8677903E-01
       -2   -1    0    0    0  501  0.00000000000E+00  0.00000000000E+00  0.47107165462E+03  0.47107165463E+03  0.25500000920E-02 0. -1.
        2   -1    0    0  501    0  0.00000000000E+00  0.00000000000E+00 -0.18249517067E+04  0.18249517067E+04  0.25500000920E-02 0.  1.
    10030    2    1    2    0    0  0.00000000000E+00  0.00000000000E+00 -0.13538800521E+04  0.22960233613E+04  0.18543818594E+04 0.  0.
        5    1    3    3  502    0  0.19127359647E+03 -0.76160004825E+03 -0.66537048870E+02  0.78807962229E+03  0.46999998093E+01 0.  1.
       -5    1    3    3    0  502 -0.19127359647E+03  0.76160004825E+03 -0.12873430032E+04  0.15079437390E+04  0.46999998093E+01 0. -1.
</event>
<event>
 5   0  0.3535876E-04  0.2192061E+04  0.7818609E-02  0.8521740E-01
        2   -1    0    0  501    0  0.00000000000E+00  0.00000000000E+00  0.91127221672E+03  0.91127221673E+03  0.25500000920E-02 0.  1.
       -2   -1    0    0    0  501  0.00000000000E+00  0.00000000000E+00 -0.13182478546E+04  0.13182478546E+04  0.25500000920E-02 0. -1.
    10030    2    1    2    0    0  0.00000000000E+00  0.00000000000E+00 -0.40697563785E+03  0.22295200713E+04  0.21920608063E+04 0.  0.
        2    1    3    3  502    0  0.48482731196E+03  0.35311836187E+03  0.72953925829E+03  0.94444567304E+03  0.25500000920E-02 0.  1.
       -2    1    3    3    0  502 -0.48482731196E+03 -0.35311836187E+03 -0.11365148961E+04  0.12850743983E+04  0.25500000920E-02 0. -1.
</event>
<event>
 5   0  0.3623359E-04  0.1879085E+04  0.7818609E-02  0.8665338E-01
        2   -1    0    0  501    0  0.00000000000E+00  0.00000000000E+00  0.25035892170E+04  0.25035892170E+04  0.25500000920E-02 0.  1.
       -2   -1    0    0    0  501  0.00000000000E+00  0.00000000000E+00 -0.35258991619E+03  0.35258991620E+03  0.25500000920E-02 0. -1.
    10030    2    1    2    0    0  0.00000000000E+00  0.00000000000E+00  0.21509993009E+04  0.28561791332E+04  0.18790852160E+04 0.  0.
        5    1    3    3  502    0 -0.68473032598E+03  0.60756046144E+03  0.75402077678E+03  0.11859826118E+04  0.46999998093E+01 0. -1.
       -5    1    3    3    0  502  0.68473032598E+03 -0.60756046144E+03  0.13969785241E+04  0.16701965215E+04  0.46999998093E+01 0.  1.
</event>
<event>
 5   0  0.1813834E-04  0.1789575E+04  0.7818609E-02  0.8711863E-01
        1   -1    0    0  501    0  0.00000000000E+00  0.00000000000E+00  0.75866422461E+03  0.75866422463E+03  0.50400001928E-02 0. -1.
       -1   -1    0    0    0  501  0.00000000000E+00  0.00000000000E+00 -0.10553341282E+04  0.10553341282E+04  0.50400001928E-02 0.  1.
    10030    2    1    2    0    0  0.00000000000E+00  0.00000000000E+00 -0.29666990358E+03  0.18139983528E+04  0.17895745283E+04 0.  0.
        5    1    3    3  502    0  0.85491213759E+03 -0.26355518863E+03 -0.16547901966E+03  0.90980299867E+03  0.46999998093E+01 0.  1.
       -5    1    3    3    0  502 -0.85491213759E+03  0.26355518863E+03 -0.13119088392E+03  0.90419535415E+03  0.46999998093E+01 0. -1.
</event>
<event>
 5   0  0.1711979E-04  0.1897929E+04  0.7818609E-02  0.8655888E-01
       -1   -1    0    0    0  501  0.00000000000E+00  0.00000000000E+00  0.70905466225E+03  0.70905466227E+03  0.50400001928E-02 0.  1.
        1   -1    0    0  501    0  0.00000000000E+00  0.00000000000E+00 -0.12700488899E+04  0.12700488899E+04  0.50400001928E-02 0. -1.
    10030    2    1    2    0    0  0.00000000000E+00  0.00000000000E+00 -0.56099422762E+03  0.19791035521E+04  0.18979294894E+04 0.  0.
        4    1    3    3  502    0  0.85316810520E+03 -0.36732777040E+03 -0.78009134869E+02  0.93215478579E+03  0.12699999809E+01 0. -1.
       -4    1    3    3    0  502 -0.85316810520E+03  0.36732777040E+03 -0.48298509275E+03  0.10469487664E+04  0.12699999809E+01 0.  1.
</event>
<event>
 5   0  0.3459485E-04  0.1836609E+04  0.7818609E-02  0.8687070E-01
       -2   -1    0    0    0  501  0.00000000000E+00  0.00000000000E+00  0.70477064707E+03  0.70477064708E+03  0.25500000920E-02 0.  1.
        2   -1    0    0  501    0  0.00000000000E+00  0.00000000000E+00 -0.11965354152E+04  0.11965354152E+04  0.25500000920E-02 0. -1.
    10030    2    1    2    0    0  0.00000000000E+00  0.00000000000E+00 -0.49176476812E+03  0.19013060623E+04  0.18366088738E+04 0.  0.
        3    1    3    3  502    0  0.32911681811E+03  0.85707636020E+03 -0.26620188884E+03  0.95590858507E+03  0.10100000352E+00 0.  1.
       -3    1    3    3    0  502 -0.32911681811E+03 -0.85707636020E+03 -0.22556287927E+03  0.94539747720E+03  0.10100000352E+00 0. -1.
</event>
<event>
 5   0  0.1758946E-04  0.1911494E+04  0.7818609E-02  0.8649156E-01
        1   -1    0    0  501    0  0.00000000000E+00  0.00000000000E+00  0.10071434900E+04  0.10071434900E+04  0.50400001928E-02 0.  1.
       -1   -1    0    0    0  501  0.00000000000E+00  0.00000000000E+00 -0.90697348859E+03  0.90697348860E+03  0.50400001928E-02 0. -1.
    10030    2    1    2    0    0  0.00000000000E+00  0.00000000000E+00  0.10017000138E+03  0.19141169786E+04  0.19114941220E+04 0.  0.
        2    1    3    3  502    0  0.64958909641E+03 -0.43110825263E+03 -0.50351363245E+03  0.92808744078E+03  0.25500000920E-02 0. -1.
       -2    1    3    3    0  502 -0.64958909641E+03  0.43110825263E+03  0.60368363384E+03  0.98602953780E+03  0.25500000920E-02 0.  1.
</event>
<event>
 5   0  0.3516539E-04  0.1873685E+04  0.7818609E-02  0.8668067E-01
        2   -1    0    0  501    0  0.00000000000E+00  0.00000000000E+00  0.19297377133E+04  0.19297377133E+04  0.25500000920E-02 0.  1.
       -2   -1    0    0    0  501  0.00000000000E+00  0.00000000000E+00 -0.45481487894E+03  0.45481487894E+03  0.25500000920E-02 0. -1.
    10030    2    1    2    0    0  0.00000000000E+00  0.00000000000E+00  0.14749228344E+04  0.23845525923E+04  0.18736845247E+04 0.  0.
        4    1    3    3  502    0 -0.38546223783E+03 -0.22841022135E+03 -0.30961633165E+03  0.54462487249E+03  0.12699999809E+01 0. -1.
       -4    1    3    3    0  502  0.38546223783E+03  0.22841022135E+03  0.17845391661E+04  0.18399277198E+04  0.12699999809E+01 0.  1.
</event>
<event>
 5   0  0.1711979E-04  0.1873676E+04  0.7818609E-02  0.8668072E-01
       -1   -1    0    0    0  501  0.00000000000E+00  0.00000000000E+00  0.37046629199E+03  0.37046629202E+03  0.50400001928E-02 0.  1.
        1   -1    0    0  501    0  0.00000000000E+00  0.00000000000E+00 -0.23690824622E+04  0.23690824622E+04  0.50400001928E-02 0. -1.
    10030    2    1    2    0    0  0.00000000000E+00  0.00000000000E+00 -0.19986161702E+04  0.27395487542E+04  0.18736757406E+04 0.  0.
        4    1    3    3  502    0  0.67095903687E+03 -0.48892005043E+03 -0.16340030944E+04  0.18328111114E+04  0.12699999809E+01 0. -1.
       -4    1    3    3    0  502 -0.67095903687E+03  0.48892005043E+03 -0.36461307582E+03  0.90673764277E+03  0.12699999809E+01 0.  1.
</event>
<event>
 5   0  0.1694830E-04  0.1878179E+04  0.7818609E-02  0.8665795E-01
        1   -1    0    0  501    0  0.00000000000E+00  0.00000000000E+00  0.13534511934E+04  0.13534511934E+04  0.50400001928E-02 0.  1.
       -1   -1    0    0    0  501  0.00000000000E+00  0.00000000000E+00 -0.65158565940E+03  0.65158565942E+03  0.50400001928E-02 0. -1.
    10030    2    1    2    0    0  0.00000000000E+00  0.00000000000E+00  0.70186553395E+03  0.20050368528E+04  0.18781793187E+04 0.  0.
        1    1    3    3  502    0  0.59731962904E+03  0.38196745436E+03 -0.30645132549E+03  0.77240034331E+03  0.50400001928E-02 0. -1.
       -1    1    3    3    0  502 -0.59731962904E+03 -0.38196745436E+03  0.10083168594E+04  0.12326365095E+04  0.50400001928E-02 0.  1.
</event>
<event>
 5   0  0.1813834E-04  0.1902189E+04  0.7818609E-02  0.8653767E-01
        1   -1    0    0  501    0  0.00000000000E+00  0.00000000000E+00  0.57044320328E+03  0.57044320330E+03  0.50400001928E-02 0.  1.
       -1   -1    0    0    0  501  0.00000000000E+00  0.00000000000E+00 -0.15857514645E+04  0.15857514645E+04  0.50400001928E-02 0. -1.
    10030    2    1    2    0    0  0.00000000000E+00  0.00000000000E+00 -0.10153082612E+04  0.21561946678E+04  0.19021894175E+04 0.  0.
        5    1    3    3  502    0  0.22048914445E+03 -0.66302426354E+03  0.22375358374E+03  0.73369230137E+03  0.46999998093E+01 0.  1.
       -5    1    3    3    0  502 -0.22048914445E+03  0.66302426354E+03 -0.12390618449E+04  0.14225023664E+04  0.46999998093E+01 0. -1.
</event>
<event>
 5   0  0.1782613E-04  0.1678321E+04  0.7818609E-02  0.8773826E-01
       -1   -1    0    0    0  501  0.00000000000E+00  0.00000000000E+00  0.74013537834E+03  0.74013537836E+03  0.50400001928E-02 0. -1.
        1   -1    0    0  501    0  0.00000000000E+00  0.00000000000E+00 -0.95143396162E+03  0.95143396164E+03  0.50400001928E-02 0.  1.
    10030    2    1    2    0    0  0.00000000000E+00  0.00000000000E+00 -0.21129858328E+03  0.16915693400E+04  0.16783205119E+04 0.  0.
        3    1    3    3  502    0 -0.32354610444E+03 -0.77141514425E+03 -0.17270658878E+03  0.85416098160E+03  0.10100000352E+00 0.  1.
       -3    1    3    3    0  502  0.32354610444E+03  0.77141514425E+03 -0.38591994503E+02  0.83740835840E+03  0.10100000352E+00 0. -1.
</event>
<event>
 5   0  0.3535876E-04  0.1915446E+04  0.7818609E-02  0.8647206E-01
       -2   -1    0    0    0  501  0.00000000000E+00  0.00000000000E+00  0.67201041275E+03  0.67201041276E+03  0.25500000920E-02 0.  1.
        2   -1    0    0  501    0  0.00000000000E+00  0.00000000000E+00 -0.13649088950E+04  0.13649088950E+04  0.25500000920E-02 0. -1.
    10030    2    1    2    0    0  0.00000000000E+00  0.00000000000E+00 -0.69289848222E+03  0.20369193077E+04  0.19154456295E+04 0.  0.
        2    1    3    3  502    0  0.67750570547E+03  0.23290652011E+03 -0.10223461615E+04  0.12483793903E+04  0.25500000920E-02 0. -1.
       -2    1    3    3    0  502 -0.67750570547E+03 -0.23290652011E+03  0.32944767930E+03  0.78853991747E+03  0.25500000920E-02 0.  1.
</event>
<event>
 5   0  0.1711979E-04  0.1865626E+04  0.7818609E-02  0.8672158E-01
        1   -1    0    0  501    0  0.00000000000E+00  0.00000000000E+00  0.13101179935E+04  0.13101179935E+04  0.50400001928E-02 0. -1.
       -1   -1    0    0    0  501  0.00000000000E+00  0.00000000000E+00 -0.66416908220E+03  0.66416908222E+03  0.50400001928E-02 0.  1.
    10030    2    1    2    0    0  0.00000000000E+00  0.00000000000E+00  0.64594891129E+03  0.19742870757E+04  0.18656257560E+04 0.  0.
        4    1    3    3  502    0 -0.54060405697E+03  0.60023777840E+03  0.81662012840E+03  0.11486549456E+04  0.12699999809E+01 0. -1.
       -4    1    3    3    0  502  0.54060405697E+03 -0.60023777840E+03 -0.17067121712E+03  0.82563213012E+03  0.12699999809E+01 0.  1.
</event>
<event>
 5   0  0.3459485E-04  0.1934230E+04  0.7818609E-02  0.8638003E-01
       -2   -1    0    0    0  501  0.00000000000E+00  0.00000000000E+00  0.95378800667E+03  0.95378800667E+03  0.25500000920E-02 0. -1.
        2   -1    0    0  501    0  0.00000000000E+00  0.00000000000E+00 -0.98062807291E+03  0.98062807292E+03  0.25500000920E-02 0.  1.
    10030    2    1    2    0    0  0.00000000000E+00  0.00000000000E+00 -0.26840066246E+02  0.19344160796E+04  0.19342298674E+04 0.  0.
        3    1    3    3  502    0  0.72986569955E+03 -0.35940864389E+03 -0.53637837033E+03  0.97446409838E+03  0.10100000352E+00 0.  1.
       -3    1    3    3    0  502 -0.72986569955E+03  0.35940864389E+03  0.50953830408E+03  0.95995198120E+03  0.10100000352E+00 0. -1.
</event>
<event>
 5   0  0.3516539E-04  0.1949986E+04  0.7818609E-02  0.8630367E-01
        2   -1    0    0  501    0  0.00000000000E+00  0.00000000000E+00  0.18250159430E+04  0.18250159430E+04  0.25500000920E-02 0. -1.
       -2   -1    0    0    0  501  0.00000000000E+00  0.00000000000E+00 -0.52087841749E+03  0.52087841750E+03  0.25500000920E-02 0.  1.
    10030    2    1    2    0    0  0.00000000000E+00  0.00000000000E+00  0.13041375255E+04  0.23458943605E+04  0.19499860679E+04 0.  0.
        4    1    3    3  502    0 -0.63292477532E+03  0.66976646837E+03  0.10352090513E+04  0.13859438250E+04  0.12699999809E+01 0. -1.
       -4    1    3    3    0  502  0.63292477532E+03 -0.66976646837E+03  0.26892847420E+03  0.95995053544E+03  0.12699999809E+01 0.  1.
</event>
<event>
 5   0  0.1694830E-04  0.1735794E+04  0.7818609E-02  0.8741209E-01
       -1   -1    0    0    0  501  0.00000000000E+00  0.00000000000E+00  0.71183587374E+03  0.71183587376E+03  0.50400001928E-02 0. -1.
        1   -1    0    0  501    0  0.00000000000E+00  0.00000000000E+00 -0.10581723344E+04  0.10581723344E+04  0.50400001928E-02 0.  1.
    10030    2    1    2    0    0  0.00000000000E+00  0.00000000000E+00 -0.34633646069E+03  0.17700082082E+04  0.17357937991E+04 0.  0.
        1    1    3    3  502    0 -0.48752764395E+03  0.62071421875E+03  0.19488346929E+03  0.81298764542E+03  0.50400001928E-02 0. -1.
       -1    1    3    3    0  502  0.48752764395E+03 -0.62071421875E+03 -0.54121992998E+03  0.95702056279E+03  0.50400001928E-02 0.  1.
</event>
<event>
 5   0  0.3623359E-04  0.1315313E+04  0.7818609E-02  0.9017509E-01
       -2   -1    0    0    0  501  0.00000000000E+00  0.00000000000E+00  0.30576277094E+03  0.30576277095E+03  0.25500000920E-02 0.  1.
        2   -1    0    0  501    0  0.00000000000E+00  0.00000000000E+00 -0.14145352711E+04  0.14145352711E+04  0.25500000920E-02 0. -1.
    10030    2    1    2    0    0  0.00000000000E+00  0.00000000000E+00 -0.11087725001E+04  0.17202980420E+04  0.13153132313E+04 0.  0.
        5    1    3    3  502    0 -0.49242172778E+02  0.88119126762E+02 -0.14043203094E+04  0.14079514883E+04  0.46999998093E+01 0. -1.
       -5    1    3    3    0  502  0.49242172778E+02 -0.88119126762E+02  0.29554780924E+03  0.31234655373E+03  0.46999998093E+01 0.  1.
</event>
<event>
 5   0  0.3720978E-04  0.1882489E+04  0.7818609E-02  0.8663622E-01
       -2   -1    0    0    0  501  0.00000000000E+00  0.00000000000E+00  0.19326023112E+04  0.19326023112E+04  0.25500000920E-02 0. -1.
        2   -1    0    0  501    0  0.00000000000E+00  0.00000000000E+00 -0.45841889544E+03  0.45841889545E+03  0.25500000920E-02 0.  1.
    10030    2    1    2    0    0  0.00000000000E+00  0.00000000000E+00  0.14741834158E+04  0.23910212067E+04  0.18824892211E+04 0.  0.
        1    1    3    3  502    0 -0.33071063469E+03  0.45620916023E+03 -0.22053266641E+03  0.60508757941E+03  0.50400001928E-02 0.  1.
       -1    1    3    3    0  502  0.33071063469E+03 -0.45620916023E+03  0.16947160822E+04  0.17859336273E+04  0.50400001928E-02 0. -1.
</event>
<event>
 5   0  0.3459485E-04  0.1916242E+04  0.7818609E-02  0.8646814E-01
       -2   -1    0    0    0  501  0.00000000000E+00  0.00000000000E+00  0.56846780568E+03  0.56846780568E+03  0.25500000920E-02 0. -1.
        2   -1    0    0  501    0  0.00000000000E+00  0.00000000000E+00 -0.16148601768E+04  0.16148601768E+04  0.25500000920E-02 0.  1.
    10030    2    1    2    0    0  0.00000000000E+00  0.00000000000E+00 -0.10463923711E+04  0.21833279825E+04  0.19162421780E+04 0.  0.
        3    1    3    3  502    0  0.60322124098E+03  0.32547038386E+03 -0.12859761324E+04  0.14572376126E+04  0.10100000352E+00 0.  1.
       -3    1    3    3    0  502 -0.60322124098E+03 -0.32547038386E+03  0.23958376127E+03  0.72609036986E+03  0.10100000352E+00 0. -1.
</event>
<event>
 5   0  0.1694830E-04  0.1902647E+04  0.7818609E-02  0.8653540E-01
        1   -1    0    0  501    0  0.00000000000E+00  0.00000000000E+00  0.13926656424E+04  0.13926656424E+04  0.50400001928E-02 0. -1.
       -1   -1    0    0    0  501  0.00000000000E+00  0.00000000000E+00 -0.64984453420E+03  0.64984453422E+03  0.50400001928E-02 0.  1.
    10030    2    1    2    0    0  0.00000000000E+00  0.00000000000E+00  0.74282110823E+03  0.20425101767E+04  0.19026467415E+04 0.  0.
        1    1    3    3  502    0  0.91577225740E+03  0.25736809522E+03  0.38406667805E+03  0.10258578737E+04  0.50400001928E-02 0.  1.
       -1    1    3    3    0  502 -0.91577225740E+03 -0.25736809522E+03  0.35875443017E+03  0.10166523029E+04  0.50400001928E-02 0. -1.
</event>
<event>
 5   0  0.1758946E-04  0.1894509E+04  0.7818609E-02  0.8657594E-01
        1   -1    0    0  501    0  0.00000000000E+00  0.00000000000E+00  0.88084071732E+03  0.88084071733E+03  0.50400001928E-02 0.  1.
       -1   -1    0    0    0  501  0.00000000000E+00  0.00000000000E+00 -0.10186760458E+04  0.10186760458E+04  0.50400001928E-02 0. -1.
    10030    2    1    2    0    0  0.00000000000E+00  0.00000000000E+00 -0.13783532846E+03  0.18995167631E+04  0.18945092651E+04 0.  0.
        2    1    3    3  502    0 -0.65478602183E+03 -0.54458500623E+03 -0.48471098623E+03  0.97992974420E+03  0.25500000920E-02 0. -1.
       -2    1    3    3    0  502  0.65478602183E+03  0.54458500623E+03  0.34687565777E+03  0.91958701891E+03  0.25500000920E-02 0.  1.
</event>
<event>
 5   0  0.3720978E-04  0.2138291E+04  0.7818609E-02  0.8544561E-01
       -2   -1    0    0    0  501  0.00000000000E+00  0.00000000000E+00  0.64194514706E+03  0.64194514707E+03  0.25500000920E-02 0.  1.
        2   -1    0    0  501    0  0.00000000000E+00  0.00000000000E+00 -0.17806382538E+04  0.17806382538E+04  0.25500000920E-02 0. -1.
    10030    2    1    2    0    0  0.00000000000E+00  0.00000000000E+00 -0.11386931068E+04  0.24225834009E+04  0.21382909865E+04 0.  0.
        1    1    3    3  502    0 -0.90686891260E+02  0.39031271527E+03  0.55365171385E+03  0.68344593657E+03  0.50400001928E-02 0.  1.
       -1    1    3    3    0  502  0.90686891260E+02 -0.39031271527E+03 -0.16923448206E+04  0.17391374643E+04  0.50400001928E-02 0. -1.
</event>
<event>
 5   0  0.3459485E-04  0.1956602E+04  0.7818609E-02  0.8627184E-01
        2   -1    0    0  501    0  0.00000000000E+00  0.00000000000E+00  0.13441519364E+04  0.13441519364E+04  0.25500000920E-02 0. -1.
       -2   -1    0    0    0  501  0.00000000000E+00  0.00000000000E+00 -0.71202712430E+03  0.71202712430E+03  0.25500000920E-02 0.  1.
    10030    2    1    2    0    0  0.00000000000E+00  0.00000000000E+00  0.63212481209E+03  0.20561790607E+04  0.19566017867E+04 0.  0.
        3    1    3    3  502    0  0.19234343151E+03  0.60910973111E+03 -0.46263578783E+03  0.78869673675E+03  0.10100000352E+00 0.  1.
       -3    1    3    3    0  502 -0.19234343151E+03 -0.60910973111E+03  0.10947605999E+04  0.12674823239E+04  0.10100000352E+00 0. -1.
</event>
<event>
 5   0  0.1813834E-04  0.1856235E+04  0.7818609E-02  0.8676953E-01
       -1   -1    0    0    0  501  0.00000000000E+00  0.00000000000E+00  0.91206075579E+03  0.91206075581E+03  0.50400001928E-02 0.  1.
        1   -1    0    0  501    0  0.00000000000E+00  0.00000000000E+00 -0.94445690902E+03  0.94445690903E+03  0.50400001928E-02 0. -1.
    10030    2    1    2    0    0  0.00000000000E+00  0.00000000000E+00 -0.32396153223E+02  0.18565176648E+04  0.18562349876E+04 0.  0.
        5    1    3    3  502    0 -0.80953887668E+03  0.24521759969E+03 -0.39821845167E+03  0.93492507150E+03  0.46999998093E+01 0. -1.
       -5    1    3    3    0  502  0.80953887668E+03 -0.24521759969E+03  0.36582229845E+03  0.92159259334E+03  0.46999998093E+01 0.  1.
</event>
<event>
 5   0  0.3459485E-04  0.1985568E+04  0.7818609E-02  0.8613398E-01
       -2   -1    0    0    0  501  0.00000000000E+00  0.00000000000E+00  0.66047533617E+03  0.66047533617E+03  0.25500000920E-02 0. -1.
        2   -1    0    0  501    0  0.00000000000E+00  0.00000000000E+00 -0.14922886417E+04  0.14922886417E+04  0.25500000920E-02 0.  1.
    10030    2    1    2    0    0  0.00000000000E+00  0.00000000000E+00 -0.83181330553E+03  0.21527639779E+04  0.19855677700E+04 0.  0.
        3    1    3    3  502    0  0.42261477293E+03  0.88834699668E+03 -0.27102739406E+03  0.10204016324E+04  0.10100000352E+00 0.  1.
       -3    1    3    3    0  502 -0.42261477293E+03 -0.88834699668E+03 -0.56078591147E+03  0.11323623455E+04  0.10100000352E+00 0. -1.
</event>
<event>
 5   0  0.1711979E-04  0.1993930E+04  0.7818609E-02  0.8609464E-01
        1   -1    0    0  501    0  0.00000000000E+00  0.00000000000E+00  0.29910165865E+04  0.29910165865E+04  0.50400001928E-02 0. -1.
       -1   -1    0    0    0  501  0.00000000000E+00  0.00000000000E+00 -0.33230810095E+03  0.33230810099E+03  0.50400001928E-02 0.  1.
    10030    2    1    2    0    0  0.00000000000E+00  0.00000000000E+00  0.26587084856E+04  0.33233246875E+04  0.19939298301E+04 0.  0.
        4    1    3    3  502    0 -0.23329508095E+03 -0.79665698671E+03  0.40910616316E+03  0.92545038489E+03  0.12699999809E+01 0.  1.
       -4    1    3    3    0  502  0.23329508095E+03  0.79665698671E+03  0.22496023224E+04  0.23978743026E+04  0.12699999809E+01 0. -1.
</event>
<event>
 5   0  0.1711979E-04  0.1769868E+04  0.7818609E-02  0.8722489E-01
        1   -1    0    0  501    0  0.00000000000E+00  0.00000000000E+00  0.62749232867E+03  0.62749232869E+03  0.50400001928E-02 0.  1.
       -1   -1    0    0    0  501  0.00000000000E+00  0.00000000000E+00 -0.12479968887E+04  0.12479968887E+04  0.50400001928E-02 0. -1.
    10030    2    1    2    0    0  0.00000000000E+00  0.00000000000E+00 -0.62050456001E+03  0.18754892174E+04  0.17698683272E+04 0.  0.
        4    1    3    3  502    0 -0.21312339739E+03 -0.38717578587E+03  0.50216861833E+03  0.66895560826E+03  0.12699999809E+01 0.  1.
       -4    1    3    3    0  502  0.21312339739E+03  0.38717578587E+03 -0.11226731783E+04  0.12065336091E+04  0.12699999809E+01 0. -1.
</event>
<event>
 5   0  0.3459485E-04  0.1831521E+04  0.7818609E-02  0.8689714E-01
        2   -1    0    0  501    0  0.00000000000E+00  0.00000000000E+00  0.11571779349E+04  0.11571779349E+04  0.25500000920E-02 0.  1.
       -2   -1    0    0    0  501  0.00000000000E+00  0.00000000000E+00 -0.72470924469E+03  0.72470924469E+03  0.25500000920E-02 0. -1.
    10030    2    1    2    0    0  0.00000000000E+00  0.00000000000E+00  0.43246869024E+03  0.18818871796E+04  0.18315212772E+04 0.  0.
        3    1    3    3  502    0  0.49240428941E+03 -0.21083538243E+03 -0.54695918392E+03  0.76555724919E+03  0.10100000352E+00 0. -1.
       -3    1    3    3    0  502 -0.49240428941E+03  0.21083538243E+03  0.97942787416E+03  0.11163299304E+04  0.10100000352E+00 0.  1.
</event>
<event>
 5   0  0.1782613E-04  0.1889062E+04  0.7818609E-02  0.8660320E-01
       -1   -1    0    0    0  501  0.00000000000E+00  0.00000000000E+00  0.46251604213E+03  0.46251604215E+03  0.50400001928E-02 0. -1.
        1   -1    0    0  501    0  0.00000000000E+00  0.00000000000E+00 -0.19288825785E+04  0.19288825785E+04  0.50400001928E-02 0.  1.
    10030    2    1    2    0    0  0.00000000000E+00  0.00000000000E+00 -0.14663665363E+04  0.23913986206E+04  0.18890623451E+04 0.  0.
        3    1    3    3  502    0 -0.68321329616E+03 -0.47168578559E+03 -0.13033684443E+04  0.15453275382E+04  0.10100000352E+00 0.  1.
       -3    1    3    3    0  502  0.68321329616E+03  0.47168578559E+03 -0.16299809203E+03  0.84607108246E+03  0.10100000352E+00 0. -1.
</event>
<event>
 5   0  0.1694830E-04  0.1890993E+04  0.7818609E-02  0.8659353E-01
        1   -1    0    0  501    0  0.00000000000E+00  0.00000000000E+00  0.10360178652E+04  0.10360178653E+04  0.50400001928E-02 0.  1.
       -1   -1    0    0    0  501  0.00000000000E+00  0.00000000000E+00 -0.86288430341E+03  0.86288430343E+03  0.50400001928E-02 0. -1.
    10030    2    1    2    0    0  0.00000000000E+00  0.00000000000E+00  0.17313356183E+03  0.18989021687E+04  0.18909929180E+04 0.  0.
        1    1    3    3  502    0  0.68824930219E+03  0.64106697637E+03 -0.10322965937E+02  0.94061710266E+03  0.50400001928E-02 0. -1.
       -1    1    3    3    0  502 -0.68824930219E+03 -0.64106697637E+03  0.18345652777E+03  0.95828506602E+03  0.50400001928E-02 0.  1.
</event>
<event>
 5   0  0.1711979E-04  0.1909387E+04  0.7818609E-02  0.8650198E-01
        1   -1    0    0  501    0  0.00000000000E+00  0.00000000000E+00  0.10167119561E+04  0.10167119561E+04  0.50400001928E-02 0. -1.
       -1   -1    0    0    0  501  0.00000000000E+00  0.00000000000E+00 -0.89645819504E+03  0.89645819505E+03  0.50400001928E-02 0.  1.
    10030    2    1    2    0    0  0.00000000000E+00  0.00000000000E+00  0.12025376109E+03  0.19131701512E+04  0.19093870902E+04 0.  0.
        4    1    3    3  502    0 -0.23296463300E+03  0.83178375881E+03 -0.34725142211E+03  0.93097900336E+03  0.12699999809E+01 0.  1.
       -4    1    3    3    0  502  0.23296463300E+03 -0.83178375881E+03  0.46750518319E+03  0.98219114782E+03  0.12699999809E+01 0. -1.
</event>
<event>
 5   0  0.3535876E-04  0.1869229E+04  0.7818609E-02  0.8670326E-01
        2   -1    0    0  501    0  0.00000000000E+00  0.00000000000E+00  0.92799025520E+03  0.92799025520E+03  0.25500000920E-02 0.  1.
       -2   -1    0    0    0  501  0.00000000000E+00  0.00000000000E+00 -0.94128618100E+03  0.94128618100E+03  0.25500000920E-02 0. -1.
    10030    2    1    2    0    0  0.00000000000E+00  0.00000000000E+00 -0.13295925799E+02  0.18692764362E+04  0.18692291495E+04 0.  0.
        2    1    3    3  502    0  0.37143910949E+03  0.54446658165E+03  0.65601013061E+03  0.92992481527E+03  0.25500000920E-02 0.  1.
       -2    1    3    3    0  502 -0.37143910949E+03 -0.54446658165E+03 -0.66930605641E+03  0.93935162093E+03  0.25500000920E-02 0. -1.
</event>
<event>
 5   0  0.3535876E-04  0.1909301E+04  0.7818609E-02  0.8650241E-01
       -2   -1    0    0    0  501  0.00000000000E+00  0.00000000000E+00  0.53691238892E+03  0.53691238893E+03  0.25500000920E-02 0.  1.
        2   -1    0    0  501    0  0.00000000000E+00  0.00000000000E+00 -0.16974037529E+04  0.16974037529E+04  0.25500000920E-02 0. -1.
    10030    2    1    2    0    0  0.00000000000E+00  0.00000000000E+00 -0.11604913640E+04  0.22343161419E+04  0.19093005043E+04 0.  0.
        2    1    3    3  502    0  0.21934595712E+03  0.42738840564E+03  0.38516272740E+03  0.61573031821E+03  0.25500000920E-02 0.  1.
       -2    1    3    3    0  502 -0.21934595712E+03 -0.42738840564E+03 -0.15456540914E+04  0.16185858236E+04  0.25500000920E-02 0. -1.
</event>
<event>
 5   0  0.3535876E-04  0.1244371E+04  0.7818609E-02  0.9074881E-01
        2   -1    0    0  501    0  0.00000000000E+00  0.00000000000E+00  0.16944117156E+04  0.16944117156E+04  0.25500000920E-02 0.  1.
       -2   -1    0    0    0  501  0.00000000000E+00  0.00000000000E+00 -0.22846577827E+03  0.22846577828E+03  0.25500000920E-02 0. -1.
    10030    2    1    2    0    0  0.00000000000E+00  0.00000000000E+00  0.14659459374E+04  0.19228774939E+04  0.12443714740E+04 0.  0.
        2    1    3    3  502    0  0.35115424178E+03 -0.33781962622E+03  0.13308182556E+04  0.14172186250E+04  0.25500000920E-02 0.  1.
       -2    1    3    3    0  502 -0.35115424178E+03  0.33781962622E+03  0.13512768172E+03  0.50565886896E+03  0.25500000920E-02 0. -1.
</event>
<event>
 5   0  0.1758946E-04  0.1873054E+04  0.7818609E-02  0.8668386E-01
       -1   -1    0    0    0  501  0.00000000000E+00  0.00000000000E+00  0.41855856240E+03  0.41855856243E+03  0.50400001928E-02 0. -1.
        1   -1    0    0  501    0  0.00000000000E+00  0.00000000000E+00 -0.20954845338E+04  0.20954845338E+04  0.50400001928E-02 0.  1.
    10030    2    1    2    0    0  0.00000000000E+00  0.00000000000E+00 -0.16769259714E+04  0.25140430962E+04  0.18730541840E+04 0.  0.
        2    1    3    3  502    0  0.32644786087E+03 -0.53057760154E+03 -0.17770570046E+04  0.18830858703E+04  0.25500000920E-02 0.  1.
       -2    1    3    3    0  502 -0.32644786087E+03  0.53057760154E+03  0.10013103326E+03  0.63095722593E+03  0.25500000920E-02 0. -1.
</event>
<event>
 5   0  0.1711979E-04  0.1867616E+04  0.7818609E-02  0.8671146E-01
        1   -1    0    0  501    0  0.00000000000E+00  0.00000000000E+00  0.62500216015E+03  0.62500216017E+03  0.50400001928E-02 0. -1.
       -1   -1    0    0    0  501  0.00000000000E+00  0.00000000000E+00 -0.13951914726E+04  0.13951914726E+04  0.50400001928E-02 0.  1.
    10030    2    1    2    0    0  0.00000000000E+00  0.00000000000E+00 -0.77018931243E+03  0.20201936328E+04  0.18676163248E+04 0.  0.
        4    1    3    3  502    0 -0.93970036759E+02 -0.91557351526E+03 -0.21443725514E+03  0.94503448559E+03  0.12699999809E+01 0. -1.
       -4    1    3    3    0  502  0.93970036759E+02  0.91557351526E+03 -0.55575205728E+03  0.10751591472E+04  0.12699999809E+01 0.  1.
</event>
<event>
 5   0  0.1782613E-04  0.1917895E+04  0.7818609E-02  0.8646000E-01
       -1   -1    0    0    0  501  0.00000000000E+00  0.00000000000E+00  0.68153699839E+03  0.68153699841E+03  0.50400001928E-02 0. -1.
        1   -1    0    0  501    0  0.00000000000E+00  0.00000000000E+00 -0.13492745469E+04  0.13492745469E+04  0.50400001928E-02 0.  1.
    10030    2    1    2    0    0  0.00000000000E+00  0.00000000000E+00 -0.66773754848E+03  0.20308115453E+04  0.19178952262E+04 0.  0.
        3    1    3    3  502    0  0.75875602804E+03  0.56211173142E+03 -0.51073644200E+03  0.10735604464E+04  0.10100000352E+00 0. -1.
       -3    1    3    3    0  502 -0.75875602804E+03 -0.56211173142E+03 -0.15700110648E+03  0.95725109889E+03  0.10100000352E+00 0.  1.
</event>
<event>
 5   0  0.3623359E-04  0.1875409E+04  0.7818609E-02  0.8667194E-01
        2   -1    0    0  501    0  0.00000000000E+00  0.00000000000E+00  0.11084511242E+04  0.11084511242E+04  0.25500000920E-02 0.  1.
       -2   -1    0    0    0  501  0.00000000000E+00  0.00000000000E+00 -0.79326014118E+03  0.79326014119E+03  0.25500000920E-02 0. -1.
    10030    2    1    2    0    0  0.00000000000E+00  0.00000000000E+00  0.31519098305E+03  0.19017112654E+04  0.18754093903E+04 0.  0.
        5    1    3    3  502    0 -0.45002493892E+03  0.14773525203E+03  0.97821638746E+03  0.10868659260E+04  0.46999998093E+01 0.  1.
       -5    1    3    3    0  502  0.45002493892E+03 -0.14773525203E+03 -0.66302540441E+03  0.81484533945E+03  0.46999998093E+01 0. -1.
</event>
<event>
 5   0  0.1711979E-04  0.1686713E+04  0.7818609E-02  0.8768979E-01
       -1   -1    0    0    0  501  0.00000000000E+00  0.00000000000E+00  0.36583645133E+03  0.36583645136E+03  0.50400001928E-02 0.  1.
        1   -1    0    0  501    0  0.00000000000E+00  0.00000000000E+00 -0.19441751877E+04  0.19441751877E+04  0.50400001928E-02 0. -1.
    10030    2    1    2    0    0  0.00000000000E+00  0.00000000000E+00 -0.15783387364E+04  0.23100116391E+04  0.16867129590E+04 0.  0.
        4    1    3    3  502    0 -0.15262425499E+03 -0.33627342649E+03  0.24921832149E+03  0.44551696403E+03  0.12699999809E+01 0.  1.
       -4    1    3    3    0  502  0.15262425499E+03  0.33627342649E+03 -0.18275570579E+04  0.18644946750E+04  0.12699999809E+01 0. -1.
</event>
<event>
 5   0  0.3623359E-04  0.1859690E+04  0.7818609E-02  0.8675186E-01
        2   -1    0    0  501    0  0.00000000000E+00  0.00000000000E+00  0.84401373405E+03  0.84401373405E+03  0.25500000920E-02 0.  1.
       -2   -1    0    0    0  501  0.00000000000E+00  0.00000000000E+00 -0.10244046485E+04  0.10244046485E+04  0.25500000920E-02 0. -1.
    10030    2    1    2    0    0  0.00000000000E+00  0.00000000000E+00 -0.18039091448E+03  0.18684183826E+04  0.18596898586E+04 0.  0.
        5    1    3    3  502    0 -0.73524344293E+03 -0.30161799599E+03 -0.57519628203E+03  0.98103475409E+03  0.46999998093E+01 0. -1.
       -5    1    3    3    0  502  0.73524344293E+03  0.30161799599E+03  0.39480536754E+03  0.88738362849E+03  0.46999998093E+01 0.  1.
</event>
<event>
 5   0  0.1711979E-04  0.1887513E+04  0.7818609E-02  0.8661097E-01
        1   -1    0    0  501    0  0.00000000000E+00  0.00000000000E+00  0.17679686976E+04  0.17679686976E+04  0.50400001928E-02 0. -1.
       -1   -1    0    0    0  501  0.00000000000E+00  0.00000000000E+00 -0.50378538451E+03  0.50378538453E+03  0.50400001928E-02 0.  1.
    10030    2    1    2    0    0  0.00000000000E+00  0.00000000000E+00  0.12641833130E+04  0.22717540821E+04  0.18875134862E+04 0.  0.
        4    1    3    3  502    0  0.79001461490E+03 -0.16595113413E+03  0.12205034725E+04  0.14633158272E+04  0.12699999809E+01 0. -1.
       -4    1    3    3    0  502 -0.79001461490E+03  0.16595113413E+03  0.43679840518E+02  0.80843825493E+03  0.12699999809E+01 0.  1.
</event>
<event>
 5   0  0.1813834E-04  0.1925594E+04  0.7818609E-02  0.8642220E-01
        1   -1    0    0  501    0  0.00000000000E+00  0.00000000000E+00  0.25894059528E+04  0.25894059528E+04  0.50400001928E-02 0.  1.
       -1   -1    0    0    0  501  0.00000000000E+00  0.00000000000E+00 -0.35798878284E+03  0.35798878287E+03  0.50400001928E-02 0. -1.
    10030    2    1    2    0    0  0.00000000000E+00  0.00000000000E+00  0.22314171699E+04  0.29473947356E+04  0.19255942307E+04 0.  0.
        5    1    3    3  502    0 -0.79324667580E+03  0.53787699678E+03  0.97538753406E+03  0.13674629370E+04  0.46999998093E+01 0. -1.
       -5    1    3    3    0  502  0.79324667580E+03 -0.53787699678E+03  0.12560296359E+04  0.15799317987E+04  0.46999998093E+01 0.  1.
</event>
<event>
 5   0  0.1782613E-04  0.1920607E+04  0.7818609E-02  0.8644667E-01
        1   -1    0    0  501    0  0.00000000000E+00  0.00000000000E+00  0.10163408006E+04  0.10163408006E+04  0.50400001928E-02 0.  1.
       -1   -1    0    0    0  501  0.00000000000E+00  0.00000000000E+00 -0.90735558621E+03  0.90735558623E+03  0.50400001928E-02 0. -1.
    10030    2    1    2    0    0  0.00000000000E+00  0.00000000000E+00  0.10898521436E+03  0.19236963868E+04  0.19206066780E+04 0.  0.
        3    1    3    3  502    0  0.51513487555E+02  0.26194921242E+03 -0.86943997350E+03  0.90950365970E+03  0.10100000352E+00 0. -1.
       -3    1    3    3    0  502 -0.51513487555E+02 -0.26194921242E+03  0.97842518786E+03  0.10141927271E+04  0.10100000352E+00 0.  1.
</event>
<event>
 5   0  0.1694830E-04  0.2053064E+04  0.7818609E-02  0.8582206E-01
       -1   -1    0    0    0  501  0.00000000000E+00  0.00000000000E+00  0.11138111204E+04  0.11138111204E+04  0.50400001928E-02 0.  1.
        1   -1    0    0  501    0  0.00000000000E+00  0.00000000000E+00 -0.94609180884E+03  0.94609180886E+03  0.50400001928E-02 0. -1.
    10030    2    1    2    0    0  0.00000000000E+00  0.00000000000E+00  0.16771931151E+03  0.20599029292E+04  0.20530636401E+04 0.  0.
        1    1    3    3  502    0  0.57083622150E+03  0.50772777427E+03 -0.60408186414E+03  0.97393859311E+03  0.50400001928E-02 0. -1.
       -1    1    3    3    0  502 -0.57083622150E+03 -0.50772777427E+03  0.77180117565E+03  0.10859643361E+04  0.50400001928E-02 0.  1.
</event>
<event>
 5   0  0.3516539E-04  0.1965892E+04  0.7818609E-02  0.8622736E-01
        2   -1    0    0  501    0  0.00000000000E+00  0.00000000000E+00  0.69586714166E+03  0.69586714166E+03  0.25500000920E-02 0. -1.
       -2   -1    0    0    0  501  0.00000000000E+00  0.00000000000E+00 -0.13884580792E+04  0.13884580792E+04  0.25500000920E-02 0.  1.
    10030    2    1    2    0    0  0.00000000000E+00  0.00000000000E+00 -0.69259093755E+03  0.20843252209E+04  0.19658915076E+04 0.  0.
        4    1    3    3  502    0 -0.10415238696E+03 -0.88037480751E+03  0.10386934455E+03  0.89257939425E+03  0.12699999809E+01 0. -1.
       -4    1    3    3    0  502  0.10415238696E+03  0.88037480751E+03 -0.79646028210E+03  0.11917458266E+04  0.12699999809E+01 0.  1.
</event>
<event>
 5   0  0.3535876E-04  0.1851842E+04  0.7818609E-02  0.8679206E-01
       -2   -1    0    0    0  501  0.00000000000E+00  0.00000000000E+00  0.10704887272E+04  0.10704887272E+04  0.25500000920E-02 0. -1.
        2   -1    0    0  501    0  0.00000000000E+00  0.00000000000E+00 -0.80087648278E+03  0.80087648279E+03  0.25500000920E-02 0.  1.
    10030    2    1    2    0    0  0.00000000000E+00  0.00000000000E+00  0.26961224446E+03  0.18713652100E+04  0.18518415124E+04 0.  0.
        2    1    3    3  502    0  0.80981182006E+03  0.87006868737E+02 -0.31025038335E+03  0.87156220632E+03  0.25500000920E-02 0.  1.
       -2    1    3    3    0  502 -0.80981182006E+03 -0.87006868737E+02  0.57986262781E+03  0.99980300372E+03  0.25500000920E-02 0. -1.
</event>
<event>
 5   0  0.1782613E-04  0.1855890E+04  0.7818609E-02  0.8677130E-01
       -1   -1    0    0    0  501  0.00000000000E+00  0.00000000000E+00  0.98578862468E+03  0.98578862469E+03  0.50400001928E-02 0.  1.
        1   -1    0    0  501    0  0.00000000000E+00  0.00000000000E+00 -0.87349574212E+03  0.87349574213E+03  0.50400001928E-02 0. -1.
    10030    2    1    2    0    0  0.00000000000E+00  0.00000000000E+00  0.11229288256E+03  0.18592843668E+04  0.18558902622E+04 0.  0.
        3    1    3    3  502    0 -0.32880840428E+03  0.85321775630E+03 -0.10221430471E+03  0.92007786664E+03  0.10100000352E+00 0. -1.
       -3    1    3    3    0  502  0.32880840428E+03 -0.85321775630E+03  0.21450718728E+03  0.93920650018E+03  0.10100000352E+00 0.  1.
</event>
<event>
 5   0  0.3459485E-04  0.1887374E+04  0.7818609E-02  0.8661167E-01
       -2   -1    0    0    0  501  0.00000000000E+00  0.00000000000E+00  0.85258073647E+03  0.85258073647E+03  0.25500000920E-02 0. -1.
        2   -1    0    0  501    0  0.00000000000E+00  0.00000000000E+00 -0.10445288422E+04  0.10445288422E+04  0.25500000920E-02 0.  1.
    10030    2    1    2    0    0  0.00000000000E+00  0.00000000000E+00 -0.19194810576E+03  0.18971095787E+04  0.18873740165E+04 0.  0.
        3    1    3    3  502    0  0.87487576524E+03 -0.34510521633E+03 -0.17409201710E+03  0.95645870562E+03  0.10100000352E+00 0.  1.
       -3    1    3    3    0  502 -0.87487576524E+03  0.34510521633E+03 -0.17856088660E+02  0.94065087309E+03  0.10100000352E+00 0. -1.
</event>
<event>
 5   0  0.1694830E-04  0.1896312E+04  0.7818609E-02  0.8656694E-01
        1   -1    0    0  501    0  0.00000000000E+00  0.00000000000E+00  0.11939390295E+04  0.11939390295E+04  0.50400001928E-02 0.  1.
       -1   -1    0    0    0  501  0.00000000000E+00  0.00000000000E+00 -0.75296987490E+03  0.75296987492E+03  0.50400001928E-02 0. -1.
    10030    2    1    2    0    0  0.00000000000E+00  0.00000000000E+00  0.44096915461E+03  0.19469089044E+04  0.18963123390E+04 0.  0.
        1    1    3    3  502    0 -0.37932936413E+03  0.46745413025E+02  0.11113485474E+04  0.11752325277E+04  0.50400001928E-02 0.  1.
       -1    1    3    3    0  502  0.37932936413E+03 -0.46745413025E+02 -0.67037939283E+03  0.77167637678E+03  0.50400001928E-02 0. -1.
</event>
<event>
 5   0  0.1711979E-04  0.1884590E+04  0.7818609E-02  0.8662565E-01
       -1   -1    0    0    0  501  0.00000000000E+00  0.00000000000E+00  0.49623284939E+03  0.49623284941E+03  0.50400001928E-02 0. -1.
        1   -1    0    0  501    0  0.00000000000E+00  0.00000000000E+00 -0.17893212482E+04  0.17893212482E+04  0.50400001928E-02 0.  1.
    10030    2    1    2    0    0  0.00000000000E+00  0.00000000000E+00 -0.12930883988E+04  0.22855540977E+04  0.18845901215E+04 0.  0.
        4    1    3    3  502    0 -0.11862146405E+03 -0.81381206803E+03 -0.12043570767E+04  0.14583685113E+04  0.12699999809E+01 0.  1.
       -4    1    3    3    0  502  0.11862146405E+03  0.81381206803E+03 -0.88731322191E+02  0.82718558634E+03  0.12699999809E+01 0. -1.
</event>
<event>
 5   0  0.1813834E-04  0.1969439E+04  0.7818609E-02  0.8621044E-01
       -1   -1    0    0    0  501  0.00000000000E+00  0.00000000000E+00  0.41657202671E+03  0.41657202674E+03  0.50400001928E-02 0. -1.
        1   -1    0    0  501    0  0.00000000000E+00  0.00000000000E+00 -0.23277427752E+04  0.23277427752E+04  0.50400001928E-02 0.  1.
    10030    2    1    2    0    0  0.00000000000E+00  0.00000000000E+00 -0.19111707485E+04  0.27443148019E+04  0.19694390324E+04 0.  0.
        5    1    3    3  502    0  0.21285693479E+03  0.34471064286E+03 -0.22062150347E+04  0.22431095318E+04  0.46999998093E+01 0.  1.
       -5    1    3    3    0  502 -0.21285693479E+03 -0.34471064286E+03  0.29504428626E+03  0.50120527017E+03  0.46999998093E+01 0. -1.
</event>
<event>
 5   0  0.3459485E-04  0.1903137E+04  0.7818609E-02  0.8653296E-01
        2   -1    0    0  501    0  0.00000000000E+00  0.00000000000E+00  0.22909334326E+04  0.22909334326E+04  0.25500000920E-02 0.  1.
       -2   -1    0    0    0  501  0.00000000000E+00  0.00000000000E+00 -0.39524624005E+03  0.39524624006E+03  0.25500000920E-02 0. -1.
    10030    2    1    2    0    0  0.00000000000E+00  0.00000000000E+00  0.18956871925E+04  0.26861796727E+04  0.19031372262E+04 0.  0.
        3    1    3    3  502    0  0.20927001670E+03 -0.92185164049E+03  0.11016748020E+04  0.14516513929E+04  0.10100000352E+00 0.  1.
       -3    1    3    3    0  502 -0.20927001670E+03  0.92185164049E+03  0.79401239056E+03  0.12345282798E+04  0.10100000352E+00 0. -1.
</event>
<event>
 5   0  0.1694830E-04  0.1675743E+04  0.7818609E-02  0.8775321E-01
       -1   -1    0    0    0  501  0.00000000000E+00  0.00000000000E+00  0.85263353879E+03  0.85263353880E+03  0.50400001928E-02 0.  1.
        1   -1    0    0  501    0  0.00000000000E+00  0.00000000000E+00 -0.82336507102E+03  0.82336507103E+03  0.50400001928E-02 0. -1.
    10030    2    1    2    0    0  0.00000000000E+00  0.00000000000E+00  0.29268467769E+02  0.16759986098E+04  0.16757430283E+04 0.  0.
        1    1    3    3  502    0 -0.26623517794E+03  0.36207233365E+03 -0.69261655261E+03  0.82564837173E+03  0.50400001928E-02 0. -1.
       -1    1    3    3    0  502  0.26623517794E+03 -0.36207233365E+03  0.72188502038E+03  0.85035023810E+03  0.50400001928E-02 0.  1.
</event>
<event>
 5   0  0.3720978E-04  0.1885471E+04  0.7818609E-02  0.8662123E-01
       -2   -1    0    0    0  501  0.00000000000E+00  0.00000000000E+00  0.53970068221E+03  0.53970068221E+03  0.25500000920E-02 0. -1.
        2   -1    0    0  501    0  0.00000000000E+00  0.00000000000E+00 -0.16467460397E+04  0.16467460397E+04  0.25500000920E-02 0.  1.
    10030    2    1    2    0    0  0.00000000000E+00  0.00000000000E+00 -0.11070453575E+04  0.21864467219E+04  0.18854707222E+04 0.  0.
        1    1    3    3  502    0  0.68184089163E+03 -0.18813909022E+01 -0.13084754426E+04  0.14754723058E+04  0.50400001928E-02 0.  1.
       -1    1    3    3    0  502 -0.68184089163E+03  0.18813909022E+01  0.20143008516E+03  0.71097441611E+03  0.50400001928E-02 0. -1.
</event>
<event>
 5   0  0.1711979E-04  0.1955059E+04  0.7818609E-02  0.8627925E-01
       -1   -1    0    0    0  501  0.00000000000E+00  0.00000000000E+00  0.53405508655E+03  0.53405508657E+03  0.50400001928E-02 0. -1.
        1   -1    0    0  501    0  0.00000000000E+00  0.00000000000E+00 -0.17892613879E+04  0.17892613879E+04  0.50400001928E-02 0.  1.
    10030    2    1    2    0    0  0.00000000000E+00  0.00000000000E+00 -0.12552063013E+04  0.23233164744E+04  0.19550592271E+04 0.  0.
        4    1    3    3  502    0  0.85706191601E+02  0.36212488292E+03  0.44658763155E+03  0.58131068084E+03  0.12699999809E+01 0. -1.
       -4    1    3    3    0  502 -0.85706191601E+02 -0.36212488292E+03 -0.17017939329E+04  0.17420057936E+04  0.12699999809E+01 0.  1.
</event>
<event>
 5   0  0.1813834E-04  0.1910535E+04  0.7818609E-02  0.8649630E-01
       -1   -1    0    0    0  501  0.00000000000E+00  0.00000000000E+00  0.11925133047E+04  0.11925133047E+04  0.50400001928E-02 0. -1.
        1   -1    0    0  501    0  0.00000000000E+00  0.00000000000E+00 -0.76522114618E+03  0.76522114620E+03  0.50400001928E-02 0.  1.
    10030    2    1    2    0    0  0.00000000000E+00  0.00000000000E+00  0.42729215849E+03  0.19577344509E+04  0.19105354201E+04 0.  0.
        5    1    3    3  502    0  0.24714338841E+03 -0.63792312650E+03 -0.46952421324E+03  0.82975951129E+03  0.46999998093E+01 0. -1.
       -5    1    3    3    0  502 -0.24714338841E+03  0.63792312650E+03  0.89681637173E+03  0.11279749396E+04  0.46999998093E+01 0.  1.
</event>
<event>
 5   0  0.1758946E-04  0.1865296E+04  0.7818609E-02  0.8672326E-01
        1   -1    0    0  501    0  0.00000000000E+00  0.00000000000E+00  0.14805929733E+04  0.14805929733E+04  0.50400001928E-02 0.  1.
       -1   -1    0    0    0  501  0.00000000000E+00  0.00000000000E+00 -0.58748890241E+03  0.58748890243E+03  0.50400001928E-02 0. -1.
    10030    2    1    2    0    0  0.00000000000E+00  0.00000000000E+00  0.89310407085E+03  0.20680818757E+04  0.18652956236E+04 0.  0.
        2    1    3    3  502    0  0.65056622296E+03 -0.57523984571E+03  0.69434526831E+02  0.87118221061E+03  0.25500000920E-02 0. -1.
       -2    1    3    3    0  502 -0.65056622296E+03  0.57523984571E+03  0.82366954402E+03  0.11968996651E+04  0.25500000920E-02 0.  1.
</event>
<event>
 5   0  0.1711979E-04  0.1906974E+04  0.7818609E-02  0.8651393E-01
       -1   -1    0    0    0  501  0.00000000000E+00  0.00000000000E+00  0.11213530763E+04  0.11213530763E+04  0.50400001928E-02 0.  1.
        1   -1    0    0  501    0  0.00000000000E+00  0.00000000000E+00 -0.81075029362E+03  0.81075029364E+03  0.50400001928E-02 0. -1.
    10030    2    1    2    0    0  0.00000000000E+00  0.00000000000E+00  0.31060278264E+03  0.19321033699E+04  0.19069738707E+04 0.  0.
        4    1    3    3  502    0 -0.37713867619E+03  0.43720392903E+03 -0.61348276462E+03  0.84246280156E+03  0.12699999809E+01 0. -1.
       -4    1    3    3    0  502  0.37713867619E+03 -0.43720392903E+03  0.92408554726E+03  0.10896405683E+04  0.12699999809E+01 0.  1.
</event>
<event>
 5   0  0.1813834E-04  0.1800973E+04  0.7818609E-02  0.8705782E-01
        1   -1    0    0  501    0  0.00000000000E+00  0.00000000000E+00  0.14709219061E+04  0.14709219061E+04  0.50400001928E-02 0. -1.
       -1   -1    0    0    0  501  0.00000000000E+00  0.00000000000E+00 -0.55127047234E+03  0.55127047236E+03  0.50400001928E-02 0.  1.
    10030    2    1    2    0    0  0.00000000000E+00  0.00000000000E+00  0.91965143373E+03  0.20221923784E+04  0.18009728637E+04 0.  0.
        5    1    3    3  502    0  0.48570448908E+02  0.26110804454E+03  0.14259304885E+04  0.14504607362E+04  0.46999998093E+01 0. -1.
       -5    1    3    3    0  502 -0.48570448908E+02 -0.26110804454E+03 -0.50627905473E+03  0.57173164220E+03  0.46999998093E+01 0.  1.
</event>
<event>
 5   0  0.3535876E-04  0.1648677E+04  0.7818609E-02  0.8791190E-01
       -2   -1    0    0    0  501  0.00000000000E+00  0.00000000000E+00  0.47218337755E+03  0.47218337756E+03  0.25500000920E-02 0.  1.
        2   -1    0    0  501    0  0.00000000000E+00  0.00000000000E+00 -0.14391307537E+04  0.14391307537E+04  0.25500000920E-02 0. -1.
    10030    2    1    2    0    0  0.00000000000E+00  0.00000000000E+00 -0.96694737610E+03  0.19113141312E+04  0.16486765844E+04 0.  0.
        2    1    3    3  502    0 -0.13359904726E+03 -0.42430033032E+02  0.45826540655E+03  0.47922457781E+03  0.25500000920E-02 0.  1.
       -2    1    3    3    0  502  0.13359904726E+03  0.42430033032E+02 -0.14252127826E+04  0.14320895534E+04  0.25500000920E-02 0. -1.
</event>
<event>
 5   0  0.1694830E-04  0.1867628E+04  0.7818609E-02  0.8671140E-01
        1   -1    0    0  501    0  0.00000000000E+00  0.00000000000E+00  0.13956669201E+04  0.13956669201E+04  0.50400001928E-02 0.  1.
       -1   -1    0    0    0  501  0.00000000000E+00  0.00000000000E+00 -0.62479731905E+03  0.62479731907E+03  0.50400001928E-02 0. -1.
    10030    2    1    2    0    0  0.00000000000E+00  0.00000000000E+00  0.77086960101E+03  0.20204642391E+04  0.18676283891E+04 0.  0.
        1    1    3    3  502    0 -0.29126959381E+03 -0.65393298568E+03 -0.26325324281E+03  0.76273756687E+03  0.50400001928E-02 0. -1.
       -1    1    3    3    0  502  0.29126959381E+03  0.65393298568E+03  0.10341228438E+04  0.12577266723E+04  0.50400001928E-02 0.  1.
</event>
<event>
 5   0  0.1694830E-04  0.1878648E+04  0.7818609E-02  0.8665558E-01
       -1   -1    0    0    0  501  0.00000000000E+00  0.00000000000E+00  0.63934474637E+03  0.63934474639E+03  0.50400001928E-02 0.  1.
        1   -1    0    0  501    0  0.00000000000E+00  0.00000000000E+00 -0.13800523343E+04  0.13800523343E+04  0.50400001928E-02 0. -1.
    10030    2    1    2    0    0  0.00000000000E+00  0.00000000000E+00 -0.74070758790E+03  0.20193970807E+04  0.18786476090E+04 0.  0.
        1    1    3    3  502    0  0.26236507696E+03  0.84298840062E+03 -0.71510739087E+03  0.11361529200E+04  0.50400001928E-02 0.  1.
       -1    1    3    3    0  502 -0.26236507696E+03 -0.84298840062E+03 -0.25600197025E+02  0.88324416064E+03  0.50400001928E-02 0. -1.
</event>
<event>
 5   0  0.1694830E-04  0.1816816E+04  0.7818609E-02  0.8697408E-01
       -1   -1    0    0    0  501  0.00000000000E+00  0.00000000000E+00  0.31409602117E+03  0.31409602121E+03  0.50400001928E-02 0.  1.
        1   -1    0    0  501    0  0.00000000000E+00  0.00000000000E+00 -0.26272376931E+04  0.26272376931E+04  0.50400001928E-02 0. -1.
    10030    2    1    2    0    0  0.00000000000E+00  0.00000000000E+00 -0.23131416719E+04  0.29413337143E+04  0.18168157927E+04 0.  0.
        1    1    3    3  502    0 -0.34626217255E+03 -0.24258130167E+03 -0.24582525782E+04  0.24943433842E+04  0.50400001928E-02 0. -1.
       -1    1    3    3    0  502  0.34626217255E+03  0.24258130167E+03  0.14511090629E+03  0.44699033010E+03  0.50400001928E-02 0.  1.
</event>
<event>
 5   0  0.3516539E-04  0.1861099E+04  0.7818609E-02  0.8674466E-01
       -2   -1    0    0    0  501  0.00000000000E+00  0.00000000000E+00  0.63039023769E+03  0.63039023770E+03  0.25500000920E-02 0.  1.
        2   -1    0    0  501    0  0.00000000000E+00  0.00000000000E+00 -0.13736290461E+04  0.13736290461E+04  0.25500000920E-02 0. -1.
    10030    2    1    2    0    0  0.00000000000E+00  0.00000000000E+00 -0.74323880837E+03  0.20040192838E+04  0.18610989666E+04 0.  0.
        4    1    3    3  502    0  0.28821187862E+03 -0.87984532726E+03 -0.47221082948E+03  0.10393163942E+04  0.12699999809E+01 0.  1.
       -4    1    3    3    0  502 -0.28821187862E+03  0.87984532726E+03 -0.27102797889E+03  0.96470288956E+03  0.12699999809E+01 0. -1.
</event>
<event>
 5   0  0.1782613E-04  0.1828058E+04  0.7818609E-02  0.8691519E-01
        1   -1    0    0  501    0  0.00000000000E+00  0.00000000000E+00  0.15601987945E+04  0.15601987945E+04  0.50400001928E-02 0. -1.
       -1   -1    0    0    0  501  0.00000000000E+00  0.00000000000E+00 -0.53547589372E+03  0.53547589374E+03  0.50400001928E-02 0.  1.
    10030    2    1    2    0    0  0.00000000000E+00  0.00000000000E+00  0.10247229007E+04  0.20956746882E+04  0.18280578151E+04 0.  0.
        3    1    3    3  502    0 -0.40982205892E+03 -0.35889469900E+03  0.13537626352E+04  0.14592576221E+04  0.10100000352E+00 0. -1.
       -3    1    3    3    0  502  0.40982205892E+03  0.35889469900E+03 -0.32903973449E+03  0.63641706610E+03  0.10100000352E+00 0.  1.
</event>
<event>
 5   0  0.3516539E-04  0.1895552E+04  0.7818609E-02  0.8657074E-01
       -2   -1    0    0    0  501  0.00000000000E+00  0.00000000000E+00  0.14743115327E+04  0.14743115327E+04  0.25500000920E-02 0.  1.
        2   -1    0    0  501    0  0.00000000000E+00  0.00000000000E+00 -0.60928716835E+03  0.60928716836E+03  0.25500000920E-02 0. -1.
    10030    2    1    2    0    0  0.00000000000E+00  0.00000000000E+00  0.86502436433E+03  0.20835987010E+04  0.18955517392E+04 0.  0.
        4    1    3    3  502    0  0.64735610578E+03 -0.50805180240E+03 -0.84337070749E+02  0.82722482797E+03  0.12699999809E+01 0. -1.
       -4    1    3    3    0  502 -0.64735610578E+03  0.50805180240E+03  0.94936143508E+03  0.12563738731E+04  0.12699999809E+01 0.  1.
</event>
<event>
 5   0  0.3459485E-04  0.1516800E+04  0.7818609E-02  0.8873358E-01
       -2   -1    0    0    0  501  0.00000000000E+00  0.00000000000E+00  0.62439182492E+03  0.62439182492E+03  0.25500000920E-02 0.  1.
        2   -1    0    0  501    0  0.00000000000E+00  0.00000000000E+00 -0.92116891737E+03  0.92116891737E+03  0.25500000920E-02 0. -1.
    10030    2    1    2    0    0  0.00000000000E+00  0.00000000000E+00 -0.29677709245E+03  0.15455607423E+04  0.15167997117E+04 0.  0.
        3    1    3    3  502    0 -0.36569418725E+02 -0.13189153103E+03 -0.90848041698E+03  0.91873248369E+03  0.10100000352E+00 0. -1.
       -3    1    3    3    0  502  0.36569418725E+02  0.13189153103E+03  0.61170332453E+03  0.62682825860E+03  0.10100000352E+00 0.  1.
</event>
<event>
 5   0  0.3720978E-04  0.2155532E+04  0.7818609E-02  0.8537168E-01
       -2   -1    0    0    0  501  0.00000000000E+00  0.00000000000E+00  0.38765878966E+03  0.38765878967E+03  0.25500000920E-02 0. -1.
        2   -1    0    0  501    0  0.00000000000E+00  0.00000000000E+00 -0.29963981215E+04  0.29963981215E+04  0.25500000920E-02 0.  1.
    10030    2    1    2    0    0  0.00000000000E+00  0.00000000000E+00 -0.26087393318E+04  0.33840569111E+04  0.21555324810E+04 0.  0.
        1    1    3    3  502    0 -0.21843080708E+03  0.14605739714E+03  0.33660102158E+03  0.42701876832E+03  0.50400001928E-02 0. -1.
       -1    1    3    3    0  502  0.21843080708E+03 -0.14605739714E+03 -0.29453403534E+04  0.29570381428E+04  0.50400001928E-02 0.  1.
</event>
<event>
 5   0  0.3516539E-04  0.2061633E+04  0.7818609E-02  0.8578335E-01
       -2   -1    0    0    0  501  0.00000000000E+00  0.00000000000E+00  0.75616054541E+03  0.75616054541E+03  0.25500000920E-02 0. -1.
        2   -1    0    0  501    0  0.00000000000E+00  0.00000000000E+00 -0.14052339820E+04  0.14052339820E+04  0.25500000920E-02 0.  1.
    10030    2    1    2    0    0  0.00000000000E+00  0.00000000000E+00 -0.64907343658E+03  0.21613945274E+04  0.20616328424E+04 0.  0.
        4    1    3    3  502    0  0.52786307635E+03 -0.15821612194E+03 -0.12378454449E+04  0.13549666885E+04  0.12699999809E+01 0.  1.
       -4    1    3    3    0  502 -0.52786307635E+03  0.15821612194E+03  0.58877200833E+03  0.80642783888E+03  0.12699999809E+01 0. -1.
</event>
<event>
 5   0  0.1782613E-04  0.1904955E+04  0.7818609E-02  0.8652394E-01
        1   -1    0    0  501    0  0.00000000000E+00  0.00000000000E+00  0.74790111598E+03  0.74790111600E+03  0.50400001928E-02 0.  1.
       -1   -1    0    0    0  501  0.00000000000E+00  0.00000000000E+00 -0.12130130084E+04  0.12130130084E+04  0.50400001928E-02 0. -1.
    10030    2    1    2    0    0  0.00000000000E+00  0.00000000000E+00 -0.46511189238E+03  0.19609141244E+04  0.19049554144E+04 0.  0.
        3    1    3    3  502    0  0.16524033159E+03 -0.79084225698E+03 -0.75183262792E+03  0.11036250057E+04  0.10100000352E+00 0. -1.
       -3    1    3    3    0  502 -0.16524033159E+03  0.79084225698E+03  0.28672073554E+03  0.85728911867E+03  0.10100000352E+00 0.  1.
</event>
<event>
 5   0  0.3459485E-04  0.1837353E+04  0.7818609E-02  0.8686684E-01
       -2   -1    0    0    0  501  0.00000000000E+00  0.00000000000E+00  0.39785025925E+03  0.39785025926E+03  0.25500000920E-02 0.  1.
        2   -1    0    0  501    0  0.00000000000E+00  0.00000000000E+00 -0.21213169469E+04  0.21213169469E+04  0.25500000920E-02 0. -1.
    10030    2    1    2    0    0  0.00000000000E+00  0.00000000000E+00 -0.17234666876E+04  0.25191672061E+04  0.18373529844E+04 0.  0.
        3    1    3    3  502    0 -0.64515813526E+03 -0.51792370648E+02 -0.17556292921E+04  0.18711348671E+04  0.10100000352E+00 0. -1.
       -3    1    3    3    0  502  0.64515813526E+03  0.51792370648E+02  0.32162604514E+02  0.64803233907E+03  0.10100000352E+00 0.  1.
</event>
<event>
 5   0  0.1782613E-04  0.1931071E+04  0.7818609E-02  0.8639543E-01
        1   -1    0    0  501    0  0.00000000000E+00  0.00000000000E+00  0.62703893840E+03  0.62703893842E+03  0.50400001928E-02 0. -1.
       -1   -1    0    0    0  501  0.00000000000E+00  0.00000000000E+00 -0.14867645409E+04  0.14867645409E+04  0.50400001928E-02 0.  1.
    10030    2    1    2    0    0  0.00000000000E+00  0.00000000000E+00 -0.85972560247E+03  0.21138034793E+04  0.19310714740E+04 0.  0.
        3    1    3    3  502    0 -0.25577382568E+03  0.82589637160E+03 -0.90034142033E+03  0.12482546815E+04  0.10100000352E+00 0.  1.
       -3    1    3    3    0  502  0.25577382568E+03 -0.82589637160E+03  0.40615817852E+02  0.86554879781E+03  0.10100000352E+00 0. -1.
</event>
<event>
 5   0  0.3516539E-04  0.1895797E+04  0.7818609E-02  0.8656951E-01
        2   -1    0    0  501    0  0.00000000000E+00  0.00000000000E+00  0.15462106237E+04  0.15462106237E+04  0.25500000920E-02 0.  1.
       -2   -1    0    0    0  501  0.00000000000E+00  0.00000000000E+00 -0.58110544118E+03  0.58110544118E+03  0.25500000920E-02 0. -1.
    10030    2    1    2    0    0  0.00000000000E+00  0.00000000000E+00  0.96510518255E+03  0.21273160649E+04  0.18957968316E+04 0.  0.
        4    1    3    3  502    0  0.53282875760E+03 -0.55557882611E+03 -0.13810939566E+03  0.78208064483E+03  0.12699999809E+01 0. -1.
       -4    1    3    3    0  502 -0.53282875760E+03  0.55557882611E+03  0.11032145782E+04  0.13452354201E+04  0.12699999809E+01 0.  1.
</event>
<event>
 5   0  0.3535876E-04  0.1918640E+04  0.7818609E-02  0.8645633E-01
        2   -1    0    0  501    0  0.00000000000E+00  0.00000000000E+00  0.17614784242E+04  0.17614784242E+04  0.25500000920E-02 0. -1.
       -2   -1    0    0    0  501  0.00000000000E+00  0.00000000000E+00 -0.52245604734E+03  0.52245604734E+03  0.25500000920E-02 0.  1.
    10030    2    1    2    0    0  0.00000000000E+00  0.00000000000E+00  0.12390223768E+04  0.22839344715E+04  0.19186402007E+04 0.  0.
        2    1    3    3  502    0  0.65416892107E+03 -0.62233382842E+03  0.10053501473E+04  0.13512828312E+04  0.25500000920E-02 0. -1.
       -2    1    3    3    0  502 -0.65416892107E+03  0.62233382842E+03  0.23367222955E+03  0.93265164030E+03  0.25500000920E-02 0.  1.
</event>
<event>
 5   0  0.3720978E-04  0.1940597E+04  0.7818609E-02  0.8634909E-01
       -2   -1    0    0    0  501  0.00000000000E+00  0.00000000000E+00  0.50125941511E+03  0.50125941512E+03  0.25500000920E-02 0. -1.
        2   -1    0    0  501    0  0.00000000000E+00  0.00000000000E+00 -0.18782264857E+04  0.18782264857E+04  0.25500000920E-02 0.  1.
    10030    2    1    2    0    0  0.00000000000E+00  0.00000000000E+00 -0.13769670706E+04  0.23794859008E+04  0.19405965162E+04 0.  0.
        1    1    3    3  502    0 -0.68302124498E+03  0.32974821036E+03 -0.14305160799E+04  0.16191442672E+04  0.50400001928E-02 0.  1.
       -1    1    3    3    0  502  0.68302124498E+03 -0.32974821036E+03  0.53549009288E+02  0.76034163358E+03  0.50400001928E-02 0. -1.
</event>
<event>
 5   0  0.3459485E-04  0.2020375E+04  0.7818609E-02  0.8597154E-01
       -2   -1    0    0    0  501  0.00000000000E+00  0.00000000000E+00  0.40660648772E+03  0.40660648773E+03  0.25500000920E-02 0. -1.
        2   -1    0    0  501    0  0.00000000000E+00  0.00000000000E+00 -0.25097449936E+04  0.25097449936E+04  0.25500000920E-02 0.  1.
    10030    2    1    2    0    0  0.00000000000E+00  0.00000000000E+00 -0.21031385058E+04  0.29163514813E+04  0.20203748137E+04 0.  0.
        3    1    3    3  502    0  0.76714388500E+03 -0.65680858417E+03 -0.10170666784E+04  0.14332940714E+04  0.10100000352E+00 0. -1.
       -3    1    3    3    0  502 -0.76714388500E+03  0.65680858417E+03 -0.10860718274E+04  0.14830574099E+04  0.10100000352E+00 0.  1.
</event>
<event>
 5   0  0.3535876E-04  0.1900730E+04  0.7818609E-02  0.8654493E-01
        2   -1    0    0  501    0  0.00000000000E+00  0.00000000000E+00  0.21715442224E+04  0.21715442224E+04  0.25500000920E-02 0. -1.
       -2   -1    0    0    0  501  0.00000000000E+00  0.00000000000E+00 -0.41592236224E+03  0.41592236225E+03  0.25500000920E-02 0.  1.
    10030    2    1    2    0    0  0.00000000000E+00  0.00000000000E+00  0.17556218602E+04  0.25874665847E+04  0.19007301783E+04 0.  0.
        2    1    3    3  502    0 -0.19094360090E+03 -0.46991684082E+03 -0.21624903608E+03  0.55140270367E+03  0.25500000920E-02 0.  1.
       -2    1    3    3    0  502  0.19094360090E+03  0.46991684082E+03  0.19718708962E+04  0.20360638810E+04  0.25500000920E-02 0. -1.
</event>
<event>
 5   0  0.1758946E-04  0.1832458E+04  0.7818609E-02  0.8689226E-01
        1   -1    0    0  501    0  0.00000000000E+00  0.00000000000E+00  0.17114571663E+04  0.17114571663E+04  0.50400001928E-02 0. -1.
       -1   -1    0    0    0  501  0.00000000000E+00  0.00000000000E+00 -0.49050363226E+03  0.49050363228E+03  0.50400001928E-02 0.  1.
    10030    2    1    2    0    0  0.00000000000E+00  0.00000000000E+00  0.12209535340E+04  0.22019607986E+04  0.18324584105E+04 0.  0.
        2    1    3    3  502    0  0.26449167556E+02  0.88232098821E+03  0.90551883922E+03  0.12645767090E+04  0.25500000920E-02 0. -1.
       -2    1    3    3    0  502 -0.26449167556E+02 -0.88232098821E+03  0.31543469478E+03  0.93738408957E+03  0.25500000920E-02 0.  1.
</event>
<event>
 5   0  0.1758946E-04  0.1907741E+04  0.7818609E-02  0.8651013E-01
        1   -1    0    0  501    0  0.00000000000E+00  0.00000000000E+00  0.19042959232E+04  0.19042959232E+04  0.50400001928E-02 0. -1.
       -1   -1    0    0    0  501  0.00000000000E+00  0.00000000000E+00 -0.47779815206E+03  0.47779815209E+03  0.50400001928E-02 0.  1.
    10030    2    1    2    0    0  0.00000000000E+00  0.00000000000E+00  0.14264977711E+04  0.23820940753E+04  0.19077411492E+04 0.  0.
        2    1    3    3  502    0  0.56625460769E+03  0.76736351578E+03  0.68897155745E+03  0.11765087560E+04  0.25500000920E-02 0.  1.
       -2    1    3    3    0  502 -0.56625460769E+03 -0.76736351578E+03  0.73752621368E+03  0.12055853192E+04  0.25500000920E-02 0. -1.
</event>
<event>
 5   0  0.1711979E-04  0.1920371E+04  0.7818609E-02  0.8644782E-01
        1   -1    0    0  501    0  0.00000000000E+00  0.00000000000E+00  0.73043879224E+03  0.73043879225E+03  0.50400001928E-02 0. -1.
       -1   -1    0    0    0  501  0.00000000000E+00  0.00000000000E+00 -0.12621954020E+04  0.12621954020E+04  0.50400001928E-02 0.  1.
    10030    2    1    2    0    0  0.00000000000E+00  0.00000000000E+00 -0.53175660980E+03  0.19926341943E+04  0.19203713027E+04 0.  0.
        4    1    3    3  502    0 -0.66314398030E+02  0.30991461838E+03 -0.12063567619E+04  0.12472942395E+04  0.12699999809E+01 0.  1.
       -4    1    3    3    0  502  0.66314398030E+02 -0.30991461838E+03  0.67460015210E+03  0.74533995477E+03  0.12699999809E+01 0. -1.
</event>
<event>
 5   0  0.1813834E-04  0.1838708E+04  0.7818609E-02  0.8685982E-01
        1   -1    0    0  501    0  0.00000000000E+00  0.00000000000E+00  0.62914747500E+03  0.62914747502E+03  0.50400001928E-02 0.  1.
       -1   -1    0    0    0  501  0.00000000000E+00  0.00000000000E+00 -0.13434235904E+04  0.13434235904E+04  0.50400001928E-02 0. -1.
    10030    2    1    2    0    0  0.00000000000E+00  0.00000000000E+00 -0.71427611538E+03  0.19725710654E+04  0.18387077634E+04 0.  0.
        5    1    3    3  502    0 -0.41368763982E+03 -0.81655180826E+03 -0.44876793127E+03  0.10194650877E+04  0.46999998093E+01 0. -1.
       -5    1    3    3    0  502  0.41368763982E+03  0.81655180826E+03 -0.26550818411E+03  0.95310597770E+03  0.46999998093E+01 0.  1.
</event>
<event>
 5   0  0.1813834E-04  0.1930550E+04  0.7818609E-02  0.8639797E-01
        1   -1    0    0  501    0  0.00000000000E+00  0.00000000000E+00  0.66953899545E+03  0.66953899547E+03  0.50400001928E-02 0. -1.
       -1   -1    0    0    0  501  0.00000000000E+00  0.00000000000E+00 -0.13916375402E+04  0.13916375402E+04  0.50400001928E-02 0.  1.
    10030    2    1    2    0    0  0.00000000000E+00  0.00000000000E+00 -0.72209854474E+03  0.20611765357E+04  0.19305497670E+04 0.  0.
        5    1    3    3  502    0  0.61029677566E+03  0.69011690573E+03 -0.53439995662E+02  0.92282252957E+03  0.46999998093E+01 0. -1.
       -5    1    3    3    0  502 -0.61029677566E+03 -0.69011690573E+03 -0.66865854907E+03  0.11383540061E+04  0.46999998093E+01 0.  1.
</event>
<event>
 5   0  0.3459485E-04  0.1888379E+04  0.7818609E-02  0.8660662E-01
       -2   -1    0    0    0  501  0.00000000000E+00  0.00000000000E+00  0.11659337384E+04  0.11659337384E+04  0.25500000920E-02 0. -1.
        2   -1    0    0  501    0  0.00000000000E+00  0.00000000000E+00 -0.76461824493E+03  0.76461824493E+03  0.25500000920E-02 0.  1.
    10030    2    1    2    0    0  0.00000000000E+00  0.00000000000E+00  0.40131549352E+03  0.19305519834E+04  0.18883794203E+04 0.  0.
        3    1    3    3  502    0  0.96346393673E+02 -0.93837200090E+03  0.15888499160E+03  0.95659243693E+03  0.10100000352E+00 0. -1.
       -3    1    3    3    0  502 -0.96346393673E+02  0.93837200090E+03  0.24243050192E+03  0.97395954644E+03  0.10100000352E+00 0.  1.
</event>
<event>
 5   0  0.3459485E-04  0.1873748E+04  0.7818609E-02  0.8668035E-01
        2   -1    0    0  501    0  0.00000000000E+00  0.00000000000E+00  0.16250300994E+04  0.16250300994E+04  0.25500000920E-02 0.  1.
       -2   -1    0    0    0  501  0.00000000000E+00  0.00000000000E+00 -0.54013328827E+03  0.54013328827E+03  0.25500000920E-02 0. -1.
    10030    2    1    2    0    0  0.00000000000E+00  0.00000000000E+00  0.10848968111E+04  0.21651633877E+04  0.18737479565E+04 0.  0.
        3    1    3    3  502    0 -0.20854058693E+03  0.33060992314E+03  0.15263026348E+04  0.15755608020E+04  0.10100000352E+00 0.  1.
       -3    1    3    3    0  502  0.20854058693E+03 -0.33060992314E+03 -0.44140582365E+03  0.58960258567E+03  0.10100000352E+00 0. -1.
</event>
<event>
 5   0  0.1813834E-04  0.1657073E+04  0.7818609E-02  0.8786233E-01
        1   -1    0    0  501    0  0.00000000000E+00  0.00000000000E+00  0.12730455766E+04  0.12730455766E+04  0.50400001928E-02 0.  1.
       -1   -1    0    0    0  501  0.00000000000E+00  0.00000000000E+00 -0.53923647793E+03  0.53923647795E+03  0.50400001928E-02 0. -1.
    10030    2    1    2    0    0  0.00000000000E+00  0.00000000000E+00  0.73380909869E+03  0.18122820546E+04  0.16570728566E+04 0.  0.
        5    1    3    3  502    0 -0.89333714920E+02  0.78732221342E+03  0.10217049782E+03  0.79894785874E+03  0.46999998093E+01 0. -1.
       -5    1    3    3    0  502  0.89333714920E+02 -0.78732221342E+03  0.63163860087E+03  0.10133341958E+04  0.46999998093E+01 0.  1.
</event>
<event>
 5   0  0.3720978E-04  0.1951206E+04  0.7818609E-02  0.8629780E-01
        2   -1    0    0  501    0  0.00000000000E+00  0.00000000000E+00  0.93686442726E+03  0.93686442726E+03  0.25500000920E-02 0.  1.
       -2   -1    0    0    0  501  0.00000000000E+00  0.00000000000E+00 -0.10159429912E+04  0.10159429912E+04  0.25500000920E-02 0. -1.
    10030    2    1    2    0    0  0.00000000000E+00  0.00000000000E+00 -0.79078563937E+02  0.19528074185E+04  0.19512056258E+04 0.  0.
        1    1    3    3  502    0  0.35123039216E+03 -0.75976976219E+03 -0.54113727905E+03  0.99671582445E+03  0.50400001928E-02 0. -1.
       -1    1    3    3    0  502 -0.35123039216E+03  0.75976976219E+03  0.46205871511E+03  0.95609159401E+03  0.50400001928E-02 0.  1.
</event>
<event>
 5   0  0.1758946E-04  0.1883758E+04  0.7818609E-02  0.8662983E-01
       -1   -1    0    0    0  501  0.00000000000E+00  0.00000000000E+00  0.34886123759E+03  0.34886123763E+03  0.50400001928E-02 0.  1.
        1   -1    0    0  501    0  0.00000000000E+00  0.00000000000E+00 -0.25429484495E+04  0.25429484495E+04  0.50400001928E-02 0. -1.
    10030    2    1    2    0    0  0.00000000000E+00  0.00000000000E+00 -0.21940872119E+04  0.28918096871E+04  0.18837580984E+04 0.  0.
        2    1    3    3  502    0 -0.63753136019E+03  0.51975543729E+03 -0.39264869418E+03  0.91146308036E+03  0.25500000920E-02 0.  1.
       -2    1    3    3    0  502  0.63753136019E+03 -0.51975543729E+03 -0.18014385177E+04  0.19803466068E+04  0.25500000920E-02 0. -1.
</event>
<event>
 5   0  0.3459485E-04  0.1883030E+04  0.7818609E-02  0.8663350E-01
        2   -1    0    0  501    0  0.00000000000E+00  0.00000000000E+00  0.93065242533E+03  0.93065242534E+03  0.25500000920E-02 0.  1.
       -2   -1    0    0    0  501  0.00000000000E+00  0.00000000000E+00 -0.95250445813E+03  0.95250445814E+03  0.25500000920E-02 0. -1.
    10030    2    1    2    0    0  0.00000000000E+00  0.00000000000E+00 -0.21852032800E+02  0.18831568835E+04  0.18830300944E+04 0.  0.
        3    1    3    3  502    0  0.76822735944E+03 -0.54096272295E+03  0.49382525573E+02  0.94087862525E+03  0.10100000352E+00 0. -1.
       -3    1    3    3    0  502 -0.76822735944E+03  0.54096272295E+03 -0.71234558372E+02  0.94227825823E+03  0.10100000352E+00 0.  1.
</event>
<event>
 5   0  0.3516539E-04  0.1884952E+04  0.7818609E-02  0.8662383E-01
       -2   -1    0    0    0  501  0.00000000000E+00  0.00000000000E+00  0.35236581207E+03  0.35236581208E+03  0.25500000920E-02 0. -1.
        2   -1    0    0  501    0  0.00000000000E+00  0.00000000000E+00 -0.25208476854E+04  0.25208476854E+04  0.25500000920E-02 0.  1.
    10030    2    1    2    0    0  0.00000000000E+00  0.00000000000E+00 -0.21684818733E+04  0.28732134974E+04  0.18849515026E+04 0.  0.
        4    1    3    3  502    0  0.64581489186E+03  0.37172148609E+03 -0.20462473727E+03  0.77273969342E+03  0.12699999809E+01 0. -1.
       -4    1    3    3    0  502 -0.64581489186E+03 -0.37172148609E+03 -0.19638571360E+04  0.21004738040E+04  0.12699999809E+01 0.  1.
</event>
<event>
 5   0  0.3623359E-04  0.2028538E+04  0.7818609E-02  0.8593393E-01
        2   -1    0    0  501    0  0.00000000000E+00  0.00000000000E+00  0.74422033875E+03  0.74422033875E+03  0.25500000920E-02 0.  1.
       -2   -1    0    0    0  501  0.00000000000E+00  0.00000000000E+00 -0.13823071588E+04  0.13823071588E+04  0.25500000920E-02 0. -1.
    10030    2    1    2    0    0  0.00000000000E+00  0.00000000000E+00 -0.63808682009E+03  0.21265274976E+04  0.20285375047E+04 0.  0.
        5    1    3    3  502    0  0.33200312118E+03 -0.93567510421E+03 -0.10164936995E+03  0.99803239303E+03  0.46999998093E+01 0.  1.
       -5    1    3    3    0  502 -0.33200312118E+03  0.93567510421E+03 -0.53643745013E+03  0.11284951046E+04  0.46999998093E+01 0. -1.
</event>
<event>
 5   0  0.1694830E-04  0.1949104E+04  0.7818609E-02  0.8630793E-01
        1   -1    0    0  501    0  0.00000000000E+00  0.00000000000E+00  0.72847248536E+03  0.72847248538E+03  0.50400001928E-02 0. -1.
       -1   -1    0    0    0  501  0.00000000000E+00  0.00000000000E+00 -0.13037580252E+04  0.13037580252E+04  0.50400001928E-02 0.  1.
    10030    2    1    2    0    0  0.00000000000E+00  0.00000000000E+00 -0.57528553983E+03  0.20322305106E+04  0.19491042547E+04 0.  0.
        1    1    3    3  502    0 -0.67786992633E+03 -0.49987909731E+03  0.22353693490E+03  0.87141007008E+03  0.50400001928E-02 0. -1.
       -1    1    3    3    0  502  0.67786992633E+03  0.49987909731E+03 -0.79882247473E+03  0.11608204405E+04  0.50400001928E-02 0.  1.
</event>
<event>
 5   0  0.1782613E-04  0.1878429E+04  0.7818609E-02  0.8665669E-01
        1   -1    0    0  501    0  0.00000000000E+00  0.00000000000E+00  0.10642425369E+04  0.10642425370E+04  0.50400001928E-02 0.  1.
       -1   -1    0    0    0  501  0.00000000000E+00  0.00000000000E+00 -0.82887494993E+03  0.82887494995E+03  0.50400001928E-02 0. -1.
    10030    2    1    2    0    0  0.00000000000E+00  0.00000000000E+00  0.23536758702E+03  0.18931174869E+04  0.18784291092E+04 0.  0.
        3    1    3    3  502    0  0.55494504760E+03  0.70811829633E+03  0.38947468565E+03  0.98034997242E+03  0.10100000352E+00 0.  1.
       -3    1    3    3    0  502 -0.55494504760E+03 -0.70811829633E+03 -0.15410709863E+03  0.91276751449E+03  0.10100000352E+00 0. -1.
</event>
<event>
 5   0  0.1711979E-04  0.1883823E+04  0.7818609E-02  0.8662951E-01
       -1   -1    0    0    0  501  0.00000000000E+00  0.00000000000E+00  0.10485783934E+04  0.10485783934E+04  0.50400001928E-02 0. -1.
        1   -1    0    0  501    0  0.00000000000E+00  0.00000000000E+00 -0.84609537110E+03  0.84609537112E+03  0.50400001928E-02 0.  1.
    10030    2    1    2    0    0  0.00000000000E+00  0.00000000000E+00  0.20248302231E+03  0.18946737645E+04  0.18838230542E+04 0.  0.
        4    1    3    3  502    0 -0.37883388591E+03 -0.26790026609E+03 -0.72318111297E+03  0.85923116839E+03  0.12699999809E+01 0.  1.
       -4    1    3    3    0  502  0.37883388591E+03  0.26790026609E+03  0.92566413527E+03  0.10354425961E+04  0.12699999809E+01 0. -1.
</event>
<event>
 5   0  0.1813834E-04  0.1946394E+04  0.7818609E-02  0.8632102E-01
       -1   -1    0    0    0  501  0.00000000000E+00  0.00000000000E+00  0.89023524877E+03  0.89023524878E+03  0.50400001928E-02 0. -1.
        1   -1    0    0  501    0  0.00000000000E+00  0.00000000000E+00 -0.10638895454E+04  0.10638895454E+04  0.50400001928E-02 0.  1.
    10030    2    1    2    0    0  0.00000000000E+00  0.00000000000E+00 -0.17365429663E+03  0.19541247942E+04  0.19463935616E+04 0.  0.
        5    1    3    3  502    0 -0.68611425448E+02  0.42545046648E+03  0.78920638402E+03  0.89921323039E+03  0.46999998093E+01 0. -1.
       -5    1    3    3    0  502  0.68611425448E+02 -0.42545046648E+03 -0.96286068064E+03  0.10549115638E+04  0.46999998093E+01 0.  1.
</event>
<event>
 5   0  0.3459485E-04  0.1912282E+04  0.7818609E-02  0.8648767E-01
       -2   -1    0    0    0  501  0.00000000000E+00  0.00000000000E+00  0.35959547391E+03  0.35959547392E+03  0.25500000920E-02 0.  1.
        2   -1    0    0  501    0  0.00000000000E+00  0.00000000000E+00 -0.25423163052E+04  0.25423163052E+04  0.25500000920E-02 0. -1.
    10030    2    1    2    0    0  0.00000000000E+00  0.00000000000E+00 -0.21827208313E+04  0.29019117791E+04  0.19122818167E+04 0.  0.
        3    1    3    3  502    0  0.69866463231E+03  0.41921744417E+03 -0.18506171738E+04  0.20220433893E+04  0.10100000352E+00 0. -1.
       -3    1    3    3    0  502 -0.69866463231E+03 -0.41921744417E+03 -0.33210365748E+03  0.87986838985E+03  0.10100000352E+00 0.  1.
</event>
<event>
 5   0  0.1758946E-04  0.1803976E+04  0.7818609E-02  0.8704188E-01
        1   -1    0    0  501    0  0.00000000000E+00  0.00000000000E+00  0.93061405217E+03  0.93061405219E+03  0.50400001928E-02 0.  1.
       -1   -1    0    0    0  501  0.00000000000E+00  0.00000000000E+00 -0.87424276091E+03  0.87424276092E+03  0.50400001928E-02 0. -1.
    10030    2    1    2    0    0  0.00000000000E+00  0.00000000000E+00  0.56371291266E+02  0.18048568131E+04  0.18039762729E+04 0.  0.
        2    1    3    3  502    0 -0.81551741678E+03 -0.20753137891E+03 -0.29669530254E+03  0.89228136418E+03  0.25500000920E-02 0. -1.
       -2    1    3    3    0  502  0.81551741678E+03  0.20753137891E+03  0.35306659381E+03  0.91257544893E+03  0.25500000920E-02 0.  1.
</event>
<event>
 5   0  0.1711979E-04  0.1883112E+04  0.7818609E-02  0.8663308E-01
       -1   -1    0    0    0  501  0.00000000000E+00  0.00000000000E+00  0.15416728861E+04  0.15416728861E+04  0.50400001928E-02 0.  1.
        1   -1    0    0  501    0  0.00000000000E+00  0.00000000000E+00 -0.57504288623E+03  0.57504288626E+03  0.50400001928E-02 0. -1.
    10030    2    1    2    0    0  0.00000000000E+00  0.00000000000E+00  0.96662999990E+03  0.21167157724E+04  0.18831123451E+04 0.  0.
        4    1    3    3  502    0 -0.23685150324E+03  0.25353853500E+03  0.14671948852E+04  0.15076613901E+04  0.12699999809E+01 0.  1.
       -4    1    3    3    0  502  0.23685150324E+03 -0.25353853500E+03 -0.50056488526E+03  0.60905438228E+03  0.12699999809E+01 0. -1.
</event>
<event>
 5   0  0.1782613E-04  0.1840155E+04  0.7818609E-02  0.8685232E-01
        1   -1    0    0  501    0  0.00000000000E+00  0.00000000000E+00  0.12649717759E+04  0.12649717759E+04  0.50400001928E-02 0.  1.
       -1   -1    0    0    0  501  0.00000000000E+00  0.00000000000E+00 -0.66921864074E+03  0.66921864076E+03  0.50400001928E-02 0. -1.
    10030    2    1    2    0    0  0.00000000000E+00  0.00000000000E+00  0.59575313519E+03  0.19341904167E+04  0.18401550940E+04 0.  0.
        3    1    3    3  502    0 -0.75193096870E+03 -0.42666412190E+03 -0.33012276422E+02  0.86517759749E+03  0.10100000352E+00 0.  1.
       -3    1    3    3    0  502  0.75193096870E+03  0.42666412190E+03  0.62876541161E+03  0.10690128192E+04  0.10100000352E+00 0. -1.
</event>
<event>
 5   0  0.1711979E-04  0.1861124E+04  0.7818609E-02  0.8674453E-01
       -1   -1    0    0    0  501  0.00000000000E+00  0.00000000000E+00  0.57970678039E+03  0.57970678041E+03  0.50400001928E-02 0.  1.
        1   -1    0    0  501    0  0.00000000000E+00  0.00000000000E+00 -0.14937652363E+04  0.14937652363E+04  0.50400001928E-02 0. -1.
    10030    2    1    2    0    0  0.00000000000E+00  0.00000000000E+00 -0.91405845586E+03  0.20734720167E+04  0.18611242149E+04 0.  0.
        4    1    3    3  502    0  0.19110556533E+03  0.11003495052E+03  0.55017515163E+03  0.59272534770E+03  0.12699999809E+01 0.  1.
       -4    1    3    3    0  502 -0.19110556533E+03 -0.11003495052E+03 -0.14642336075E+04  0.14807466690E+04  0.12699999809E+01 0. -1.
</event>
<event>
 5   0  0.3535876E-04  0.1802290E+04  0.7818609E-02  0.8705082E-01
       -2   -1    0    0    0  501  0.00000000000E+00  0.00000000000E+00  0.40331698130E+03  0.40331698131E+03  0.25500000920E-02 0.  1.
        2   -1    0    0  501    0  0.00000000000E+00  0.00000000000E+00 -0.20134602564E+04  0.20134602564E+04  0.25500000920E-02 0. -1.
    10030    2    1    2    0    0  0.00000000000E+00  0.00000000000E+00 -0.16101432751E+04  0.24167772377E+04  0.18022904456E+04 0.  0.
        2    1    3    3  502    0 -0.77736701681E+03 -0.13608528733E+03 -0.22173005764E+03  0.81974563293E+03  0.25500000920E-02 0.  1.
       -2    1    3    3    0  502  0.77736701681E+03  0.13608528733E+03 -0.13884132174E+04  0.15970316047E+04  0.25500000920E-02 0. -1.
</event>
<event>
 5   0  0.3623359E-04  0.1903014E+04  0.7818609E-02  0.8653357E-01
       -2   -1    0    0    0  501  0.00000000000E+00  0.00000000000E+00  0.13873832218E+04  0.13873832218E+04  0.25500000920E-02 0. -1.
        2   -1    0    0  501    0  0.00000000000E+00  0.00000000000E+00 -0.65257083570E+03  0.65257083570E+03  0.25500000920E-02 0.  1.
    10030    2    1    2    0    0  0.00000000000E+00  0.00000000000E+00  0.73481238609E+03  0.20399540575E+04  0.19030142705E+04 0.  0.
        5    1    3    3  502    0  0.79346628897E+03 -0.52484020996E+03  0.34890935548E+03  0.10133142780E+04  0.46999998093E+01 0. -1.
       -5    1    3    3    0  502 -0.79346628897E+03  0.52484020996E+03  0.38590303061E+03  0.10266397795E+04  0.46999998093E+01 0.  1.
</event>
<event>
 5   0  0.3459485E-04  0.1917936E+04  0.7818609E-02  0.8645980E-01
        2   -1    0    0  501    0  0.00000000000E+00  0.00000000000E+00  0.19711667077E+04  0.19711667077E+04  0.25500000920E-02 0. -1.
       -2   -1    0    0    0  501  0.00000000000E+00  0.00000000000E+00 -0.46653562237E+03  0.46653562238E+03  0.25500000920E-02 0.  1.
    10030    2    1    2    0    0  0.00000000000E+00  0.00000000000E+00  0.15046310854E+04  0.24377023301E+04  0.19179358559E+04 0.  0.
        3    1    3    3  502    0 -0.30940968141E+03 -0.46406816979E+03  0.17438004629E+04  0.18308286872E+04  0.10100000352E+00 0. -1.
       -3    1    3    3    0  502  0.30940968141E+03  0.46406816979E+03 -0.23916937753E+03  0.60687364295E+03  0.10100000352E+00 0.  1.
</event>
<event>
 5   0  0.3623359E-04  0.1900107E+04  0.7818609E-02  0.8654803E-01
        2   -1    0    0  501    0  0.00000000000E+00  0.00000000000E+00  0.11226546866E+04  0.11226546866E+04  0.25500000920E-02 0.  1.
       -2   -1    0    0    0  501  0.00000000000E+00  0.00000000000E+00 -0.80398828721E+03  0.80398828721E+03  0.25500000920E-02 0. -1.
    10030    2    1    2    0    0  0.00000000000E+00  0.00000000000E+00  0.31866639938E+03  0.19266429738E+04  0.19001065429E+04 0.  0.
        5    1    3    3  502    0  0.27714142397E+03 -0.26502864524E+03 -0.72201921686E+03  0.81754595662E+03  0.46999998093E+01 0. -1.
       -5    1    3    3    0  502 -0.27714142397E+03  0.26502864524E+03  0.10406856162E+04  0.11090970172E+04  0.46999998093E+01 0.  1.
</event>
<event>
 5   0  0.1711979E-04  0.1854129E+04  0.7818609E-02  0.8678033E-01
       -1   -1    0    0    0  501  0.00000000000E+00  0.00000000000E+00  0.82626358314E+03  0.82626358316E+03  0.50400001928E-02 0.  1.
        1   -1    0    0  501    0  0.00000000000E+00  0.00000000000E+00 -0.10401623495E+04  0.10401623495E+04  0.50400001928E-02 0. -1.
    10030    2    1    2    0    0  0.00000000000E+00  0.00000000000E+00 -0.21389876636E+03  0.18664259327E+04  0.18541286579E+04 0.  0.
        4    1    3    3  502    0  0.81702519083E+02  0.77755581235E+03  0.39452968309E+03  0.87574175799E+03  0.12699999809E+01 0.  1.
       -4    1    3    3    0  502 -0.81702519083E+02 -0.77755581235E+03 -0.60842844946E+03  0.99068417468E+03  0.12699999809E+01 0. -1.
</event>
<event>
 5   0  0.1782613E-04  0.1974857E+04  0.7818609E-02  0.8618467E-01
        1   -1    0    0  501    0  0.00000000000E+00  0.00000000000E+00  0.55123710193E+03  0.55123710196E+03  0.50400001928E-02 0. -1.
       -1   -1    0    0    0  501  0.00000000000E+00  0.00000000000E+00 -0.17687769747E+04  0.17687769747E+04  0.50400001928E-02 0.  1.
    10030    2    1    2    0    0  0.00000000000E+00  0.00000000000E+00 -0.12175398728E+04  0.23200140767E+04  0.19748574567E+04 0.  0.
        3    1    3    3  502    0  0.61447351474E+03  0.15172933658E+03 -0.14991350331E+04  0.16272692922E+04  0.10100000352E+00 0.  1.
       -3    1    3    3    0  502 -0.61447351474E+03 -0.15172933658E+03  0.28159516027E+03  0.69274478445E+03  0.10100000352E+00 0. -1.
</event>
<event>
 5   0  0.1782613E-04  0.1824128E+04  0.7818609E-02  0.8693573E-01
        1   -1    0    0  501    0  0.00000000000E+00  0.00000000000E+00  0.93692096454E+03  0.93692096455E+03  0.50400001928E-02 0.  1.
       -1   -1    0    0    0  501  0.00000000000E+00  0.00000000000E+00 -0.88786608244E+03  0.88786608245E+03  0.50400001928E-02 0. -1.
    10030    2    1    2    0    0  0.00000000000E+00  0.00000000000E+00  0.49054882102E+02  0.18247870470E+04  0.18241275683E+04 0.  0.
        3    1    3    3  502    0 -0.82677559399E+03  0.19922811296E+03  0.35420782985E+03  0.92125616456E+03  0.10100000352E+00 0.  1.
       -3    1    3    3    0  502  0.82677559399E+03 -0.19922811296E+03 -0.30515294775E+03  0.90353088244E+03  0.10100000352E+00 0. -1.
</event>
<event>
 5   0  0.1813834E-04  0.1906916E+04  0.7818609E-02  0.8651421E-01
        1   -1    0    0  501    0  0.00000000000E+00  0.00000000000E+00  0.13395299916E+04  0.13395299916E+04  0.50400001928E-02 0. -1.
       -1   -1    0    0    0  501  0.00000000000E+00  0.00000000000E+00 -0.67865757326E+03  0.67865757328E+03  0.50400001928E-02 0.  1.
    10030    2    1    2    0    0  0.00000000000E+00  0.00000000000E+00  0.66087241834E+03  0.20181875649E+04  0.19069160164E+04 0.  0.
        5    1    3    3  502    0  0.35497591983E+03 -0.69157273149E+03 -0.25384607626E+03  0.81776565532E+03  0.46999998093E+01 0.  1.
       -5    1    3    3    0  502 -0.35497591983E+03  0.69157273149E+03  0.91471849459E+03  0.12004219096E+04  0.46999998093E+01 0. -1.
</event>
<event>
 5   0  0.3535876E-04  0.1896965E+04  0.7818609E-02  0.8656368E-01
        2   -1    0    0  501    0  0.00000000000E+00  0.00000000000E+00  0.11126148729E+04  0.11126148729E+04  0.25500000920E-02 0.  1.
       -2   -1    0    0    0  501  0.00000000000E+00  0.00000000000E+00 -0.80856301986E+03  0.80856301987E+03  0.25500000920E-02 0. -1.
    10030    2    1    2    0    0  0.00000000000E+00  0.00000000000E+00  0.30405185306E+03  0.19211778928E+04  0.18969651991E+04 0.  0.
        2    1    3    3  502    0  0.82164447993E+03  0.27533246628E+03 -0.23852769921E+03  0.89877866112E+03  0.25500000920E-02 0. -1.
       -2    1    3    3    0  502 -0.82164447993E+03 -0.27533246628E+03  0.54257955227E+03  0.10223992317E+04  0.25500000920E-02 0.  1.
</event>
<event>
 5   0  0.3459485E-04  0.1894263E+04  0.7818609E-02  0.8657717E-01
        2   -1    0    0  501    0  0.00000000000E+00  0.00000000000E+00  0.73088219267E+03  0.73088219268E+03  0.25500000920E-02 0. -1.
       -2   -1    0    0    0  501  0.00000000000E+00  0.00000000000E+00 -0.12273632591E+04  0.12273632591E+04  0.25500000920E-02 0.  1.
    10030    2    1    2    0    0  0.00000000000E+00  0.00000000000E+00 -0.49648106641E+03  0.19582454518E+04  0.18942628646E+04 0.  0.
        3    1    3    3  502    0 -0.47881907259E+03  0.77731298941E+03  0.12416362441E+02  0.91303743846E+03  0.10100000352E+00 0. -1.
       -3    1    3    3    0  502  0.47881907259E+03 -0.77731298941E+03 -0.50889742885E+03  0.10452080133E+04  0.10100000352E+00 0.  1.
</event>
<event>
 5   0  0.3459485E-04  0.1879573E+04  0.7818609E-02  0.8665091E-01
       -2   -1    0    0    0  501  0.00000000000E+00  0.00000000000E+00  0.57213374318E+03  0.57213374319E+03  0.25500000920E-02 0.  1.
        2   -1    0    0  501    0  0.00000000000E+00  0.00000000000E+00 -0.15436933106E+04  0.15436933106E+04  0.25500000920E-02 0. -1.
    10030    2    1    2    0    0  0.00000000000E+00  0.00000000000E+00 -0.97155956742E+03  0.21158270538E+04  0.18795733900E+04 0.  0.
        3    1    3    3  502    0  0.52914897794E+03 -0.75999128496E+03 -0.30562059163E+03  0.97518682841E+03  0.10100000352E+00 0.  1.
       -3    1    3    3    0  502 -0.52914897794E+03  0.75999128496E+03 -0.66593897579E+03  0.11406402254E+04  0.10100000352E+00 0. -1.
</event>
<event>
 5   0  0.1758946E-04  0.1903256E+04  0.7818609E-02  0.8653237E-01
        1   -1    0    0  501    0  0.00000000000E+00  0.00000000000E+00  0.13633409068E+04  0.13633409068E+04  0.50400001928E-02 0.  1.
       -1   -1    0    0    0  501  0.00000000000E+00  0.00000000000E+00 -0.66424760665E+03  0.66424760666E+03  0.50400001928E-02 0. -1.
    10030    2    1    2    0    0  0.00000000000E+00  0.00000000000E+00  0.69909330013E+03  0.20275885135E+04  0.19032560883E+04 0.  0.
        2    1    3    3  502    0  0.36457088627E+03  0.50802560760E+02  0.12844291519E+04  0.13361328817E+04  0.25500000920E-02 0.  1.
       -2    1    3    3    0  502 -0.36457088627E+03 -0.50802560760E+02 -0.58533585178E+03  0.69145563175E+03  0.25500000920E-02 0. -1.
</event>
<event>
 5   0  0.3516539E-04  0.1891174E+04  0.7818609E-02  0.8659262E-01
        2   -1    0    0  501    0  0.00000000000E+00  0.00000000000E+00  0.13496618705E+04  0.13496618705E+04  0.25500000920E-02 0.  1.
       -2   -1    0    0    0  501  0.00000000000E+00  0.00000000000E+00 -0.66248817129E+03  0.66248817129E+03  0.25500000920E-02 0. -1.
    10030    2    1    2    0    0  0.00000000000E+00  0.00000000000E+00  0.68717369926E+03  0.20121500418E+04  0.18911742643E+04 0.  0.
        4    1    3    3  502    0  0.29269695979E+03 -0.29954000260E+03  0.12456023945E+04  0.13141242945E+04  0.12699999809E+01 0.  1.
       -4    1    3    3    0  502 -0.29269695979E+03  0.29954000260E+03 -0.55842869520E+03  0.69802574734E+03  0.12699999809E+01 0. -1.
</event>
<event>
 5   0  0.3459485E-04  0.2018686E+04  0.7818609E-02  0.8597934E-01
        2   -1    0    0  501    0  0.00000000000E+00  0.00000000000E+00  0.15147829870E+04  0.15147829870E+04  0.25500000920E-02 0.  1.
       -2   -1    0    0    0  501  0.00000000000E+00  0.00000000000E+00 -0.67255389266E+03  0.67255389267E+03  0.25500000920E-02 0. -1.
    10030    2    1    2    0    0  0.00000000000E+00  0.00000000000E+00  0.84222909431E+03  0.21873368796E+04  0.20186859037E+04 0.  0.
        3    1    3    3  502    0 -0.12961165563E+03  0.35157828972E+03 -0.59439698285E+03  0.70264803316E+03  0.10100000352E+00 0. -1.
       -3    1    3    3    0  502  0.12961165563E+03 -0.35157828972E+03  0.14366260772E+04  0.14846888465E+04  0.10100000352E+00 0.  1.
</event>
<event>
 5   0  0.3459485E-04  0.1779987E+04  0.7818609E-02  0.8717015E-01
        2   -1    0    0  501    0  0.00000000000E+00  0.00000000000E+00  0.10831654529E+04  0.10831654529E+04  0.25500000920E-02 0. -1.
       -2   -1    0    0    0  501  0.00000000000E+00  0.00000000000E+00 -0.73127176786E+03  0.73127176786E+03  0.25500000920E-02 0.  1.
    10030    2    1    2    0    0  0.00000000000E+00  0.00000000000E+00  0.35189368505E+03  0.18144372208E+04  0.17799868715E+04 0.  0.
        3    1    3    3  502    0  0.87284431832E+03  0.98246416710E+02  0.29717485938E+02  0.87885874951E+03  0.10100000352E+00 0.  1.
       -3    1    3    3    0  502 -0.87284431832E+03 -0.98246416710E+02  0.32217619911E+03  0.93557847126E+03  0.10100000352E+00 0. -1.
</event>
<event>
 5   0  0.3459485E-04  0.1910334E+04  0.7818609E-02  0.8649729E-01
        2   -1    0    0  501    0  0.00000000000E+00  0.00000000000E+00  0.10825694433E+04  0.10825694433E+04  0.25500000920E-02 0. -1.
       -2   -1    0    0    0  501  0.00000000000E+00  0.00000000000E+00 -0.84275820162E+03  0.84275820162E+03  0.25500000920E-02 0.  1.
    10030    2    1    2    0    0  0.00000000000E+00  0.00000000000E+00  0.23981124171E+03  0.19253276450E+04  0.19103342924E+04 0.  0.
        3    1    3    3  502    0  0.50931013786E+03  0.79746888552E+03  0.25127753716E+03  0.97902699186E+03  0.10100000352E+00 0.  1.
       -3    1    3    3    0  502 -0.50931013786E+03 -0.79746888552E+03 -0.11466295456E+02  0.94630065309E+03  0.10100000352E+00 0. -1.
</event>
<event>
 5   0  0.3623359E-04  0.1845525E+04  0.7818609E-02  0.8682458E-01
       -2   -1    0    0    0  501  0.00000000000E+00  0.00000000000E+00  0.45218301962E+03  0.45218301963E+03  0.25500000920E-02 0. -1.
        2   -1    0    0  501    0  0.00000000000E+00  0.00000000000E+00 -0.18830658108E+04  0.18830658108E+04  0.25500000920E-02 0.  1.
    10030    2    1    2    0    0  0.00000000000E+00  0.00000000000E+00 -0.14308827912E+04  0.23352488305E+04  0.18455247324E+04 0.  0.
        5    1    3    3  502    0  0.44729891906E+03  0.79497404323E+03 -0.53916003498E+03  0.10596111012E+04  0.46999998093E+01 0. -1.
       -5    1    3    3    0  502 -0.44729891906E+03 -0.79497404323E+03 -0.89172275622E+03  0.12756377293E+04  0.46999998093E+01 0.  1.
</event>
<event>
 5   0  0.1782613E-04  0.1908511E+04  0.7818609E-02  0.8650631E-01
       -1   -1    0    0    0  501  0.00000000000E+00  0.00000000000E+00  0.52953033048E+03  0.52953033050E+03  0.50400001928E-02 0. -1.
        1   -1    0    0  501    0  0.00000000000E+00  0.00000000000E+00 -0.17196442861E+04  0.17196442861E+04  0.50400001928E-02 0.  1.
    10030    2    1    2    0    0  0.00000000000E+00  0.00000000000E+00 -0.11901139556E+04  0.22491746166E+04  0.19085112597E+04 0.  0.
        3    1    3    3  502    0 -0.56614368418E+02  0.77914268635E+03 -0.12409069213E+04  0.14663282409E+04  0.10100000352E+00 0.  1.
       -3    1    3    3    0  502  0.56614368418E+02 -0.77914268635E+03  0.50792965714E+02  0.78284637572E+03  0.10100000352E+00 0. -1.
</event>
<event>
 5   0  0.1758946E-04  0.1885260E+04  0.7818609E-02  0.8662229E-01
        1   -1    0    0  501    0  0.00000000000E+00  0.00000000000E+00  0.73124806046E+03  0.73124806048E+03  0.50400001928E-02 0.  1.
       -1   -1    0    0    0  501  0.00000000000E+00  0.00000000000E+00 -0.12151157880E+04  0.12151157880E+04  0.50400001928E-02 0. -1.
    10030    2    1    2    0    0  0.00000000000E+00  0.00000000000E+00 -0.48386772749E+03  0.19463638484E+04  0.18852597309E+04 0.  0.
        2    1    3    3  502    0 -0.13960573475E+03 -0.44282961281E+03 -0.10888657969E+04  0.11837299316E+04  0.25500000920E-02 0. -1.
       -2    1    3    3    0  502  0.13960573475E+03  0.44282961281E+03  0.60499806943E+03  0.76263391688E+03  0.25500000920E-02 0.  1.
</event>
<event>
 5   0  0.1711979E-04  0.1897043E+04  0.7818609E-02  0.8656330E-01
       -1   -1    0    0    0  501  0.00000000000E+00  0.00000000000E+00  0.11248732094E+04  0.11248732094E+04  0.50400001928E-02 0.  1.
        1   -1    0    0  501    0  0.00000000000E+00  0.00000000000E+00 -0.79981687436E+03  0.79981687438E+03  0.50400001928E-02 0. -1.
    10030    2    1    2    0    0  0.00000000000E+00  0.00000000000E+00  0.32505633505E+03  0.19246900838E+04  0.18970425134E+04 0.  0.
        4    1    3    3  502    0 -0.57864475675E+03 -0.47525715325E+03  0.75324367296E+03  0.10621095800E+04  0.12699999809E+01 0.  1.
       -4    1    3    3    0  502  0.57864475675E+03  0.47525715325E+03 -0.42818733792E+03  0.86258050377E+03  0.12699999809E+01 0. -1.
</event>
<event>
 5   0  0.3459485E-04  0.1906993E+04  0.7818609E-02  0.8651384E-01
       -2   -1    0    0    0  501  0.00000000000E+00  0.00000000000E+00  0.13516493483E+04  0.13516493483E+04  0.25500000920E-02 0.  1.
        2   -1    0    0  501    0  0.00000000000E+00  0.00000000000E+00 -0.67262655360E+03  0.67262655360E+03  0.25500000920E-02 0. -1.
    10030    2    1    2    0    0  0.00000000000E+00  0.00000000000E+00  0.67902279472E+03  0.20242759019E+04  0.19069926511E+04 0.  0.
        3    1    3    3  502    0 -0.24546524477E+03  0.10755479416E+03 -0.63182587063E+03  0.68631272837E+03  0.10100000352E+00 0. -1.
       -3    1    3    3    0  502  0.24546524477E+03 -0.10755479416E+03  0.13108486653E+04  0.13379631735E+04  0.10100000352E+00 0.  1.
</event>
<event>
 5   0  0.3459485E-04  0.1351713E+04  0.7818609E-02  0.8989532E-01
        2   -1    0    0  501    0  0.00000000000E+00  0.00000000000E+00  0.26618172250E+04  0.26618172250E+04  0.25500000920E-02 0.  1.
       -2   -1    0    0    0  501  0.00000000000E+00  0.00000000000E+00 -0.17160535611E+03  0.17160535613E+03  0.25500000920E-02 0. -1.
    10030    2    1    2    0    0  0.00000000000E+00  0.00000000000E+00  0.24902118689E+04  0.28334225811E+04  0.13517131246E+04 0.  0.
        3    1    3    3  502    0  0.33843200337E+03  0.27525960912E+03  0.16303057460E+03  0.46570704501E+03  0.10100000352E+00 0. -1.
       -3    1    3    3    0  502 -0.33843200337E+03 -0.27525960912E+03  0.23271812943E+04  0.23677155361E+04  0.10100000352E+00 0.  1.
</event>
<event>
 5   0  0.3720978E-04  0.1831880E+04  0.7818609E-02  0.8689527E-01
        2   -1    0    0  501    0  0.00000000000E+00  0.00000000000E+00  0.13997441319E+04  0.13997441319E+04  0.25500000920E-02 0.  1.
       -2   -1    0    0    0  501  0.00000000000E+00  0.00000000000E+00 -0.59935689027E+03  0.59935689028E+03  0.25500000920E-02 0. -1.
    10030    2    1    2    0    0  0.00000000000E+00  0.00000000000E+00  0.80038724159E+03  0.19991010221E+04  0.18318802254E+04 0.  0.
        1    1    3    3  502    0  0.30331401651E+03 -0.58885345650E+03  0.10905532664E+04  0.12759522768E+04  0.50400001928E-02 0.  1.
       -1    1    3    3    0  502 -0.30331401651E+03  0.58885345650E+03 -0.29016602483E+03  0.72314874530E+03  0.50400001928E-02 0. -1.
</event>
<event>
 5   0  0.1694830E-04  0.1887254E+04  0.7818609E-02  0.8661227E-01
        1   -1    0    0  501    0  0.00000000000E+00  0.00000000000E+00  0.82521447473E+03  0.82521447474E+03  0.50400001928E-02 0.  1.
       -1   -1    0    0    0  501  0.00000000000E+00  0.00000000000E+00 -0.10790305245E+04  0.10790305245E+04  0.50400001928E-02 0. -1.
    10030    2    1    2    0    0  0.00000000000E+00  0.00000000000E+00 -0.25381604979E+03  0.19042449993E+04  0.18872536740E+04 0.  0.
        1    1    3    3  502    0 -0.66420106875E+03  0.13789916318E+03 -0.78874980464E+03  0.10403391242E+04  0.50400001928E-02 0. -1.
       -1    1    3    3    0  502  0.66420106875E+03 -0.13789916318E+03  0.53493375485E+03  0.86390587510E+03  0.50400001928E-02 0.  1.
</event>
<event>
 5   0  0.3535876E-04  0.1910144E+04  0.7818609E-02  0.8649824E-01
        2   -1    0    0  501    0  0.00000000000E+00  0.00000000000E+00  0.15243078134E+04  0.15243078134E+04  0.25500000920E-02 0. -1.
       -2   -1    0    0    0  501  0.00000000000E+00  0.00000000000E+00 -0.59841080935E+03  0.59841080936E+03  0.25500000920E-02 0.  1.
    10030    2    1    2    0    0  0.00000000000E+00  0.00000000000E+00  0.92589700408E+03  0.21227186228E+04  0.19101437353E+04 0.  0.
        2    1    3    3  502    0 -0.32250182385E+01 -0.59159616235E+03 -0.37026943845E+03  0.69792254377E+03  0.25500000920E-02 0.  1.
       -2    1    3    3    0  502  0.32250182385E+01  0.59159616235E+03  0.12961664425E+04  0.14247960790E+04  0.25500000920E-02 0. -1.
</event>
<event>
 5   0  0.3459485E-04  0.1884265E+04  0.7818609E-02  0.8662729E-01
        2   -1    0    0  501    0  0.00000000000E+00  0.00000000000E+00  0.15669447663E+04  0.15669447663E+04  0.25500000920E-02 0.  1.
       -2   -1    0    0    0  501  0.00000000000E+00  0.00000000000E+00 -0.56646126535E+03  0.56646126536E+03  0.25500000920E-02 0. -1.
    10030    2    1    2    0    0  0.00000000000E+00  0.00000000000E+00  0.10004835009E+04  0.21334060317E+04  0.18842648594E+04 0.  0.
        3    1    3    3  502    0 -0.12847389522E+03  0.70606852566E+03  0.11913380086E+04  0.13907999733E+04  0.10100000352E+00 0.  1.
       -3    1    3    3    0  502  0.12847389522E+03 -0.70606852566E+03 -0.19085450766E+03  0.74260605840E+03  0.10100000352E+00 0. -1.
</event>
<event>
 5   0  0.1694830E-04  0.1852916E+04  0.7818609E-02  0.8678655E-01
        1   -1    0    0  501    0  0.00000000000E+00  0.00000000000E+00  0.17282281222E+04  0.17282281222E+04  0.50400001928E-02 0.  1.
       -1   -1    0    0    0  501  0.00000000000E+00  0.00000000000E+00 -0.49664973435E+03  0.49664973438E+03  0.50400001928E-02 0. -1.
    10030    2    1    2    0    0  0.00000000000E+00  0.00000000000E+00  0.12315783879E+04  0.22248778566E+04  0.18529155813E+04 0.  0.
        1    1    3    3  502    0 -0.54446666148E+03 -0.72466705556E+03  0.38564139639E+03  0.98504089941E+03  0.50400001928E-02 0.  1.
       -1    1    3    3    0  502  0.54446666148E+03  0.72466705556E+03  0.84593699149E+03  0.12398369572E+04  0.50400001928E-02 0. -1.
</event>
<event>
 5   0  0.3516539E-04  0.1917198E+04  0.7818609E-02  0.8646343E-01
       -2   -1    0    0    0  501  0.00000000000E+00  0.00000000000E+00  0.87732427304E+03  0.87732427304E+03  0.25500000920E-02 0. -1.
        2   -1    0    0  501    0  0.00000000000E+00  0.00000000000E+00 -0.10474028038E+04  0.10474028038E+04  0.25500000920E-02 0.  1.
    10030    2    1    2    0    0  0.00000000000E+00  0.00000000000E+00 -0.17007853078E+03  0.19247270769E+04  0.19171978546E+04 0.  0.
        4    1    3    3  502    0  0.45414170322E+03 -0.50633283211E+03  0.59310792431E+03  0.90243905404E+03  0.12699999809E+01 0. -1.
       -4    1    3    3    0  502 -0.45414170322E+03  0.50633283211E+03 -0.76318645508E+03  0.10222880228E+04  0.12699999809E+01 0.  1.
</event>
<event>
 5   0  0.1287000E-04  0.1701845E+04  0.7818609E-02  0.8760313E-01
       -3   -1    0    0    0  501  0.00000000000E+00  0.00000000000E+00  0.76768784366E+03  0.76768785030E+03  0.10100000352E+00 0.  1.
        3   -1    0    0  501    0  0.00000000000E+00  0.00000000000E+00 -0.94318138692E+03  0.94318139233E+03  0.10100000352E+00 0. -1.
    10030    2    1    2    0    0  0.00000000000E+00  0.00000000000E+00 -0.17549354327E+03  0.17108692426E+04  0.17018447584E+04 0.  0.
        2    1    3    3  502    0  0.33194488303E+03  0.27827893435E+03  0.64855932314E+03  0.77990753703E+03  0.25500000920E-02 0.  1.
       -2    1    3    3    0  502 -0.33194488303E+03 -0.27827893435E+03 -0.82405286640E+03  0.93096170561E+03  0.25500000920E-02 0. -1.
</event>
<event>
 5   0  0.3623359E-04  0.1796374E+04  0.7818609E-02  0.8708230E-01
       -2   -1    0    0    0  501  0.00000000000E+00  0.00000000000E+00  0.11581527791E+04  0.11581527791E+04  0.25500000920E-02 0. -1.
        2   -1    0    0  501    0  0.00000000000E+00  0.00000000000E+00 -0.69657449656E+03  0.69657449656E+03  0.25500000920E-02 0.  1.
    10030    2    1    2    0    0  0.00000000000E+00  0.00000000000E+00  0.46157828252E+03  0.18547272756E+04  0.17963737796E+04 0.  0.
        5    1    3    3  502    0  0.32435741581E+03  0.15627461932E+03 -0.61879411538E+03  0.71593137734E+03  0.46999998093E+01 0.  1.
       -5    1    3    3    0  502 -0.32435741581E+03 -0.15627461932E+03  0.10803723979E+04  0.11387958983E+04  0.46999998093E+01 0. -1.
</event>
<event>
 5   0  0.3516539E-04  0.1889076E+04  0.7818609E-02  0.8660313E-01
       -2   -1    0    0    0  501  0.00000000000E+00  0.00000000000E+00  0.35588848994E+03  0.35588848995E+03  0.25500000920E-02 0. -1.
        2   -1    0    0  501    0  0.00000000000E+00  0.00000000000E+00 -0.25068295837E+04  0.25068295837E+04  0.25500000920E-02 0.  1.
    10030    2    1    2    0    0  0.00000000000E+00  0.00000000000E+00 -0.21509410938E+04  0.28627180737E+04  0.18890757477E+04 0.  0.
        4    1    3    3  502    0  0.96255107965E+02 -0.85076022036E+03 -0.16799111484E+04  0.18855134786E+04  0.12699999809E+01 0.  1.
       -4    1    3    3    0  502 -0.96255107965E+02  0.85076022036E+03 -0.47102994533E+03  0.97720459509E+03  0.12699999809E+01 0. -1.
</event>
<event>
 5   0  0.3459485E-04  0.1945566E+04  0.7818609E-02  0.8632502E-01
        2   -1    0    0  501    0  0.00000000000E+00  0.00000000000E+00  0.11917577709E+04  0.11917577709E+04  0.25500000920E-02 0.  1.
       -2   -1    0    0    0  501  0.00000000000E+00  0.00000000000E+00 -0.79404299862E+03  0.79404299863E+03  0.25500000920E-02 0. -1.
    10030    2    1    2    0    0  0.00000000000E+00  0.00000000000E+00  0.39771477227E+03  0.19858007695E+04  0.19455661531E+04 0.  0.
        3    1    3    3  502    0 -0.77796553782E+03  0.42887445027E+03  0.60346822492E+03  0.10739355571E+04  0.10100000352E+00 0.  1.
       -3    1    3    3    0  502  0.77796553782E+03 -0.42887445027E+03 -0.20575345265E+03  0.91186521241E+03  0.10100000352E+00 0. -1.
</event>
<event>
 5   0  0.3459485E-04  0.1893826E+04  0.7818609E-02  0.8657936E-01
        2   -1    0    0  501    0  0.00000000000E+00  0.00000000000E+00  0.14092533602E+04  0.14092533602E+04  0.25500000920E-02 0. -1.
       -2   -1    0    0    0  501  0.00000000000E+00  0.00000000000E+00 -0.63625462384E+03  0.63625462385E+03  0.25500000920E-02 0.  1.
    10030    2    1    2    0    0  0.00000000000E+00  0.00000000000E+00  0.77299873637E+03  0.20455079841E+04  0.18938257223E+04 0.  0.
        3    1    3    3  502    0  0.13791268018E+03  0.34584715078E+03 -0.55387270563E+03  0.66738680186E+03  0.10100000352E+00 0.  1.
       -3    1    3    3    0  502 -0.13791268018E+03 -0.34584715078E+03  0.13268714420E+04  0.13781211822E+04  0.10100000352E+00 0. -1.
</event>
<event>
 5   0  0.3516539E-04  0.1849025E+04  0.7818609E-02  0.8680654E-01
       -2   -1    0    0    0  501  0.00000000000E+00  0.00000000000E+00  0.77665968989E+03  0.77665968989E+03  0.25500000920E-02 0.  1.
        2   -1    0    0  501    0  0.00000000000E+00  0.00000000000E+00 -0.11005121346E+04  0.11005121346E+04  0.25500000920E-02 0. -1.
    10030    2    1    2    0    0  0.00000000000E+00  0.00000000000E+00 -0.32385244475E+03  0.18771718245E+04  0.18490250547E+04 0.  0.
        4    1    3    3  502    0 -0.83318297685E+03  0.16843161693E+03  0.20714411287E+03  0.87491335508E+03  0.12699999809E+01 0.  1.
       -4    1    3    3    0  502  0.83318297685E+03 -0.16843161693E+03 -0.53099655762E+03  0.10022584695E+04  0.12699999809E+01 0. -1.
</event>
<event>
 5   0  0.3459485E-04  0.1899378E+04  0.7818609E-02  0.8655166E-01
        2   -1    0    0  501    0  0.00000000000E+00  0.00000000000E+00  0.88077289830E+03  0.88077289830E+03  0.25500000920E-02 0.  1.
       -2   -1    0    0    0  501  0.00000000000E+00  0.00000000000E+00 -0.10239977992E+04  0.10239977992E+04  0.25500000920E-02 0. -1.
    10030    2    1    2    0    0  0.00000000000E+00  0.00000000000E+00 -0.14322490088E+03  0.19047706975E+04  0.18993783293E+04 0.  0.
        3    1    3    3  502    0 -0.65076330830E+03 -0.14237596785E+03 -0.75039869037E+03  0.10034251364E+04  0.10100000352E+00 0. -1.
       -3    1    3    3    0  502  0.65076330830E+03  0.14237596785E+03  0.60717378948E+03  0.90134556109E+03  0.10100000352E+00 0.  1.
</event>
<event>
 5   0  0.1813834E-04  0.1996839E+04  0.7818609E-02  0.8608100E-01
       -1   -1    0    0    0  501  0.00000000000E+00  0.00000000000E+00  0.61088276508E+03  0.61088276510E+03  0.50400001928E-02 0. -1.
        1   -1    0    0  501    0  0.00000000000E+00  0.00000000000E+00 -0.16318043952E+04  0.16318043952E+04  0.50400001928E-02 0.  1.
    10030    2    1    2    0    0  0.00000000000E+00  0.00000000000E+00 -0.10209216301E+04  0.22426871603E+04  0.19968386826E+04 0.  0.
        5    1    3    3  502    0 -0.65808911338E+03 -0.84402913265E+02  0.32745958113E+03  0.73990337220E+03  0.46999998093E+01 0. -1.
       -5    1    3    3    0  502  0.65808911338E+03  0.84402913265E+02 -0.13483812112E+04  0.15027837881E+04  0.46999998093E+01 0.  1.
</event>
<event>
 5   0  0.3720978E-04  0.1911089E+04  0.7818609E-02  0.8649357E-01
        2   -1    0    0  501    0  0.00000000000E+00  0.00000000000E+00  0.16830843390E+04  0.16830843390E+04  0.25500000920E-02 0. -1.
       -2   -1    0    0    0  501  0.00000000000E+00  0.00000000000E+00 -0.54249500318E+03  0.54249500319E+03  0.25500000920E-02 0.  1.
    10030    2    1    2    0    0  0.00000000000E+00  0.00000000000E+00  0.11405893358E+04  0.22255793422E+04  0.19110885315E+04 0.  0.
        1    1    3    3  502    0  0.11325591075E+03 -0.42519963359E+03  0.15580753661E+04  0.16190183681E+04  0.50400001928E-02 0. -1.
       -1    1    3    3    0  502 -0.11325591075E+03  0.42519963359E+03 -0.41748603031E+03  0.60656097407E+03  0.50400001928E-02 0.  1.
</event>
<event>
 5   0  0.1782613E-04  0.1285492E+04  0.7818609E-02  0.9041150E-01
        1   -1    0    0  501    0  0.00000000000E+00  0.00000000000E+00  0.69877022178E+03  0.69877022180E+03  0.50400001928E-02 0. -1.
       -1   -1    0    0    0  501  0.00000000000E+00  0.00000000000E+00 -0.59121372882E+03  0.59121372884E+03  0.50400001928E-02 0.  1.
    10030    2    1    2    0    0  0.00000000000E+00  0.00000000000E+00  0.10755649297E+03  0.12899839506E+04  0.12854921990E+04 0.  0.
        3    1    3    3  502    0  0.43596235287E+03 -0.35247592186E+03 -0.26167680280E+03  0.61868991259E+03  0.10100000352E+00 0.  1.
       -3    1    3    3    0  502 -0.43596235287E+03  0.35247592186E+03  0.36923329577E+03  0.67129403805E+03  0.10100000352E+00 0. -1.
</event>
<event>
 5   0  0.3516539E-04  0.1885750E+04  0.7818609E-02  0.8661982E-01
        2   -1    0    0  501    0  0.00000000000E+00  0.00000000000E+00  0.14050989593E+04  0.14050989593E+04  0.25500000920E-02 0. -1.
       -2   -1    0    0    0  501  0.00000000000E+00  0.00000000000E+00 -0.63270534545E+03  0.63270534546E+03  0.25500000920E-02 0.  1.
    10030    2    1    2    0    0  0.00000000000E+00  0.00000000000E+00  0.77239361384E+03  0.20378043048E+04  0.18857503784E+04 0.  0.
        4    1    3    3  502    0 -0.36382079427E+03 -0.82068626317E+03  0.69775009316E+03  0.11369909051E+04  0.12699999809E+01 0. -1.
       -4    1    3    3    0  502  0.36382079427E+03  0.82068626317E+03  0.74643520684E+02  0.90081339965E+03  0.12699999809E+01 0.  1.
</event>
<event>
 5   0  0.3516539E-04  0.1905052E+04  0.7818609E-02  0.8652346E-01
       -2   -1    0    0    0  501  0.00000000000E+00  0.00000000000E+00  0.35624198650E+03  0.35624198651E+03  0.25500000920E-02 0.  1.
        2   -1    0    0  501    0  0.00000000000E+00  0.00000000000E+00 -0.25468809778E+04  0.25468809778E+04  0.25500000920E-02 0. -1.
    10030    2    1    2    0    0  0.00000000000E+00  0.00000000000E+00 -0.21906389913E+04  0.29031229643E+04  0.19050521661E+04 0.  0.
        4    1    3    3  502    0 -0.60404626460E+03  0.71240257546E+03 -0.81056891143E+03  0.12366943407E+04  0.12699999809E+01 0.  1.
       -4    1    3    3    0  502  0.60404626460E+03 -0.71240257546E+03 -0.13800700799E+04  0.16664286236E+04  0.12699999809E+01 0. -1.
</event>
<event>
 5   0  0.1287000E-04  0.1950612E+04  0.7818609E-02  0.8630066E-01
        3   -1    0    0  501    0  0.00000000000E+00  0.00000000000E+00  0.14192522438E+04  0.14192522474E+04  0.10100000352E+00 0.  1.
       -3   -1    0    0    0  501  0.00000000000E+00  0.00000000000E+00 -0.67022724798E+03  0.67022725559E+03  0.10100000352E+00 0. -1.
    10030    2    1    2    0    0  0.00000000000E+00  0.00000000000E+00  0.74902499582E+03  0.20894795030E+04  0.19506117371E+04 0.  0.
        3    1    3    3  502    0  0.47652571659E+03  0.45776200397E+03  0.11429377554E+04  0.13202005658E+04  0.10100000352E+00 0.  1.
       -3    1    3    3    0  502 -0.47652571659E+03 -0.45776200397E+03 -0.39391275962E+03  0.76927893721E+03  0.10100000352E+00 0. -1.
</event>
<event>
 5   0  0.3516539E-04  0.2017111E+04  0.7818609E-02  0.8598662E-01
        2   -1    0    0  501    0  0.00000000000E+00  0.00000000000E+00  0.11584257345E+04  0.11584257345E+04  0.25500000920E-02 0.  1.
       -2   -1    0    0    0  501  0.00000000000E+00  0.00000000000E+00 -0.87807488636E+03  0.87807488637E+03  0.25500000920E-02 0. -1.
    10030    2    1    2    0    0  0.00000000000E+00  0.00000000000E+00  0.28035084812E+03  0.20365006209E+04  0.20171113456E+04 0.  0.
        4    1    3    3  502    0  0.49431397887E+03  0.77209470963E+03 -0.28422986939E+03  0.95982539136E+03  0.12699999809E+01 0. -1.
       -4    1    3    3    0  502 -0.49431397887E+03 -0.77209470963E+03  0.56458071751E+03  0.10766752295E+04  0.12699999809E+01 0.  1.
</event>
<event>
 5   0  0.3720978E-04  0.1881304E+04  0.7818609E-02  0.8664219E-01
        2   -1    0    0  501    0  0.00000000000E+00  0.00000000000E+00  0.14628684831E+04  0.14628684831E+04  0.25500000920E-02 0.  1.
       -2   -1    0    0    0  501  0.00000000000E+00  0.00000000000E+00 -0.60485702692E+03  0.60485702692E+03  0.25500000920E-02 0. -1.
    10030    2    1    2    0    0  0.00000000000E+00  0.00000000000E+00  0.85801145619E+03  0.20677255100E+04  0.18813041024E+04 0.  0.
        1    1    3    3  502    0  0.67503669083E+02 -0.92322864212E+03  0.24536067788E+03  0.95765846378E+03  0.50400001928E-02 0.  1.
       -1    1    3    3    0  502 -0.67503669083E+02  0.92322864212E+03  0.61265077830E+03  0.11100670462E+04  0.50400001928E-02 0. -1.
</event>
<event>
 5   0  0.1711979E-04  0.1844000E+04  0.7818609E-02  0.8683245E-01
        1   -1    0    0  501    0  0.00000000000E+00  0.00000000000E+00  0.16565597879E+04  0.16565597879E+04  0.50400001928E-02 0. -1.
       -1   -1    0    0    0  501  0.00000000000E+00  0.00000000000E+00 -0.51316215886E+03  0.51316215888E+03  0.50400001928E-02 0.  1.
    10030    2    1    2    0    0  0.00000000000E+00  0.00000000000E+00  0.11433976290E+04  0.21697219468E+04  0.18439997799E+04 0.  0.
        4    1    3    3  502    0  0.63905082381E+03  0.18374625227E+03  0.13232142862E+04  0.14808937507E+04  0.12699999809E+01 0. -1.
       -4    1    3    3    0  502 -0.63905082381E+03 -0.18374625227E+03 -0.17981665719E+03  0.68882819609E+03  0.12699999809E+01 0.  1.
</event>
<event>
 5   0  0.1287000E-04  0.1201471E+04  0.7818609E-02  0.9111570E-01
       -3   -1    0    0    0  501  0.00000000000E+00  0.00000000000E+00  0.23819531031E+03  0.23819533172E+03  0.10100000352E+00 0. -1.
        3   -1    0    0  501    0  0.00000000000E+00  0.00000000000E+00 -0.15150712760E+04  0.15150712793E+04  0.10100000352E+00 0.  1.
    10030    2    1    2    0    0  0.00000000000E+00  0.00000000000E+00 -0.12768759656E+04  0.17532666110E+04  0.12014705896E+04 0.  0.
        5    1    3    3  502    0  0.13712219415E+03 -0.34276963658E+03 -0.13299632636E+04  0.13802600815E+04  0.46999998093E+01 0.  1.
       -5    1    3    3    0  502 -0.13712219415E+03  0.34276963658E+03  0.53087297996E+02  0.37300652956E+03  0.46999998093E+01 0. -1.
</event>
<event>
 5   0  0.1813834E-04  0.1890104E+04  0.7818609E-02  0.8659798E-01
        1   -1    0    0  501    0  0.00000000000E+00  0.00000000000E+00  0.16256738399E+04  0.16256738399E+04  0.50400001928E-02 0. -1.
       -1   -1    0    0    0  501  0.00000000000E+00  0.00000000000E+00 -0.54938635940E+03  0.54938635943E+03  0.50400001928E-02 0.  1.
    10030    2    1    2    0    0  0.00000000000E+00  0.00000000000E+00  0.10762874805E+04  0.21750601993E+04  0.18901037353E+04 0.  0.
        5    1    3    3  502    0 -0.28804432229E+03  0.66528491411E+03 -0.15949485457E+03  0.74231681052E+03  0.46999998093E+01 0.  1.
       -5    1    3    3    0  502  0.28804432229E+03 -0.66528491411E+03  0.12357823350E+04  0.14327433888E+04  0.46999998093E+01 0. -1.
</event>
<event>
 5   0  0.3516539E-04  0.1771051E+04  0.7818609E-02  0.8721847E-01
        2   -1    0    0  501    0  0.00000000000E+00  0.00000000000E+00  0.82097149623E+03  0.82097149623E+03  0.25500000920E-02 0.  1.
       -2   -1    0    0    0  501  0.00000000000E+00  0.00000000000E+00 -0.95515562099E+03  0.95515562100E+03  0.25500000920E-02 0. -1.
    10030    2    1    2    0    0  0.00000000000E+00  0.00000000000E+00 -0.13418412477E+03  0.17761271172E+04  0.17710511447E+04 0.  0.
        4    1    3    3  502    0 -0.62410771180E+03 -0.19414058236E+03 -0.66625979139E+03  0.93332991175E+03  0.12699999809E+01 0. -1.
       -4    1    3    3    0  502  0.62410771180E+03  0.19414058236E+03  0.53207566663E+03  0.84279720548E+03  0.12699999809E+01 0.  1.
</event>
<event>
 5   0  0.3720978E-04  0.1757163E+04  0.7818609E-02  0.8729417E-01
       -2   -1    0    0    0  501  0.00000000000E+00  0.00000000000E+00  0.34743976098E+03  0.34743976099E+03  0.25500000920E-02 0. -1.
        2   -1    0    0  501    0  0.00000000000E+00  0.00000000000E+00 -0.22216964171E+04  0.22216964171E+04  0.25500000920E-02 0.  1.
    10030    2    1    2    0    0  0.00000000000E+00  0.00000000000E+00 -0.18742566562E+04  0.25691361781E+04  0.17571632504E+04 0.  0.
        1    1    3    3  502    0  0.34814544693E+03  0.79135664871E+03 -0.70848448685E+03  0.11177660157E+04  0.50400001928E-02 0. -1.
       -1    1    3    3    0  502 -0.34814544693E+03 -0.79135664871E+03 -0.11657721693E+04  0.14513701624E+04  0.50400001928E-02 0.  1.
</event>
<event>
 5   0  0.3535876E-04  0.1928128E+04  0.7818609E-02  0.8640981E-01
        2   -1    0    0  501    0  0.00000000000E+00  0.00000000000E+00  0.10838655170E+04  0.10838655170E+04  0.25500000920E-02 0.  1.
       -2   -1    0    0    0  501  0.00000000000E+00  0.00000000000E+00 -0.85750414684E+03  0.85750414684E+03  0.25500000920E-02 0. -1.
    10030    2    1    2    0    0  0.00000000000E+00  0.00000000000E+00  0.22636137017E+03  0.19413696639E+04  0.19281277711E+04 0.  0.
        2    1    3    3  502    0 -0.22201069793E+03  0.30596660931E+03 -0.77976675204E+03  0.86656823367E+03  0.25500000920E-02 0. -1.
       -2    1    3    3    0  502  0.22201069793E+03 -0.30596660931E+03  0.10061281222E+04  0.10748014302E+04  0.25500000920E-02 0.  1.
</event>
<event>
 5   0  0.3623359E-04  0.1915573E+04  0.7818609E-02  0.8647143E-01
        2   -1    0    0  501    0  0.00000000000E+00  0.00000000000E+00  0.24175623304E+04  0.24175623304E+04  0.25500000920E-02 0.  1.
       -2   -1    0    0    0  501  0.00000000000E+00  0.00000000000E+00 -0.37945448369E+03  0.37945448370E+03  0.25500000920E-02 0. -1.
    10030    2    1    2    0    0  0.00000000000E+00  0.00000000000E+00  0.20381078467E+04  0.27970168141E+04  0.19155728813E+04 0.  0.
        5    1    3    3  502    0 -0.63853732078E+03 -0.20693951696E+03  0.20166437374E+04  0.21254241759E+04  0.46999998093E+01 0.  1.
       -5    1    3    3    0  502  0.63853732078E+03  0.20693951696E+03  0.21464109268E+02  0.67159263820E+03  0.46999998093E+01 0. -1.
</event>
<event>
 5   0  0.3535876E-04  0.1889055E+04  0.7818609E-02  0.8660324E-01
       -2   -1    0    0    0  501  0.00000000000E+00  0.00000000000E+00  0.60445591337E+03  0.60445591337E+03  0.25500000920E-02 0. -1.
        2   -1    0    0  501    0  0.00000000000E+00  0.00000000000E+00 -0.14759254430E+04  0.14759254430E+04  0.25500000920E-02 0.  1.
    10030    2    1    2    0    0  0.00000000000E+00  0.00000000000E+00 -0.87146952963E+03  0.20803813564E+04  0.18890546437E+04 0.  0.
        2    1    3    3  502    0 -0.20879351588E+03 -0.10189824535E+03 -0.14439663801E+04  0.14625378256E+04  0.25500000920E-02 0.  1.
       -2    1    3    3    0  502  0.20879351588E+03  0.10189824535E+03  0.57249685044E+03  0.61784353072E+03  0.25500000920E-02 0. -1.
</event>
<event>
 5   0  0.1782613E-04  0.1804482E+04  0.7818609E-02  0.8703920E-01
        1   -1    0    0  501    0  0.00000000000E+00  0.00000000000E+00  0.17077788377E+04  0.17077788377E+04  0.50400001928E-02 0. -1.
       -1   -1    0    0    0  501  0.00000000000E+00  0.00000000000E+00 -0.47666515787E+03  0.47666515790E+03  0.50400001928E-02 0.  1.
    10030    2    1    2    0    0  0.00000000000E+00  0.00000000000E+00  0.12311136798E+04  0.21844439956E+04  0.18044818307E+04 0.  0.
        3    1    3    3  502    0 -0.33251616864E+03  0.56002010004E+03  0.13714087135E+04  0.15182066343E+04  0.10100000352E+00 0. -1.
       -3    1    3    3    0  502  0.33251616864E+03 -0.56002010004E+03 -0.14029503370E+03  0.66623736126E+03  0.10100000352E+00 0.  1.
</event>
<event>
 5   0  0.3720978E-04  0.1891003E+04  0.7818609E-02  0.8659348E-01
        2   -1    0    0  501    0  0.00000000000E+00  0.00000000000E+00  0.17560099135E+04  0.17560099135E+04  0.25500000920E-02 0.  1.
       -2   -1    0    0    0  501  0.00000000000E+00  0.00000000000E+00 -0.50909365610E+03  0.50909365611E+03  0.25500000920E-02 0. -1.
    10030    2    1    2    0    0  0.00000000000E+00  0.00000000000E+00  0.12469162574E+04  0.22651035696E+04  0.18910034448E+04 0.  0.
        1    1    3    3  502    0 -0.20965486336E+03 -0.11806568976E+03 -0.47180725067E+03  0.52961943945E+03  0.50400001928E-02 0. -1.
       -1    1    3    3    0  502  0.20965486336E+03  0.11806568976E+03  0.17187235081E+04  0.17354841302E+04  0.50400001928E-02 0.  1.
</event>
<event>
 5   0  0.1758946E-04  0.1369910E+04  0.7818609E-02  0.8975892E-01
       -1   -1    0    0    0  501  0.00000000000E+00  0.00000000000E+00  0.79630227372E+03  0.79630227373E+03  0.50400001928E-02 0. -1.
        1   -1    0    0  501    0  0.00000000000E+00  0.00000000000E+00 -0.58917704523E+03  0.58917704525E+03  0.50400001928E-02 0.  1.
    10030    2    1    2    0    0  0.00000000000E+00  0.00000000000E+00  0.20712522849E+03  0.13854793190E+04  0.13699095164E+04 0.  0.
        2    1    3    3  502    0 -0.56788138622E+03 -0.16316321146E+03  0.45398512216E+03  0.74512683051E+03  0.25500000920E-02 0. -1.
       -2    1    3    3    0  502  0.56788138622E+03  0.16316321146E+03 -0.24685989367E+03  0.64035248848E+03  0.25500000920E-02 0.  1.
</event>
<event>
 5   0  0.1711979E-04  0.1886084E+04  0.7818609E-02  0.8661814E-01
       -1   -1    0    0    0  501  0.00000000000E+00  0.00000000000E+00  0.57461017892E+03  0.57461017895E+03  0.50400001928E-02 0.  1.
        1   -1    0    0  501    0  0.00000000000E+00  0.00000000000E+00 -0.15477074945E+04  0.15477074945E+04  0.50400001928E-02 0. -1.
    10030    2    1    2    0    0  0.00000000000E+00  0.00000000000E+00 -0.97309731555E+03  0.21223176734E+04  0.18860842827E+04 0.  0.
        4    1    3    3  502    0 -0.23404665262E+02 -0.26737763859E+03  0.53072297056E+03  0.59473276718E+03  0.12699999809E+01 0.  1.
       -4    1    3    3    0  502  0.23404665262E+02  0.26737763859E+03 -0.15038202861E+04  0.15275849062E+04  0.12699999809E+01 0. -1.
</event>
<event>
 5   0  0.3459485E-04  0.1897094E+04  0.7818609E-02  0.8656304E-01
        2   -1    0    0  501    0  0.00000000000E+00  0.00000000000E+00  0.15898426606E+04  0.15898426606E+04  0.25500000920E-02 0.  1.
       -2   -1    0    0    0  501  0.00000000000E+00  0.00000000000E+00 -0.56593091134E+03  0.56593091134E+03  0.25500000920E-02 0. -1.
    10030    2    1    2    0    0  0.00000000000E+00  0.00000000000E+00  0.10239117493E+04  0.21557735720E+04  0.18970936780E+04 0.  0.
        3    1    3    3  502    0 -0.13010064736E+02  0.89224255180E+02  0.15849616093E+04  0.15875243440E+04  0.10100000352E+00 0.  1.
       -3    1    3    3    0  502  0.13010064736E+02 -0.89224255180E+02 -0.56104986002E+03  0.56824922800E+03  0.10100000352E+00 0. -1.
</event>
<event>
 5   0  0.3623359E-04  0.1709900E+04  0.7818609E-02  0.8755738E-01
        2   -1    0    0  501    0  0.00000000000E+00  0.00000000000E+00  0.13502530739E+04  0.13502530739E+04  0.25500000920E-02 0.  1.
       -2   -1    0    0    0  501  0.00000000000E+00  0.00000000000E+00 -0.54133517528E+03  0.54133517529E+03  0.25500000920E-02 0. -1.
    10030    2    1    2    0    0  0.00000000000E+00  0.00000000000E+00  0.80891789861E+03  0.18915882492E+04  0.17098999789E+04 0.  0.
        5    1    3    3  502    0  0.26606435928E+03  0.80936875310E+03  0.32584952555E+03  0.91217762803E+03  0.46999998093E+01 0. -1.
       -5    1    3    3    0  502 -0.26606435928E+03 -0.80936875310E+03  0.48306837306E+03  0.97941062115E+03  0.46999998093E+01 0.  1.
</event>
<event>
 5   0  0.1287000E-04  0.1937596E+04  0.7818609E-02  0.8636366E-01
       -3   -1    0    0    0  501  0.00000000000E+00  0.00000000000E+00  0.67974236180E+03  0.67974236931E+03  0.10100000352E+00 0. -1.
        3   -1    0    0  501    0  0.00000000000E+00  0.00000000000E+00 -0.13807718929E+04  0.13807718966E+04  0.10100000352E+00 0.  1.
    10030    2    1    2    0    0  0.00000000000E+00  0.00000000000E+00 -0.70102953111E+03  0.20605142659E+04  0.19375955813E+04 0.  0.
        3    1    3    3  502    0  0.67768224345E+03 -0.32188953325E+03 -0.10023455287E+04  0.12520234278E+04  0.10100000352E+00 0.  1.
       -3    1    3    3    0  502 -0.67768224345E+03  0.32188953325E+03  0.30131599757E+03  0.80849083810E+03  0.10100000352E+00 0. -1.
</event>
<event>
 5   0  0.3623359E-04  0.1843662E+04  0.7818609E-02  0.8683419E-01
        2   -1    0    0  501    0  0.00000000000E+00  0.00000000000E+00  0.11816734544E+04  0.11816734544E+04  0.25500000920E-02 0.  1.
       -2   -1    0    0    0  501  0.00000000000E+00  0.00000000000E+00 -0.71912617862E+03  0.71912617862E+03  0.25500000920E-02 0. -1.
    10030    2    1    2    0    0  0.00000000000E+00  0.00000000000E+00  0.46254727574E+03  0.19007996330E+04  0.18436619165E+04 0.  0.
        5    1    3    3  502    0 -0.35767706146E+03  0.59895488309E+03 -0.38995357608E+03  0.79922819880E+03  0.46999998093E+01 0. -1.
       -5    1    3    3    0  502  0.35767706146E+03 -0.59895488309E+03  0.85250085182E+03  0.11015714342E+04  0.46999998093E+01 0.  1.
</event>
<event>
 5   0  0.3720978E-04  0.1903988E+04  0.7818609E-02  0.8652874E-01
        2   -1    0    0  501    0  0.00000000000E+00  0.00000000000E+00  0.12524236450E+04  0.12524236450E+04  0.25500000920E-02 0.  1.
       -2   -1    0    0    0  501  0.00000000000E+00  0.00000000000E+00 -0.72363119044E+03  0.72363119045E+03  0.25500000920E-02 0. -1.
    10030    2    1    2    0    0  0.00000000000E+00  0.00000000000E+00  0.52879245457E+03  0.19760548355E+04  0.19039882491E+04 0.  0.
        1    1    3    3  502    0  0.40623847687E+03  0.71574338517E+03  0.76102091696E+03  0.11209242301E+04  0.50400001928E-02 0.  1.
       -1    1    3    3    0  502 -0.40623847687E+03 -0.71574338517E+03 -0.23222846239E+03  0.85513060539E+03  0.50400001928E-02 0. -1.
</event>
<event>
 5   0  0.1711979E-04  0.1906470E+04  0.7818609E-02  0.8651642E-01
       -1   -1    0    0    0  501  0.00000000000E+00  0.00000000000E+00  0.83899280049E+03  0.83899280050E+03  0.50400001928E-02 0.  1.
        1   -1    0    0  501    0  0.00000000000E+00  0.00000000000E+00 -0.10830332545E+04  0.10830332545E+04  0.50400001928E-02 0. -1.
    10030    2    1    2    0    0  0.00000000000E+00  0.00000000000E+00 -0.24404045398E+03  0.19220260550E+04  0.19064701448E+04 0.  0.
        4    1    3    3  502    0  0.49284256393E+03  0.54392559773E+03 -0.73518236035E+03  0.10388664806E+04  0.12699999809E+01 0. -1.
       -4    1    3    3    0  502 -0.49284256393E+03 -0.54392559773E+03  0.49114190637E+03  0.88315957436E+03  0.12699999809E+01 0.  1.
</event>
<event>
 5   0  0.1287000E-04  0.1836882E+04  0.7818609E-02  0.8686928E-01
       -3   -1    0    0    0  501  0.00000000000E+00  0.00000000000E+00  0.61088307550E+03  0.61088308385E+03  0.10100000352E+00 0.  1.
        3   -1    0    0  501    0  0.00000000000E+00  0.00000000000E+00 -0.13808437404E+04  0.13808437441E+04  0.10100000352E+00 0. -1.
    10030    2    1    2    0    0  0.00000000000E+00  0.00000000000E+00 -0.76996066488E+03  0.19917268279E+04  0.18368822313E+04 0.  0.
        2    1    3    3  502    0 -0.24624711968E+03  0.44264407708E+03 -0.12156984784E+04  0.13170019793E+04  0.25500000920E-02 0. -1.
       -2    1    3    3    0  502  0.24624711968E+03 -0.44264407708E+03  0.44573781357E+03  0.67472484865E+03  0.25500000920E-02 0.  1.
</event>
<event>
 5   0  0.3623359E-04  0.1882739E+04  0.7818609E-02  0.8663496E-01
       -2   -1    0    0    0  501  0.00000000000E+00  0.00000000000E+00  0.49007181939E+03  0.49007181939E+03  0.25500000920E-02 0.  1.
        2   -1    0    0  501    0  0.00000000000E+00  0.00000000000E+00 -0.18082589075E+04  0.18082589075E+04  0.25500000920E-02 0. -1.
    10030    2    1    2    0    0  0.00000000000E+00  0.00000000000E+00 -0.13181870881E+04  0.22983307269E+04  0.18827392095E+04 0.  0.
        5    1    3    3  502    0 -0.24683191529E+03 -0.31585531582E+03 -0.16988468489E+04  0.17455065972E+04  0.46999998093E+01 0. -1.
       -5    1    3    3    0  502  0.24683191529E+03  0.31585531582E+03  0.38065976075E+03  0.55282412971E+03  0.46999998093E+01 0.  1.
</event>
<event>
 5   0  0.3535876E-04  0.1930430E+04  0.7818609E-02  0.8639856E-01
       -2   -1    0    0    0  501  0.00000000000E+00  0.00000000000E+00  0.88500511532E+03  0.88500511532E+03  0.25500000920E-02 0. -1.
        2   -1    0    0  501    0  0.00000000000E+00  0.00000000000E+00 -0.10526942814E+04  0.10526942814E+04  0.25500000920E-02 0.  1.
    10030    2    1    2    0    0  0.00000000000E+00  0.00000000000E+00 -0.16768916605E+03  0.19376993967E+04  0.19304298214E+04 0.  0.
        2    1    3    3  502    0 -0.80005632877E+03  0.42826993763E+03 -0.41392110550E+03  0.99741463307E+03  0.25500000920E-02 0. -1.
       -2    1    3    3    0  502  0.80005632877E+03 -0.42826993763E+03  0.24623193945E+03  0.94028476362E+03  0.25500000920E-02 0.  1.
</event>
<event>
 5   0  0.3459485E-04  0.1900365E+04  0.7818609E-02  0.8654675E-01
       -2   -1    0    0    0  501  0.00000000000E+00  0.00000000000E+00  0.37668248431E+03  0.37668248432E+03  0.25500000920E-02 0. -1.
        2   -1    0    0  501    0  0.00000000000E+00  0.00000000000E+00 -0.23968367393E+04  0.23968367393E+04  0.25500000920E-02 0.  1.
    10030    2    1    2    0    0  0.00000000000E+00  0.00000000000E+00 -0.20201542549E+04  0.27735192236E+04  0.19003646150E+04 0.  0.
        3    1    3    3  502    0 -0.25748917714E+03 -0.22682312090E+02 -0.23445369389E+04  0.23587430195E+04  0.10100000352E+00 0.  1.
       -3    1    3    3    0  502  0.25748917714E+03  0.22682312090E+02  0.32438268399E+03  0.41477620412E+03  0.10100000352E+00 0. -1.
</event>
<event>
 5   0  0.1694830E-04  0.1914609E+04  0.7818609E-02  0.8647618E-01
       -1   -1    0    0    0  501  0.00000000000E+00  0.00000000000E+00  0.17143310621E+04  0.17143310622E+04  0.50400001928E-02 0. -1.
        1   -1    0    0  501    0  0.00000000000E+00  0.00000000000E+00 -0.53457117757E+03  0.53457117759E+03  0.50400001928E-02 0.  1.
    10030    2    1    2    0    0  0.00000000000E+00  0.00000000000E+00  0.11797598846E+04  0.22489022397E+04  0.19146090720E+04 0.  0.
        1    1    3    3  502    0 -0.15768276835E+00  0.92736219180E+03  0.86890971792E+03  0.12708283745E+04  0.50400001928E-02 0.  1.
       -1    1    3    3    0  502  0.15768276835E+00 -0.92736219180E+03  0.31085016666E+03  0.97807386520E+03  0.50400001928E-02 0. -1.
</event>
<event>
 5   0  0.3459485E-04  0.1830762E+04  0.7818609E-02  0.8690109E-01
       -2   -1    0    0    0  501  0.00000000000E+00  0.00000000000E+00  0.58997960370E+03  0.58997960370E+03  0.25500000920E-02 0. -1.
        2   -1    0    0  501    0  0.00000000000E+00  0.00000000000E+00 -0.14202571951E+04  0.14202571951E+04  0.25500000920E-02 0.  1.
    10030    2    1    2    0    0  0.00000000000E+00  0.00000000000E+00 -0.83027759139E+03  0.20102367988E+04  0.18307624391E+04 0.  0.
        3    1    3    3  502    0 -0.65352998266E+03  0.63318268107E+03 -0.30588029982E+03  0.95999193427E+03  0.10100000352E+00 0. -1.
       -3    1    3    3    0  502  0.65352998266E+03 -0.63318268107E+03 -0.52439729158E+03  0.10502448645E+04  0.10100000352E+00 0.  1.
</event>
<event>
 5   0  0.3623359E-04  0.1847751E+04  0.7818609E-02  0.8681310E-01
       -2   -1    0    0    0  501  0.00000000000E+00  0.00000000000E+00  0.65406300119E+03  0.65406300119E+03  0.25500000920E-02 0. -1.
        2   -1    0    0  501    0  0.00000000000E+00  0.00000000000E+00 -0.13049899764E+04  0.13049899764E+04  0.25500000920E-02 0.  1.
    10030    2    1    2    0    0  0.00000000000E+00  0.00000000000E+00 -0.65092697525E+03  0.19590529776E+04  0.18477506980E+04 0.  0.
        5    1    3    3  502    0  0.21901026802E+03  0.10702011846E+03 -0.12702674525E+04  0.12934528574E+04  0.46999998093E+01 0.  1.
       -5    1    3    3    0  502 -0.21901026802E+03 -0.10702011846E+03  0.61934047730E+03  0.66560012025E+03  0.46999998093E+01 0. -1.
</event>
<event>
 5   0  0.1694830E-04  0.1887578E+04  0.7818609E-02  0.8661064E-01
       -1   -1    0    0    0  501  0.00000000000E+00  0.00000000000E+00  0.49919699221E+03  0.49919699223E+03  0.50400001928E-02 0.  1.
        1   -1    0    0  501    0  0.00000000000E+00  0.00000000000E+00 -0.17843413615E+04  0.17843413615E+04  0.50400001928E-02 0. -1.
    10030    2    1    2    0    0  0.00000000000E+00  0.00000000000E+00 -0.12851443693E+04  0.22835383537E+04  0.18875781740E+04 0.  0.
        1    1    3    3  502    0  0.48496981694E+03 -0.60938372000E+01  0.33689831895E+03  0.59053648112E+03  0.50400001928E-02 0.  1.
       -1    1    3    3    0  502 -0.48496981694E+03  0.60938372000E+01 -0.16220426882E+04  0.16930018726E+04  0.50400001928E-02 0. -1.
</event>
<event>
 5   0  0.1758946E-04  0.1901873E+04  0.7818609E-02  0.8653925E-01
       -1   -1    0    0    0  501  0.00000000000E+00  0.00000000000E+00  0.13239702390E+04  0.13239702390E+04  0.50400001928E-02 0. -1.
        1   -1    0    0  501    0  0.00000000000E+00  0.00000000000E+00 -0.68300650479E+03  0.68300650481E+03  0.50400001928E-02 0.  1.
    10030    2    1    2    0    0  0.00000000000E+00  0.00000000000E+00  0.64096373425E+03  0.20069767439E+04  0.19018730614E+04 0.  0.
        2    1    3    3  502    0  0.26015439944E+03 -0.53281095612E+03 -0.46404973115E+03  0.75293424647E+03  0.25500000920E-02 0.  1.
       -2    1    3    3    0  502 -0.26015439944E+03  0.53281095612E+03  0.11050134654E+04  0.12540424974E+04  0.25500000920E-02 0. -1.
</event>
<event>
 5   0  0.3516539E-04  0.1752602E+04  0.7818609E-02  0.8731919E-01
        2   -1    0    0  501    0  0.00000000000E+00  0.00000000000E+00  0.94795978704E+03  0.94795978704E+03  0.25500000920E-02 0. -1.
       -2   -1    0    0    0  501  0.00000000000E+00  0.00000000000E+00 -0.81005902310E+03  0.81005902311E+03  0.25500000920E-02 0.  1.
    10030    2    1    2    0    0  0.00000000000E+00  0.00000000000E+00  0.13790076394E+03  0.17580188102E+04  0.17526019275E+04 0.  0.
        4    1    3    3  502    0  0.33194995646E+02 -0.27577121007E+03  0.90263292991E+03  0.94440430277E+03  0.12699999809E+01 0. -1.
       -4    1    3    3    0  502 -0.33194995646E+02  0.27577121007E+03 -0.76473216597E+03  0.81361450738E+03  0.12699999809E+01 0.  1.
</event>
<event>
 5   0  0.3516539E-04  0.1861660E+04  0.7818609E-02  0.8674179E-01
       -2   -1    0    0    0  501  0.00000000000E+00  0.00000000000E+00  0.85662463798E+03  0.85662463798E+03  0.25500000920E-02 0.  1.
        2   -1    0    0  501    0  0.00000000000E+00  0.00000000000E+00 -0.10114637215E+04  0.10114637215E+04  0.25500000920E-02 0. -1.
    10030    2    1    2    0    0  0.00000000000E+00  0.00000000000E+00 -0.15483908354E+03  0.18680883595E+04  0.18616602744E+04 0.  0.
        4    1    3    3  502    0  0.14216094132E+02 -0.34647216103E+03 -0.94422980558E+03  0.10058909456E+04  0.12699999809E+01 0. -1.
       -4    1    3    3    0  502 -0.14216094132E+02  0.34647216103E+03  0.78939072204E+03  0.86219741396E+03  0.12699999809E+01 0.  1.
</event>
<event>
 5   0  0.3535876E-04  0.1543309E+04  0.7818609E-02  0.8856153E-01
       -2   -1    0    0    0  501  0.00000000000E+00  0.00000000000E+00  0.67450846092E+03  0.67450846092E+03  0.25500000920E-02 0.  1.
        2   -1    0    0  501    0  0.00000000000E+00  0.00000000000E+00 -0.88279147174E+03  0.88279147175E+03  0.25500000920E-02 0. -1.
    10030    2    1    2    0    0  0.00000000000E+00  0.00000000000E+00 -0.20828301083E+03  0.15572999327E+04  0.15433085458E+04 0.  0.
        2    1    3    3  502    0 -0.51854931430E+03 -0.85512928929E+02  0.46599807478E+03  0.70239594110E+03  0.25500000920E-02 0.  1.
       -2    1    3    3    0  502  0.51854931430E+03  0.85512928929E+02 -0.67428108561E+03  0.85490399156E+03  0.25500000920E-02 0. -1.
</event>
<event>
 5   0  0.3720978E-04  0.1353577E+04  0.7818609E-02  0.8988125E-01
        2   -1    0    0  501    0  0.00000000000E+00  0.00000000000E+00  0.74496785026E+03  0.74496785026E+03  0.25500000920E-02 0.  1.
       -2   -1    0    0    0  501  0.00000000000E+00  0.00000000000E+00 -0.61484869027E+03  0.61484869027E+03  0.25500000920E-02 0. -1.
    10030    2    1    2    0    0  0.00000000000E+00  0.00000000000E+00  0.13011915999E+03  0.13598165405E+04  0.13535767537E+04 0.  0.
        1    1    3    3  502    0 -0.59308774111E+03  0.17170597293E+03 -0.21335784472E+03  0.65326685185E+03  0.50400001928E-02 0. -1.
       -1    1    3    3    0  502  0.59308774111E+03 -0.17170597293E+03  0.34347700471E+03  0.70654968869E+03  0.50400001928E-02 0.  1.
</event>
<event>
 5   0  0.3516539E-04  0.1916598E+04  0.7818609E-02  0.8646638E-01
       -2   -1    0    0    0  501  0.00000000000E+00  0.00000000000E+00  0.11955590040E+04  0.11955590040E+04  0.25500000920E-02 0. -1.
        2   -1    0    0  501    0  0.00000000000E+00  0.00000000000E+00 -0.76812325489E+03  0.76812325490E+03  0.25500000920E-02 0.  1.
    10030    2    1    2    0    0  0.00000000000E+00  0.00000000000E+00  0.42743574907E+03  0.19636822589E+04  0.19165976871E+04 0.  0.
        4    1    3    3  502    0  0.86499663331E+03 -0.24435146217E+03  0.55415821474E+03  0.10559449572E+04  0.12699999809E+01 0. -1.
       -4    1    3    3    0  502 -0.86499663331E+03  0.24435146217E+03 -0.12672246566E+03  0.90773730170E+03  0.12699999809E+01 0.  1.
</event>
<event>
 5   0  0.3459485E-04  0.1317543E+04  0.7818609E-02  0.9015768E-01
        2   -1    0    0  501    0  0.00000000000E+00  0.00000000000E+00  0.76495735374E+03  0.76495735374E+03  0.25500000920E-02 0. -1.
       -2   -1    0    0    0  501  0.00000000000E+00  0.00000000000E+00 -0.56732596041E+03  0.56732596041E+03  0.25500000920E-02 0.  1.
    10030    2    1    2    0    0  0.00000000000E+00  0.00000000000E+00  0.19763139333E+03  0.13322833142E+04  0.13175434192E+04 0.  0.
        3    1    3    3  502    0  0.38842118215E+03  0.46766878393E+03 -0.15778503567E+03  0.62807741074E+03  0.10100000352E+00 0.  1.
       -3    1    3    3    0  502 -0.38842118215E+03 -0.46766878393E+03  0.35541642899E+03  0.70420590341E+03  0.10100000352E+00 0. -1.
</event>
<event>
 5   0  0.1782613E-04  0.1924451E+04  0.7818609E-02  0.8642780E-01
       -1   -1    0    0    0  501  0.00000000000E+00  0.00000000000E+00  0.43716323829E+03  0.43716323832E+03  0.50400001928E-02 0.  1.
        1   -1    0    0  501    0  0.00000000000E+00  0.00000000000E+00 -0.21179225602E+04  0.21179225602E+04  0.50400001928E-02 0. -1.
    10030    2    1    2    0    0  0.00000000000E+00  0.00000000000E+00 -0.16807593219E+04  0.25550857986E+04  0.19244509710E+04 0.  0.
        3    1    3    3  502    0  0.17488423994E+03 -0.77178865791E+03 -0.11361236678E+03  0.79946857971E+03  0.10100000352E+00 0.  1.
       -3    1    3    3    0  502 -0.17488423994E+03  0.77178865791E+03 -0.15671469552E+04  0.17556172188E+04  0.10100000352E+00 0. -1.
</event>
<event>
 5   0  0.1782613E-04  0.1868147E+04  0.7818609E-02  0.8670876E-01
       -1   -1    0    0    0  501  0.00000000000E+00  0.00000000000E+00  0.99578414858E+03  0.99578414859E+03  0.50400001928E-02 0. -1.
        1   -1    0    0  501    0  0.00000000000E+00  0.00000000000E+00 -0.87618692623E+03  0.87618692624E+03  0.50400001928E-02 0.  1.
    10030    2    1    2    0    0  0.00000000000E+00  0.00000000000E+00  0.11959722235E+03  0.18719710748E+04  0.18681467312E+04 0.  0.
        3    1    3    3  502    0  0.17650646730E+03 -0.87731980403E+02 -0.85511026503E+03  0.87753348024E+03  0.10100000352E+00 0.  1.
       -3    1    3    3    0  502 -0.17650646730E+03  0.87731980403E+02  0.97470748738E+03  0.99443759459E+03  0.10100000352E+00 0. -1.
</event>
<event>
 5   0  0.1711979E-04  0.1841491E+04  0.7818609E-02  0.8684541E-01
        1   -1    0    0  501    0  0.00000000000E+00  0.00000000000E+00  0.72321149033E+03  0.72321149035E+03  0.50400001928E-02 0.  1.
       -1   -1    0    0    0  501  0.00000000000E+00  0.00000000000E+00 -0.11722326279E+04  0.11722326279E+04  0.50400001928E-02 0. -1.
    10030    2    1    2    0    0  0.00000000000E+00  0.00000000000E+00 -0.44902113753E+03  0.18954441182E+04  0.18414908154E+04 0.  0.
        4    1    3    3  502    0 -0.66703265108E+03  0.47821272027E+03 -0.65405078114E+03  0.10494779658E+04  0.12699999809E+01 0. -1.
       -4    1    3    3    0  502  0.66703265108E+03 -0.47821272027E+03  0.20502964360E+03  0.84596615245E+03  0.12699999809E+01 0.  1.
</event>
<event>
 5   0  0.1694830E-04  0.1886658E+04  0.7818609E-02  0.8661526E-01
       -1   -1    0    0    0  501  0.00000000000E+00  0.00000000000E+00  0.12597171606E+04  0.12597171606E+04  0.50400001928E-02 0.  1.
        1   -1    0    0  501    0  0.00000000000E+00  0.00000000000E+00 -0.70640430973E+03  0.70640430975E+03  0.50400001928E-02 0. -1.
    10030    2    1    2    0    0  0.00000000000E+00  0.00000000000E+00  0.55331285088E+03  0.19661214704E+04  0.18866580308E+04 0.  0.
        1    1    3    3  502    0  0.84179871032E+03  0.35226133594E+03  0.27512660462E+02  0.91294581658E+03  0.50400001928E-02 0. -1.
       -1    1    3    3    0  502 -0.84179871032E+03 -0.35226133594E+03  0.52580019042E+03  0.10531756538E+04  0.50400001928E-02 0.  1.
</event>
<event>
 5   0  0.3720978E-04  0.1925090E+04  0.7818609E-02  0.8642467E-01
       -2   -1    0    0    0  501  0.00000000000E+00  0.00000000000E+00  0.14137681352E+04  0.14137681352E+04  0.25500000920E-02 0. -1.
        2   -1    0    0  501    0  0.00000000000E+00  0.00000000000E+00 -0.65533575941E+03  0.65533575941E+03  0.25500000920E-02 0.  1.
    10030    2    1    2    0    0  0.00000000000E+00  0.00000000000E+00  0.75843237577E+03  0.20691038946E+04  0.19250899350E+04 0.  0.
        1    1    3    3  502    0  0.45741016972E+03 -0.74541364379E+03  0.81132046752E+03  0.11929402603E+04  0.50400001928E-02 0. -1.
       -1    1    3    3    0  502 -0.45741016972E+03  0.74541364379E+03 -0.52888091747E+02  0.87616363425E+03  0.50400001928E-02 0.  1.
</event>
<event>
 5   0  0.3516539E-04  0.1806386E+04  0.7818609E-02  0.8702911E-01
       -2   -1    0    0    0  501  0.00000000000E+00  0.00000000000E+00  0.46524497558E+03  0.46524497559E+03  0.25500000920E-02 0. -1.
        2   -1    0    0  501    0  0.00000000000E+00  0.00000000000E+00 -0.17533944571E+04  0.17533944571E+04  0.25500000920E-02 0.  1.
    10030    2    1    2    0    0  0.00000000000E+00  0.00000000000E+00 -0.12881494815E+04  0.22186394327E+04  0.18063864054E+04 0.  0.
        4    1    3    3  502    0 -0.20447092943E+03 -0.51888573434E+03 -0.15166343900E+04  0.16159307696E+04  0.12699999809E+01 0.  1.
       -4    1    3    3    0  502  0.20447092943E+03  0.51888573434E+03  0.22848490847E+03  0.60270866311E+03  0.12699999809E+01 0. -1.
</event>
<event>
 5   0  0.3535876E-04  0.1896326E+04  0.7818609E-02  0.8656687E-01
       -2   -1    0    0    0  501  0.00000000000E+00  0.00000000000E+00  0.48374881665E+03  0.48374881666E+03  0.25500000920E-02 0. -1.
        2   -1    0    0  501    0  0.00000000000E+00  0.00000000000E+00 -0.18584298942E+04  0.18584298942E+04  0.25500000920E-02 0.  1.
    10030    2    1    2    0    0  0.00000000000E+00  0.00000000000E+00 -0.13746810776E+04  0.23421787109E+04  0.18963261979E+04 0.  0.
        2    1    3    3  502    0  0.67949811145E+03 -0.13769005241E+03 -0.14861995487E+04  0.16399589423E+04  0.25500000920E-02 0.  1.
       -2    1    3    3    0  502 -0.67949811145E+03  0.13769005241E+03  0.11151847108E+03  0.70221976859E+03  0.25500000920E-02 0. -1.
</event>
<event>
 5   0  0.1813834E-04  0.1823044E+04  0.7818609E-02  0.8694140E-01
       -1   -1    0    0    0  501  0.00000000000E+00  0.00000000000E+00  0.55394973375E+03  0.55394973377E+03  0.50400001928E-02 0.  1.
        1   -1    0    0  501    0  0.00000000000E+00  0.00000000000E+00 -0.14999057157E+04  0.14999057157E+04  0.50400001928E-02 0. -1.
    10030    2    1    2    0    0  0.00000000000E+00  0.00000000000E+00 -0.94595598192E+03  0.20538554495E+04  0.18230440169E+04 0.  0.
        5    1    3    3  502    0  0.29536680268E+02 -0.90616961015E+03 -0.36708583107E+03  0.97815636542E+03  0.46999998093E+01 0.  1.
       -5    1    3    3    0  502 -0.29536680268E+02  0.90616961015E+03 -0.57887015085E+03  0.10756990840E+04  0.46999998093E+01 0. -1.
</event>
<event>
 5   0  0.1782613E-04  0.1449756E+04  0.7818609E-02  0.8918570E-01
       -1   -1    0    0    0  501  0.00000000000E+00  0.00000000000E+00  0.64905374758E+03  0.64905374760E+03  0.50400001928E-02 0.  1.
        1   -1    0    0  501    0  0.00000000000E+00  0.00000000000E+00 -0.80956037924E+03  0.80956037926E+03  0.50400001928E-02 0. -1.
    10030    2    1    2    0    0  0.00000000000E+00  0.00000000000E+00 -0.16050663166E+03  0.14586141269E+04  0.14497561148E+04 0.  0.
        3    1    3    3  502    0 -0.70489468707E+02 -0.42406233010E+03  0.50696557947E+03  0.66468920104E+03  0.10100000352E+00 0.  1.
       -3    1    3    3    0  502  0.70489468707E+02  0.42406233010E+03 -0.66747221113E+03  0.79392492582E+03  0.10100000352E+00 0. -1.
</event>
<event>
 5   0  0.3720978E-04  0.1908600E+04  0.7818609E-02  0.8650587E-01
        2   -1    0    0  501    0  0.00000000000E+00  0.00000000000E+00  0.10296277320E+04  0.10296277321E+04  0.25500000920E-02 0.  1.
       -2   -1    0    0    0  501  0.00000000000E+00  0.00000000000E+00 -0.88448322244E+03  0.88448322245E+03  0.25500000920E-02 0. -1.
    10030    2    1    2    0    0  0.00000000000E+00  0.00000000000E+00  0.14514450961E+03  0.19141109545E+04  0.19085999627E+04 0.  0.
        1    1    3    3  502    0  0.15563939677E+02  0.62877694458E+03 -0.64719481725E+03  0.90247648931E+03  0.50400001928E-02 0. -1.
       -1    1    3    3    0  502 -0.15563939677E+02 -0.62877694458E+03  0.79233932686E+03  0.10116344652E+04  0.50400001928E-02 0.  1.
</event>
<event>
 5   0  0.1711979E-04  0.1908189E+04  0.7818609E-02  0.8650791E-01
       -1   -1    0    0    0  501  0.00000000000E+00  0.00000000000E+00  0.42673668274E+03  0.42673668277E+03  0.50400001928E-02 0.  1.
        1   -1    0    0  501    0  0.00000000000E+00  0.00000000000E+00 -0.21331562732E+04  0.21331562732E+04  0.50400001928E-02 0. -1.
    10030    2    1    2    0    0  0.00000000000E+00  0.00000000000E+00 -0.17064195905E+04  0.25598929560E+04  0.19081887033E+04 0.  0.
        4    1    3    3  502    0  0.38478465766E+03 -0.48569532396E+03  0.12005655541E+03  0.63116905016E+03  0.12699999809E+01 0.  1.
       -4    1    3    3    0  502 -0.38478465766E+03  0.48569532396E+03 -0.18264761459E+04  0.19287239058E+04  0.12699999809E+01 0. -1.
</event>
<event>
 5   0  0.1782613E-04  0.1937783E+04  0.7818609E-02  0.8636274E-01
        1   -1    0    0  501    0  0.00000000000E+00  0.00000000000E+00  0.23835115644E+04  0.23835115644E+04  0.50400001928E-02 0.  1.
       -1   -1    0    0    0  501  0.00000000000E+00  0.00000000000E+00 -0.39385208982E+03  0.39385208985E+03  0.50400001928E-02 0. -1.
    10030    2    1    2    0    0  0.00000000000E+00  0.00000000000E+00  0.19896594746E+04  0.27773636543E+04  0.19377832808E+04 0.  0.
        3    1    3    3  502    0  0.31595469543E+03 -0.30154738521E+03 -0.24475509550E+03  0.50066282273E+03  0.10100000352E+00 0. -1.
       -3    1    3    3    0  502 -0.31595469543E+03  0.30154738521E+03  0.22344145701E+04  0.22767008315E+04  0.10100000352E+00 0.  1.
</event>
<event>
 5   0  0.1694830E-04  0.1889351E+04  0.7818609E-02  0.8660175E-01
       -1   -1    0    0    0  501  0.00000000000E+00  0.00000000000E+00  0.92858636271E+03  0.92858636272E+03  0.50400001928E-02 0. -1.
        1   -1    0    0  501    0  0.00000000000E+00  0.00000000000E+00 -0.96104362681E+03  0.96104362682E+03  0.50400001928E-02 0.  1.
    10030    2    1    2    0    0  0.00000000000E+00  0.00000000000E+00 -0.32457264099E+02  0.18896299895E+04  0.18893512176E+04 0.  0.
        1    1    3    3  502    0 -0.30127930371E+03 -0.89043028263E+02  0.87480917124E+03  0.92951006763E+03  0.50400001928E-02 0. -1.
       -1    1    3    3    0  502  0.30127930371E+03  0.89043028263E+02 -0.90726643534E+03  0.96011992191E+03  0.50400001928E-02 0.  1.
</event>
<event>
 5   0  0.1813834E-04  0.1790158E+04  0.7818609E-02  0.8711551E-01
       -1   -1    0    0    0  501  0.00000000000E+00  0.00000000000E+00  0.60207111171E+03  0.60207111173E+03  0.50400001928E-02 0. -1.
        1   -1    0    0  501    0  0.00000000000E+00  0.00000000000E+00 -0.13306834149E+04  0.13306834149E+04  0.50400001928E-02 0.  1.
    10030    2    1    2    0    0  0.00000000000E+00  0.00000000000E+00 -0.72861230317E+03  0.19327545266E+04  0.17901575830E+04 0.  0.
        5    1    3    3  502    0 -0.52114049125E+02 -0.88295817791E+03 -0.51239205291E+03  0.10222028781E+04  0.46999998093E+01 0.  1.
       -5    1    3    3    0  502  0.52114049125E+02  0.88295817791E+03 -0.21622025025E+03  0.91055164854E+03  0.46999998093E+01 0. -1.
</event>
<event>
 5   0  0.1782613E-04  0.1903422E+04  0.7818609E-02  0.8653155E-01
        1   -1    0    0  501    0  0.00000000000E+00  0.00000000000E+00  0.83496466460E+03  0.83496466461E+03  0.50400001928E-02 0.  1.
       -1   -1    0    0    0  501  0.00000000000E+00  0.00000000000E+00 -0.10847804938E+04  0.10847804938E+04  0.50400001928E-02 0. -1.
    10030    2    1    2    0    0  0.00000000000E+00  0.00000000000E+00 -0.24981582916E+03  0.19197451584E+04  0.19034215310E+04 0.  0.
        3    1    3    3  502    0 -0.35087221404E+03 -0.31381035636E+03 -0.95914418550E+03  0.10684314808E+04  0.10100000352E+00 0. -1.
       -3    1    3    3    0  502  0.35087221404E+03  0.31381035636E+03  0.70932835635E+03  0.85131367759E+03  0.10100000352E+00 0.  1.
</event>
<event>
 5   0  0.3516539E-04  0.1882788E+04  0.7818609E-02  0.8663471E-01
        2   -1    0    0  501    0  0.00000000000E+00  0.00000000000E+00  0.19885022608E+04  0.19885022608E+04  0.25500000920E-02 0.  1.
       -2   -1    0    0    0  501  0.00000000000E+00  0.00000000000E+00 -0.44567364638E+03  0.44567364639E+03  0.25500000920E-02 0. -1.
    10030    2    1    2    0    0  0.00000000000E+00  0.00000000000E+00  0.15428286145E+04  0.24341759072E+04  0.18827884145E+04 0.  0.
        4    1    3    3  502    0  0.97034154939E+02 -0.36361639315E+03  0.18870148849E+04  0.19241775639E+04  0.12699999809E+01 0.  1.
       -4    1    3    3    0  502 -0.97034154939E+02  0.36361639315E+03 -0.34418627043E+03  0.50999834337E+03  0.12699999809E+01 0. -1.
</event>
<event>
 5   0  0.3720978E-04  0.1926720E+04  0.7818609E-02  0.8641669E-01
        2   -1    0    0  501    0  0.00000000000E+00  0.00000000000E+00  0.93950730259E+03  0.93950730259E+03  0.25500000920E-02 0. -1.
       -2   -1    0    0    0  501  0.00000000000E+00  0.00000000000E+00 -0.98781804931E+03  0.98781804932E+03  0.25500000920E-02 0.  1.
    10030    2    1    2    0    0  0.00000000000E+00  0.00000000000E+00 -0.48310746729E+02  0.19273253519E+04  0.19267197730E+04 0.  0.
        1    1    3    3  502    0  0.15144786794E+02  0.94927583195E+03 -0.18763348510E+03  0.96776045303E+03  0.50400001928E-02 0. -1.
       -1    1    3    3    0  502 -0.15144786794E+02 -0.94927583195E+03  0.13932273837E+03  0.95956489887E+03  0.50400001928E-02 0.  1.
</event>
<event>
 5   0  0.1711979E-04  0.1911164E+04  0.7818609E-02  0.8649319E-01
       -1   -1    0    0    0  501  0.00000000000E+00  0.00000000000E+00  0.58080514324E+03  0.58080514326E+03  0.50400001928E-02 0.  1.
        1   -1    0    0  501    0  0.00000000000E+00  0.00000000000E+00 -0.15721907696E+04  0.15721907696E+04  0.50400001928E-02 0. -1.
    10030    2    1    2    0    0  0.00000000000E+00  0.00000000000E+00 -0.99138562632E+03  0.21529959128E+04  0.19111635044E+04 0.  0.
        4    1    3    3  502    0  0.49665112393E+03  0.81338026034E+03 -0.41695534542E+03  0.10402418756E+04  0.12699999809E+01 0.  1.
       -4    1    3    3    0  502 -0.49665112393E+03 -0.81338026034E+03 -0.57443028090E+03  0.11127540372E+04  0.12699999809E+01 0. -1.
</event>
<event>
 5   0  0.3623359E-04  0.1985550E+04  0.7818609E-02  0.8613406E-01
       -2   -1    0    0    0  501  0.00000000000E+00  0.00000000000E+00  0.80395001855E+03  0.80395001856E+03  0.25500000920E-02 0.  1.
        2   -1    0    0  501    0  0.00000000000E+00  0.00000000000E+00 -0.12259494833E+04  0.12259494833E+04  0.25500000920E-02 0. -1.
    10030    2    1    2    0    0  0.00000000000E+00  0.00000000000E+00 -0.42199946475E+03  0.20298995019E+04  0.19855499086E+04 0.  0.
        5    1    3    3  502    0 -0.76310640614E+03  0.48191953428E+03  0.21176093219E+03  0.92706127468E+03  0.46999998093E+01 0.  1.
       -5    1    3    3    0  502  0.76310640614E+03 -0.48191953428E+03 -0.63376039694E+03  0.11028382272E+04  0.46999998093E+01 0. -1.
</event>
<event>
 5   0  0.1711979E-04  0.1928272E+04  0.7818609E-02  0.8640910E-01
       -1   -1    0    0    0  501  0.00000000000E+00  0.00000000000E+00  0.87053148671E+03  0.87053148673E+03  0.50400001928E-02 0.  1.
        1   -1    0    0  501    0  0.00000000000E+00  0.00000000000E+00 -0.10678056627E+04  0.10678056627E+04  0.50400001928E-02 0. -1.
    10030    2    1    2    0    0  0.00000000000E+00  0.00000000000E+00 -0.19727417599E+03  0.19383371495E+04  0.19282722330E+04 0.  0.
        4    1    3    3  502    0 -0.58875056964E+03  0.58635167061E+03  0.39291565580E+03  0.91914081639E+03  0.12699999809E+01 0.  1.
       -4    1    3    3    0  502  0.58875056964E+03 -0.58635167061E+03 -0.59018983179E+03  0.10191963331E+04  0.12699999809E+01 0. -1.
</event>
<event>
 5   0  0.1694830E-04  0.1958666E+04  0.7818609E-02  0.8626193E-01
       -1   -1    0    0    0  501  0.00000000000E+00  0.00000000000E+00  0.62711191120E+03  0.62711191122E+03  0.50400001928E-02 0. -1.
        1   -1    0    0  501    0  0.00000000000E+00  0.00000000000E+00 -0.15293818757E+04  0.15293818757E+04  0.50400001928E-02 0.  1.
    10030    2    1    2    0    0  0.00000000000E+00  0.00000000000E+00 -0.90226996453E+03  0.21564937870E+04  0.19586664760E+04 0.  0.
        1    1    3    3  502    0 -0.12333768463E+03  0.95815266995E+03 -0.62806713982E+03  0.11522747309E+04  0.50400001928E-02 0. -1.
       -1    1    3    3    0  502  0.12333768463E+03 -0.95815266995E+03 -0.27420282470E+03  0.10042190560E+04  0.50400001928E-02 0.  1.
</event>
<event>
 5   0  0.1694830E-04  0.1938510E+04  0.7818609E-02  0.8635921E-01
       -1   -1    0    0    0  501  0.00000000000E+00  0.00000000000E+00  0.11633994297E+04  0.11633994297E+04  0.50400001928E-02 0.  1.
        1   -1    0    0  501    0  0.00000000000E+00  0.00000000000E+00 -0.80750864996E+03  0.80750864998E+03  0.50400001928E-02 0. -1.
    10030    2    1    2    0    0  0.00000000000E+00  0.00000000000E+00  0.35589077975E+03  0.19709080797E+04  0.19385098430E+04 0.  0.
        1    1    3    3  502    0  0.13650972286E+03  0.80039584574E+03  0.71611864147E+03  0.10826330509E+04  0.50400001928E-02 0.  1.
       -1    1    3    3    0  502 -0.13650972286E+03 -0.80039584574E+03 -0.36022786172E+03  0.88827502875E+03  0.50400001928E-02 0. -1.
</event>
<event>
 5   0  0.1782613E-04  0.1871456E+04  0.7818609E-02  0.8669196E-01
       -1   -1    0    0    0  501  0.00000000000E+00  0.00000000000E+00  0.47967175181E+03  0.47967175184E+03  0.50400001928E-02 0. -1.
        1   -1    0    0  501    0  0.00000000000E+00  0.00000000000E+00 -0.18253882032E+04  0.18253882032E+04  0.50400001928E-02 0.  1.
    10030    2    1    2    0    0  0.00000000000E+00  0.00000000000E+00 -0.13457164514E+04  0.23050599551E+04  0.18714562856E+04 0.  0.
        3    1    3    3  502    0 -0.60087695436E+02  0.67463361633E+03  0.12236747953E+03  0.68826946589E+03  0.10100000352E+00 0. -1.
       -3    1    3    3    0  502  0.60087695436E+02 -0.67463361633E+03 -0.14680839309E+04  0.16167904892E+04  0.10100000352E+00 0.  1.
</event>
<event>
 5   0  0.3623359E-04  0.1891073E+04  0.7818609E-02  0.8659313E-01
        2   -1    0    0  501    0  0.00000000000E+00  0.00000000000E+00  0.12058432958E+04  0.12058432958E+04  0.25500000920E-02 0.  1.
       -2   -1    0    0    0  501  0.00000000000E+00  0.00000000000E+00 -0.74142226952E+03  0.74142226952E+03  0.25500000920E-02 0. -1.
    10030    2    1    2    0    0  0.00000000000E+00  0.00000000000E+00  0.46442102628E+03  0.19472655653E+04  0.18910727887E+04 0.  0.
        5    1    3    3  502    0 -0.68124391438E+03  0.44972766762E+03 -0.25911423235E+03  0.85645228782E+03  0.46999998093E+01 0. -1.
       -5    1    3    3    0  502  0.68124391438E+03 -0.44972766762E+03  0.72353525863E+03  0.10908132775E+04  0.46999998093E+01 0.  1.
</event>
<event>
 5   0  0.3720978E-04  0.1896305E+04  0.7818609E-02  0.8656698E-01
       -2   -1    0    0    0  501  0.00000000000E+00  0.00000000000E+00  0.98074533312E+03  0.98074533312E+03  0.25500000920E-02 0.  1.
        2   -1    0    0  501    0  0.00000000000E+00  0.00000000000E+00 -0.91664272724E+03  0.91664272724E+03  0.25500000920E-02 0. -1.
    10030    2    1    2    0    0  0.00000000000E+00  0.00000000000E+00  0.64102605879E+02  0.18973880604E+04  0.18963049089E+04 0.  0.
        1    1    3    3  502    0 -0.30182781849E+03  0.88721784388E+03 -0.11203630684E+03  0.94382607963E+03  0.50400001928E-02 0. -1.
       -1    1    3    3    0  502  0.30182781849E+03 -0.88721784388E+03  0.17613891272E+03  0.95356198074E+03  0.50400001928E-02 0.  1.
</event>
<event>
 5   0  0.1711979E-04  0.1899799E+04  0.7818609E-02  0.8654956E-01
        1   -1    0    0  501    0  0.00000000000E+00  0.00000000000E+00  0.99534132797E+03  0.99534132798E+03  0.50400001928E-02 0. -1.
       -1   -1    0    0    0  501  0.00000000000E+00  0.00000000000E+00 -0.90653262731E+03  0.90653262732E+03  0.50400001928E-02 0.  1.
    10030    2    1    2    0    0  0.00000000000E+00  0.00000000000E+00  0.88808700664E+02  0.19018739553E+04  0.18997993464E+04 0.  0.
        4    1    3    3  502    0 -0.39663952638E+03 -0.81844508499E+03 -0.22999806657E+03  0.93812365633E+03  0.12699999809E+01 0.  1.
       -4    1    3    3    0  502  0.39663952638E+03  0.81844508499E+03  0.31880676724E+03  0.96375029897E+03  0.12699999809E+01 0. -1.
</event>
<event>
 5   0  0.1782613E-04  0.1349532E+04  0.7818609E-02  0.8991182E-01
        1   -1    0    0  501    0  0.00000000000E+00  0.00000000000E+00  0.10706165039E+04  0.10706165039E+04  0.50400001928E-02 0.  1.
       -1   -1    0    0    0  501  0.00000000000E+00  0.00000000000E+00 -0.42527761713E+03  0.42527761716E+03  0.50400001928E-02 0. -1.
    10030    2    1    2    0    0  0.00000000000E+00  0.00000000000E+00  0.64533888677E+03  0.14958941211E+04  0.13495321199E+04 0.  0.
        3    1    3    3  502    0 -0.76232728463E+02 -0.50719814289E+02 -0.41835937612E+03  0.42826219333E+03  0.10100000352E+00 0. -1.
       -3    1    3    3    0  502  0.76232728463E+02  0.50719814289E+02  0.10636982629E+04  0.10676319277E+04  0.10100000352E+00 0.  1.
</event>
<event>
 5   0  0.3623359E-04  0.1853268E+04  0.7818609E-02  0.8678474E-01
       -2   -1    0    0    0  501  0.00000000000E+00  0.00000000000E+00  0.11386373696E+04  0.11386373696E+04  0.25500000920E-02 0. -1.
        2   -1    0    0  501    0  0.00000000000E+00  0.00000000000E+00 -0.75410361637E+03  0.75410361638E+03  0.25500000920E-02 0.  1.
    10030    2    1    2    0    0  0.00000000000E+00  0.00000000000E+00  0.38453375327E+03  0.18927409860E+04  0.18532679873E+04 0.  0.
        5    1    3    3  502    0  0.43780249141E+03 -0.71702472109E+03  0.59153213856E+03  0.10274861717E+04  0.46999998093E+01 0. -1.
       -5    1    3    3    0  502 -0.43780249141E+03  0.71702472109E+03 -0.20699838529E+03  0.86525481429E+03  0.46999998093E+01 0.  1.
</event>
<event>
 5   0  0.1782613E-04  0.1916028E+04  0.7818609E-02  0.8646919E-01
       -1   -1    0    0    0  501  0.00000000000E+00  0.00000000000E+00  0.93809041901E+03  0.93809041902E+03  0.50400001928E-02 0. -1.
        1   -1    0    0  501    0  0.00000000000E+00  0.00000000000E+00 -0.97836101180E+03  0.97836101182E+03  0.50400001928E-02 0.  1.
    10030    2    1    2    0    0  0.00000000000E+00  0.00000000000E+00 -0.40270592793E+02  0.19164514308E+04  0.19160282791E+04 0.  0.
        3    1    3    3  502    0 -0.27941887614E+03  0.42172428368E+03 -0.83386570470E+03  0.97532471693E+03  0.10100000352E+00 0.  1.
       -3    1    3    3    0  502  0.27941887614E+03 -0.42172428368E+03  0.79359511191E+03  0.94112671391E+03  0.10100000352E+00 0. -1.
</event>
<event>
 5   0  0.1782613E-04  0.1905714E+04  0.7818609E-02  0.8652017E-01
        1   -1    0    0  501    0  0.00000000000E+00  0.00000000000E+00  0.65210549000E+03  0.65210549002E+03  0.50400001928E-02 0. -1.
       -1   -1    0    0    0  501  0.00000000000E+00  0.00000000000E+00 -0.13923158640E+04  0.13923158640E+04  0.50400001928E-02 0.  1.
    10030    2    1    2    0    0  0.00000000000E+00  0.00000000000E+00 -0.74021037395E+03  0.20444213540E+04  0.19057143739E+04 0.  0.
        3    1    3    3  502    0 -0.54174325149E+03  0.19485840341E+03  0.44442127133E+03  0.72730036747E+03  0.10100000352E+00 0. -1.
       -3    1    3    3    0  502  0.54174325149E+03 -0.19485840341E+03 -0.11846316453E+04  0.13171209865E+04  0.10100000352E+00 0.  1.
</event>
<event>
 5   0  0.3516539E-04  0.1186160E+04  0.7818609E-02  0.9125058E-01
        2   -1    0    0  501    0  0.00000000000E+00  0.00000000000E+00  0.12322668778E+04  0.12322668778E+04  0.25500000920E-02 0.  1.
       -2   -1    0    0    0  501  0.00000000000E+00  0.00000000000E+00 -0.28544432948E+03  0.28544432950E+03  0.25500000920E-02 0. -1.
    10030    2    1    2    0    0  0.00000000000E+00  0.00000000000E+00  0.94682254828E+03  0.15177112073E+04  0.11861595048E+04 0.  0.
        4    1    3    3  502    0 -0.36266389908E+03 -0.45281257702E+03  0.31577786795E+03  0.66051616815E+03  0.12699999809E+01 0. -1.
       -4    1    3    3    0  502  0.36266389908E+03  0.45281257702E+03  0.63104468033E+03  0.85719503911E+03  0.12699999809E+01 0.  1.
</event>
<event>
 5   0  0.3535876E-04  0.1895765E+04  0.7818609E-02  0.8656967E-01
       -2   -1    0    0    0  501  0.00000000000E+00  0.00000000000E+00  0.46389208969E+03  0.46389208970E+03  0.25500000920E-02 0. -1.
        2   -1    0    0  501    0  0.00000000000E+00  0.00000000000E+00 -0.19368324290E+04  0.19368324290E+04  0.25500000920E-02 0.  1.
    10030    2    1    2    0    0  0.00000000000E+00  0.00000000000E+00 -0.14729403393E+04  0.24007245187E+04  0.18957650096E+04 0.  0.
        2    1    3    3  502    0  0.10557991087E+03 -0.38736809582E+02 -0.19283539114E+04  0.19316305199E+04  0.25500000920E-02 0.  1.
       -2    1    3    3    0  502 -0.10557991087E+03  0.38736809582E+02  0.45541357210E+03  0.46909399874E+03  0.25500000920E-02 0. -1.
</event>
<event>
 5   0  0.1758946E-04  0.1857490E+04  0.7818609E-02  0.8676311E-01
        1   -1    0    0  501    0  0.00000000000E+00  0.00000000000E+00  0.14950820516E+04  0.14950820516E+04  0.50400001928E-02 0.  1.
       -1   -1    0    0    0  501  0.00000000000E+00  0.00000000000E+00 -0.57693626415E+03  0.57693626417E+03  0.50400001928E-02 0. -1.
    10030    2    1    2    0    0  0.00000000000E+00  0.00000000000E+00  0.91814578746E+03  0.20720183158E+04  0.18574897615E+04 0.  0.
        2    1    3    3  502    0  0.74584117703E+03 -0.47044380480E+03  0.78423621559E+03  0.11800944355E+04  0.25500000920E-02 0. -1.
       -2    1    3    3    0  502 -0.74584117703E+03  0.47044380480E+03  0.13390957187E+03  0.89192388031E+03  0.25500000920E-02 0.  1.
</event>
<event>
 5   0  0.3535876E-04  0.1903255E+04  0.7818609E-02  0.8653238E-01
       -2   -1    0    0    0  501  0.00000000000E+00  0.00000000000E+00  0.19367661047E+04  0.19367661047E+04  0.25500000920E-02 0. -1.
        2   -1    0    0  501    0  0.00000000000E+00  0.00000000000E+00 -0.46758080335E+03  0.46758080336E+03  0.25500000920E-02 0.  1.
    10030    2    1    2    0    0  0.00000000000E+00  0.00000000000E+00  0.14691853013E+04  0.24043469080E+04  0.19032547398E+04 0.  0.
        2    1    3    3  502    0  0.17031982941E+03  0.85505598719E+03  0.12164068148E+04  0.14965878272E+04  0.25500000920E-02 0. -1.
       -2    1    3    3    0  502 -0.17031982941E+03 -0.85505598719E+03  0.25277848652E+03  0.90775908080E+03  0.25500000920E-02 0.  1.
</event>
<event>
 5   0  0.1758946E-04  0.1850232E+04  0.7818609E-02  0.8680033E-01
        1   -1    0    0  501    0  0.00000000000E+00  0.00000000000E+00  0.71199900680E+03  0.71199900682E+03  0.50400001928E-02 0. -1.
       -1   -1    0    0    0  501  0.00000000000E+00  0.00000000000E+00 -0.12020237920E+04  0.12020237920E+04  0.50400001928E-02 0.  1.
    10030    2    1    2    0    0  0.00000000000E+00  0.00000000000E+00 -0.49002478517E+03  0.19140227988E+04  0.18502321433E+04 0.  0.
        2    1    3    3  502    0  0.45827238888E+03 -0.57618655031E+03  0.33451200912E+03  0.80864257086E+03  0.25500000920E-02 0. -1.
       -2    1    3    3    0  502 -0.45827238888E+03  0.57618655031E+03 -0.82453679428E+03  0.11053802279E+04  0.25500000920E-02 0.  1.
</event>
<event>
 5   0  0.1287000E-04  0.1921007E+04  0.7818609E-02  0.8644470E-01
       -3   -1    0    0    0  501  0.00000000000E+00  0.00000000000E+00  0.75682706893E+03  0.75682707566E+03  0.10100000352E+00 0.  1.
        3   -1    0    0  501    0  0.00000000000E+00  0.00000000000E+00 -0.12189926272E+04  0.12189926314E+04  0.10100000352E+00 0. -1.
    10030    2    1    2    0    0  0.00000000000E+00  0.00000000000E+00 -0.46216555828E+03  0.19758197071E+04  0.19210066402E+04 0.  0.
        3    1    3    3  502    0 -0.33671721574E+03 -0.16120516237E+03  0.67915545045E+03  0.77499530568E+03  0.10100000352E+00 0.  1.
       -3    1    3    3    0  502  0.33671721574E+03  0.16120516237E+03 -0.11413210087E+04  0.12008244014E+04  0.10100000352E+00 0. -1.
</event>
<event>
 5   0  0.1694830E-04  0.1900005E+04  0.7818609E-02  0.8654854E-01
        1   -1    0    0  501    0  0.00000000000E+00  0.00000000000E+00  0.11692883508E+04  0.11692883508E+04  0.50400001928E-02 0. -1.
       -1   -1    0    0    0  501  0.00000000000E+00  0.00000000000E+00 -0.77184068528E+03  0.77184068529E+03  0.50400001928E-02 0.  1.
    10030    2    1    2    0    0  0.00000000000E+00  0.00000000000E+00  0.39744766551E+03  0.19411290361E+04  0.19000045495E+04 0.  0.
        1    1    3    3  502    0 -0.18425100918E+03 -0.34782402089E+03  0.10820619223E+04  0.11514286724E+04  0.50400001928E-02 0. -1.
       -1    1    3    3    0  502  0.18425100918E+03  0.34782402089E+03 -0.68461425676E+03  0.78970036373E+03  0.50400001928E-02 0.  1.
</event>
<event>
 5   0  0.3535876E-04  0.1951993E+04  0.7818609E-02  0.8629400E-01
       -2   -1    0    0    0  501  0.00000000000E+00  0.00000000000E+00  0.98559013387E+03  0.98559013388E+03  0.25500000920E-02 0. -1.
        2   -1    0    0  501    0  0.00000000000E+00  0.00000000000E+00 -0.96649594592E+03  0.96649594592E+03  0.25500000920E-02 0.  1.
    10030    2    1    2    0    0  0.00000000000E+00  0.00000000000E+00  0.19094187955E+02  0.19520860798E+04  0.19519926934E+04 0.  0.
        2    1    3    3  502    0 -0.18934419266E+03  0.69944032318E+03 -0.64431970084E+03  0.96964728942E+03  0.25500000920E-02 0.  1.
       -2    1    3    3    0  502  0.18934419266E+03 -0.69944032318E+03  0.66341388880E+03  0.98243879038E+03  0.25500000920E-02 0. -1.
</event>
<event>
 5   0  0.3516539E-04  0.1907190E+04  0.7818609E-02  0.8651286E-01
       -2   -1    0    0    0  501  0.00000000000E+00  0.00000000000E+00  0.51886125328E+03  0.51886125329E+03  0.25500000920E-02 0.  1.
        2   -1    0    0  501    0  0.00000000000E+00  0.00000000000E+00 -0.17525757924E+04  0.17525757924E+04  0.25500000920E-02 0. -1.
    10030    2    1    2    0    0  0.00000000000E+00  0.00000000000E+00 -0.12337145392E+04  0.22714370457E+04  0.19071902602E+04 0.  0.
        4    1    3    3  502    0  0.49820715031E+03 -0.75854946681E+01  0.35149142996E+03  0.60976695760E+03  0.12699999809E+01 0.  1.
       -4    1    3    3    0  502 -0.49820715031E+03  0.75854946681E+01 -0.15852059691E+04  0.16616700881E+04  0.12699999809E+01 0. -1.
</event>
<event>
 5   0  0.3720978E-04  0.1889574E+04  0.7818609E-02  0.8660064E-01
       -2   -1    0    0    0  501  0.00000000000E+00  0.00000000000E+00  0.51118681631E+03  0.51118681632E+03  0.25500000920E-02 0.  1.
        2   -1    0    0  501    0  0.00000000000E+00  0.00000000000E+00 -0.17461757553E+04  0.17461757553E+04  0.25500000920E-02 0. -1.
    10030    2    1    2    0    0  0.00000000000E+00  0.00000000000E+00 -0.12349889390E+04  0.22573625716E+04  0.18895735234E+04 0.  0.
        1    1    3    3  502    0 -0.28711346065E+03  0.54904944997E+03 -0.14695782601E+04  0.15948509963E+04  0.50400001928E-02 0. -1.
       -1    1    3    3    0  502  0.28711346065E+03 -0.54904944997E+03  0.23458932113E+03  0.66251157530E+03  0.50400001928E-02 0.  1.
</event>
<event>
 5   0  0.3720978E-04  0.1891748E+04  0.7818609E-02  0.8658975E-01
       -2   -1    0    0    0  501  0.00000000000E+00  0.00000000000E+00  0.85009032850E+03  0.85009032850E+03  0.25500000920E-02 0. -1.
        2   -1    0    0  501    0  0.00000000000E+00  0.00000000000E+00 -0.10524502146E+04  0.10524502146E+04  0.25500000920E-02 0.  1.
    10030    2    1    2    0    0  0.00000000000E+00  0.00000000000E+00 -0.20235988608E+03  0.19025405431E+04  0.18917481319E+04 0.  0.
        1    1    3    3  502    0 -0.15532697893E+03 -0.76961304442E+03 -0.63168054757E+03  0.10076958979E+04  0.50400001928E-02 0.  1.
       -1    1    3    3    0  502  0.15532697893E+03  0.76961304442E+03  0.42932066149E+03  0.89484464514E+03  0.50400001928E-02 0. -1.
</event>
<event>
 5   0  0.1758946E-04  0.1916485E+04  0.7818609E-02  0.8646694E-01
        1   -1    0    0  501    0  0.00000000000E+00  0.00000000000E+00  0.61790168442E+03  0.61790168444E+03  0.50400001928E-02 0.  1.
       -1   -1    0    0    0  501  0.00000000000E+00  0.00000000000E+00 -0.14860426617E+04  0.14860426617E+04  0.50400001928E-02 0. -1.
    10030    2    1    2    0    0  0.00000000000E+00  0.00000000000E+00 -0.86814097731E+03  0.21039443462E+04  0.19164845565E+04 0.  0.
        2    1    3    3  502    0 -0.41212149602E+03 -0.77753402337E+03 -0.85040851881E+03  0.12237638391E+04  0.25500000920E-02 0. -1.
       -2    1    3    3    0  502  0.41212149602E+03  0.77753402337E+03 -0.17732458498E+02  0.88018050710E+03  0.25500000920E-02 0.  1.
</event>
<event>
 5   0  0.1287000E-04  0.1878290E+04  0.7818609E-02  0.8665739E-01
        4   -1    0    0  501    0  0.00000000000E+00  0.00000000000E+00  0.20012635995E+04  0.20012640025E+04  0.12699999809E+01 0. -1.
       -4   -1    0    0    0  501  0.00000000000E+00  0.00000000000E+00 -0.44071702815E+03  0.44071885800E+03  0.12699999809E+01 0.  1.
    10030    2    1    2    0    0  0.00000000000E+00  0.00000000000E+00  0.15605465713E+04  0.24419828605E+04  0.18782903635E+04 0.  0.
        3    1    3    3  502    0  0.18963792433E+03 -0.35404283778E+02  0.19752270190E+04  0.19846253531E+04  0.10100000352E+00 0. -1.
       -3    1    3    3    0  502 -0.18963792433E+03  0.35404283778E+02 -0.41468044763E+03  0.45735750732E+03  0.10100000352E+00 0.  1.
</event>
<event>
 5   0  0.3720978E-04  0.1906271E+04  0.7818609E-02  0.8651741E-01
       -2   -1    0    0    0  501  0.00000000000E+00  0.00000000000E+00  0.72663664630E+03  0.72663664630E+03  0.25500000920E-02 0.  1.
        2   -1    0    0  501    0  0.00000000000E+00  0.00000000000E+00 -0.12502364200E+04  0.12502364200E+04  0.25500000920E-02 0. -1.
    10030    2    1    2    0    0  0.00000000000E+00  0.00000000000E+00 -0.52359977373E+03  0.19768730663E+04  0.19062713336E+04 0.  0.
        1    1    3    3  502    0 -0.24233988742E+03 -0.71491823382E+03  0.34167243781E+03  0.82859927400E+03  0.50400001928E-02 0.  1.
       -1    1    3    3    0  502  0.24233988742E+03  0.71491823382E+03 -0.86527221154E+03  0.11482737923E+04  0.50400001928E-02 0. -1.
</event>
<event>
 5   0  0.3623359E-04  0.1886471E+04  0.7818609E-02  0.8661620E-01
        2   -1    0    0  501    0  0.00000000000E+00  0.00000000000E+00  0.75820251592E+03  0.75820251592E+03  0.25500000920E-02 0.  1.
       -2   -1    0    0    0  501  0.00000000000E+00  0.00000000000E+00 -0.11734238488E+04  0.11734238488E+04  0.25500000920E-02 0. -1.
    10030    2    1    2    0    0  0.00000000000E+00  0.00000000000E+00 -0.41522133286E+03  0.19316263647E+04  0.18864706882E+04 0.  0.
        5    1    3    3  502    0 -0.69348488054E+03  0.43000545215E+03  0.27683672549E+03  0.86167663946E+03  0.46999998093E+01 0. -1.
       -5    1    3    3    0  502  0.69348488054E+03 -0.43000545215E+03 -0.69205805834E+03  0.10699497252E+04  0.46999998093E+01 0.  1.
</event>
<event>
 5   0  0.3516539E-04  0.1885830E+04  0.7818609E-02  0.8661942E-01
        2   -1    0    0  501    0  0.00000000000E+00  0.00000000000E+00  0.71874776967E+03  0.71874776968E+03  0.25500000920E-02 0. -1.
       -2   -1    0    0    0  501  0.00000000000E+00  0.00000000000E+00 -0.12369969877E+04  0.12369969877E+04  0.25500000920E-02 0.  1.
    10030    2    1    2    0    0  0.00000000000E+00  0.00000000000E+00 -0.51824921803E+03  0.19557447574E+04  0.18858301366E+04 0.  0.
        4    1    3    3  502    0 -0.33253311196E+03  0.69821616999E+03 -0.81857093691E+03  0.11261190356E+04  0.12699999809E+01 0.  1.
       -4    1    3    3    0  502  0.33253311196E+03 -0.69821616999E+03  0.30032171888E+03  0.82962572183E+03  0.12699999809E+01 0. -1.
</event>
<event>
 5   0  0.1694830E-04  0.1987853E+04  0.7818609E-02  0.8612321E-01
       -1   -1    0    0    0  501  0.00000000000E+00  0.00000000000E+00  0.58548953426E+03  0.58548953428E+03  0.50400001928E-02 0.  1.
        1   -1    0    0  501    0  0.00000000000E+00  0.00000000000E+00 -0.16872892756E+04  0.16872892756E+04  0.50400001928E-02 0. -1.
    10030    2    1    2    0    0  0.00000000000E+00  0.00000000000E+00 -0.11017997413E+04  0.22727788099E+04  0.19878533267E+04 0.  0.
        1    1    3    3  502    0  0.23907758438E+03  0.97605911113E+02  0.54646493292E+03  0.60440791538E+03  0.50400001928E-02 0.  1.
       -1    1    3    3    0  502 -0.23907758438E+03 -0.97605911113E+02 -0.16482646742E+04  0.16683708945E+04  0.50400001928E-02 0. -1.
</event>
<event>
 5   0  0.3459485E-04  0.1907941E+04  0.7818609E-02  0.8650914E-01
        2   -1    0    0  501    0  0.00000000000E+00  0.00000000000E+00  0.10886264732E+04  0.10886264732E+04  0.25500000920E-02 0. -1.
       -2   -1    0    0    0  501  0.00000000000E+00  0.00000000000E+00 -0.83597031762E+03  0.83597031763E+03  0.25500000920E-02 0.  1.
    10030    2    1    2    0    0  0.00000000000E+00  0.00000000000E+00  0.25265615562E+03  0.19245967909E+04  0.19079406894E+04 0.  0.
        3    1    3    3  502    0  0.31196331830E+03  0.79960549828E+03  0.54633944052E+03  0.10174364154E+04  0.10100000352E+00 0. -1.
       -3    1    3    3    0  502 -0.31196331830E+03 -0.79960549828E+03 -0.29368328490E+03  0.90716037550E+03  0.10100000352E+00 0.  1.
</event>
<event>
 5   0  0.3720978E-04  0.1889445E+04  0.7818609E-02  0.8660128E-01
        2   -1    0    0  501    0  0.00000000000E+00  0.00000000000E+00  0.23964700944E+04  0.23964700944E+04  0.25500000920E-02 0.  1.
       -2   -1    0    0    0  501  0.00000000000E+00  0.00000000000E+00 -0.37242304443E+03  0.37242304444E+03  0.25500000920E-02 0. -1.
    10030    2    1    2    0    0  0.00000000000E+00  0.00000000000E+00  0.20240470500E+04  0.27688931389E+04  0.18894450915E+04 0.  0.
        1    1    3    3  502    0 -0.81119237511E+02 -0.94271336263E+02  0.23844211397E+04  0.23876623687E+04  0.50400001928E-02 0.  1.
       -1    1    3    3    0  502  0.81119237511E+02  0.94271336263E+02 -0.36037408971E+03  0.38123077013E+03  0.50400001928E-02 0. -1.
</event>
<event>
 5   0  0.1711979E-04  0.1927541E+04  0.7818609E-02  0.8641267E-01
        1   -1    0    0  501    0  0.00000000000E+00  0.00000000000E+00  0.22482365128E+04  0.22482365128E+04  0.50400001928E-02 0. -1.
       -1   -1    0    0    0  501  0.00000000000E+00  0.00000000000E+00 -0.41314776019E+03  0.41314776022E+03  0.50400001928E-02 0.  1.
    10030    2    1    2    0    0  0.00000000000E+00  0.00000000000E+00  0.18350887526E+04  0.26613842730E+04  0.19275413144E+04 0.  0.
        4    1    3    3  502    0 -0.44779558073E+03  0.48223218695E+03 -0.54642885616E+02  0.66034553235E+03  0.12699999809E+01 0.  1.
       -4    1    3    3    0  502  0.44779558073E+03 -0.48223218695E+03  0.18897316382E+04  0.20010387407E+04  0.12699999809E+01 0. -1.
</event>
<event>
 5   0  0.3459485E-04  0.1630743E+04  0.7818609E-02  0.8801881E-01
       -2   -1    0    0    0  501  0.00000000000E+00  0.00000000000E+00  0.92430511503E+03  0.92430511503E+03  0.25500000920E-02 0.  1.
        2   -1    0    0  501    0  0.00000000000E+00  0.00000000000E+00 -0.71927640886E+03  0.71927640886E+03  0.25500000920E-02 0. -1.
    10030    2    1    2    0    0  0.00000000000E+00  0.00000000000E+00  0.20502870617E+03  0.16435815239E+04  0.16307432218E+04 0.  0.
        3    1    3    3  502    0  0.48732631976E+02  0.54922444322E+03  0.70791662402E+03  0.89731171574E+03  0.10100000352E+00 0.  1.
       -3    1    3    3    0  502 -0.48732631976E+02 -0.54922444322E+03 -0.50288791785E+03  0.74626980815E+03  0.10100000352E+00 0. -1.
</event>
<event>
 5   0  0.3720978E-04  0.1959289E+04  0.7818609E-02  0.8625894E-01
        2   -1    0    0  501    0  0.00000000000E+00  0.00000000000E+00  0.79729336721E+03  0.79729336722E+03  0.25500000920E-02 0. -1.
       -2   -1    0    0    0  501  0.00000000000E+00  0.00000000000E+00 -0.12037020521E+04  0.12037020521E+04  0.25500000920E-02 0.  1.
    10030    2    1    2    0    0  0.00000000000E+00  0.00000000000E+00 -0.40640868491E+03  0.20009954193E+04  0.19592893225E+04 0.  0.
        1    1    3    3  502    0  0.79836929718E+03  0.56256393272E+03 -0.28119712007E+03  0.10163382968E+04  0.50400001928E-02 0. -1.
       -1    1    3    3    0  502 -0.79836929718E+03 -0.56256393272E+03 -0.12521156484E+03  0.98465712259E+03  0.50400001928E-02 0.  1.
</event>
<event>
 5   0  0.1758946E-04  0.1897718E+04  0.7818609E-02  0.8655993E-01
       -1   -1    0    0    0  501  0.00000000000E+00  0.00000000000E+00  0.12523442379E+04  0.12523442379E+04  0.50400001928E-02 0. -1.
        1   -1    0    0  501    0  0.00000000000E+00  0.00000000000E+00 -0.71891856076E+03  0.71891856078E+03  0.50400001928E-02 0.  1.
    10030    2    1    2    0    0  0.00000000000E+00  0.00000000000E+00  0.53342567712E+03  0.19712627987E+04  0.18977181214E+04 0.  0.
        2    1    3    3  502    0 -0.23556600268E+03 -0.91521786627E+03  0.35496681422E+03  0.10095130131E+04  0.25500000920E-02 0. -1.
       -2    1    3    3    0  502  0.23556600268E+03  0.91521786627E+03  0.17845886291E+03  0.96174978561E+03  0.25500000920E-02 0.  1.
</event>
<event>
 5   0  0.3623359E-04  0.1908530E+04  0.7818609E-02  0.8650622E-01
       -2   -1    0    0    0  501  0.00000000000E+00  0.00000000000E+00  0.82578063713E+03  0.82578063713E+03  0.25500000920E-02 0.  1.
        2   -1    0    0  501    0  0.00000000000E+00  0.00000000000E+00 -0.11027409106E+04  0.11027409106E+04  0.25500000920E-02 0. -1.
    10030    2    1    2    0    0  0.00000000000E+00  0.00000000000E+00 -0.27696027343E+03  0.19285215477E+04  0.19085304207E+04 0.  0.
        5    1    3    3  502    0 -0.31026344348E+03  0.72858983240E+02  0.77040129253E+03  0.83373381683E+03  0.46999998093E+01 0.  1.
       -5    1    3    3    0  502  0.31026344348E+03 -0.72858983240E+02 -0.10473615660E+04  0.10947877309E+04  0.46999998093E+01 0. -1.
</event>
<event>
 5   0  0.1694830E-04  0.1890350E+04  0.7818609E-02  0.8659675E-01
       -1   -1    0    0    0  501  0.00000000000E+00  0.00000000000E+00  0.10647433378E+04  0.10647433378E+04  0.50400001928E-02 0.  1.
        1   -1    0    0  501    0  0.00000000000E+00  0.00000000000E+00 -0.83903363318E+03  0.83903363320E+03  0.50400001928E-02 0. -1.
    10030    2    1    2    0    0  0.00000000000E+00  0.00000000000E+00  0.22570970459E+03  0.19037769710E+04  0.18903496726E+04 0.  0.
        1    1    3    3  502    0 -0.39746587541E+03 -0.71624783113E+03  0.58776070545E+03  0.10081928013E+04  0.50400001928E-02 0. -1.
       -1    1    3    3    0  502  0.39746587541E+03  0.71624783113E+03 -0.36205100086E+03  0.89558416967E+03  0.50400001928E-02 0.  1.
</event>
<event>
 5   0  0.3720978E-04  0.1852678E+04  0.7818609E-02  0.8678777E-01
       -2   -1    0    0    0  501  0.00000000000E+00  0.00000000000E+00  0.13205504192E+04  0.13205504192E+04  0.25500000920E-02 0. -1.
        2   -1    0    0  501    0  0.00000000000E+00  0.00000000000E+00 -0.64980769885E+03  0.64980769885E+03  0.25500000920E-02 0.  1.
    10030    2    1    2    0    0  0.00000000000E+00  0.00000000000E+00  0.67074272040E+03  0.19703581181E+04  0.18526778772E+04 0.  0.
        1    1    3    3  502    0  0.58880482969E+03 -0.29418154641E+03  0.10285948082E+04  0.12211638666E+04  0.50400001928E-02 0. -1.
       -1    1    3    3    0  502 -0.58880482969E+03  0.29418154641E+03 -0.35785208777E+03  0.74919425148E+03  0.50400001928E-02 0.  1.
</event>
<event>
 5   0  0.3535876E-04  0.1850253E+04  0.7818609E-02  0.8680023E-01
        2   -1    0    0  501    0  0.00000000000E+00  0.00000000000E+00  0.15851579938E+04  0.15851579938E+04  0.25500000920E-02 0.  1.
       -2   -1    0    0    0  501  0.00000000000E+00  0.00000000000E+00 -0.53992008655E+03  0.53992008656E+03  0.25500000920E-02 0. -1.
    10030    2    1    2    0    0  0.00000000000E+00  0.00000000000E+00  0.10452379072E+04  0.21250780803E+04  0.18502525679E+04 0.  0.
        2    1    3    3  502    0 -0.76279398389E+03  0.20902448084E+03 -0.28572991730E+02  0.79143054738E+03  0.25500000920E-02 0. -1.
       -2    1    3    3    0  502  0.76279398389E+03 -0.20902448084E+03  0.10738108990E+04  0.13336475330E+04  0.25500000920E-02 0.  1.
</event>
<event>
 5   0  0.1813834E-04  0.1845406E+04  0.7818609E-02  0.8682519E-01
       -1   -1    0    0    0  501  0.00000000000E+00  0.00000000000E+00  0.42470467344E+03  0.42470467347E+03  0.50400001928E-02 0.  1.
        1   -1    0    0  501    0  0.00000000000E+00  0.00000000000E+00 -0.20046422502E+04  0.20046422502E+04  0.50400001928E-02 0. -1.
    10030    2    1    2    0    0  0.00000000000E+00  0.00000000000E+00 -0.15799375768E+04  0.24293469237E+04  0.18454061150E+04 0.  0.
        5    1    3    3  502    0 -0.33816707534E+03  0.82476624989E+03 -0.47633101784E+03  0.10106976137E+04  0.46999998093E+01 0. -1.
       -5    1    3    3    0  502  0.33816707534E+03 -0.82476624989E+03 -0.11036065589E+04  0.14186493100E+04  0.46999998093E+01 0.  1.
</event>
<event>
 5   0  0.1782613E-04  0.1972088E+04  0.7818609E-02  0.8619783E-01
       -1   -1    0    0    0  501  0.00000000000E+00  0.00000000000E+00  0.10985399981E+04  0.10985399981E+04  0.50400001928E-02 0.  1.
        1   -1    0    0  501    0  0.00000000000E+00  0.00000000000E+00 -0.88506849801E+03  0.88506849802E+03  0.50400001928E-02 0. -1.
    10030    2    1    2    0    0  0.00000000000E+00  0.00000000000E+00  0.21347150006E+03  0.19836084961E+04  0.19720883815E+04 0.  0.
        3    1    3    3  502    0  0.95056944351E+03  0.25435879661E+03  0.43101092235E+02  0.98495602882E+03  0.10100000352E+00 0.  1.
       -3    1    3    3    0  502 -0.95056944351E+03 -0.25435879661E+03  0.17037040783E+03  0.99865246728E+03  0.10100000352E+00 0. -1.
</event>
<event>
 5   0  0.3459485E-04  0.1726658E+04  0.7818609E-02  0.8746305E-01
        2   -1    0    0  501    0  0.00000000000E+00  0.00000000000E+00  0.26233503869E+04  0.26233503869E+04  0.25500000920E-02 0. -1.
       -2   -1    0    0    0  501  0.00000000000E+00  0.00000000000E+00 -0.28411643634E+03  0.28411643635E+03  0.25500000920E-02 0.  1.
    10030    2    1    2    0    0  0.00000000000E+00  0.00000000000E+00  0.23392339506E+04  0.29074668233E+04  0.17266580012E+04 0.  0.
        3    1    3    3  502    0  0.20709224937E+03 -0.75346491952E+03  0.17877149313E+04  0.19510308225E+04  0.10100000352E+00 0. -1.
       -3    1    3    3    0  502 -0.20709224937E+03  0.75346491952E+03  0.55151901928E+03  0.95643600075E+03  0.10100000352E+00 0.  1.
</event>
<event>
 5   0  0.3623359E-04  0.1873863E+04  0.7818609E-02  0.8667977E-01
        2   -1    0    0  501    0  0.00000000000E+00  0.00000000000E+00  0.12898034370E+04  0.12898034370E+04  0.25500000920E-02 0.  1.
       -2   -1    0    0    0  501  0.00000000000E+00  0.00000000000E+00 -0.68060049745E+03  0.68060049745E+03  0.25500000920E-02 0. -1.
    10030    2    1    2    0    0  0.00000000000E+00  0.00000000000E+00  0.60920293952E+03  0.19704039344E+04  0.18738632403E+04 0.  0.
        5    1    3    3  502    0  0.43663466044E+03  0.82766091203E+03  0.25588581577E+03  0.97014022322E+03  0.46999998093E+01 0. -1.
       -5    1    3    3    0  502 -0.43663466044E+03 -0.82766091203E+03  0.35331712375E+03  0.10002637112E+04  0.46999998093E+01 0.  1.
</event>
<event>
 5   0  0.1813834E-04  0.1887358E+04  0.7818609E-02  0.8661175E-01
        1   -1    0    0  501    0  0.00000000000E+00  0.00000000000E+00  0.16384738935E+04  0.16384738936E+04  0.50400001928E-02 0. -1.
       -1   -1    0    0    0  501  0.00000000000E+00  0.00000000000E+00 -0.54351162238E+03  0.54351162240E+03  0.50400001928E-02 0.  1.
    10030    2    1    2    0    0  0.00000000000E+00  0.00000000000E+00  0.10949622712E+04  0.21819855160E+04  0.18873575222E+04 0.  0.
        5    1    3    3  502    0 -0.86821442451E+03 -0.36948916099E+03  0.56337442554E+03  0.10989683164E+04  0.46999998093E+01 0. -1.
       -5    1    3    3    0  502  0.86821442451E+03  0.36948916099E+03  0.53158784563E+03  0.10830171996E+04  0.46999998093E+01 0.  1.
</event>
<event>
 5   0  0.3720978E-04  0.1869695E+04  0.7818609E-02  0.8670090E-01
        2   -1    0    0  501    0  0.00000000000E+00  0.00000000000E+00  0.76611060231E+03  0.76611060232E+03  0.25500000920E-02 0. -1.
       -2   -1    0    0    0  501  0.00000000000E+00  0.00000000000E+00 -0.11407489724E+04  0.11407489724E+04  0.25500000920E-02 0.  1.
    10030    2    1    2    0    0  0.00000000000E+00  0.00000000000E+00 -0.37463837006E+03  0.19068595747E+04  0.18696950364E+04 0.  0.
        1    1    3    3  502    0 -0.51379970333E+02  0.38010615094E+03  0.68216394631E+03  0.78260349922E+03  0.50400001928E-02 0. -1.
       -1    1    3    3    0  502  0.51379970333E+02 -0.38010615094E+03 -0.10568023164E+04  0.11242560755E+04  0.50400001928E-02 0.  1.
</event>
<event>
 5   0  0.1694830E-04  0.1842241E+04  0.7818609E-02  0.8684153E-01
       -1   -1    0    0    0  501  0.00000000000E+00  0.00000000000E+00  0.32385295405E+03  0.32385295409E+03  0.50400001928E-02 0.  1.
        1   -1    0    0  501    0  0.00000000000E+00  0.00000000000E+00 -0.26199006354E+04  0.26199006354E+04  0.50400001928E-02 0. -1.
    10030    2    1    2    0    0  0.00000000000E+00  0.00000000000E+00 -0.22960476814E+04  0.29437535895E+04  0.18422405491E+04 0.  0.
        1    1    3    3  502    0 -0.10959709449E+02 -0.36616424535E+03  0.20244685120E+03  0.41854641007E+03  0.50400001928E-02 0.  1.
       -1    1    3    3    0  502  0.10959709449E+02  0.36616424535E+03 -0.24984945326E+04  0.25252071795E+04  0.50400001928E-02 0. -1.
</event>
<event>
 5   0  0.3459485E-04  0.1901030E+04  0.7818609E-02  0.8654344E-01
        2   -1    0    0  501    0  0.00000000000E+00  0.00000000000E+00  0.11419859662E+04  0.11419859662E+04  0.25500000920E-02 0.  1.
       -2   -1    0    0    0  501  0.00000000000E+00  0.00000000000E+00 -0.79114730135E+03  0.79114730135E+03  0.25500000920E-02 0. -1.
    10030    2    1    2    0    0  0.00000000000E+00  0.00000000000E+00  0.35083866480E+03  0.19331332675E+04  0.19010303683E+04 0.  0.
        3    1    3    3  502    0  0.84371626900E+03 -0.31391669683E+03  0.48565868923E+03  0.10228710612E+04  0.10100000352E+00 0.  1.
       -3    1    3    3    0  502 -0.84371626900E+03  0.31391669683E+03 -0.13482002443E+03  0.91026220635E+03  0.10100000352E+00 0. -1.
</event>
<event>
 5   0  0.3516539E-04  0.1865015E+04  0.7818609E-02  0.8672470E-01
        2   -1    0    0  501    0  0.00000000000E+00  0.00000000000E+00  0.15660380123E+04  0.15660380123E+04  0.25500000920E-02 0.  1.
       -2   -1    0    0    0  501  0.00000000000E+00  0.00000000000E+00 -0.55526736671E+03  0.55526736672E+03  0.25500000920E-02 0. -1.
    10030    2    1    2    0    0  0.00000000000E+00  0.00000000000E+00  0.10107706456E+04  0.21213053790E+04  0.18650145343E+04 0.  0.
        4    1    3    3  502    0 -0.53212121449E+03  0.57826440505E+03 -0.65623999978E+02  0.78857519067E+03  0.12699999809E+01 0.  1.
       -4    1    3    3    0  502  0.53212121449E+03 -0.57826440505E+03  0.10763946456E+04  0.13327301884E+04  0.12699999809E+01 0. -1.
</event>
<event>
 5   0  0.3535876E-04  0.1874113E+04  0.7818609E-02  0.8667850E-01
        2   -1    0    0  501    0  0.00000000000E+00  0.00000000000E+00  0.41324363057E+03  0.41324363058E+03  0.25500000920E-02 0.  1.
       -2   -1    0    0    0  501  0.00000000000E+00  0.00000000000E+00 -0.21248360720E+04  0.21248360720E+04  0.25500000920E-02 0. -1.
    10030    2    1    2    0    0  0.00000000000E+00  0.00000000000E+00 -0.17115924415E+04  0.25380797026E+04  0.18741130946E+04 0.  0.
        2    1    3    3  502    0  0.75105228108E+02 -0.11238962513E+03 -0.21115626701E+04  0.21158849527E+04  0.25500000920E-02 0. -1.
       -2    1    3    3    0  502 -0.75105228108E+02  0.11238962513E+03  0.39997022862E+03  0.42219474998E+03  0.25500000920E-02 0.  1.
</event>
<event>
 5   0  0.3535876E-04  0.1951833E+04  0.7818609E-02  0.8629478E-01
        2   -1    0    0  501    0  0.00000000000E+00  0.00000000000E+00  0.93851404962E+03  0.93851404962E+03  0.25500000920E-02 0.  1.
       -2   -1    0    0    0  501  0.00000000000E+00  0.00000000000E+00 -0.10148092771E+04  0.10148092771E+04  0.25500000920E-02 0. -1.
    10030    2    1    2    0    0  0.00000000000E+00  0.00000000000E+00 -0.76295227464E+02  0.19533233267E+04  0.19518327431E+04 0.  0.
        2    1    3    3  502    0  0.85290367166E+03 -0.22514438725E+03  0.37963747987E+03  0.96034331589E+03  0.25500000920E-02 0.  1.
       -2    1    3    3    0  502 -0.85290367166E+03  0.22514438725E+03 -0.45593270733E+03  0.99298001081E+03  0.25500000920E-02 0. -1.
</event>
<event>
 5   0  0.3720978E-04  0.1790318E+04  0.7818609E-02  0.8711465E-01
        2   -1    0    0  501    0  0.00000000000E+00  0.00000000000E+00  0.16471459703E+04  0.16471459703E+04  0.25500000920E-02 0. -1.
       -2   -1    0    0    0  501  0.00000000000E+00  0.00000000000E+00 -0.48648361328E+03  0.48648361329E+03  0.25500000920E-02 0.  1.
    10030    2    1    2    0    0  0.00000000000E+00  0.00000000000E+00  0.11606623570E+04  0.21336295836E+04  0.17903178748E+04 0.  0.
        1    1    3    3  502    0 -0.68644712935E+03  0.57299183476E+03  0.53004766622E+03  0.10394613185E+04  0.50400001928E-02 0. -1.
       -1    1    3    3    0  502  0.68644712935E+03 -0.57299183476E+03  0.63061469077E+03  0.10941682651E+04  0.50400001928E-02 0.  1.
</event>
<event>
 5   0  0.1813834E-04  0.1879471E+04  0.7818609E-02  0.8665143E-01
       -1   -1    0    0    0  501  0.00000000000E+00  0.00000000000E+00  0.12285617188E+04  0.12285617188E+04  0.50400001928E-02 0. -1.
        1   -1    0    0  501    0  0.00000000000E+00  0.00000000000E+00 -0.71881002890E+03  0.71881002891E+03  0.50400001928E-02 0.  1.
    10030    2    1    2    0    0  0.00000000000E+00  0.00000000000E+00  0.50975168992E+03  0.19473717477E+04  0.18794706538E+04 0.  0.
        5    1    3    3  502    0  0.73738962361E+03  0.53620313303E+03  0.49074718177E+03  0.10354284829E+04  0.46999998093E+01 0. -1.
       -5    1    3    3    0  502 -0.73738962361E+03 -0.53620313303E+03  0.19004508152E+02  0.91194326480E+03  0.46999998093E+01 0.  1.
</event>
<event>
 5   0  0.1694830E-04  0.1503880E+04  0.7818609E-02  0.8881877E-01
        1   -1    0    0  501    0  0.00000000000E+00  0.00000000000E+00  0.13962712946E+04  0.13962712946E+04  0.50400001928E-02 0. -1.
       -1   -1    0    0    0  501  0.00000000000E+00  0.00000000000E+00 -0.40494569249E+03  0.40494569253E+03  0.50400001928E-02 0.  1.
    10030    2    1    2    0    0  0.00000000000E+00  0.00000000000E+00  0.99132560210E+03  0.18012169871E+04  0.15038803760E+04 0.  0.
        1    1    3    3  502    0  0.61180934269E+03 -0.40059625281E+03  0.70526604493E+03  0.10159666450E+04  0.50400001928E-02 0. -1.
       -1    1    3    3    0  502 -0.61180934269E+03  0.40059625281E+03  0.28605955718E+03  0.78525034215E+03  0.50400001928E-02 0.  1.
</event>
<event>
 5   0  0.3720978E-04  0.1866010E+04  0.7818609E-02  0.8671963E-01
        2   -1    0    0  501    0  0.00000000000E+00  0.00000000000E+00  0.69163346330E+03  0.69163346331E+03  0.25500000920E-02 0.  1.
       -2   -1    0    0    0  501  0.00000000000E+00  0.00000000000E+00 -0.12586128183E+04  0.12586128183E+04  0.25500000920E-02 0. -1.
    10030    2    1    2    0    0  0.00000000000E+00  0.00000000000E+00 -0.56697935498E+03  0.19502462816E+04  0.18660104421E+04 0.  0.
        1    1    3    3  502    0  0.49063853448E+02 -0.30395958647E+03  0.63700715564E+03  0.70751452867E+03  0.50400001928E-02 0.  1.
       -1    1    3    3    0  502 -0.49063853448E+02  0.30395958647E+03 -0.12039865106E+04  0.12427317529E+04  0.50400001928E-02 0. -1.
</event>
<event>
 5   0  0.1758946E-04  0.1872335E+04  0.7818609E-02  0.8668751E-01
        1   -1    0    0  501    0  0.00000000000E+00  0.00000000000E+00  0.10136837293E+04  0.10136837293E+04  0.50400001928E-02 0.  1.
       -1   -1    0    0    0  501  0.00000000000E+00  0.00000000000E+00 -0.86457860189E+03  0.86457860191E+03  0.50400001928E-02 0. -1.
    10030    2    1    2    0    0  0.00000000000E+00  0.00000000000E+00  0.14910512740E+03  0.18782623312E+04  0.18723346511E+04 0.  0.
        2    1    3    3  502    0  0.63722971321E+03  0.32545097823E+02  0.76176762646E+03  0.99368546709E+03  0.25500000920E-02 0.  1.
       -2    1    3    3    0  502 -0.63722971321E+03 -0.32545097823E+02 -0.61266249906E+03  0.88457686412E+03  0.25500000920E-02 0. -1.
</event>
<event>
 5   0  0.1782613E-04  0.1898721E+04  0.7818609E-02  0.8655493E-01
       -1   -1    0    0    0  501  0.00000000000E+00  0.00000000000E+00  0.85643064793E+03  0.85643064795E+03  0.50400001928E-02 0. -1.
        1   -1    0    0  501    0  0.00000000000E+00  0.00000000000E+00 -0.10523742613E+04  0.10523742613E+04  0.50400001928E-02 0.  1.
    10030    2    1    2    0    0  0.00000000000E+00  0.00000000000E+00 -0.19594361332E+03  0.19088049092E+04  0.18987212228E+04 0.  0.
        3    1    3    3  502    0 -0.52685019141E+03  0.15334374530E+03 -0.87681204645E+03  0.10343523594E+04  0.10100000352E+00 0.  1.
       -3    1    3    3    0  502  0.52685019141E+03 -0.15334374530E+03  0.68086843314E+03  0.87445254980E+03  0.10100000352E+00 0. -1.
</event>
<event>
 5   0  0.1711979E-04  0.1901923E+04  0.7818609E-02  0.8653900E-01
       -1   -1    0    0    0  501  0.00000000000E+00  0.00000000000E+00  0.70566313557E+03  0.70566313559E+03  0.50400001928E-02 0. -1.
        1   -1    0    0  501    0  0.00000000000E+00  0.00000000000E+00 -0.12815293844E+04  0.12815293844E+04  0.50400001928E-02 0.  1.
    10030    2    1    2    0    0  0.00000000000E+00  0.00000000000E+00 -0.57586624882E+03  0.19871925200E+04  0.19019232831E+04 0.  0.
        4    1    3    3  502    0 -0.37336703488E+03  0.17242032273E+03  0.60794336300E+03  0.73398123678E+03  0.12699999809E+01 0. -1.
       -4    1    3    3    0  502  0.37336703488E+03 -0.17242032273E+03 -0.11838096118E+04  0.12532112832E+04  0.12699999809E+01 0.  1.
</event>
<event>
 5   0  0.3720978E-04  0.1888218E+04  0.7818609E-02  0.8660743E-01
        2   -1    0    0  501    0  0.00000000000E+00  0.00000000000E+00  0.96072623578E+03  0.96072623578E+03  0.25500000920E-02 0.  1.
       -2   -1    0    0    0  501  0.00000000000E+00  0.00000000000E+00 -0.92777927579E+03  0.92777927579E+03  0.25500000920E-02 0. -1.
    10030    2    1    2    0    0  0.00000000000E+00  0.00000000000E+00  0.32946959993E+02  0.18885055116E+04  0.18882180926E+04 0.  0.
        1    1    3    3  502    0 -0.56105919370E+03  0.73962190318E+03 -0.15534880748E+03  0.94125513571E+03  0.50400001928E-02 0. -1.
       -1    1    3    3    0  502  0.56105919370E+03 -0.73962190318E+03  0.18829576747E+03  0.94725037586E+03  0.50400001928E-02 0.  1.
</event>
<event>
 5   0  0.1758946E-04  0.1762876E+04  0.7818609E-02  0.8726294E-01
       -1   -1    0    0    0  501  0.00000000000E+00  0.00000000000E+00  0.12553451669E+04  0.12553451669E+04  0.50400001928E-02 0.  1.
        1   -1    0    0  501    0  0.00000000000E+00  0.00000000000E+00 -0.61890003093E+03  0.61890003095E+03  0.50400001928E-02 0. -1.
    10030    2    1    2    0    0  0.00000000000E+00  0.00000000000E+00  0.63644513593E+03  0.18742451978E+04  0.17628762437E+04 0.  0.
        2    1    3    3  502    0  0.36918852528E+03 -0.64178259129E+03  0.82671363766E+03  0.11097929989E+04  0.25500000920E-02 0.  1.
       -2    1    3    3    0  502 -0.36918852528E+03  0.64178259129E+03 -0.19026850173E+03  0.76445219893E+03  0.25500000920E-02 0. -1.
</event>
<event>
 5   0  0.1782613E-04  0.1868485E+04  0.7818609E-02  0.8670704E-01
        1   -1    0    0  501    0  0.00000000000E+00  0.00000000000E+00  0.18412700854E+04  0.18412700854E+04  0.50400001928E-02 0. -1.
       -1   -1    0    0    0  501  0.00000000000E+00  0.00000000000E+00 -0.47402548548E+03  0.47402548551E+03  0.50400001928E-02 0.  1.
    10030    2    1    2    0    0  0.00000000000E+00  0.00000000000E+00  0.13672445999E+04  0.23152955709E+04  0.18684848902E+04 0.  0.
        3    1    3    3  502    0  0.76742410920E+03  0.52238766502E+03  0.55377768151E+03  0.10809710295E+04  0.10100000352E+00 0. -1.
       -3    1    3    3    0  502 -0.76742410920E+03 -0.52238766502E+03  0.81346691843E+03  0.12343245414E+04  0.10100000352E+00 0.  1.
</event>
<event>
 5   0  0.1813834E-04  0.1943096E+04  0.7818609E-02  0.8633697E-01
        1   -1    0    0  501    0  0.00000000000E+00  0.00000000000E+00  0.13931933929E+04  0.13931933929E+04  0.50400001928E-02 0.  1.
       -1   -1    0    0    0  501  0.00000000000E+00  0.00000000000E+00 -0.67751193185E+03  0.67751193187E+03  0.50400001928E-02 0. -1.
    10030    2    1    2    0    0  0.00000000000E+00  0.00000000000E+00  0.71568146104E+03  0.20707053248E+04  0.19430956200E+04 0.  0.
        5    1    3    3  502    0  0.33388811341E+03  0.90191374825E+03  0.21112813129E+03  0.98464555012E+03  0.46999998093E+01 0.  1.
       -5    1    3    3    0  502 -0.33388811341E+03 -0.90191374825E+03  0.50455332975E+03  0.10860597747E+04  0.46999998093E+01 0. -1.
</event>
<event>
 5   0  0.3720978E-04  0.1898410E+04  0.7818609E-02  0.8655648E-01
        2   -1    0    0  501    0  0.00000000000E+00  0.00000000000E+00  0.69481650925E+03  0.69481650925E+03  0.25500000920E-02 0.  1.
       -2   -1    0    0    0  501  0.00000000000E+00  0.00000000000E+00 -0.12967314551E+04  0.12967314551E+04  0.25500000920E-02 0. -1.
    10030    2    1    2    0    0  0.00000000000E+00  0.00000000000E+00 -0.60191494586E+03  0.19915479644E+04  0.18984103066E+04 0.  0.
        1    1    3    3  502    0  0.85984622174E+03 -0.85385213349E+02 -0.71312528202E+03  0.11203454055E+04  0.50400001928E-02 0.  1.
       -1    1    3    3    0  502 -0.85984622174E+03  0.85385213349E+02  0.11121033616E+03  0.87120255888E+03  0.50400001928E-02 0. -1.
</event>
<event>
 5   0  0.1813834E-04  0.1912249E+04  0.7818609E-02  0.8648783E-01
        1   -1    0    0  501    0  0.00000000000E+00  0.00000000000E+00  0.15374629514E+04  0.15374629514E+04  0.50400001928E-02 0. -1.
       -1   -1    0    0    0  501  0.00000000000E+00  0.00000000000E+00 -0.59459903620E+03  0.59459903622E+03  0.50400001928E-02 0.  1.
    10030    2    1    2    0    0  0.00000000000E+00  0.00000000000E+00  0.94286391521E+03  0.21320619876E+04  0.19122489264E+04 0.  0.
        5    1    3    3  502    0 -0.32827245130E+03  0.89227512228E+03  0.58422502705E+03  0.11159115863E+04  0.46999998093E+01 0. -1.
       -5    1    3    3    0  502  0.32827245130E+03 -0.89227512228E+03  0.35863888816E+03  0.10161504014E+04  0.46999998093E+01 0.  1.
</event>
<event>
 5   0  0.3535876E-04  0.1973179E+04  0.7818609E-02  0.8619264E-01
       -2   -1    0    0    0  501  0.00000000000E+00  0.00000000000E+00  0.86252367358E+03  0.86252367359E+03  0.25500000920E-02 0.  1.
        2   -1    0    0  501    0  0.00000000000E+00  0.00000000000E+00 -0.11285013818E+04  0.11285013818E+04  0.25500000920E-02 0. -1.
    10030    2    1    2    0    0  0.00000000000E+00  0.00000000000E+00 -0.26597770820E+03  0.19910250554E+04  0.19731793202E+04 0.  0.
        2    1    3    3  502    0  0.37578397957E+03 -0.11118043345E+03 -0.10465971054E+04  0.11175599265E+04  0.25500000920E-02 0. -1.
       -2    1    3    3    0  502 -0.37578397957E+03  0.11118043345E+03  0.78061939724E+03  0.87346512892E+03  0.25500000920E-02 0.  1.
</event>
<event>
 5   0  0.1758946E-04  0.2114626E+04  0.7818609E-02  0.8554828E-01
        1   -1    0    0  501    0  0.00000000000E+00  0.00000000000E+00  0.12489281187E+04  0.12489281187E+04  0.50400001928E-02 0. -1.
       -1   -1    0    0    0  501  0.00000000000E+00  0.00000000000E+00 -0.89509624569E+03  0.89509624571E+03  0.50400001928E-02 0.  1.
    10030    2    1    2    0    0  0.00000000000E+00  0.00000000000E+00  0.35383187301E+03  0.21440243644E+04  0.21146260854E+04 0.  0.
        2    1    3    3  502    0 -0.10388624136E+04 -0.60158505857E+02 -0.12921433747E+02  0.10406830083E+04  0.25500000920E-02 0.  1.
       -2    1    3    3    0  502  0.10388624136E+04  0.60158505857E+02  0.36675330675E+03  0.11033413562E+04  0.25500000920E-02 0. -1.
</event>
<event>
 5   0  0.3623359E-04  0.1414813E+04  0.7818609E-02  0.8943166E-01
        2   -1    0    0  501    0  0.00000000000E+00  0.00000000000E+00  0.19474763638E+04  0.19474763638E+04  0.25500000920E-02 0. -1.
       -2   -1    0    0    0  501  0.00000000000E+00  0.00000000000E+00 -0.25696015061E+03  0.25696015063E+03  0.25500000920E-02 0.  1.
    10030    2    1    2    0    0  0.00000000000E+00  0.00000000000E+00  0.16905162131E+04  0.22044365144E+04  0.14148128071E+04 0.  0.
        5    1    3    3  502    0 -0.26205889237E+03  0.65705905119E+03  0.84606765054E+03  0.11028390722E+04  0.46999998093E+01 0. -1.
       -5    1    3    3    0  502  0.26205889237E+03 -0.65705905119E+03  0.84444856260E+03  0.11015974422E+04  0.46999998093E+01 0.  1.
</event>
<event>
 5   0  0.3516539E-04  0.1842573E+04  0.7818609E-02  0.8683982E-01
        2   -1    0    0  501    0  0.00000000000E+00  0.00000000000E+00  0.76725692545E+03  0.76725692545E+03  0.25500000920E-02 0.  1.
       -2   -1    0    0    0  501  0.00000000000E+00  0.00000000000E+00 -0.11062382776E+04  0.11062382776E+04  0.25500000920E-02 0. -1.
    10030    2    1    2    0    0  0.00000000000E+00  0.00000000000E+00 -0.33898135213E+03  0.18734952030E+04  0.18425731786E+04 0.  0.
        4    1    3    3  502    0  0.21755563790E+03 -0.85606419585E+03 -0.43578469958E+03  0.98492958138E+03  0.12699999809E+01 0. -1.
       -4    1    3    3    0  502 -0.21755563790E+03  0.85606419585E+03  0.96803347456E+02  0.88856562164E+03  0.12699999809E+01 0.  1.
</event>
<event>
 5   0  0.3516539E-04  0.2030456E+04  0.7818609E-02  0.8592512E-01
       -2   -1    0    0    0  501  0.00000000000E+00  0.00000000000E+00  0.86134899988E+03  0.86134899989E+03  0.25500000920E-02 0. -1.
        2   -1    0    0  501    0  0.00000000000E+00  0.00000000000E+00 -0.11965973298E+04  0.11965973298E+04  0.25500000920E-02 0.  1.
    10030    2    1    2    0    0  0.00000000000E+00  0.00000000000E+00 -0.33524832992E+03  0.20579463297E+04  0.20304560210E+04 0.  0.
        4    1    3    3  502    0  0.58949743189E+02  0.78543737213E+03  0.48159432216E+03  0.92321267419E+03  0.12699999809E+01 0. -1.
       -4    1    3    3    0  502 -0.58949743189E+02 -0.78543737213E+03 -0.81684265208E+03  0.11347336555E+04  0.12699999809E+01 0.  1.
</event>
<event>
 5   0  0.1813834E-04  0.1922279E+04  0.7818609E-02  0.8643846E-01
       -1   -1    0    0    0  501  0.00000000000E+00  0.00000000000E+00  0.77895944957E+03  0.77895944959E+03  0.50400001928E-02 0.  1.
        1   -1    0    0  501    0  0.00000000000E+00  0.00000000000E+00 -0.11859270593E+04  0.11859270594E+04  0.50400001928E-02 0. -1.
    10030    2    1    2    0    0  0.00000000000E+00  0.00000000000E+00 -0.40696760977E+03  0.19648865089E+04  0.19222789490E+04 0.  0.
        5    1    3    3  502    0 -0.54965207918E+03  0.38166086429E+03 -0.90869224385E+03  0.11285061398E+04  0.46999998093E+01 0. -1.
       -5    1    3    3    0  502  0.54965207918E+03 -0.38166086429E+03  0.50172463408E+03  0.83638036917E+03  0.46999998093E+01 0.  1.
</event>
<event>
 5   0  0.1287000E-04  0.1908896E+04  0.7818609E-02  0.8650441E-01
       -3   -1    0    0    0  501  0.00000000000E+00  0.00000000000E+00  0.12160218924E+04  0.12160218966E+04  0.10100000352E+00 0. -1.
        3   -1    0    0  501    0  0.00000000000E+00  0.00000000000E+00 -0.74914012831E+03  0.74914013512E+03  0.10100000352E+00 0.  1.
    10030    2    1    2    0    0  0.00000000000E+00  0.00000000000E+00  0.46688176413E+03  0.19651620318E+04  0.19088958142E+04 0.  0.
        2    1    3    3  502    0  0.91937115971E+03 -0.25578402724E+03  0.25133154340E+03  0.98683146617E+03  0.25500000920E-02 0.  1.
       -2    1    3    3    0  502 -0.91937115971E+03  0.25578402724E+03  0.21555022073E+03  0.97833056559E+03  0.25500000920E-02 0. -1.
</event>
<event>
 5   0  0.1813834E-04  0.1905324E+04  0.7818609E-02  0.8652211E-01
       -1   -1    0    0    0  501  0.00000000000E+00  0.00000000000E+00  0.81728241702E+03  0.81728241704E+03  0.50400001928E-02 0. -1.
        1   -1    0    0  501    0  0.00000000000E+00  0.00000000000E+00 -0.11104669789E+04  0.11104669789E+04  0.50400001928E-02 0.  1.
    10030    2    1    2    0    0  0.00000000000E+00  0.00000000000E+00 -0.29318456191E+03  0.19277493960E+04  0.19053242628E+04 0.  0.
        5    1    3    3  502    0 -0.32908612958E+03 -0.11616592267E+02  0.75785878483E+03  0.82631994630E+03  0.46999998093E+01 0. -1.
       -5    1    3    3    0  502  0.32908612958E+03  0.11616592267E+02 -0.10510433467E+04  0.11014294497E+04  0.46999998093E+01 0.  1.
</event>
<event>
 5   0  0.3516539E-04  0.1666200E+04  0.7818609E-02  0.8780880E-01
       -2   -1    0    0    0  501  0.00000000000E+00  0.00000000000E+00  0.61213325754E+03  0.61213325755E+03  0.25500000920E-02 0. -1.
        2   -1    0    0  501    0  0.00000000000E+00  0.00000000000E+00 -0.11338309657E+04  0.11338309657E+04  0.25500000920E-02 0.  1.
    10030    2    1    2    0    0  0.00000000000E+00  0.00000000000E+00 -0.52169770819E+03  0.17459642233E+04  0.16662000391E+04 0.  0.
        4    1    3    3  502    0  0.65239072090E+03 -0.10230384471E+03  0.27137755637E+03  0.71395176332E+03  0.12699999809E+01 0. -1.
       -4    1    3    3    0  502 -0.65239072090E+03  0.10230384471E+03 -0.79307526456E+03  0.10320124600E+04  0.12699999809E+01 0.  1.
</event>
<event>
 5   0  0.3623359E-04  0.1895668E+04  0.7818609E-02  0.8657016E-01
        2   -1    0    0  501    0  0.00000000000E+00  0.00000000000E+00  0.53969054526E+03  0.53969054526E+03  0.25500000920E-02 0. -1.
       -2   -1    0    0    0  501  0.00000000000E+00  0.00000000000E+00 -0.16646383817E+04  0.16646383817E+04  0.25500000920E-02 0.  1.
    10030    2    1    2    0    0  0.00000000000E+00  0.00000000000E+00 -0.11249478364E+04  0.22043289269E+04  0.18956683211E+04 0.  0.
        5    1    3    3  502    0 -0.14119698289E+03  0.68362748667E+03 -0.13080286545E+04  0.14826476923E+04  0.46999998093E+01 0.  1.
       -5    1    3    3    0  502  0.14119698289E+03 -0.68362748667E+03  0.18308081806E+03  0.72168123465E+03  0.46999998093E+01 0. -1.
</event>
<event>
 5   0  0.1782613E-04  0.1864519E+04  0.7818609E-02  0.8672722E-01
        1   -1    0    0  501    0  0.00000000000E+00  0.00000000000E+00  0.19013794069E+04  0.19013794070E+04  0.50400001928E-02 0. -1.
       -1   -1    0    0    0  501  0.00000000000E+00  0.00000000000E+00 -0.45709324749E+03  0.45709324752E+03  0.50400001928E-02 0.  1.
    10030    2    1    2    0    0  0.00000000000E+00  0.00000000000E+00  0.14442861595E+04  0.23584726545E+04  0.18645189062E+04 0.  0.
        3    1    3    3  502    0 -0.95990628526E+02  0.91469108303E+03  0.91495027542E+03  0.12973079799E+04  0.10100000352E+00 0.  1.
       -3    1    3    3    0  502  0.95990628526E+02 -0.91469108303E+03  0.52933588403E+03  0.10611646745E+04  0.10100000352E+00 0. -1.
</event>
<event>
 5   0  0.3516539E-04  0.1814435E+04  0.7818609E-02  0.8698661E-01
       -2   -1    0    0    0  501  0.00000000000E+00  0.00000000000E+00  0.63336489044E+03  0.63336489045E+03  0.25500000920E-02 0.  1.
        2   -1    0    0  501    0  0.00000000000E+00  0.00000000000E+00 -0.12994772892E+04  0.12994772892E+04  0.25500000920E-02 0. -1.
    10030    2    1    2    0    0  0.00000000000E+00  0.00000000000E+00 -0.66611239877E+03  0.19328421797E+04  0.18144346678E+04 0.  0.
        4    1    3    3  502    0 -0.26756520274E+03  0.85424502150E+03 -0.17607602353E+03  0.91232125561E+03  0.12699999809E+01 0. -1.
       -4    1    3    3    0  502  0.26756520274E+03 -0.85424502150E+03 -0.49003637525E+03  0.10205209241E+04  0.12699999809E+01 0.  1.
</event>
<event>
 5   0  0.3720978E-04  0.1804433E+04  0.7818609E-02  0.8703946E-01
       -2   -1    0    0    0  501  0.00000000000E+00  0.00000000000E+00  0.88116467465E+03  0.88116467465E+03  0.25500000920E-02 0.  1.
        2   -1    0    0  501    0  0.00000000000E+00  0.00000000000E+00 -0.92377084147E+03  0.92377084148E+03  0.25500000920E-02 0. -1.
    10030    2    1    2    0    0  0.00000000000E+00  0.00000000000E+00 -0.42606166824E+02  0.18049355161E+04  0.18044325789E+04 0.  0.
        1    1    3    3  502    0  0.38453225804E+03 -0.55524584078E+03 -0.61965977578E+03  0.91659218790E+03  0.50400001928E-02 0. -1.
       -1    1    3    3    0  502 -0.38453225804E+03  0.55524584078E+03  0.57705360896E+03  0.88834332823E+03  0.50400001928E-02 0.  1.
</event>
<event>
 5   0  0.1782613E-04  0.1788847E+04  0.7818609E-02  0.8712253E-01
        1   -1    0    0  501    0  0.00000000000E+00  0.00000000000E+00  0.15214820949E+04  0.15214820949E+04  0.50400001928E-02 0.  1.
       -1   -1    0    0    0  501  0.00000000000E+00  0.00000000000E+00 -0.52579902468E+03  0.52579902471E+03  0.50400001928E-02 0. -1.
    10030    2    1    2    0    0  0.00000000000E+00  0.00000000000E+00  0.99568307021E+03  0.20472811196E+04  0.17888474520E+04 0.  0.
        3    1    3    3  502    0  0.84751321993E+03 -0.21333101419E+03  0.28007631355E+03  0.91773173160E+03  0.10100000352E+00 0. -1.
       -3    1    3    3    0  502 -0.84751321993E+03  0.21333101419E+03  0.71560675666E+03  0.11295493880E+04  0.10100000352E+00 0.  1.
</event>
<event>
 5   0  0.3459485E-04  0.1890306E+04  0.7818609E-02  0.8659697E-01
        2   -1    0    0  501    0  0.00000000000E+00  0.00000000000E+00  0.22479714658E+04  0.22479714658E+04  0.25500000920E-02 0.  1.
       -2   -1    0    0    0  501  0.00000000000E+00  0.00000000000E+00 -0.39738698862E+03  0.39738698863E+03  0.25500000920E-02 0. -1.
    10030    2    1    2    0    0  0.00000000000E+00  0.00000000000E+00  0.18505844772E+04  0.26453584544E+04  0.18903064421E+04 0.  0.
        3    1    3    3  502    0 -0.85381735573E+03  0.12127781411E+03  0.14665714247E+04  0.17013359866E+04  0.10100000352E+00 0.  1.
       -3    1    3    3    0  502  0.85381735573E+03 -0.12127781411E+03  0.38401305241E+03  0.94402246783E+03  0.10100000352E+00 0. -1.
</event>
<event>
 5   0  0.1782613E-04  0.1851653E+04  0.7818609E-02  0.8679303E-01
        1   -1    0    0  501    0  0.00000000000E+00  0.00000000000E+00  0.16839598433E+04  0.16839598433E+04  0.50400001928E-02 0.  1.
       -1   -1    0    0    0  501  0.00000000000E+00  0.00000000000E+00 -0.50901141267E+03  0.50901141270E+03  0.50400001928E-02 0. -1.
    10030    2    1    2    0    0  0.00000000000E+00  0.00000000000E+00  0.11749484307E+04  0.21929712560E+04  0.18516530763E+04 0.  0.
        3    1    3    3  502    0  0.79858429671E+02  0.57748693311E+03  0.14392764638E+04  0.15528635729E+04  0.10100000352E+00 0.  1.
       -3    1    3    3    0  502 -0.79858429671E+02 -0.57748693311E+03 -0.26432803312E+03  0.64010768312E+03  0.10100000352E+00 0. -1.
</event>
<event>
 5   0  0.1813834E-04  0.1843742E+04  0.7818609E-02  0.8683378E-01
       -1   -1    0    0    0  501  0.00000000000E+00  0.00000000000E+00  0.11367755193E+04  0.11367755193E+04  0.50400001928E-02 0.  1.
        1   -1    0    0  501    0  0.00000000000E+00  0.00000000000E+00 -0.74759351571E+03  0.74759351573E+03  0.50400001928E-02 0. -1.
    10030    2    1    2    0    0  0.00000000000E+00  0.00000000000E+00  0.38918200358E+03  0.18843690350E+04  0.18437418551E+04 0.  0.
        5    1    3    3  502    0  0.29062318177E+03 -0.10524681533E+03 -0.69304239691E+03  0.75886005287E+03  0.46999998093E+01 0. -1.
       -5    1    3    3    0  502 -0.29062318177E+03  0.10524681533E+03  0.10822244005E+04  0.11255089822E+04  0.46999998093E+01 0.  1.
</event>
<event>
 5   0  0.1694830E-04  0.1850424E+04  0.7818609E-02  0.8679935E-01
       -1   -1    0    0    0  501  0.00000000000E+00  0.00000000000E+00  0.35782791055E+03  0.35782791058E+03  0.50400001928E-02 0. -1.
        1   -1    0    0  501    0  0.00000000000E+00  0.00000000000E+00 -0.23922603689E+04  0.23922603689E+04  0.50400001928E-02 0.  1.
    10030    2    1    2    0    0  0.00000000000E+00  0.00000000000E+00 -0.20344324583E+04  0.27500882794E+04  0.18504243074E+04 0.  0.
        1    1    3    3  502    0  0.16126204906E+03  0.86266177344E+03 -0.58181802573E+03  0.10529496659E+04  0.50400001928E-02 0. -1.
       -1    1    3    3    0  502 -0.16126204906E+03 -0.86266177344E+03 -0.14526144326E+04  0.16971386135E+04  0.50400001928E-02 0.  1.
</event>
<event>
 5   0  0.1694830E-04  0.1889509E+04  0.7818609E-02  0.8660096E-01
       -1   -1    0    0    0  501  0.00000000000E+00  0.00000000000E+00  0.76954358648E+03  0.76954358650E+03  0.50400001928E-02 0. -1.
        1   -1    0    0  501    0  0.00000000000E+00  0.00000000000E+00 -0.11598573422E+04  0.11598573422E+04  0.50400001928E-02 0.  1.
    10030    2    1    2    0    0  0.00000000000E+00  0.00000000000E+00 -0.39031375575E+03  0.19294009287E+04  0.18895086970E+04 0.  0.
        1    1    3    3  502    0  0.48717071254E+03  0.51618767218E+03 -0.83183976819E+03  0.10935000759E+04  0.50400001928E-02 0.  1.
       -1    1    3    3    0  502 -0.48717071254E+03 -0.51618767218E+03  0.44152601244E+03  0.83590085282E+03  0.50400001928E-02 0. -1.
</event>
<event>
 5   0  0.3459485E-04  0.2003511E+04  0.7818609E-02  0.8604981E-01
        2   -1    0    0  501    0  0.00000000000E+00  0.00000000000E+00  0.23307527015E+04  0.23307527015E+04  0.25500000920E-02 0. -1.
       -2   -1    0    0    0  501  0.00000000000E+00  0.00000000000E+00 -0.43055350841E+03  0.43055350841E+03  0.25500000920E-02 0.  1.
    10030    2    1    2    0    0  0.00000000000E+00  0.00000000000E+00  0.19001991931E+04  0.27613062099E+04  0.20035106717E+04 0.  0.
        3    1    3    3  502    0 -0.73561858133E+03 -0.58374724753E+03  0.46945707550E+03  0.10498978532E+04  0.10100000352E+00 0.  1.
       -3    1    3    3    0  502  0.73561858133E+03  0.58374724753E+03  0.14307421176E+04  0.17114083567E+04  0.10100000352E+00 0. -1.
</event>
<event>
 5   0  0.1694830E-04  0.1904121E+04  0.7818609E-02  0.8652808E-01
        1   -1    0    0  501    0  0.00000000000E+00  0.00000000000E+00  0.12734169318E+04  0.12734169318E+04  0.50400001928E-02 0. -1.
       -1   -1    0    0    0  501  0.00000000000E+00  0.00000000000E+00 -0.71180069060E+03  0.71180069062E+03  0.50400001928E-02 0.  1.
    10030    2    1    2    0    0  0.00000000000E+00  0.00000000000E+00  0.56161624118E+03  0.19852176224E+04  0.19041208486E+04 0.  0.
        1    1    3    3  502    0  0.35909544344E+03  0.30771104617E+01  0.12000983687E+04  0.12526751777E+04  0.50400001928E-02 0. -1.
       -1    1    3    3    0  502 -0.35909544344E+03 -0.30771104617E+01 -0.63848212755E+03  0.73254244473E+03  0.50400001928E-02 0.  1.
</event>
<event>
 5   0  0.1758946E-04  0.1892168E+04  0.7818609E-02  0.8658764E-01
        1   -1    0    0  501    0  0.00000000000E+00  0.00000000000E+00  0.91122519731E+03  0.91122519733E+03  0.50400001928E-02 0.  1.
       -1   -1    0    0    0  501  0.00000000000E+00  0.00000000000E+00 -0.98227682882E+03  0.98227682883E+03  0.50400001928E-02 0. -1.
    10030    2    1    2    0    0  0.00000000000E+00  0.00000000000E+00 -0.71051631503E+02  0.18935020262E+04  0.18921684885E+04 0.  0.
        2    1    3    3  502    0  0.37780724694E+03  0.93930088951E+02  0.82735459162E+03  0.91437235180E+03  0.25500000920E-02 0.  1.
       -2    1    3    3    0  502 -0.37780724694E+03 -0.93930088951E+02 -0.89840622312E+03  0.97912967436E+03  0.25500000920E-02 0. -1.
</event>
<event>
 5   0  0.1813834E-04  0.1893336E+04  0.7818609E-02  0.8658181E-01
       -1   -1    0    0    0  501  0.00000000000E+00  0.00000000000E+00  0.10632845402E+04  0.10632845402E+04  0.50400001928E-02 0. -1.
        1   -1    0    0  501    0  0.00000000000E+00  0.00000000000E+00 -0.84284150553E+03  0.84284150555E+03  0.50400001928E-02 0.  1.
    10030    2    1    2    0    0  0.00000000000E+00  0.00000000000E+00  0.22044303467E+03  0.19061260458E+04  0.18933360427E+04 0.  0.
        5    1    3    3  502    0  0.32581508050E+03  0.86924842431E+03 -0.76530806688E+02  0.93146515996E+03  0.46999998093E+01 0.  1.
       -5    1    3    3    0  502 -0.32581508050E+03 -0.86924842431E+03  0.29697384135E+03  0.97466088579E+03  0.46999998093E+01 0. -1.
</event>
<event>
 5   0  0.3516539E-04  0.1906947E+04  0.7818609E-02  0.8651406E-01
        2   -1    0    0  501    0  0.00000000000E+00  0.00000000000E+00  0.83892912670E+03  0.83892912670E+03  0.25500000920E-02 0. -1.
       -2   -1    0    0    0  501  0.00000000000E+00  0.00000000000E+00 -0.10836577693E+04  0.10836577693E+04  0.25500000920E-02 0.  1.
    10030    2    1    2    0    0  0.00000000000E+00  0.00000000000E+00 -0.24472864265E+03  0.19225868960E+04  0.19069473680E+04 0.  0.
        4    1    3    3  502    0 -0.29932837616E+03 -0.30208082454E+03  0.73801615127E+03  0.85177447354E+03  0.12699999809E+01 0. -1.
       -4    1    3    3    0  502  0.29932837616E+03  0.30208082454E+03 -0.98274479392E+03  0.10708124225E+04  0.12699999809E+01 0.  1.
</event>
<event>
 5   0  0.3459485E-04  0.1887954E+04  0.7818609E-02  0.8660876E-01
        2   -1    0    0  501    0  0.00000000000E+00  0.00000000000E+00  0.90451311658E+03  0.90451311658E+03  0.25500000920E-02 0.  1.
       -2   -1    0    0    0  501  0.00000000000E+00  0.00000000000E+00 -0.98516319680E+03  0.98516319681E+03  0.25500000920E-02 0. -1.
    10030    2    1    2    0    0  0.00000000000E+00  0.00000000000E+00 -0.80650080226E+02  0.18896763134E+04  0.18879544841E+04 0.  0.
        3    1    3    3  502    0  0.61361496429E+03  0.52099011363E+03 -0.53386601305E+03  0.96590214463E+03  0.10100000352E+00 0. -1.
       -3    1    3    3    0  502 -0.61361496429E+03 -0.52099011363E+03  0.45321593282E+03  0.92377416876E+03  0.10100000352E+00 0.  1.
</event>
<event>
 5   0  0.1711979E-04  0.1876434E+04  0.7818609E-02  0.8666677E-01
       -1   -1    0    0    0  501  0.00000000000E+00  0.00000000000E+00  0.66062654238E+03  0.66062654240E+03  0.50400001928E-02 0. -1.
        1   -1    0    0  501    0  0.00000000000E+00  0.00000000000E+00 -0.13324482960E+04  0.13324482960E+04  0.50400001928E-02 0.  1.
    10030    2    1    2    0    0  0.00000000000E+00  0.00000000000E+00 -0.67182175360E+03  0.19930748384E+04  0.18764335434E+04 0.  0.
        4    1    3    3  502    0 -0.12611933951E+03  0.14145210739E+03  0.64008422395E+03  0.66755090677E+03  0.12699999809E+01 0. -1.
       -4    1    3    3    0  502  0.12611933951E+03 -0.14145210739E+03 -0.13119059775E+04  0.13255239316E+04  0.12699999809E+01 0.  1.
</event>
<event>
 5   0  0.1758946E-04  0.1913841E+04  0.7818609E-02  0.8647997E-01
       -1   -1    0    0    0  501  0.00000000000E+00  0.00000000000E+00  0.73797218208E+03  0.73797218210E+03  0.50400001928E-02 0.  1.
        1   -1    0    0  501    0  0.00000000000E+00  0.00000000000E+00 -0.12408280486E+04  0.12408280486E+04  0.50400001928E-02 0. -1.
    10030    2    1    2    0    0  0.00000000000E+00  0.00000000000E+00 -0.50285586655E+03  0.19788002307E+04  0.19138407276E+04 0.  0.
        2    1    3    3  502    0  0.43028797901E+03 -0.58900620781E+03  0.38896580622E+03  0.82666223824E+03  0.25500000920E-02 0.  1.
       -2    1    3    3    0  502 -0.43028797901E+03  0.58900620781E+03 -0.89182167278E+03  0.11521379925E+04  0.25500000920E-02 0. -1.
</event>
<event>
 5   0  0.1711979E-04  0.1838541E+04  0.7818609E-02  0.8686068E-01
       -1   -1    0    0    0  501  0.00000000000E+00  0.00000000000E+00  0.12989336258E+04  0.12989336258E+04  0.50400001928E-02 0.  1.
        1   -1    0    0  501    0  0.00000000000E+00  0.00000000000E+00 -0.65057849613E+03  0.65057849615E+03  0.50400001928E-02 0. -1.
    10030    2    1    2    0    0  0.00000000000E+00  0.00000000000E+00  0.64835512965E+03  0.19495121219E+04  0.18385410356E+04 0.  0.
        4    1    3    3  502    0 -0.65569485587E+03 -0.45904947214E+03  0.80356563886E+03  0.11341875995E+04  0.12699999809E+01 0.  1.
       -4    1    3    3    0  502  0.65569485587E+03  0.45904947214E+03 -0.15521050921E+03  0.81532452248E+03  0.12699999809E+01 0. -1.
</event>
<event>
 5   0  0.1694830E-04  0.1908819E+04  0.7818609E-02  0.8650479E-01
        1   -1    0    0  501    0  0.00000000000E+00  0.00000000000E+00  0.82937349507E+03  0.82937349508E+03  0.50400001928E-02 0.  1.
       -1   -1    0    0    0  501  0.00000000000E+00  0.00000000000E+00 -0.10982958643E+04  0.10982958643E+04  0.50400001928E-02 0. -1.
    10030    2    1    2    0    0  0.00000000000E+00  0.00000000000E+00 -0.26892236925E+03  0.19276693594E+04  0.19088189853E+04 0.  0.
        1    1    3    3  502    0 -0.83412695347E+03 -0.38209016315E+02  0.33234795008E+03  0.89871177993E+03  0.50400001928E-02 0.  1.
       -1    1    3    3    0  502  0.83412695347E+03  0.38209016315E+02 -0.60127031933E+03  0.10289575795E+04  0.50400001928E-02 0. -1.
</event>
<event>
 5   0  0.1287000E-04  0.1284269E+04  0.7818609E-02  0.9042133E-01
       -3   -1    0    0    0  501  0.00000000000E+00  0.00000000000E+00  0.10281651773E+04  0.10281651822E+04  0.10100000352E+00 0. -1.
        3   -1    0    0  501    0  0.00000000000E+00  0.00000000000E+00 -0.40104158308E+03  0.40104159580E+03  0.10100000352E+00 0.  1.
    10030    2    1    2    0    0  0.00000000000E+00  0.00000000000E+00  0.62712359418E+03  0.14292067780E+04  0.12842694468E+04 0.  0.
        3    1    3    3  502    0 -0.24105539236E+03 -0.59063576409E+03  0.23194548575E+03  0.67879085628E+03  0.10100000352E+00 0. -1.
       -3    1    3    3    0  502  0.24105539236E+03  0.59063576409E+03  0.39517810843E+03  0.75041592174E+03  0.10100000352E+00 0.  1.
</event>
<event>
 5   0  0.1694830E-04  0.1872868E+04  0.7818609E-02  0.8668481E-01
       -1   -1    0    0    0  501  0.00000000000E+00  0.00000000000E+00  0.48677249937E+03  0.48677249940E+03  0.50400001928E-02 0.  1.
        1   -1    0    0  501    0  0.00000000000E+00  0.00000000000E+00 -0.18014746904E+04  0.18014746904E+04  0.50400001928E-02 0. -1.
    10030    2    1    2    0    0  0.00000000000E+00  0.00000000000E+00 -0.13147021910E+04  0.22882471898E+04  0.18728676810E+04 0.  0.
        1    1    3    3  502    0 -0.43277903497E+03  0.76113305498E+03 -0.10631008209E+04  0.13772452853E+04  0.50400001928E-02 0. -1.
       -1    1    3    3    0  502  0.43277903497E+03 -0.76113305498E+03 -0.25160137010E+03  0.91100190447E+03  0.50400001928E-02 0.  1.
</event>
<event>
 5   0  0.3516539E-04  0.1881106E+04  0.7818609E-02  0.8664319E-01
       -2   -1    0    0    0  501  0.00000000000E+00  0.00000000000E+00  0.78836783814E+03  0.78836783814E+03  0.25500000920E-02 0.  1.
        2   -1    0    0  501    0  0.00000000000E+00  0.00000000000E+00 -0.11221154815E+04  0.11221154815E+04  0.25500000920E-02 0. -1.
    10030    2    1    2    0    0  0.00000000000E+00  0.00000000000E+00 -0.33374764334E+03  0.19104833196E+04  0.18811057985E+04 0.  0.
        4    1    3    3  502    0 -0.52841176465E+01 -0.81405737396E+03 -0.64531554480E+03  0.10388219748E+04  0.12699999809E+01 0. -1.
       -4    1    3    3    0  502  0.52841176465E+01  0.81405737396E+03  0.31156790146E+03  0.87166134485E+03  0.12699999809E+01 0.  1.
</event>
<event>
 5   0  0.3516539E-04  0.1891674E+04  0.7818609E-02  0.8659012E-01
        2   -1    0    0  501    0  0.00000000000E+00  0.00000000000E+00  0.89214986373E+03  0.89214986373E+03  0.25500000920E-02 0. -1.
       -2   -1    0    0    0  501  0.00000000000E+00  0.00000000000E+00 -0.10027550849E+04  0.10027550849E+04  0.25500000920E-02 0.  1.
    10030    2    1    2    0    0  0.00000000000E+00  0.00000000000E+00 -0.11060522121E+03  0.18949049487E+04  0.18916741922E+04 0.  0.
        4    1    3    3  502    0 -0.10575643264E+03 -0.62163716288E+03  0.65087588034E+03  0.90623297768E+03  0.12699999809E+01 0. -1.
       -4    1    3    3    0  502  0.10575643264E+03  0.62163716288E+03 -0.76148110155E+03  0.98867197099E+03  0.12699999809E+01 0.  1.
</event>
<event>
 5   0  0.1694830E-04  0.1671734E+04  0.7818609E-02  0.8777652E-01
        1   -1    0    0  501    0  0.00000000000E+00  0.00000000000E+00  0.13628012463E+04  0.13628012463E+04  0.50400001928E-02 0. -1.
       -1   -1    0    0    0  501  0.00000000000E+00  0.00000000000E+00 -0.51267435732E+03  0.51267435734E+03  0.50400001928E-02 0.  1.
    10030    2    1    2    0    0  0.00000000000E+00  0.00000000000E+00  0.85012688899E+03  0.18754756037E+04  0.16717335351E+04 0.  0.
        1    1    3    3  502    0 -0.61389505017E+03  0.52398248260E+03  0.66892215793E+03  0.10482755497E+04  0.50400001928E-02 0.  1.
       -1    1    3    3    0  502  0.61389505017E+03 -0.52398248260E+03  0.18120473106E+03  0.82720005396E+03  0.50400001928E-02 0. -1.
</event>
<event>
 5   0  0.1711979E-04  0.1971736E+04  0.7818609E-02  0.8619950E-01
       -1   -1    0    0    0  501  0.00000000000E+00  0.00000000000E+00  0.83537122993E+03  0.83537122994E+03  0.50400001928E-02 0. -1.
        1   -1    0    0  501    0  0.00000000000E+00  0.00000000000E+00 -0.11634775900E+04  0.11634775900E+04  0.50400001928E-02 0.  1.
    10030    2    1    2    0    0  0.00000000000E+00  0.00000000000E+00 -0.32810636009E+03  0.19988488200E+04  0.19717359919E+04 0.  0.
        4    1    3    3  502    0  0.46633274376E+03 -0.34363467941E+03  0.64465249979E+03  0.86667726356E+03  0.12699999809E+01 0. -1.
       -4    1    3    3    0  502 -0.46633274376E+03  0.34363467941E+03 -0.97275885987E+03  0.11321715564E+04  0.12699999809E+01 0.  1.
</event>
<event>
 5   0  0.3516539E-04  0.1884093E+04  0.7818609E-02  0.8662815E-01
       -2   -1    0    0    0  501  0.00000000000E+00  0.00000000000E+00  0.56905522768E+03  0.56905522768E+03  0.25500000920E-02 0.  1.
        2   -1    0    0  501    0  0.00000000000E+00  0.00000000000E+00 -0.15595175638E+04  0.15595175638E+04  0.25500000920E-02 0. -1.
    10030    2    1    2    0    0  0.00000000000E+00  0.00000000000E+00 -0.99046233608E+03  0.21285727914E+04  0.18840930150E+04 0.  0.
        4    1    3    3  502    0 -0.49217723979E+02  0.80807821160E+03 -0.10394392689E+04  0.13175159912E+04  0.12699999809E+01 0. -1.
       -4    1    3    3    0  502  0.49217723979E+02 -0.80807821160E+03  0.48976932808E+02  0.81105680027E+03  0.12699999809E+01 0.  1.
</event>
<event>
 5   0  0.3516539E-04  0.1952861E+04  0.7818609E-02  0.8628983E-01
       -2   -1    0    0    0  501  0.00000000000E+00  0.00000000000E+00  0.13045023433E+04  0.13045023433E+04  0.25500000920E-02 0. -1.
        2   -1    0    0  501    0  0.00000000000E+00  0.00000000000E+00 -0.73086578361E+03  0.73086578361E+03  0.25500000920E-02 0.  1.
    10030    2    1    2    0    0  0.00000000000E+00  0.00000000000E+00  0.57363655972E+03  0.20353681269E+04  0.19528605965E+04 0.  0.
        4    1    3    3  502    0 -0.39947795373E+03  0.76903964555E+03 -0.18208967950E+03  0.88552971504E+03  0.12699999809E+01 0.  1.
       -4    1    3    3    0  502  0.39947795373E+03 -0.76903964555E+03  0.75572623922E+03  0.11498384119E+04  0.12699999809E+01 0. -1.
</event>
<event>
 5   0  0.3623359E-04  0.1974938E+04  0.7818609E-02  0.8618428E-01
       -2   -1    0    0    0  501  0.00000000000E+00  0.00000000000E+00  0.90263710319E+03  0.90263710319E+03  0.25500000920E-02 0.  1.
        2   -1    0    0  501    0  0.00000000000E+00  0.00000000000E+00 -0.10802735877E+04  0.10802735877E+04  0.25500000920E-02 0. -1.
    10030    2    1    2    0    0  0.00000000000E+00  0.00000000000E+00 -0.17763648449E+03  0.19829106909E+04  0.19749379958E+04 0.  0.
        5    1    3    3  502    0 -0.77053206648E+03 -0.48220543490E+03  0.29852560223E+03  0.95675564911E+03  0.46999998093E+01 0.  1.
       -5    1    3    3    0  502  0.77053206648E+03  0.48220543490E+03 -0.47616208672E+03  0.10261550418E+04  0.46999998093E+01 0. -1.
</event>
<event>
 5   0  0.3720978E-04  0.1912026E+04  0.7818609E-02  0.8648894E-01
       -2   -1    0    0    0  501  0.00000000000E+00  0.00000000000E+00  0.43460414820E+03  0.43460414821E+03  0.25500000920E-02 0.  1.
        2   -1    0    0  501    0  0.00000000000E+00  0.00000000000E+00 -0.21029721155E+04  0.21029721155E+04  0.25500000920E-02 0. -1.
    10030    2    1    2    0    0  0.00000000000E+00  0.00000000000E+00 -0.16683679673E+04  0.25375762637E+04  0.19120255280E+04 0.  0.
        1    1    3    3  502    0  0.26463940327E+03 -0.28611835540E+03  0.32438197342E+03  0.50707138725E+03  0.50400001928E-02 0.  1.
       -1    1    3    3    0  502 -0.26463940327E+03  0.28611835540E+03 -0.19927499407E+04  0.20305048764E+04  0.50400001928E-02 0. -1.
</event>
<event>
 5   0  0.1813834E-04  0.1964907E+04  0.7818609E-02  0.8623206E-01
        1   -1    0    0  501    0  0.00000000000E+00  0.00000000000E+00  0.67602265088E+03  0.67602265090E+03  0.50400001928E-02 0.  1.
       -1   -1    0    0    0  501  0.00000000000E+00  0.00000000000E+00 -0.14277842960E+04  0.14277842960E+04  0.50400001928E-02 0. -1.
    10030    2    1    2    0    0  0.00000000000E+00  0.00000000000E+00 -0.75176164515E+03  0.21038069469E+04  0.19649066387E+04 0.  0.
        5    1    3    3  502    0  0.53895754834E+03  0.99231712749E+02 -0.12489173594E+04  0.13638690672E+04  0.46999998093E+01 0. -1.
       -5    1    3    3    0  502 -0.53895754834E+03 -0.99231712749E+02  0.49715571425E+03  0.73993787979E+03  0.46999998093E+01 0.  1.
</event>
<event>
 5   0  0.3623359E-04  0.1916988E+04  0.7818609E-02  0.8646446E-01
        2   -1    0    0  501    0  0.00000000000E+00  0.00000000000E+00  0.10052914438E+04  0.10052914438E+04  0.25500000920E-02 0.  1.
       -2   -1    0    0    0  501  0.00000000000E+00  0.00000000000E+00 -0.91387525232E+03  0.91387525233E+03  0.25500000920E-02 0. -1.
    10030    2    1    2    0    0  0.00000000000E+00  0.00000000000E+00  0.91416191504E+02  0.19191666962E+04  0.19169882336E+04 0.  0.
        5    1    3    3  502    0 -0.32142056198E+03 -0.48910827242E+03  0.80561665602E+03  0.99578028012E+03  0.46999998093E+01 0.  1.
       -5    1    3    3    0  502  0.32142056198E+03  0.48910827242E+03 -0.71420046452E+03  0.92338641604E+03  0.46999998093E+01 0. -1.
</event>
<event>
 5   0  0.1758946E-04  0.1997474E+04  0.7818609E-02  0.8607802E-01
       -1   -1    0    0    0  501  0.00000000000E+00  0.00000000000E+00  0.51684805848E+03  0.51684805851E+03  0.50400001928E-02 0.  1.
        1   -1    0    0  501    0  0.00000000000E+00  0.00000000000E+00 -0.19299212650E+04  0.19299212650E+04  0.50400001928E-02 0. -1.
    10030    2    1    2    0    0  0.00000000000E+00  0.00000000000E+00 -0.14130732065E+04  0.24467693235E+04  0.19974744643E+04 0.  0.
        2    1    3    3  502    0  0.97313808496E+01  0.90903171561E+03 -0.19993791438E+03  0.93081068396E+03  0.25500000920E-02 0.  1.
       -2    1    3    3    0  502 -0.97313808496E+01 -0.90903171561E+03 -0.12131352921E+04  0.15159586395E+04  0.25500000920E-02 0. -1.
</event>
<event>
 5   0  0.3623359E-04  0.1906853E+04  0.7818609E-02  0.8651453E-01
        2   -1    0    0  501    0  0.00000000000E+00  0.00000000000E+00  0.23784954235E+04  0.23784954235E+04  0.25500000920E-02 0.  1.
       -2   -1    0    0    0  501  0.00000000000E+00  0.00000000000E+00 -0.38218378031E+03  0.38218378032E+03  0.25500000920E-02 0. -1.
    10030    2    1    2    0    0  0.00000000000E+00  0.00000000000E+00  0.19963116432E+04  0.27606792038E+04  0.19068532953E+04 0.  0.
        5    1    3    3  502    0 -0.46292813308E+03 -0.73607107479E+03  0.15642626933E+04  0.17897047095E+04  0.46999998093E+01 0.  1.
       -5    1    3    3    0  502  0.46292813308E+03  0.73607107479E+03  0.43204894989E+03  0.97097449433E+03  0.46999998093E+01 0. -1.
</event>
<event>
 5   0  0.1782613E-04  0.1941347E+04  0.7818609E-02  0.8634545E-01
       -1   -1    0    0    0  501  0.00000000000E+00  0.00000000000E+00  0.56284958794E+03  0.56284958796E+03  0.50400001928E-02 0.  1.
        1   -1    0    0  501    0  0.00000000000E+00  0.00000000000E+00 -0.16739940458E+04  0.16739940458E+04  0.50400001928E-02 0. -1.
    10030    2    1    2    0    0  0.00000000000E+00  0.00000000000E+00 -0.11111444579E+04  0.22368436338E+04  0.19413468098E+04 0.  0.
        3    1    3    3  502    0 -0.76595008472E+03 -0.58635945891E+03 -0.68025576731E+03  0.11803579400E+04  0.10100000352E+00 0.  1.
       -3    1    3    3    0  502  0.76595008472E+03  0.58635945891E+03 -0.43088869056E+03  0.10564856938E+04  0.10100000352E+00 0. -1.
</event>
<event>
 5   0  0.1711979E-04  0.1858391E+04  0.7818609E-02  0.8675849E-01
       -1   -1    0    0    0  501  0.00000000000E+00  0.00000000000E+00  0.39348223148E+03  0.39348223151E+03  0.50400001928E-02 0. -1.
        1   -1    0    0  501    0  0.00000000000E+00  0.00000000000E+00 -0.21942654303E+04  0.21942654303E+04  0.50400001928E-02 0.  1.
    10030    2    1    2    0    0  0.00000000000E+00  0.00000000000E+00 -0.18007831988E+04  0.25877476618E+04  0.18583911946E+04 0.  0.
        4    1    3    3  502    0  0.72149159495E+03 -0.58552454867E+03 -0.90555058286E+03  0.12974639069E+04  0.12699999809E+01 0. -1.
       -4    1    3    3    0  502 -0.72149159495E+03  0.58552454867E+03 -0.89523261598E+03  0.12902837549E+04  0.12699999809E+01 0.  1.
</event>
<event>
 5   0  0.1782613E-04  0.1916304E+04  0.7818609E-02  0.8646783E-01
        1   -1    0    0  501    0  0.00000000000E+00  0.00000000000E+00  0.94774711322E+03  0.94774711324E+03  0.50400001928E-02 0. -1.
       -1   -1    0    0    0  501  0.00000000000E+00  0.00000000000E+00 -0.96867138235E+03  0.96867138237E+03  0.50400001928E-02 0.  1.
    10030    2    1    2    0    0  0.00000000000E+00  0.00000000000E+00 -0.20924269132E+02  0.19164184956E+04  0.19163042622E+04 0.  0.
        3    1    3    3  502    0  0.23655001737E+03 -0.11270174501E+03 -0.93214492845E+03  0.96827257107E+03  0.10100000352E+00 0.  1.
       -3    1    3    3    0  502 -0.23655001737E+03  0.11270174501E+03  0.91122065932E+03  0.94814592454E+03  0.10100000352E+00 0. -1.
</event>
<event>
 5   0  0.1782613E-04  0.1808534E+04  0.7818609E-02  0.8701775E-01
        1   -1    0    0  501    0  0.00000000000E+00  0.00000000000E+00  0.21044867176E+04  0.21044867177E+04  0.50400001928E-02 0. -1.
       -1   -1    0    0    0  501  0.00000000000E+00  0.00000000000E+00 -0.38855002528E+03  0.38855002531E+03  0.50400001928E-02 0.  1.
    10030    2    1    2    0    0  0.00000000000E+00  0.00000000000E+00  0.17159366924E+04  0.24930367430E+04  0.18085335135E+04 0.  0.
        3    1    3    3  502    0  0.34511631281E+03 -0.82840179969E+03  0.10111201407E+04  0.13519314924E+04  0.10100000352E+00 0.  1.
       -3    1    3    3    0  502 -0.34511631281E+03  0.82840179969E+03  0.70481655169E+03  0.11411052505E+04  0.10100000352E+00 0. -1.
</event>
<event>
 5   0  0.3535876E-04  0.1895960E+04  0.7818609E-02  0.8656870E-01
        2   -1    0    0  501    0  0.00000000000E+00  0.00000000000E+00  0.12536152571E+04  0.12536152571E+04  0.25500000920E-02 0. -1.
       -2   -1    0    0    0  501  0.00000000000E+00  0.00000000000E+00 -0.71685920630E+03  0.71685920631E+03  0.25500000920E-02 0.  1.
    10030    2    1    2    0    0  0.00000000000E+00  0.00000000000E+00  0.53675605078E+03  0.19704744634E+04  0.18959595335E+04 0.  0.
        2    1    3    3  502    0  0.22512404521E+03 -0.63295561739E+03  0.96350866810E+03  0.11745903979E+04  0.25500000920E-02 0. -1.
       -2    1    3    3    0  502 -0.22512404521E+03  0.63295561739E+03 -0.42675261732E+03  0.79588406550E+03  0.25500000920E-02 0.  1.
</event>
<event>
 5   0  0.1813834E-04  0.1911398E+04  0.7818609E-02  0.8649203E-01
        1   -1    0    0  501    0  0.00000000000E+00  0.00000000000E+00  0.84243076399E+03  0.84243076400E+03  0.50400001928E-02 0.  1.
       -1   -1    0    0    0  501  0.00000000000E+00  0.00000000000E+00 -0.10841969713E+04  0.10841969713E+04  0.50400001928E-02 0. -1.
    10030    2    1    2    0    0  0.00000000000E+00  0.00000000000E+00 -0.24176620731E+03  0.19266277353E+04  0.19113983184E+04 0.  0.
        5    1    3    3  502    0 -0.64965693775E+03  0.28311104082E+03  0.52542212379E+03  0.88221114047E+03  0.46999998093E+01 0.  1.
       -5    1    3    3    0  502  0.64965693775E+03 -0.28311104082E+03 -0.76718833111E+03  0.10444165948E+04  0.46999998093E+01 0. -1.
</event>
<event>
 5   0  0.1758946E-04  0.2292550E+04  0.7818609E-02  0.8480864E-01
        1   -1    0    0  501    0  0.00000000000E+00  0.00000000000E+00  0.15548819301E+04  0.15548819301E+04  0.50400001928E-02 0. -1.
       -1   -1    0    0    0  501  0.00000000000E+00  0.00000000000E+00 -0.84504593266E+03  0.84504593267E+03  0.50400001928E-02 0.  1.
    10030    2    1    2    0    0  0.00000000000E+00  0.00000000000E+00  0.70983599746E+03  0.23999278628E+04  0.22925502401E+04 0.  0.
        2    1    3    3  502    0 -0.99624834855E+03  0.28865945530E+03 -0.15590401008E+03  0.10488761192E+04  0.25500000920E-02 0.  1.
       -2    1    3    3    0  502  0.99624834855E+03 -0.28865945530E+03  0.86574000754E+03  0.13510517436E+04  0.25500000920E-02 0. -1.
</event>
<event>
 5   0  0.1782613E-04  0.1929668E+04  0.7818609E-02  0.8640228E-01
       -1   -1    0    0    0  501  0.00000000000E+00  0.00000000000E+00  0.52634529857E+03  0.52634529859E+03  0.50400001928E-02 0. -1.
        1   -1    0    0  501    0  0.00000000000E+00  0.00000000000E+00 -0.17686193141E+04  0.17686193141E+04  0.50400001928E-02 0.  1.
    10030    2    1    2    0    0  0.00000000000E+00  0.00000000000E+00 -0.12422740155E+04  0.22949646126E+04  0.19296678066E+04 0.  0.
        3    1    3    3  502    0 -0.20638019276E+03  0.58463026450E+03  0.25808008452E+03  0.67155838939E+03  0.10100000352E+00 0. -1.
       -3    1    3    3    0  502  0.20638019276E+03 -0.58463026450E+03 -0.15003541000E+04  0.16234062233E+04  0.10100000352E+00 0.  1.
</event>
<event>
 5   0  0.3720978E-04  0.1908801E+04  0.7818609E-02  0.8650488E-01
        2   -1    0    0  501    0  0.00000000000E+00  0.00000000000E+00  0.12657977348E+04  0.12657977348E+04  0.25500000920E-02 0. -1.
       -2   -1    0    0    0  501  0.00000000000E+00  0.00000000000E+00 -0.71960976441E+03  0.71960976441E+03  0.25500000920E-02 0.  1.
    10030    2    1    2    0    0  0.00000000000E+00  0.00000000000E+00  0.54618797035E+03  0.19854074992E+04  0.19088010999E+04 0.  0.
        1    1    3    3  502    0  0.53629441983E+03 -0.31530113666E+03  0.10259190520E+04  0.11998068231E+04  0.50400001928E-02 0. -1.
       -1    1    3    3    0  502 -0.53629441983E+03  0.31530113666E+03 -0.47973108164E+03  0.78560067607E+03  0.50400001928E-02 0.  1.
</event>
<event>
 5   0  0.3535876E-04  0.1862897E+04  0.7818609E-02  0.8673549E-01
        2   -1    0    0  501    0  0.00000000000E+00  0.00000000000E+00  0.79524470665E+03  0.79524470666E+03  0.25500000920E-02 0.  1.
       -2   -1    0    0    0  501  0.00000000000E+00  0.00000000000E+00 -0.10909798155E+04  0.10909798155E+04  0.25500000920E-02 0. -1.
    10030    2    1    2    0    0  0.00000000000E+00  0.00000000000E+00 -0.29573510884E+03  0.18862245222E+04  0.18628965869E+04 0.  0.
        2    1    3    3  502    0 -0.42374287257E+03 -0.78433999116E+03  0.12541724853E+03  0.90026481105E+03  0.25500000920E-02 0. -1.
       -2    1    3    3    0  502  0.42374287257E+03  0.78433999116E+03 -0.42115235737E+03  0.98595971110E+03  0.25500000920E-02 0.  1.
</event>
<event>
 5   0  0.1782613E-04  0.1726566E+04  0.7818609E-02  0.8746356E-01
        1   -1    0    0  501    0  0.00000000000E+00  0.00000000000E+00  0.76212759305E+03  0.76212759307E+03  0.50400001928E-02 0.  1.
       -1   -1    0    0    0  501  0.00000000000E+00  0.00000000000E+00 -0.97786454570E+03  0.97786454572E+03  0.50400001928E-02 0. -1.
    10030    2    1    2    0    0  0.00000000000E+00  0.00000000000E+00 -0.21573695265E+03  0.17399921388E+04  0.17265660168E+04 0.  0.
        3    1    3    3  502    0  0.13955564486E+03  0.84957343067E+03 -0.44077355250E+02  0.86208677960E+03  0.10100000352E+00 0. -1.
       -3    1    3    3    0  502 -0.13955564486E+03 -0.84957343067E+03 -0.17165959740E+03  0.87790535919E+03  0.10100000352E+00 0.  1.
</event>
<event>
 5   0  0.3720978E-04  0.1929106E+04  0.7818609E-02  0.8640503E-01
       -2   -1    0    0    0  501  0.00000000000E+00  0.00000000000E+00  0.53034476744E+03  0.53034476745E+03  0.25500000920E-02 0. -1.
        2   -1    0    0  501    0  0.00000000000E+00  0.00000000000E+00 -0.17542591925E+04  0.17542591925E+04  0.25500000920E-02 0.  1.
    10030    2    1    2    0    0  0.00000000000E+00  0.00000000000E+00 -0.12239144250E+04  0.22846039599E+04  0.19291056824E+04 0.  0.
        1    1    3    3  502    0 -0.41848656953E+03 -0.64603244701E+03  0.76428441220E+02  0.77351809166E+03  0.50400001928E-02 0. -1.
       -1    1    3    3    0  502  0.41848656953E+03  0.64603244701E+03 -0.13003428663E+04  0.15110858683E+04  0.50400001928E-02 0.  1.
</event>
<event>
 5   0  0.1694830E-04  0.1900133E+04  0.7818609E-02  0.8654790E-01
        1   -1    0    0  501    0  0.00000000000E+00  0.00000000000E+00  0.15309449784E+04  0.15309449784E+04  0.50400001928E-02 0. -1.
       -1   -1    0    0    0  501  0.00000000000E+00  0.00000000000E+00 -0.58958802096E+03  0.58958802098E+03  0.50400001928E-02 0.  1.
    10030    2    1    2    0    0  0.00000000000E+00  0.00000000000E+00  0.94135695740E+03  0.21205329993E+04  0.19001334901E+04 0.  0.
        1    1    3    3  502    0  0.50772985904E+03 -0.65678238451E+03  0.98630295899E+03  0.12891649380E+04  0.50400001928E-02 0. -1.
       -1    1    3    3    0  502 -0.50772985904E+03  0.65678238451E+03 -0.44946001594E+02  0.83136806136E+03  0.50400001928E-02 0.  1.
</event>
<event>
 5   0  0.1782613E-04  0.1883366E+04  0.7818609E-02  0.8663181E-01
       -1   -1    0    0    0  501  0.00000000000E+00  0.00000000000E+00  0.86031807434E+03  0.86031807435E+03  0.50400001928E-02 0.  1.
        1   -1    0    0  501    0  0.00000000000E+00  0.00000000000E+00 -0.10307427534E+04  0.10307427534E+04  0.50400001928E-02 0. -1.
    10030    2    1    2    0    0  0.00000000000E+00  0.00000000000E+00 -0.17042467902E+03  0.18910608277E+04  0.18833657327E+04 0.  0.
        3    1    3    3  502    0  0.70139755107E+03 -0.13111487220E+03  0.53180389265E+03  0.88992416800E+03  0.10100000352E+00 0.  1.
       -3    1    3    3    0  502 -0.70139755107E+03  0.13111487220E+03 -0.70222857168E+03  0.10011366597E+04  0.10100000352E+00 0. -1.
</event>
<event>
 5   0  0.3516539E-04  0.1896553E+04  0.7818609E-02  0.8656574E-01
        2   -1    0    0  501    0  0.00000000000E+00  0.00000000000E+00  0.11371470834E+04  0.11371470834E+04  0.25500000920E-02 0.  1.
       -2   -1    0    0    0  501  0.00000000000E+00  0.00000000000E+00 -0.79077607551E+03  0.79077607551E+03  0.25500000920E-02 0. -1.
    10030    2    1    2    0    0  0.00000000000E+00  0.00000000000E+00  0.34637100791E+03  0.19279231589E+04  0.18965534086E+04 0.  0.
        4    1    3    3  502    0  0.42000797856E+03  0.55827646820E+03 -0.47862839471E+03  0.84685658179E+03  0.12699999809E+01 0. -1.
       -4    1    3    3    0  502 -0.42000797856E+03 -0.55827646820E+03  0.82499940262E+03  0.10810665771E+04  0.12699999809E+01 0.  1.
</event>
<event>
 5   0  0.1287000E-04  0.1837752E+04  0.7818609E-02  0.8686477E-01
        4   -1    0    0  501    0  0.00000000000E+00  0.00000000000E+00  0.88074513795E+03  0.88074605360E+03  0.12699999809E+01 0. -1.
       -4   -1    0    0    0  501  0.00000000000E+00  0.00000000000E+00 -0.95865590253E+03  0.95865674376E+03  0.12699999809E+01 0.  1.
    10030    2    1    2    0    0  0.00000000000E+00  0.00000000000E+00 -0.77910764580E+02  0.18394027974E+04  0.18377520409E+04 0.  0.
        2    1    3    3  502    0 -0.73101313575E+03 -0.30080051030E+03  0.42994380385E+03  0.89984044481E+03  0.25500000920E-02 0. -1.
       -2    1    3    3    0  502  0.73101313575E+03  0.30080051030E+03 -0.50785456843E+03  0.93956235255E+03  0.25500000920E-02 0.  1.
</event>
<event>
 5   0  0.3720978E-04  0.1852176E+04  0.7818609E-02  0.8679034E-01
        2   -1    0    0  501    0  0.00000000000E+00  0.00000000000E+00  0.18890230440E+04  0.18890230440E+04  0.25500000920E-02 0.  1.
       -2   -1    0    0    0  501  0.00000000000E+00  0.00000000000E+00 -0.45401201606E+03  0.45401201607E+03  0.25500000920E-02 0. -1.
    10030    2    1    2    0    0  0.00000000000E+00  0.00000000000E+00  0.14350110280E+04  0.23430350601E+04  0.18521761910E+04 0.  0.
        1    1    3    3  502    0  0.61589957999E+03  0.56116691340E+03  0.20615275114E+03  0.85833533898E+03  0.50400001928E-02 0. -1.
       -1    1    3    3    0  502 -0.61589957999E+03 -0.56116691340E+03  0.12288582768E+04  0.14846997211E+04  0.50400001928E-02 0.  1.
</event>
<event>
 5   0  0.3623359E-04  0.1910668E+04  0.7818609E-02  0.8649564E-01
        2   -1    0    0  501    0  0.00000000000E+00  0.00000000000E+00  0.11719875799E+04  0.11719875799E+04  0.25500000920E-02 0.  1.
       -2   -1    0    0    0  501  0.00000000000E+00  0.00000000000E+00 -0.77873102357E+03  0.77873102357E+03  0.25500000920E-02 0. -1.
    10030    2    1    2    0    0  0.00000000000E+00  0.00000000000E+00  0.39325655630E+03  0.19507186034E+04  0.19106680378E+04 0.  0.
        5    1    3    3  502    0 -0.89714268548E+03  0.20432965408E+03  0.45896849996E+03  0.10282459723E+04  0.46999998093E+01 0. -1.
       -5    1    3    3    0  502  0.89714268548E+03 -0.20432965408E+03 -0.65711943654E+02  0.92247263113E+03  0.46999998093E+01 0.  1.
</event>
<event>
 5   0  0.3516539E-04  0.1867247E+04  0.7818609E-02  0.8671334E-01
       -2   -1    0    0    0  501  0.00000000000E+00  0.00000000000E+00  0.51810507479E+03  0.51810507480E+03  0.25500000920E-02 0.  1.
        2   -1    0    0  501    0  0.00000000000E+00  0.00000000000E+00 -0.16823856719E+04  0.16823856719E+04  0.25500000920E-02 0. -1.
    10030    2    1    2    0    0  0.00000000000E+00  0.00000000000E+00 -0.11642805971E+04  0.22004907467E+04  0.18672466943E+04 0.  0.
        4    1    3    3  502    0  0.25015362689E+03 -0.23629804308E+03  0.44064332982E+03  0.55909011726E+03  0.12699999809E+01 0.  1.
       -4    1    3    3    0  502 -0.25015362689E+03  0.23629804308E+03 -0.16049239269E+04  0.16414006294E+04  0.12699999809E+01 0. -1.
</event>
<event>
 5   0  0.1782613E-04  0.1335982E+04  0.7818609E-02  0.9001508E-01
        1   -1    0    0  501    0  0.00000000000E+00  0.00000000000E+00  0.43285055354E+03  0.43285055357E+03  0.50400001928E-02 0.  1.
       -1   -1    0    0    0  501  0.00000000000E+00  0.00000000000E+00 -0.10308685439E+04  0.10308685439E+04  0.50400001928E-02 0. -1.
    10030    2    1    2    0    0  0.00000000000E+00  0.00000000000E+00 -0.59801799034E+03  0.14637190975E+04  0.13359820656E+04 0.  0.
        3    1    3    3  502    0 -0.84263130533E+02 -0.73771885811E+02 -0.10205093057E+04  0.10266361671E+04  0.10100000352E+00 0. -1.
       -3    1    3    3    0  502  0.84263130533E+02  0.73771885811E+02  0.42249131535E+03  0.43708293041E+03  0.10100000352E+00 0.  1.
</event>
<event>
 5   0  0.1782613E-04  0.2276709E+04  0.7818609E-02  0.8487162E-01
        1   -1    0    0  501    0  0.00000000000E+00  0.00000000000E+00  0.13812386203E+04  0.13812386203E+04  0.50400001928E-02 0. -1.
       -1   -1    0    0    0  501  0.00000000000E+00  0.00000000000E+00 -0.93817999515E+03  0.93817999516E+03  0.50400001928E-02 0.  1.
    10030    2    1    2    0    0  0.00000000000E+00  0.00000000000E+00  0.44305862516E+03  0.23194186155E+04  0.22767085383E+04 0.  0.
        3    1    3    3  502    0  0.62466440625E+02  0.39856405719E+03 -0.86290906050E+03  0.95255835558E+03  0.10100000352E+00 0.  1.
       -3    1    3    3    0  502 -0.62466440625E+02 -0.39856405719E+03  0.13059676857E+04  0.13668602599E+04  0.10100000352E+00 0. -1.
</event>
<event>
 5   0  0.3459485E-04  0.1903062E+04  0.7818609E-02  0.8653334E-01
        2   -1    0    0  501    0  0.00000000000E+00  0.00000000000E+00  0.24558379896E+04  0.24558379896E+04  0.25500000920E-02 0.  1.
       -2   -1    0    0    0  501  0.00000000000E+00  0.00000000000E+00 -0.36867703873E+03  0.36867703874E+03  0.25500000920E-02 0. -1.
    10030    2    1    2    0    0  0.00000000000E+00  0.00000000000E+00  0.20871609509E+04  0.28245150284E+04  0.19030618252E+04 0.  0.
        3    1    3    3  502    0  0.39136067158E+03 -0.81508785482E+03  0.14835627985E+04  0.17373802041E+04  0.10100000352E+00 0.  1.
       -3    1    3    3    0  502 -0.39136067158E+03  0.81508785482E+03  0.60359815236E+03  0.10871348242E+04  0.10100000352E+00 0. -1.
</event>
<event>
 5   0  0.3516539E-04  0.1860657E+04  0.7818609E-02  0.8674691E-01
       -2   -1    0    0    0  501  0.00000000000E+00  0.00000000000E+00  0.72252476976E+03  0.72252476976E+03  0.25500000920E-02 0. -1.
        2   -1    0    0  501    0  0.00000000000E+00  0.00000000000E+00 -0.11978987457E+04  0.11978987457E+04  0.25500000920E-02 0.  1.
    10030    2    1    2    0    0  0.00000000000E+00  0.00000000000E+00 -0.47537397596E+03  0.19204235155E+04  0.18606574273E+04 0.  0.
        4    1    3    3  502    0 -0.39550913635E+03 -0.60657539213E+03 -0.84052755126E+03  0.11094365059E+04  0.12699999809E+01 0.  1.
       -4    1    3    3    0  502  0.39550913635E+03  0.60657539213E+03  0.36515357530E+03  0.81098700959E+03  0.12699999809E+01 0. -1.
</event>
<event>
 5   0  0.1758946E-04  0.1892607E+04  0.7818609E-02  0.8658545E-01
        1   -1    0    0  501    0  0.00000000000E+00  0.00000000000E+00  0.15828464046E+04  0.15828464046E+04  0.50400001928E-02 0. -1.
       -1   -1    0    0    0  501  0.00000000000E+00  0.00000000000E+00 -0.56574697486E+03  0.56574697489E+03  0.50400001928E-02 0.  1.
    10030    2    1    2    0    0  0.00000000000E+00  0.00000000000E+00  0.10170994297E+04  0.21485933795E+04  0.18926072652E+04 0.  0.
        2    1    3    3  502    0  0.40084805346E+03 -0.25875708709E+03 -0.41920934177E+03  0.63511484341E+03  0.25500000920E-02 0.  1.
       -2    1    3    3    0  502 -0.40084805346E+03  0.25875708709E+03  0.14363087715E+04  0.15134785361E+04  0.25500000920E-02 0. -1.
</event>
<event>
 5   0  0.1694830E-04  0.1845474E+04  0.7818609E-02  0.8682484E-01
        1   -1    0    0  501    0  0.00000000000E+00  0.00000000000E+00  0.23563241876E+04  0.23563241876E+04  0.50400001928E-02 0.  1.
       -1   -1    0    0    0  501  0.00000000000E+00  0.00000000000E+00 -0.36134417417E+03  0.36134417420E+03  0.50400001928E-02 0. -1.
    10030    2    1    2    0    0  0.00000000000E+00  0.00000000000E+00  0.19949800134E+04  0.27176683618E+04  0.18454744839E+04 0.  0.
        1    1    3    3  502    0 -0.25113523263E+02  0.42606231346E+03 -0.20725104942E+03  0.47446051628E+03  0.50400001928E-02 0. -1.
       -1    1    3    3    0  502  0.25113523263E+02 -0.42606231346E+03  0.22022310629E+04  0.22432078455E+04  0.50400001928E-02 0.  1.
</event>
<event>
 5   0  0.1758946E-04  0.1902452E+04  0.7818609E-02  0.8653637E-01
       -1   -1    0    0    0  501  0.00000000000E+00  0.00000000000E+00  0.61716626528E+03  0.61716626530E+03  0.50400001928E-02 0. -1.
        1   -1    0    0  501    0  0.00000000000E+00  0.00000000000E+00 -0.14661051697E+04  0.14661051697E+04  0.50400001928E-02 0.  1.
    10030    2    1    2    0    0  0.00000000000E+00  0.00000000000E+00 -0.84893890445E+03  0.20832714350E+04  0.19024517362E+04 0.  0.
        2    1    3    3  502    0 -0.24838095441E+03  0.74236727385E+03  0.16728937368E+03  0.80049234997E+03  0.25500000920E-02 0. -1.
       -2    1    3    3    0  502  0.24838095441E+03 -0.74236727385E+03 -0.10162282781E+04  0.12827790851E+04  0.25500000920E-02 0.  1.
</event>
<event>
 5   0  0.3516539E-04  0.1887953E+04  0.7818609E-02  0.8660876E-01
        2   -1    0    0  501    0  0.00000000000E+00  0.00000000000E+00  0.26073250721E+04  0.26073250721E+04  0.25500000920E-02 0. -1.
       -2   -1    0    0    0  501  0.00000000000E+00  0.00000000000E+00 -0.34176464611E+03  0.34176464612E+03  0.25500000920E-02 0.  1.
    10030    2    1    2    0    0  0.00000000000E+00  0.00000000000E+00  0.22655604259E+04  0.29490897182E+04  0.18879528920E+04 0.  0.
        4    1    3    3  502    0  0.19224639477E+02 -0.29323900013E+03  0.25340516076E+04  0.25510346648E+04  0.12699999809E+01 0. -1.
       -4    1    3    3    0  502 -0.19224639477E+02  0.29323900013E+03 -0.26849118170E+03  0.39805505337E+03  0.12699999809E+01 0.  1.
</event>
<event>
 5   0  0.3516539E-04  0.1895486E+04  0.7818609E-02  0.8657107E-01
        2   -1    0    0  501    0  0.00000000000E+00  0.00000000000E+00  0.15754179231E+04  0.15754179231E+04  0.25500000920E-02 0. -1.
       -2   -1    0    0    0  501  0.00000000000E+00  0.00000000000E+00 -0.57014484123E+03  0.57014484124E+03  0.25500000920E-02 0.  1.
    10030    2    1    2    0    0  0.00000000000E+00  0.00000000000E+00  0.10052730819E+04  0.21455627644E+04  0.18954855860E+04 0.  0.
        4    1    3    3  502    0 -0.51025533928E+03  0.64319429832E+03 -0.33277718908E+02  0.82168633683E+03  0.12699999809E+01 0.  1.
       -4    1    3    3    0  502  0.51025533928E+03 -0.64319429832E+03  0.10385508008E+04  0.13238764275E+04  0.12699999809E+01 0. -1.
</event>
<event>
 5   0  0.3623359E-04  0.1729482E+04  0.7818609E-02  0.8744726E-01
       -2   -1    0    0    0  501  0.00000000000E+00  0.00000000000E+00  0.53665430417E+03  0.53665430418E+03  0.25500000920E-02 0.  1.
        2   -1    0    0  501    0  0.00000000000E+00  0.00000000000E+00 -0.13934060373E+04  0.13934060373E+04  0.25500000920E-02 0. -1.
    10030    2    1    2    0    0  0.00000000000E+00  0.00000000000E+00 -0.85675173310E+03  0.19300603414E+04  0.17294824051E+04 0.  0.
        5    1    3    3  502    0 -0.39647573505E+03 -0.24836224596E+03 -0.12399583631E+04  0.13252907779E+04  0.46999998093E+01 0. -1.
       -5    1    3    3    0  502  0.39647573505E+03  0.24836224596E+03  0.38320663002E+03  0.60476956355E+03  0.46999998093E+01 0.  1.
</event>
<event>
 5   0  0.1782613E-04  0.1911186E+04  0.7818609E-02  0.8649308E-01
        1   -1    0    0  501    0  0.00000000000E+00  0.00000000000E+00  0.95004258777E+03  0.95004258778E+03  0.50400001928E-02 0. -1.
       -1   -1    0    0    0  501  0.00000000000E+00  0.00000000000E+00 -0.96117621286E+03  0.96117621288E+03  0.50400001928E-02 0.  1.
    10030    2    1    2    0    0  0.00000000000E+00  0.00000000000E+00 -0.11133625095E+02  0.19112188007E+04  0.19111863714E+04 0.  0.
        3    1    3    3  502    0  0.79602879326E+02 -0.80483612418E+03  0.50342170679E+03  0.95264433566E+03  0.10100000352E+00 0. -1.
       -3    1    3    3    0  502 -0.79602879326E+02  0.80483612418E+03 -0.51455533189E+03  0.95857446501E+03  0.10100000352E+00 0.  1.
</event>
<event>
 5   0  0.1758946E-04  0.1841889E+04  0.7818609E-02  0.8684335E-01
       -1   -1    0    0    0  501  0.00000000000E+00  0.00000000000E+00  0.10415059603E+04  0.10415059604E+04  0.50400001928E-02 0.  1.
        1   -1    0    0  501    0  0.00000000000E+00  0.00000000000E+00 -0.81433870030E+03  0.81433870032E+03  0.50400001928E-02 0. -1.
    10030    2    1    2    0    0  0.00000000000E+00  0.00000000000E+00  0.22716726005E+03  0.18558446607E+04  0.18418888242E+04 0.  0.
        2    1    3    3  502    0 -0.20534978598E+03 -0.15987762692E+03 -0.77651760740E+03  0.81896824407E+03  0.25500000920E-02 0. -1.
       -2    1    3    3    0  502  0.20534978598E+03  0.15987762692E+03  0.10036848674E+04  0.10368764166E+04  0.25500000920E-02 0.  1.
</event>
<event>
 5   0  0.3720978E-04  0.1419513E+04  0.7818609E-02  0.8939814E-01
       -2   -1    0    0    0  501  0.00000000000E+00  0.00000000000E+00  0.89774763070E+03  0.89774763070E+03  0.25500000920E-02 0. -1.
        2   -1    0    0  501    0  0.00000000000E+00  0.00000000000E+00 -0.56113154317E+03  0.56113154318E+03  0.25500000920E-02 0.  1.
    10030    2    1    2    0    0  0.00000000000E+00  0.00000000000E+00  0.33661608753E+03  0.14588791739E+04  0.14195133158E+04 0.  0.
        1    1    3    3  502    0 -0.55232713765E+03 -0.44374188892E+03  0.21169710938E+03  0.73945101062E+03  0.50400001928E-02 0. -1.
       -1    1    3    3    0  502  0.55232713765E+03  0.44374188892E+03  0.12491897815E+03  0.71942816326E+03  0.50400001928E-02 0.  1.
</event>
<event>
 5   0  0.1711979E-04  0.1884379E+04  0.7818609E-02  0.8662671E-01
        1   -1    0    0  501    0  0.00000000000E+00  0.00000000000E+00  0.63418215692E+03  0.63418215694E+03  0.50400001928E-02 0.  1.
       -1   -1    0    0    0  501  0.00000000000E+00  0.00000000000E+00 -0.13997889936E+04  0.13997889936E+04  0.50400001928E-02 0. -1.
    10030    2    1    2    0    0  0.00000000000E+00  0.00000000000E+00 -0.76560683672E+03  0.20339711506E+04  0.18843791585E+04 0.  0.
        4    1    3    3  502    0  0.47350241242E+01 -0.92801443196E+03 -0.20713737002E+03  0.95086313912E+03  0.12699999809E+01 0. -1.
       -4    1    3    3    0  502 -0.47350241242E+01  0.92801443196E+03 -0.55846946670E+03  0.10831080115E+04  0.12699999809E+01 0.  1.
</event>
<event>
 5   0  0.3516539E-04  0.2026387E+04  0.7818609E-02  0.8594382E-01
        2   -1    0    0  501    0  0.00000000000E+00  0.00000000000E+00  0.23252635124E+04  0.23252635124E+04  0.25500000920E-02 0.  1.
       -2   -1    0    0    0  501  0.00000000000E+00  0.00000000000E+00 -0.44148152438E+03  0.44148152439E+03  0.25500000920E-02 0. -1.
    10030    2    1    2    0    0  0.00000000000E+00  0.00000000000E+00  0.18837819880E+04  0.27667450368E+04  0.20263868141E+04 0.  0.
        4    1    3    3  502    0  0.74934869701E+02  0.10001696842E+04  0.74590309663E+03  0.12499310679E+04  0.12699999809E+01 0. -1.
       -4    1    3    3    0  502 -0.74934869701E+02 -0.10001696842E+04  0.11378788914E+04  0.15168139689E+04  0.12699999809E+01 0.  1.
</event>
<event>
 5   0  0.1287000E-04  0.1876958E+04  0.7818609E-02  0.8666411E-01
       -3   -1    0    0    0  501  0.00000000000E+00  0.00000000000E+00  0.44213668645E+03  0.44213669798E+03  0.10100000352E+00 0.  1.
        3   -1    0    0  501    0  0.00000000000E+00  0.00000000000E+00 -0.19920153456E+04  0.19920153481E+04  0.10100000352E+00 0. -1.
    10030    2    1    2    0    0  0.00000000000E+00  0.00000000000E+00 -0.15498786591E+04  0.24341520461E+04  0.18769582642E+04 0.  0.
        5    1    3    3  502    0 -0.52939735933E+03  0.32216495264E+03  0.13901961644E+03  0.63513806730E+03  0.46999998093E+01 0.  1.
       -5    1    3    3    0  502  0.52939735933E+03 -0.32216495264E+03 -0.16888982756E+04  0.17990139788E+04  0.46999998093E+01 0. -1.
</event>
<event>
 5   0  0.3535876E-04  0.1862421E+04  0.7818609E-02  0.8673791E-01
       -2   -1    0    0    0  501  0.00000000000E+00  0.00000000000E+00  0.62708657375E+03  0.62708657376E+03  0.25500000920E-02 0. -1.
        2   -1    0    0  501    0  0.00000000000E+00  0.00000000000E+00 -0.13828286906E+04  0.13828286906E+04  0.25500000920E-02 0.  1.
    10030    2    1    2    0    0  0.00000000000E+00  0.00000000000E+00 -0.75574211688E+03  0.20099152644E+04  0.18624213333E+04 0.  0.
        2    1    3    3  502    0  0.61112355186E+03 -0.61309708158E+03 -0.74803651297E+01  0.86568815572E+03  0.25500000920E-02 0.  1.
       -2    1    3    3    0  502 -0.61112355186E+03  0.61309708158E+03 -0.74826175175E+03  0.11442271087E+04  0.25500000920E-02 0. -1.
</event>
<event>
 5   0  0.1711979E-04  0.1736617E+04  0.7818609E-02  0.8740751E-01
        1   -1    0    0  501    0  0.00000000000E+00  0.00000000000E+00  0.12143927798E+04  0.12143927798E+04  0.50400001928E-02 0. -1.
       -1   -1    0    0    0  501  0.00000000000E+00  0.00000000000E+00 -0.62085338747E+03  0.62085338749E+03  0.50400001928E-02 0.  1.
    10030    2    1    2    0    0  0.00000000000E+00  0.00000000000E+00  0.59353939233E+03  0.18352461673E+04  0.17366172533E+04 0.  0.
        4    1    3    3  502    0 -0.31438320398E+03 -0.11213402068E+03 -0.55034615174E+03  0.64365622593E+03  0.12699999809E+01 0.  1.
       -4    1    3    3    0  502  0.31438320398E+03  0.11213402068E+03  0.11438855441E+04  0.11915899414E+04  0.12699999809E+01 0. -1.
</event>
<event>
 5   0  0.3516539E-04  0.1458769E+04  0.7818609E-02  0.8912343E-01
       -2   -1    0    0    0  501  0.00000000000E+00  0.00000000000E+00  0.61496805291E+03  0.61496805292E+03  0.25500000920E-02 0.  1.
        2   -1    0    0  501    0  0.00000000000E+00  0.00000000000E+00 -0.86508869504E+03  0.86508869504E+03  0.25500000920E-02 0. -1.
    10030    2    1    2    0    0  0.00000000000E+00  0.00000000000E+00 -0.25012064213E+03  0.14800567480E+04  0.14587692215E+04 0.  0.
        4    1    3    3  502    0 -0.10254623411E+02  0.70514090564E+03  0.63859591846E+02  0.70810205089E+03  0.12699999809E+01 0.  1.
       -4    1    3    3    0  502  0.10254623411E+02 -0.70514090564E+03 -0.31398023397E+03  0.77195469707E+03  0.12699999809E+01 0. -1.
</event>
<event>
 5   0  0.1782613E-04  0.2019046E+04  0.7818609E-02  0.8597767E-01
        1   -1    0    0  501    0  0.00000000000E+00  0.00000000000E+00  0.14287908258E+04  0.14287908258E+04  0.50400001928E-02 0.  1.
       -1   -1    0    0    0  501  0.00000000000E+00  0.00000000000E+00 -0.71328629077E+03  0.71328629079E+03  0.50400001928E-02 0. -1.
    10030    2    1    2    0    0  0.00000000000E+00  0.00000000000E+00  0.71550453506E+03  0.21420771166E+04  0.20190462189E+04 0.  0.
        3    1    3    3  502    0  0.18956244401E+03 -0.62694465253E+03  0.11727710385E+04  0.13432741479E+04  0.10100000352E+00 0.  1.
       -3    1    3    3    0  502 -0.18956244401E+03  0.62694465253E+03 -0.45726650342E+03  0.79880296874E+03  0.10100000352E+00 0. -1.
</event>
<event>
 5   0  0.3623359E-04  0.2003492E+04  0.7818609E-02  0.8604990E-01
        2   -1    0    0  501    0  0.00000000000E+00  0.00000000000E+00  0.30211208270E+04  0.30211208270E+04  0.25500000920E-02 0. -1.
       -2   -1    0    0    0  501  0.00000000000E+00  0.00000000000E+00 -0.33215985136E+03  0.33215985137E+03  0.25500000920E-02 0.  1.
    10030    2    1    2    0    0  0.00000000000E+00  0.00000000000E+00  0.26889609756E+04  0.33532806783E+04  0.20034919963E+04 0.  0.
        5    1    3    3  502    0 -0.89821985672E+03 -0.23601995301E+03  0.19728911246E+04  0.21805563071E+04  0.46999998093E+01 0.  1.
       -5    1    3    3    0  502  0.89821985672E+03  0.23601995301E+03  0.71606985103E+03  0.11727243712E+04  0.46999998093E+01 0. -1.
</event>
<event>
 5   0  0.3623359E-04  0.1894551E+04  0.7818609E-02  0.8657573E-01
        2   -1    0    0  501    0  0.00000000000E+00  0.00000000000E+00  0.13132973354E+04  0.13132973354E+04  0.25500000920E-02 0. -1.
       -2   -1    0    0    0  501  0.00000000000E+00  0.00000000000E+00 -0.68326580833E+03  0.68326580834E+03  0.25500000920E-02 0.  1.
    10030    2    1    2    0    0  0.00000000000E+00  0.00000000000E+00  0.63003152710E+03  0.19965631438E+04  0.18945513089E+04 0.  0.
        5    1    3    3  502    0  0.67629869987E+03 -0.51891113492E+03 -0.12033872867E+03  0.86090196713E+03  0.46999998093E+01 0.  1.
       -5    1    3    3    0  502 -0.67629869987E+03  0.51891113492E+03  0.75037025577E+03  0.11356611766E+04  0.46999998093E+01 0. -1.
</event>
<event>
 5   0  0.3720978E-04  0.1869879E+04  0.7818609E-02  0.8669997E-01
        2   -1    0    0  501    0  0.00000000000E+00  0.00000000000E+00  0.11519297142E+04  0.11519297142E+04  0.25500000920E-02 0. -1.
       -2   -1    0    0    0  501  0.00000000000E+00  0.00000000000E+00 -0.75882373637E+03  0.75882373637E+03  0.25500000920E-02 0.  1.
    10030    2    1    2    0    0  0.00000000000E+00  0.00000000000E+00  0.39310597787E+03  0.19107534506E+04  0.18698787231E+04 0.  0.
        1    1    3    3  502    0  0.44312339363E+03  0.57576626717E+03  0.79784286542E+03  0.10790821907E+04  0.50400001928E-02 0. -1.
       -1    1    3    3    0  502 -0.44312339363E+03 -0.57576626717E+03 -0.40473688754E+03  0.83167125991E+03  0.50400001928E-02 0.  1.
</event>
<event>
 5   0  0.1711979E-04  0.2115044E+04  0.7818609E-02  0.8554645E-01
       -1   -1    0    0    0  501  0.00000000000E+00  0.00000000000E+00  0.93884265020E+03  0.93884265021E+03  0.50400001928E-02 0.  1.
        1   -1    0    0  501    0  0.00000000000E+00  0.00000000000E+00 -0.11912035312E+04  0.11912035312E+04  0.50400001928E-02 0. -1.
    10030    2    1    2    0    0  0.00000000000E+00  0.00000000000E+00 -0.25236088101E+03  0.21300461814E+04  0.21150439052E+04 0.  0.
        4    1    3    3  502    0 -0.59665389899E+03 -0.51826810202E+03  0.58147959068E+03  0.98118185268E+03  0.12699999809E+01 0.  1.
       -4    1    3    3    0  502  0.59665389899E+03  0.51826810202E+03 -0.83384047169E+03  0.11488643288E+04  0.12699999809E+01 0. -1.
</event>
<event>
 5   0  0.1782613E-04  0.1885581E+04  0.7818609E-02  0.8662067E-01
        1   -1    0    0  501    0  0.00000000000E+00  0.00000000000E+00  0.10245563662E+04  0.10245563662E+04  0.50400001928E-02 0. -1.
       -1   -1    0    0    0  501  0.00000000000E+00  0.00000000000E+00 -0.86754976251E+03  0.86754976253E+03  0.50400001928E-02 0.  1.
    10030    2    1    2    0    0  0.00000000000E+00  0.00000000000E+00  0.15700660370E+03  0.18921061288E+04  0.18855806874E+04 0.  0.
        3    1    3    3  502    0 -0.60378973134E+03  0.77445071943E+02  0.80092103159E+03  0.10059991490E+04  0.10100000352E+00 0. -1.
       -3    1    3    3    0  502  0.60378973134E+03 -0.77445071943E+02 -0.64391442789E+03  0.88610697971E+03  0.10100000352E+00 0.  1.
</event>
<event>
 5   0  0.1782613E-04  0.1894952E+04  0.7818609E-02  0.8657373E-01
        1   -1    0    0  501    0  0.00000000000E+00  0.00000000000E+00  0.77396454327E+03  0.77396454329E+03  0.50400001928E-02 0. -1.
       -1   -1    0    0    0  501  0.00000000000E+00  0.00000000000E+00 -0.11598863310E+04  0.11598863310E+04  0.50400001928E-02 0.  1.
    10030    2    1    2    0    0  0.00000000000E+00  0.00000000000E+00 -0.38592178773E+03  0.19338508743E+04  0.18949521307E+04 0.  0.
        3    1    3    3  502    0  0.51851115754E+03 -0.27348035311E+03 -0.95259650441E+03  0.11185193045E+04  0.10100000352E+00 0.  1.
       -3    1    3    3    0  502 -0.51851115754E+03  0.27348035311E+03  0.56667471668E+03  0.81533156983E+03  0.10100000352E+00 0. -1.
</event>
<event>
 5   0  0.3516539E-04  0.1914947E+04  0.7818609E-02  0.8647452E-01
       -2   -1    0    0    0  501  0.00000000000E+00  0.00000000000E+00  0.80339668779E+03  0.80339668780E+03  0.25500000920E-02 0. -1.
        2   -1    0    0  501    0  0.00000000000E+00  0.00000000000E+00 -0.11410995688E+04  0.11410995688E+04  0.25500000920E-02 0.  1.
    10030    2    1    2    0    0  0.00000000000E+00  0.00000000000E+00 -0.33770288103E+03  0.19444962566E+04  0.19149471158E+04 0.  0.
        4    1    3    3  502    0 -0.84279116910E+03 -0.26600466239E+02 -0.62944692969E+03  0.10522402719E+04  0.12699999809E+01 0.  1.
       -4    1    3    3    0  502  0.84279116910E+03  0.26600466239E+02  0.29174404866E+03  0.89225598476E+03  0.12699999809E+01 0. -1.
</event>
<event>
 5   0  0.1813834E-04  0.1874679E+04  0.7818609E-02  0.8667564E-01
       -1   -1    0    0    0  501  0.00000000000E+00  0.00000000000E+00  0.80765467205E+03  0.80765467207E+03  0.50400001928E-02 0. -1.
        1   -1    0    0  501    0  0.00000000000E+00  0.00000000000E+00 -0.10878474131E+04  0.10878474131E+04  0.50400001928E-02 0.  1.
    10030    2    1    2    0    0  0.00000000000E+00  0.00000000000E+00 -0.28019274106E+03  0.18955020852E+04  0.18746786879E+04 0.  0.
        5    1    3    3  502    0 -0.58830955084E+03 -0.61582074404E+03 -0.53590292786E+03  0.10062590891E+04  0.46999998093E+01 0.  1.
       -5    1    3    3    0  502  0.58830955084E+03  0.61582074404E+03  0.25571018680E+03  0.88924299605E+03  0.46999998093E+01 0. -1.
</event>
<event>
 5   0  0.1711979E-04  0.1902674E+04  0.7818609E-02  0.8653526E-01
        1   -1    0    0  501    0  0.00000000000E+00  0.00000000000E+00  0.15989309016E+04  0.15989309016E+04  0.50400001928E-02 0. -1.
       -1   -1    0    0    0  501  0.00000000000E+00  0.00000000000E+00 -0.56602976406E+03  0.56602976408E+03  0.50400001928E-02 0.  1.
    10030    2    1    2    0    0  0.00000000000E+00  0.00000000000E+00  0.10329011375E+04  0.21649606657E+04  0.19026744136E+04 0.  0.
        4    1    3    3  502    0 -0.75007701553E+03  0.54411368050E+03  0.27144064847E+03  0.96558628049E+03  0.12699999809E+01 0.  1.
       -4    1    3    3    0  502  0.75007701553E+03 -0.54411368050E+03  0.76146048905E+03  0.11993743852E+04  0.12699999809E+01 0. -1.
</event>
<event>
 5   0  0.1758946E-04  0.1921875E+04  0.7818609E-02  0.8644044E-01
       -1   -1    0    0    0  501  0.00000000000E+00  0.00000000000E+00  0.69109195072E+03  0.69109195074E+03  0.50400001928E-02 0.  1.
        1   -1    0    0  501    0  0.00000000000E+00  0.00000000000E+00 -0.13361479910E+04  0.13361479910E+04  0.50400001928E-02 0. -1.
    10030    2    1    2    0    0  0.00000000000E+00  0.00000000000E+00 -0.64505604027E+03  0.20272399417E+04  0.19218752525E+04 0.  0.
        2    1    3    3  502    0  0.77155379931E+02 -0.87041403378E+03  0.99174134412E+02  0.87943678101E+03  0.25500000920E-02 0. -1.
       -2    1    3    3    0  502 -0.77155379931E+02  0.87041403378E+03 -0.74423017468E+03  0.11478031607E+04  0.25500000920E-02 0.  1.
</event>
<event>
 5   0  0.3459485E-04  0.1939341E+04  0.7818609E-02  0.8635518E-01
        2   -1    0    0  501    0  0.00000000000E+00  0.00000000000E+00  0.41614752574E+03  0.41614752574E+03  0.25500000920E-02 0.  1.
       -2   -1    0    0    0  501  0.00000000000E+00  0.00000000000E+00 -0.22594414602E+04  0.22594414602E+04  0.25500000920E-02 0. -1.
    10030    2    1    2    0    0  0.00000000000E+00  0.00000000000E+00 -0.18432939344E+04  0.26755889859E+04  0.19393410976E+04 0.  0.
        3    1    3    3  502    0 -0.44309219180E+03  0.84557813130E+03 -0.11562986244E+04  0.14994530955E+04  0.10100000352E+00 0. -1.
       -3    1    3    3    0  502  0.44309219180E+03 -0.84557813130E+03 -0.68699531003E+03  0.11761358904E+04  0.10100000352E+00 0.  1.
</event>
<event>
 5   0  0.3516539E-04  0.1878049E+04  0.7818609E-02  0.8665860E-01
       -2   -1    0    0    0  501  0.00000000000E+00  0.00000000000E+00  0.85946859624E+03  0.85946859625E+03  0.25500000920E-02 0.  1.
        2   -1    0    0  501    0  0.00000000000E+00  0.00000000000E+00 -0.10259447582E+04  0.10259447582E+04  0.25500000920E-02 0. -1.
    10030    2    1    2    0    0  0.00000000000E+00  0.00000000000E+00 -0.16647616194E+03  0.18854133544E+04  0.18780493083E+04 0.  0.
        4    1    3    3  502    0 -0.17056437532E+03 -0.37858273403E+03 -0.92876890586E+03  0.10173644313E+04  0.12699999809E+01 0. -1.
       -4    1    3    3    0  502  0.17056437532E+03  0.37858273403E+03  0.76229274393E+03  0.86804892315E+03  0.12699999809E+01 0.  1.
</event>
<event>
 5   0  0.3720978E-04  0.1862374E+04  0.7818609E-02  0.8673815E-01
        2   -1    0    0  501    0  0.00000000000E+00  0.00000000000E+00  0.85289860949E+03  0.85289860949E+03  0.25500000920E-02 0.  1.
       -2   -1    0    0    0  501  0.00000000000E+00  0.00000000000E+00 -0.10166613215E+04  0.10166613215E+04  0.25500000920E-02 0. -1.
    10030    2    1    2    0    0  0.00000000000E+00  0.00000000000E+00 -0.16376271197E+03  0.18695599310E+04  0.18623737835E+04 0.  0.
        1    1    3    3  502    0  0.31584501281E+03 -0.49080482459E+03 -0.81025778513E+03  0.99858155718E+03  0.50400001928E-02 0. -1.
       -1    1    3    3    0  502 -0.31584501281E+03  0.49080482459E+03  0.64649507315E+03  0.87097837378E+03  0.50400001928E-02 0.  1.
</event>
<event>
 5   0  0.3459485E-04  0.1883252E+04  0.7818609E-02  0.8663238E-01
       -2   -1    0    0    0  501  0.00000000000E+00  0.00000000000E+00  0.73762402908E+03  0.73762402909E+03  0.25500000920E-02 0. -1.
        2   -1    0    0  501    0  0.00000000000E+00  0.00000000000E+00 -0.12020475121E+04  0.12020475121E+04  0.25500000920E-02 0.  1.
    10030    2    1    2    0    0  0.00000000000E+00  0.00000000000E+00 -0.46442348302E+03  0.19396715412E+04  0.18832515807E+04 0.  0.
        3    1    3    3  502    0  0.48040092305E+03  0.40690952795E+03 -0.95340262415E+03  0.11425134506E+04  0.10100000352E+00 0.  1.
       -3    1    3    3    0  502 -0.48040092305E+03 -0.40690952795E+03  0.48897914112E+03  0.79715809063E+03  0.10100000352E+00 0. -1.
</event>
<event>
 5   0  0.1813834E-04  0.1851613E+04  0.7818609E-02  0.8679324E-01
       -1   -1    0    0    0  501  0.00000000000E+00  0.00000000000E+00  0.11738273495E+04  0.11738273495E+04  0.50400001928E-02 0. -1.
        1   -1    0    0  501    0  0.00000000000E+00  0.00000000000E+00 -0.73019064707E+03  0.73019064709E+03  0.50400001928E-02 0.  1.
    10030    2    1    2    0    0  0.00000000000E+00  0.00000000000E+00  0.44363670238E+03  0.19040179966E+04  0.18516130826E+04 0.  0.
        5    1    3    3  502    0 -0.43303382473E+03 -0.56079381848E+03 -0.39093909764E+03  0.80923634883E+03  0.46999998093E+01 0.  1.
       -5    1    3    3    0  502  0.43303382473E+03  0.56079381848E+03  0.83457580002E+03  0.10947816477E+04  0.46999998093E+01 0. -1.
</event>
<event>
 5   0  0.1711979E-04  0.1906146E+04  0.7818609E-02  0.8651803E-01
        1   -1    0    0  501    0  0.00000000000E+00  0.00000000000E+00  0.24493669131E+04  0.24493669131E+04  0.50400001928E-02 0. -1.
       -1   -1    0    0    0  501  0.00000000000E+00  0.00000000000E+00 -0.37085000055E+03  0.37085000058E+03  0.50400001928E-02 0.  1.
    10030    2    1    2    0    0  0.00000000000E+00  0.00000000000E+00  0.20785169126E+04  0.28202169137E+04  0.19061455570E+04 0.  0.
        4    1    3    3  502    0  0.14578039444E+03 -0.91081970224E+03  0.68447233429E+03  0.11486289404E+04  0.12699999809E+01 0. -1.
       -4    1    3    3    0  502 -0.14578039444E+03  0.91081970224E+03  0.13940445783E+04  0.16715879733E+04  0.12699999809E+01 0.  1.
</event>
<event>
 5   0  0.1813834E-04  0.1896889E+04  0.7818609E-02  0.8656406E-01
        1   -1    0    0  501    0  0.00000000000E+00  0.00000000000E+00  0.66029228316E+03  0.66029228318E+03  0.50400001928E-02 0. -1.
       -1   -1    0    0    0  501  0.00000000000E+00  0.00000000000E+00 -0.13623467945E+04  0.13623467945E+04  0.50400001928E-02 0.  1.
    10030    2    1    2    0    0  0.00000000000E+00  0.00000000000E+00 -0.70205451136E+03  0.20226390777E+04  0.18968891116E+04 0.  0.
        5    1    3    3  502    0 -0.45300405158E+03  0.99574603922E+02  0.53109862930E+03  0.70513517607E+03  0.46999998093E+01 0. -1.
       -5    1    3    3    0  502  0.45300405158E+03 -0.99574603922E+02 -0.12331531407E+04  0.13175039016E+04  0.46999998093E+01 0.  1.
</event>
<event>
 5   0  0.1694830E-04  0.1879972E+04  0.7818609E-02  0.8664890E-01
       -1   -1    0    0    0  501  0.00000000000E+00  0.00000000000E+00  0.80319414538E+03  0.80319414539E+03  0.50400001928E-02 0. -1.
        1   -1    0    0  501    0  0.00000000000E+00  0.00000000000E+00 -0.11000753165E+04  0.11000753165E+04  0.50400001928E-02 0.  1.
    10030    2    1    2    0    0  0.00000000000E+00  0.00000000000E+00 -0.29688117115E+03  0.19032694619E+04  0.18799723974E+04 0.  0.
        1    1    3    3  502    0 -0.17009993727E+03  0.73645577087E+03 -0.71417942909E+03  0.10398814106E+04  0.50400001928E-02 0.  1.
       -1    1    3    3    0  502  0.17009993727E+03 -0.73645577087E+03  0.41729825794E+03  0.86338805135E+03  0.50400001928E-02 0. -1.
</event>
<event>
 5   0  0.3516539E-04  0.1897149E+04  0.7818609E-02  0.8656277E-01
        2   -1    0    0  501    0  0.00000000000E+00  0.00000000000E+00  0.22517952435E+04  0.22517952435E+04  0.25500000920E-02 0. -1.
       -2   -1    0    0    0  501  0.00000000000E+00  0.00000000000E+00 -0.39958950104E+03  0.39958950105E+03  0.25500000920E-02 0.  1.
    10030    2    1    2    0    0  0.00000000000E+00  0.00000000000E+00  0.18522057424E+04  0.26513847445E+04  0.18971491642E+04 0.  0.
        4    1    3    3  502    0  0.73763382890E+01 -0.19337640922E+03 -0.37170787438E+03  0.41906706240E+03  0.12699999809E+01 0.  1.
       -4    1    3    3    0  502 -0.73763382890E+01  0.19337640922E+03  0.22239136168E+04  0.22323176821E+04  0.12699999809E+01 0. -1.
</event>
<event>
 5   0  0.3720978E-04  0.1875561E+04  0.7818609E-02  0.8667118E-01
       -2   -1    0    0    0  501  0.00000000000E+00  0.00000000000E+00  0.96029347337E+03  0.96029347337E+03  0.25500000920E-02 0.  1.
        2   -1    0    0  501    0  0.00000000000E+00  0.00000000000E+00 -0.91579575046E+03  0.91579575046E+03  0.25500000920E-02 0. -1.
    10030    2    1    2    0    0  0.00000000000E+00  0.00000000000E+00  0.44497722908E+02  0.18760892238E+04  0.18755614435E+04 0.  0.
        1    1    3    3  502    0  0.10885595890E+03 -0.77787481570E+03 -0.49023683099E+03  0.92588930179E+03  0.50400001928E-02 0. -1.
       -1    1    3    3    0  502 -0.10885595890E+03  0.77787481570E+03  0.53473455390E+03  0.95019992204E+03  0.50400001928E-02 0.  1.
</event>
<event>
 5   0  0.3535876E-04  0.1963201E+04  0.7818609E-02  0.8624021E-01
       -2   -1    0    0    0  501  0.00000000000E+00  0.00000000000E+00  0.61002376623E+03  0.61002376623E+03  0.25500000920E-02 0.  1.
        2   -1    0    0  501    0  0.00000000000E+00  0.00000000000E+00 -0.15795117607E+04  0.15795117607E+04  0.25500000920E-02 0. -1.
    10030    2    1    2    0    0  0.00000000000E+00  0.00000000000E+00 -0.96948799444E+03  0.21895355269E+04  0.19632011747E+04 0.  0.
        2    1    3    3  502    0  0.71003297404E+03 -0.22584222255E+03 -0.11974719184E+04  0.14103512077E+04  0.25500000920E-02 0. -1.
       -2    1    3    3    0  502 -0.71003297404E+03  0.22584222255E+03  0.22798392394E+03  0.77918431921E+03  0.25500000920E-02 0.  1.
</event>
<event>
 5   0  0.1782613E-04  0.1416975E+04  0.7818609E-02  0.8941622E-01
        1   -1    0    0  501    0  0.00000000000E+00  0.00000000000E+00  0.11912680532E+04  0.11912680532E+04  0.50400001928E-02 0.  1.
       -1   -1    0    0    0  501  0.00000000000E+00  0.00000000000E+00 -0.42136180550E+03  0.42136180553E+03  0.50400001928E-02 0. -1.
    10030    2    1    2    0    0  0.00000000000E+00  0.00000000000E+00  0.76990624770E+03  0.16126298587E+04  0.14169754518E+04 0.  0.
        3    1    3    3  502    0  0.26285554439E+03  0.62775650795E+03  0.60908121972E+03  0.91331879041E+03  0.10100000352E+00 0.  1.
       -3    1    3    3    0  502 -0.26285554439E+03 -0.62775650795E+03  0.16082502798E+03  0.69931106834E+03  0.10100000352E+00 0. -1.
</event>
<event>
 5   0  0.3459485E-04  0.1936793E+04  0.7818609E-02  0.8636756E-01
       -2   -1    0    0    0  501  0.00000000000E+00  0.00000000000E+00  0.38744788832E+03  0.38744788833E+03  0.25500000920E-02 0.  1.
        2   -1    0    0  501    0  0.00000000000E+00  0.00000000000E+00 -0.24204345396E+04  0.24204345396E+04  0.25500000920E-02 0. -1.
    10030    2    1    2    0    0  0.00000000000E+00  0.00000000000E+00 -0.20329866513E+04  0.28078824280E+04  0.19367934853E+04 0.  0.
        3    1    3    3  502    0  0.24198592135E+03 -0.65358660432E+03 -0.41742853479E+02  0.69819417894E+03  0.10100000352E+00 0.  1.
       -3    1    3    3    0  502 -0.24198592135E+03  0.65358660432E+03 -0.19912437978E+04  0.21096882490E+04  0.10100000352E+00 0. -1.
</event>
<event>
 5   0  0.3623359E-04  0.1891069E+04  0.7818609E-02  0.8659315E-01
        2   -1    0    0  501    0  0.00000000000E+00  0.00000000000E+00  0.11460188123E+04  0.11460188123E+04  0.25500000920E-02 0. -1.
       -2   -1    0    0    0  501  0.00000000000E+00  0.00000000000E+00 -0.78012260666E+03  0.78012260667E+03  0.25500000920E-02 0.  1.
    10030    2    1    2    0    0  0.00000000000E+00  0.00000000000E+00  0.36589620565E+03  0.19261414190E+04  0.18910686747E+04 0.  0.
        5    1    3    3  502    0  0.42751731764E+03 -0.63566117155E+03  0.74746267112E+03  0.10703077672E+04  0.46999998093E+01 0. -1.
       -5    1    3    3    0  502 -0.42751731764E+03  0.63566117155E+03 -0.38156646546E+03  0.85583365175E+03  0.46999998093E+01 0.  1.
</event>
<event>
 5   0  0.3720978E-04  0.1940007E+04  0.7818609E-02  0.8635195E-01
        2   -1    0    0  501    0  0.00000000000E+00  0.00000000000E+00  0.35551206248E+03  0.35551206249E+03  0.25500000920E-02 0. -1.
       -2   -1    0    0    0  501  0.00000000000E+00  0.00000000000E+00 -0.26466248471E+04  0.26466248471E+04  0.25500000920E-02 0.  1.
    10030    2    1    2    0    0  0.00000000000E+00  0.00000000000E+00 -0.22911127846E+04  0.30021369096E+04  0.19400072763E+04 0.  0.
        1    1    3    3  502    0 -0.53885632081E+02  0.38786498007E+03  0.22775842407E+03  0.45300861346E+03  0.50400001928E-02 0. -1.
       -1    1    3    3    0  502  0.53885632081E+02 -0.38786498007E+03 -0.25188712087E+04  0.25491282961E+04  0.50400001928E-02 0.  1.
</event>
<event>
 5   0  0.1782613E-04  0.1848928E+04  0.7818609E-02  0.8680704E-01
       -1   -1    0    0    0  501  0.00000000000E+00  0.00000000000E+00  0.55966518634E+03  0.55966518636E+03  0.50400001928E-02 0.  1.
        1   -1    0    0  501    0  0.00000000000E+00  0.00000000000E+00 -0.15270451598E+04  0.15270451598E+04  0.50400001928E-02 0. -1.
    10030    2    1    2    0    0  0.00000000000E+00  0.00000000000E+00 -0.96737997349E+03  0.20867103462E+04  0.18489283534E+04 0.  0.
        3    1    3    3  502    0 -0.68066285179E+03  0.59209593911E+03 -0.71152989170E+03  0.11489796847E+04  0.10100000352E+00 0.  1.
       -3    1    3    3    0  502  0.68066285179E+03 -0.59209593911E+03 -0.25585008179E+03  0.93773066148E+03  0.10100000352E+00 0. -1.
</event>
<event>
 5   0  0.1711979E-04  0.1959592E+04  0.7818609E-02  0.8625749E-01
       -1   -1    0    0    0  501  0.00000000000E+00  0.00000000000E+00  0.15606887844E+04  0.15606887844E+04  0.50400001928E-02 0. -1.
        1   -1    0    0  501    0  0.00000000000E+00  0.00000000000E+00 -0.61511328698E+03  0.61511328700E+03  0.50400001928E-02 0.  1.
    10030    2    1    2    0    0  0.00000000000E+00  0.00000000000E+00  0.94557549738E+03  0.21758020714E+04  0.19595922108E+04 0.  0.
        4    1    3    3  502    0  0.19786152252E+03 -0.89778211950E+03  0.84905322484E+03  0.12514211552E+04  0.12699999809E+01 0. -1.
       -4    1    3    3    0  502 -0.19786152252E+03  0.89778211950E+03  0.96522272547E+02  0.92438091617E+03  0.12699999809E+01 0.  1.
</event>
<event>
 5   0  0.1782613E-04  0.1844444E+04  0.7818609E-02  0.8683015E-01
       -1   -1    0    0    0  501  0.00000000000E+00  0.00000000000E+00  0.10121504620E+04  0.10121504620E+04  0.50400001928E-02 0.  1.
        1   -1    0    0  501    0  0.00000000000E+00  0.00000000000E+00 -0.84028334639E+03  0.84028334641E+03  0.50400001928E-02 0. -1.
    10030    2    1    2    0    0  0.00000000000E+00  0.00000000000E+00  0.17186711558E+03  0.18524338084E+04  0.18444437397E+04 0.  0.
        3    1    3    3  502    0  0.90924332571E+03 -0.45590823948E+02 -0.61983840789E+02  0.91249326316E+03  0.10100000352E+00 0.  1.
       -3    1    3    3    0  502 -0.90924332571E+03  0.45590823948E+02  0.23385095636E+03  0.93994054524E+03  0.10100000352E+00 0. -1.
</event>
<event>
 5   0  0.3516539E-04  0.1875503E+04  0.7818609E-02  0.8667147E-01
        2   -1    0    0  501    0  0.00000000000E+00  0.00000000000E+00  0.10404141498E+04  0.10404141498E+04  0.25500000920E-02 0.  1.
       -2   -1    0    0    0  501  0.00000000000E+00  0.00000000000E+00 -0.84521906525E+03  0.84521906525E+03  0.25500000920E-02 0. -1.
    10030    2    1    2    0    0  0.00000000000E+00  0.00000000000E+00  0.19519508451E+03  0.18856332150E+04  0.18755029993E+04 0.  0.
        4    1    3    3  502    0 -0.10240029303E+03 -0.83138460473E+03  0.52140739553E+03  0.98668813007E+03  0.12699999809E+01 0.  1.
       -4    1    3    3    0  502  0.10240029303E+03  0.83138460473E+03 -0.32621231102E+03  0.89894508495E+03  0.12699999809E+01 0. -1.
</event>
<event>
 5   0  0.3623359E-04  0.1897245E+04  0.7818609E-02  0.8656229E-01
        2   -1    0    0  501    0  0.00000000000E+00  0.00000000000E+00  0.19633304666E+04  0.19633304666E+04  0.25500000920E-02 0. -1.
       -2   -1    0    0    0  501  0.00000000000E+00  0.00000000000E+00 -0.45834618823E+03  0.45834618824E+03  0.25500000920E-02 0.  1.
    10030    2    1    2    0    0  0.00000000000E+00  0.00000000000E+00  0.15049842783E+04  0.24216766548E+04  0.18972454091E+04 0.  0.
        5    1    3    3  502    0  0.36051803885E+03  0.40644978507E+03 -0.24007161880E+03  0.59399592278E+03  0.46999998093E+01 0.  1.
       -5    1    3    3    0  502 -0.36051803885E+03 -0.40644978507E+03  0.17450558971E+04  0.18276807320E+04  0.46999998093E+01 0. -1.
</event>
<event>
 5   0  0.3535876E-04  0.1892888E+04  0.7818609E-02  0.8658404E-01
        2   -1    0    0  501    0  0.00000000000E+00  0.00000000000E+00  0.11458289720E+04  0.11458289720E+04  0.25500000920E-02 0. -1.
       -2   -1    0    0    0  501  0.00000000000E+00  0.00000000000E+00 -0.78175406708E+03  0.78175406708E+03  0.25500000920E-02 0.  1.
    10030    2    1    2    0    0  0.00000000000E+00  0.00000000000E+00  0.36407490496E+03  0.19275830391E+04  0.18928882260E+04 0.  0.
        2    1    3    3  502    0 -0.52012540498E+03  0.70541878809E+03 -0.18173607028E+03  0.89508329374E+03  0.25500000920E-02 0.  1.
       -2    1    3    3    0  502  0.52012540498E+03 -0.70541878809E+03  0.54581097524E+03  0.10324997454E+04  0.25500000920E-02 0. -1.
</event>
<event>
 5   0  0.3459485E-04  0.1977300E+04  0.7818609E-02  0.8617308E-01
       -2   -1    0    0    0  501  0.00000000000E+00  0.00000000000E+00  0.95931308472E+03  0.95931308473E+03  0.25500000920E-02 0.  1.
        2   -1    0    0  501    0  0.00000000000E+00  0.00000000000E+00 -0.10188845162E+04  0.10188845162E+04  0.25500000920E-02 0. -1.
    10030    2    1    2    0    0  0.00000000000E+00  0.00000000000E+00 -0.59571431451E+02  0.19781976009E+04  0.19773004306E+04 0.  0.
        3    1    3    3  502    0  0.85119654516E+03  0.49349391109E+03 -0.12656346494E+03  0.99201316505E+03  0.10100000352E+00 0.  1.
       -3    1    3    3    0  502 -0.85119654516E+03 -0.49349391109E+03  0.66992033492E+02  0.98618443585E+03  0.10100000352E+00 0. -1.
</event>
<event>
 5   0  0.3535876E-04  0.1921862E+04  0.7818609E-02  0.8644050E-01
        2   -1    0    0  501    0  0.00000000000E+00  0.00000000000E+00  0.19784092218E+04  0.19784092218E+04  0.25500000920E-02 0. -1.
       -2   -1    0    0    0  501  0.00000000000E+00  0.00000000000E+00 -0.46673257349E+03  0.46673257350E+03  0.25500000920E-02 0.  1.
    10030    2    1    2    0    0  0.00000000000E+00  0.00000000000E+00  0.15116766483E+04  0.24451417953E+04  0.19218616262E+04 0.  0.
        2    1    3    3  502    0 -0.62933804573E+03  0.32393054663E+03 -0.71035194210E+02  0.71136725653E+03  0.25500000920E-02 0.  1.
       -2    1    3    3    0  502  0.62933804573E+03 -0.32393054663E+03  0.15827118425E+04  0.17337745388E+04  0.25500000920E-02 0. -1.
</event>
<event>
 5   0  0.3459485E-04  0.1870206E+04  0.7818609E-02  0.8669830E-01
        2   -1    0    0  501    0  0.00000000000E+00  0.00000000000E+00  0.20899200123E+04  0.20899200123E+04  0.25500000920E-02 0. -1.
       -2   -1    0    0    0  501  0.00000000000E+00  0.00000000000E+00 -0.41839770955E+03  0.41839770956E+03  0.25500000920E-02 0.  1.
    10030    2    1    2    0    0  0.00000000000E+00  0.00000000000E+00  0.16715223027E+04  0.25083177218E+04  0.18702061344E+04 0.  0.
        3    1    3    3  502    0 -0.12717902968E+03  0.83177925252E+03  0.13828427657E+04  0.16187295498E+04  0.10100000352E+00 0. -1.
       -3    1    3    3    0  502  0.12717902968E+03 -0.83177925252E+03  0.28867953699E+03  0.88958817202E+03  0.10100000352E+00 0.  1.
</event>
<event>
 5   0  0.3459485E-04  0.1876994E+04  0.7818609E-02  0.8666393E-01
        2   -1    0    0  501    0  0.00000000000E+00  0.00000000000E+00  0.87367093018E+03  0.87367093019E+03  0.25500000920E-02 0.  1.
       -2   -1    0    0    0  501  0.00000000000E+00  0.00000000000E+00 -0.10081334945E+04  0.10081334945E+04  0.25500000920E-02 0. -1.
    10030    2    1    2    0    0  0.00000000000E+00  0.00000000000E+00 -0.13446256427E+03  0.18818044246E+04  0.18769943291E+04 0.  0.
        3    1    3    3  502    0  0.29409359310E+03 -0.82584419492E+03  0.26869041165E+03  0.91689924382E+03  0.10100000352E+00 0.  1.
       -3    1    3    3    0  502 -0.29409359310E+03  0.82584419492E+03 -0.40315297593E+03  0.96490518083E+03  0.10100000352E+00 0. -1.
</event>
<event>
 5   0  0.3516539E-04  0.2123769E+04  0.7818609E-02  0.8550845E-01
        2   -1    0    0  501    0  0.00000000000E+00  0.00000000000E+00  0.12155466840E+04  0.12155466840E+04  0.25500000920E-02 0.  1.
       -2   -1    0    0    0  501  0.00000000000E+00  0.00000000000E+00 -0.92764719565E+03  0.92764719565E+03  0.25500000920E-02 0. -1.
    10030    2    1    2    0    0  0.00000000000E+00  0.00000000000E+00  0.28789948835E+03  0.21431938797E+04  0.21237687940E+04 0.  0.
        4    1    3    3  502    0 -0.58785442560E+03 -0.41182801147E+03  0.93368134910E+03  0.11776831540E+04  0.12699999809E+01 0.  1.
       -4    1    3    3    0  502  0.58785442560E+03  0.41182801147E+03 -0.64578186075E+03  0.96551072563E+03  0.12699999809E+01 0. -1.
</event>
<event>
 5   0  0.1813834E-04  0.1848711E+04  0.7818609E-02  0.8680816E-01
        1   -1    0    0  501    0  0.00000000000E+00  0.00000000000E+00  0.17598540054E+04  0.17598540055E+04  0.50400001928E-02 0.  1.
       -1   -1    0    0    0  501  0.00000000000E+00  0.00000000000E+00 -0.48551338115E+03  0.48551338118E+03  0.50400001928E-02 0. -1.
    10030    2    1    2    0    0  0.00000000000E+00  0.00000000000E+00  0.12743406243E+04  0.22453673866E+04  0.18487105436E+04 0.  0.
        5    1    3    3  502    0 -0.19694829075E+03 -0.21918383847E+03  0.17012653768E+04  0.17266024894E+04  0.46999998093E+01 0.  1.
       -5    1    3    3    0  502  0.19694829075E+03  0.21918383847E+03 -0.42692475249E+03  0.51876489720E+03  0.46999998093E+01 0. -1.
</event>
<event>
 5   0  0.1758946E-04  0.1948822E+04  0.7818609E-02  0.8630929E-01
       -1   -1    0    0    0  501  0.00000000000E+00  0.00000000000E+00  0.14625212044E+04  0.14625212044E+04  0.50400001928E-02 0.  1.
        1   -1    0    0  501    0  0.00000000000E+00  0.00000000000E+00 -0.64920569441E+03  0.64920569443E+03  0.50400001928E-02 0. -1.
    10030    2    1    2    0    0  0.00000000000E+00  0.00000000000E+00  0.81331551003E+03  0.21117268989E+04  0.19488223050E+04 0.  0.
        2    1    3    3  502    0  0.50519510848E+03  0.42210683682E+03  0.11850963634E+04  0.13556731427E+04  0.25500000920E-02 0.  1.
       -2    1    3    3    0  502 -0.50519510848E+03 -0.42210683682E+03 -0.37178085334E+03  0.75605375618E+03  0.25500000920E-02 0. -1.
</event>
<event>
 5   0  0.1758946E-04  0.1866216E+04  0.7818609E-02  0.8671858E-01
        1   -1    0    0  501    0  0.00000000000E+00  0.00000000000E+00  0.10444697838E+04  0.10444697838E+04  0.50400001928E-02 0.  1.
       -1   -1    0    0    0  501  0.00000000000E+00  0.00000000000E+00 -0.83362001465E+03  0.83362001466E+03  0.50400001928E-02 0. -1.
    10030    2    1    2    0    0  0.00000000000E+00  0.00000000000E+00  0.21084976912E+03  0.18780897984E+04  0.18662164038E+04 0.  0.
        2    1    3    3  502    0  0.23675712341E+03  0.23992640231E+03  0.98105971845E+03  0.10373508496E+04  0.25500000920E-02 0.  1.
       -2    1    3    3    0  502 -0.23675712341E+03 -0.23992640231E+03 -0.77020994934E+03  0.84073894883E+03  0.25500000920E-02 0. -1.
</event>
<event>
 5   0  0.1782613E-04  0.1914733E+04  0.7818609E-02  0.8647557E-01
        1   -1    0    0  501    0  0.00000000000E+00  0.00000000000E+00  0.14745994076E+04  0.14745994076E+04  0.50400001928E-02 0. -1.
       -1   -1    0    0    0  501  0.00000000000E+00  0.00000000000E+00 -0.62155904013E+03  0.62155904015E+03  0.50400001928E-02 0.  1.
    10030    2    1    2    0    0  0.00000000000E+00  0.00000000000E+00  0.85304036742E+03  0.20961584477E+04  0.19147329760E+04 0.  0.
        3    1    3    3  502    0 -0.56136885896E+03  0.64403878363E+03  0.89946033953E+03  0.12405441803E+04  0.10100000352E+00 0. -1.
       -3    1    3    3    0  502  0.56136885896E+03 -0.64403878363E+03 -0.46419972101E+02  0.85561426744E+03  0.10100000352E+00 0.  1.
</event>
<event>
 5   0  0.3720978E-04  0.1903581E+04  0.7818609E-02  0.8653076E-01
        2   -1    0    0  501    0  0.00000000000E+00  0.00000000000E+00  0.13147705448E+04  0.13147705448E+04  0.25500000920E-02 0.  1.
       -2   -1    0    0    0  501  0.00000000000E+00  0.00000000000E+00 -0.68902134439E+03  0.68902134440E+03  0.25500000920E-02 0. -1.
    10030    2    1    2    0    0  0.00000000000E+00  0.00000000000E+00  0.62574920045E+03  0.20037918892E+04  0.19035808030E+04 0.  0.
        1    1    3    3  502    0  0.83327264567E+03  0.42794296057E+03  0.13539726147E+03  0.94647287228E+03  0.50400001928E-02 0. -1.
       -1    1    3    3    0  502 -0.83327264567E+03 -0.42794296057E+03  0.49035193898E+03  0.10573190170E+04  0.50400001928E-02 0.  1.
</event>
<event>
 5   0  0.1782613E-04  0.1979712E+04  0.7818609E-02  0.8616165E-01
        1   -1    0    0  501    0  0.00000000000E+00  0.00000000000E+00  0.89608930742E+03  0.89608930744E+03  0.50400001928E-02 0. -1.
       -1   -1    0    0    0  501  0.00000000000E+00  0.00000000000E+00 -0.10934347808E+04  0.10934347808E+04  0.50400001928E-02 0.  1.
    10030    2    1    2    0    0  0.00000000000E+00  0.00000000000E+00 -0.19734547333E+03  0.19895240882E+04  0.19797123179E+04 0.  0.
        3    1    3    3  502    0 -0.54869436037E+03  0.80171925424E+03 -0.28933901305E+03  0.10136746709E+04  0.10100000352E+00 0.  1.
       -3    1    3    3    0  502  0.54869436037E+03 -0.80171925424E+03  0.91993539720E+02  0.97584941732E+03  0.10100000352E+00 0. -1.
</event>
<event>
 5   0  0.3459485E-04  0.1918582E+04  0.7818609E-02  0.8645662E-01
        2   -1    0    0  501    0  0.00000000000E+00  0.00000000000E+00  0.23770885633E+04  0.23770885633E+04  0.25500000920E-02 0.  1.
       -2   -1    0    0    0  501  0.00000000000E+00  0.00000000000E+00 -0.38712861208E+03  0.38712861208E+03  0.25500000920E-02 0. -1.
    10030    2    1    2    0    0  0.00000000000E+00  0.00000000000E+00  0.19899599512E+04  0.27642171754E+04  0.19185817640E+04 0.  0.
        3    1    3    3  502    0  0.93718835371E+03 -0.20172325036E+03  0.10454005489E+04  0.14184063586E+04  0.10100000352E+00 0.  1.
       -3    1    3    3    0  502 -0.93718835371E+03  0.20172325036E+03  0.94455940230E+03  0.13458108168E+04  0.10100000352E+00 0. -1.
</event>
<event>
 5   0  0.1694830E-04  0.1894790E+04  0.7818609E-02  0.8657454E-01
       -1   -1    0    0    0  501  0.00000000000E+00  0.00000000000E+00  0.49921641863E+03  0.49921641866E+03  0.50400001928E-02 0.  1.
        1   -1    0    0  501    0  0.00000000000E+00  0.00000000000E+00 -0.17979330031E+04  0.17979330031E+04  0.50400001928E-02 0. -1.
    10030    2    1    2    0    0  0.00000000000E+00  0.00000000000E+00 -0.12987165845E+04  0.22971494218E+04  0.18947904104E+04 0.  0.
        1    1    3    3  502    0 -0.84793129688E+03 -0.19484985027E+03 -0.11039552059E+04  0.14055856591E+04  0.50400001928E-02 0. -1.
       -1    1    3    3    0  502  0.84793129688E+03  0.19484985027E+03 -0.19476137863E+03  0.89156376273E+03  0.50400001928E-02 0.  1.
</event>
<event>
 5   0  0.3516539E-04  0.1902200E+04  0.7818609E-02  0.8653762E-01
       -2   -1    0    0    0  501  0.00000000000E+00  0.00000000000E+00  0.11782697504E+04  0.11782697504E+04  0.25500000920E-02 0.  1.
        2   -1    0    0  501    0  0.00000000000E+00  0.00000000000E+00 -0.76772857727E+03  0.76772857728E+03  0.25500000920E-02 0. -1.
    10030    2    1    2    0    0  0.00000000000E+00  0.00000000000E+00  0.41054117309E+03  0.19459983276E+04  0.19022001568E+04 0.  0.
        4    1    3    3  502    0  0.77272851535E+03 -0.22644989384E+03 -0.31254666899E+03  0.86375687902E+03  0.12699999809E+01 0. -1.
       -4    1    3    3    0  502 -0.77272851535E+03  0.22644989384E+03  0.72308784208E+03  0.10822414486E+04  0.12699999809E+01 0.  1.
</event>
<event>
 5   0  0.3516539E-04  0.1882008E+04  0.7818609E-02  0.8663864E-01
        2   -1    0    0  501    0  0.00000000000E+00  0.00000000000E+00  0.20602610189E+04  0.20602610189E+04  0.25500000920E-02 0. -1.
       -2   -1    0    0    0  501  0.00000000000E+00  0.00000000000E+00 -0.42979433464E+03  0.42979433465E+03  0.25500000920E-02 0.  1.
    10030    2    1    2    0    0  0.00000000000E+00  0.00000000000E+00  0.16304666842E+04  0.24900553535E+04  0.18820079849E+04 0.  0.
        4    1    3    3  502    0 -0.60163805748E+03  0.41213578669E+03  0.28401126189E+02  0.72981675491E+03  0.12699999809E+01 0. -1.
       -4    1    3    3    0  502  0.60163805748E+03 -0.41213578669E+03  0.16020655580E+04  0.17602385986E+04  0.12699999809E+01 0.  1.
</event>
<event>
 5   0  0.1813834E-04  0.1898047E+04  0.7818609E-02  0.8655829E-01
        1   -1    0    0  501    0  0.00000000000E+00  0.00000000000E+00  0.26729370710E+04  0.26729370710E+04  0.50400001928E-02 0. -1.
       -1   -1    0    0    0  501  0.00000000000E+00  0.00000000000E+00 -0.33694989898E+03  0.33694989902E+03  0.50400001928E-02 0.  1.
    10030    2    1    2    0    0  0.00000000000E+00  0.00000000000E+00  0.23359871720E+04  0.30098869701E+04  0.18980472872E+04 0.  0.
        5    1    3    3  502    0  0.14133265586E+03  0.81389932611E+03  0.19087700986E+04  0.20798635561E+04  0.46999998093E+01 0. -1.
       -5    1    3    3    0  502 -0.14133265586E+03 -0.81389932611E+03  0.42721707341E+03  0.93002341393E+03  0.46999998093E+01 0.  1.
</event>
<event>
 5   0  0.1782613E-04  0.1764876E+04  0.7818609E-02  0.8725204E-01
       -1   -1    0    0    0  501  0.00000000000E+00  0.00000000000E+00  0.95368515074E+03  0.95368515075E+03  0.50400001928E-02 0.  1.
        1   -1    0    0  501    0  0.00000000000E+00  0.00000000000E+00 -0.81651326989E+03  0.81651326991E+03  0.50400001928E-02 0. -1.
    10030    2    1    2    0    0  0.00000000000E+00  0.00000000000E+00  0.13717188085E+03  0.17701984207E+04  0.17648757247E+04 0.  0.
        3    1    3    3  502    0  0.87963146165E+03 -0.61789331135E+02  0.34911768080E+02  0.88248981383E+03  0.10100000352E+00 0.  1.
       -3    1    3    3    0  502 -0.87963146165E+03  0.61789331135E+02  0.10226011277E+03  0.88770860683E+03  0.10100000352E+00 0. -1.
</event>
<event>
 5   0  0.1758946E-04  0.1878564E+04  0.7818609E-02  0.8665601E-01
       -1   -1    0    0    0  501  0.00000000000E+00  0.00000000000E+00  0.71871975937E+03  0.71871975938E+03  0.50400001928E-02 0.  1.
        1   -1    0    0  501    0  0.00000000000E+00  0.00000000000E+00 -0.12275302298E+04  0.12275302298E+04  0.50400001928E-02 0. -1.
    10030    2    1    2    0    0  0.00000000000E+00  0.00000000000E+00 -0.50881047044E+03  0.19462499892E+04  0.18785635272E+04 0.  0.
        2    1    3    3  502    0 -0.91619621403E+03  0.10512329951E+03 -0.69701453243E+02  0.92483766321E+03  0.25500000920E-02 0.  1.
       -2    1    3    3    0  502  0.91619621403E+03 -0.10512329951E+03 -0.43910901719E+03  0.10214123260E+04  0.25500000920E-02 0. -1.
</event>
<event>
 5   0  0.3516539E-04  0.1918128E+04  0.7818609E-02  0.8645885E-01
       -2   -1    0    0    0  501  0.00000000000E+00  0.00000000000E+00  0.54751234633E+03  0.54751234634E+03  0.25500000920E-02 0. -1.
        2   -1    0    0  501    0  0.00000000000E+00  0.00000000000E+00 -0.16799697834E+04  0.16799697834E+04  0.25500000920E-02 0.  1.
    10030    2    1    2    0    0  0.00000000000E+00  0.00000000000E+00 -0.11324574371E+04  0.22274821298E+04  0.19181284607E+04 0.  0.
        4    1    3    3  502    0  0.94758697122E+02 -0.55365696208E+03 -0.14689595763E+04  0.15726916710E+04  0.12699999809E+01 0.  1.
       -4    1    3    3    0  502 -0.94758697122E+02  0.55365696208E+03  0.33650213918E+03  0.65479045879E+03  0.12699999809E+01 0. -1.
</event>
<event>
 5   0  0.1782613E-04  0.1192084E+04  0.7818609E-02  0.9119814E-01
       -1   -1    0    0    0  501  0.00000000000E+00  0.00000000000E+00  0.18810908073E+03  0.18810908080E+03  0.50400001928E-02 0.  1.
        1   -1    0    0  501    0  0.00000000000E+00  0.00000000000E+00 -0.18886162501E+04  0.18886162501E+04  0.50400001928E-02 0. -1.
    10030    2    1    2    0    0  0.00000000000E+00  0.00000000000E+00 -0.17005071694E+04  0.20767253309E+04  0.11920836661E+04 0.  0.
        3    1    3    3  502    0  0.70742734754E+02  0.48521400968E+03 -0.14405872111E+04  0.15217518499E+04  0.10100000352E+00 0. -1.
       -3    1    3    3    0  502 -0.70742734754E+02 -0.48521400968E+03 -0.25991995829E+03  0.55497348101E+03  0.10100000352E+00 0.  1.
</event>
<event>
 5   0  0.3535876E-04  0.1870583E+04  0.7818609E-02  0.8669639E-01
        2   -1    0    0  501    0  0.00000000000E+00  0.00000000000E+00  0.87349672923E+03  0.87349672923E+03  0.25500000920E-02 0. -1.
       -2   -1    0    0    0  501  0.00000000000E+00  0.00000000000E+00 -0.10014579720E+04  0.10014579720E+04  0.25500000920E-02 0.  1.
    10030    2    1    2    0    0  0.00000000000E+00  0.00000000000E+00 -0.12796124272E+03  0.18749547012E+04  0.18705830780E+04 0.  0.
        2    1    3    3  502    0  0.77986717497E+02 -0.56542014014E+02 -0.99647267727E+03  0.10011177373E+04  0.25500000920E-02 0.  1.
       -2    1    3    3    0  502 -0.77986717497E+02  0.56542014014E+02  0.86851143455E+03  0.87383696386E+03  0.25500000920E-02 0. -1.
</event>
<event>
 5   0  0.3516539E-04  0.1824134E+04  0.7818609E-02  0.8693570E-01
        2   -1    0    0  501    0  0.00000000000E+00  0.00000000000E+00  0.69749502080E+03  0.69749502080E+03  0.25500000920E-02 0. -1.
       -2   -1    0    0    0  501  0.00000000000E+00  0.00000000000E+00 -0.11926477010E+04  0.11926477010E+04  0.25500000920E-02 0.  1.
    10030    2    1    2    0    0  0.00000000000E+00  0.00000000000E+00 -0.49515268016E+03  0.18901427218E+04  0.18241335839E+04 0.  0.
        4    1    3    3  502    0  0.70408667159E+03  0.74160980904E+01 -0.84827075619E+03  0.11024327319E+04  0.12699999809E+01 0.  1.
       -4    1    3    3    0  502 -0.70408667159E+03 -0.74160980904E+01  0.35311807604E+03  0.78770998987E+03  0.12699999809E+01 0. -1.
</event>
<event>
 5   0  0.1813834E-04  0.1868986E+04  0.7818609E-02  0.8670450E-01
        1   -1    0    0  501    0  0.00000000000E+00  0.00000000000E+00  0.50775278828E+03  0.50775278831E+03  0.50400001928E-02 0. -1.
       -1   -1    0    0    0  501  0.00000000000E+00  0.00000000000E+00 -0.17198865726E+04  0.17198865726E+04  0.50400001928E-02 0.  1.
    10030    2    1    2    0    0  0.00000000000E+00  0.00000000000E+00 -0.12121337843E+04  0.22276393609E+04  0.18689860383E+04 0.  0.
        5    1    3    3  502    0  0.16500033223E+03  0.28070938536E+03 -0.16500711000E+04  0.16818976169E+04  0.46999998093E+01 0.  1.
       -5    1    3    3    0  502 -0.16500033223E+03 -0.28070938536E+03  0.43793731570E+03  0.54574174400E+03  0.46999998093E+01 0. -1.
</event>
<event>
 5   0  0.1758946E-04  0.1935859E+04  0.7818609E-02  0.8637210E-01
       -1   -1    0    0    0  501  0.00000000000E+00  0.00000000000E+00  0.62050026973E+03  0.62050026975E+03  0.50400001928E-02 0. -1.
        1   -1    0    0  501    0  0.00000000000E+00  0.00000000000E+00 -0.15098901944E+04  0.15098901944E+04  0.50400001928E-02 0.  1.
    10030    2    1    2    0    0  0.00000000000E+00  0.00000000000E+00 -0.88938992469E+03  0.21303904642E+04  0.19358587479E+04 0.  0.
        2    1    3    3  502    0  0.26829598922E+03  0.38473416779E+03  0.48707785145E+03  0.67620111733E+03  0.25500000920E-02 0. -1.
       -2    1    3    3    0  502 -0.26829598922E+03 -0.38473416779E+03 -0.13764677761E+04  0.14541893468E+04  0.25500000920E-02 0.  1.
</event>
<event>
 5   0  0.3535876E-04  0.1912250E+04  0.7818609E-02  0.8648783E-01
        2   -1    0    0  501    0  0.00000000000E+00  0.00000000000E+00  0.20842306460E+04  0.20842306460E+04  0.25500000920E-02 0. -1.
       -2   -1    0    0    0  501  0.00000000000E+00  0.00000000000E+00 -0.43861504620E+03  0.43861504621E+03  0.25500000920E-02 0.  1.
    10030    2    1    2    0    0  0.00000000000E+00  0.00000000000E+00  0.16456155998E+04  0.25228456922E+04  0.19122499011E+04 0.  0.
        2    1    3    3  502    0 -0.15530318505E+03  0.71441468952E+03  0.98879124973E+01  0.73116701150E+03  0.25500000920E-02 0.  1.
       -2    1    3    3    0  502  0.15530318505E+03 -0.71441468952E+03  0.16357276873E+04  0.17916786807E+04  0.25500000920E-02 0. -1.
</event>
<event>
 5   0  0.3459485E-04  0.1912481E+04  0.7818609E-02  0.8648669E-01
        2   -1    0    0  501    0  0.00000000000E+00  0.00000000000E+00  0.18895535046E+04  0.18895535046E+04  0.25500000920E-02 0.  1.
       -2   -1    0    0    0  501  0.00000000000E+00  0.00000000000E+00 -0.48392158535E+03  0.48392158536E+03  0.25500000920E-02 0. -1.
    10030    2    1    2    0    0  0.00000000000E+00  0.00000000000E+00  0.14056319192E+04  0.23734750899E+04  0.19124808261E+04 0.  0.
        3    1    3    3  502    0 -0.38414022599E+03 -0.66604686121E+03 -0.27415034761E+01  0.76888858789E+03  0.10100000352E+00 0. -1.
       -3    1    3    3    0  502  0.38414022599E+03  0.66604686121E+03  0.14083734227E+04  0.16045865020E+04  0.10100000352E+00 0.  1.
</event>
<event>
 5   0  0.3623359E-04  0.1897561E+04  0.7818609E-02  0.8656072E-01
       -2   -1    0    0    0  501  0.00000000000E+00  0.00000000000E+00  0.50760662734E+03  0.50760662735E+03  0.25500000920E-02 0. -1.
        2   -1    0    0  501    0  0.00000000000E+00  0.00000000000E+00 -0.17733890151E+04  0.17733890151E+04  0.25500000920E-02 0.  1.
    10030    2    1    2    0    0  0.00000000000E+00  0.00000000000E+00 -0.12657823878E+04  0.22809956425E+04  0.18975605571E+04 0.  0.
        5    1    3    3  502    0  0.80553745827E+03  0.47004383337E+03 -0.42354459430E+03  0.10243260786E+04  0.46999998093E+01 0.  1.
       -5    1    3    3    0  502 -0.80553745827E+03 -0.47004383337E+03 -0.84223779349E+03  0.12566695639E+04  0.46999998093E+01 0. -1.
</event>
<event>
 5   0  0.1758946E-04  0.1872398E+04  0.7818609E-02  0.8668719E-01
        1   -1    0    0  501    0  0.00000000000E+00  0.00000000000E+00  0.82594184468E+03  0.82594184469E+03  0.50400001928E-02 0. -1.
       -1   -1    0    0    0  501  0.00000000000E+00  0.00000000000E+00 -0.10611744852E+04  0.10611744852E+04  0.50400001928E-02 0.  1.
    10030    2    1    2    0    0  0.00000000000E+00  0.00000000000E+00 -0.23523264054E+03  0.18871163299E+04  0.18723978337E+04 0.  0.
        2    1    3    3  502    0 -0.31458060716E+03  0.61171985067E+03 -0.75767240984E+03  0.10233423742E+04  0.25500000920E-02 0.  1.
       -2    1    3    3    0  502  0.31458060716E+03 -0.61171985067E+03  0.52243976930E+03  0.86377395577E+03  0.25500000920E-02 0. -1.
</event>
<event>
 5   0  0.3535876E-04  0.2056490E+04  0.7818609E-02  0.8580656E-01
       -2   -1    0    0    0  501  0.00000000000E+00  0.00000000000E+00  0.10841149157E+04  0.10841149157E+04  0.25500000920E-02 0.  1.
        2   -1    0    0  501    0  0.00000000000E+00  0.00000000000E+00 -0.97525424936E+03  0.97525424937E+03  0.25500000920E-02 0. -1.
    10030    2    1    2    0    0  0.00000000000E+00  0.00000000000E+00  0.10886066635E+03  0.20593691651E+04  0.20564899011E+04 0.  0.
        2    1    3    3  502    0 -0.54886527134E+03 -0.66410290786E+03 -0.50760578439E+03  0.99997469501E+03  0.25500000920E-02 0. -1.
       -2    1    3    3    0  502  0.54886527134E+03  0.66410290786E+03  0.61646645074E+03  0.10593944701E+04  0.25500000920E-02 0.  1.
</event>
<event>
 5   0  0.1758946E-04  0.1790862E+04  0.7818609E-02  0.8711174E-01
       -1   -1    0    0    0  501  0.00000000000E+00  0.00000000000E+00  0.76298604235E+03  0.76298604236E+03  0.50400001928E-02 0.  1.
        1   -1    0    0  501    0  0.00000000000E+00  0.00000000000E+00 -0.10508666420E+04  0.10508666420E+04  0.50400001928E-02 0. -1.
    10030    2    1    2    0    0  0.00000000000E+00  0.00000000000E+00 -0.28788059963E+03  0.18138526843E+04  0.17908618933E+04 0.  0.
        2    1    3    3  502    0  0.47963357109E+03 -0.51367506570E+03  0.41805798388E+03  0.81773034280E+03  0.25500000920E-02 0.  1.
       -2    1    3    3    0  502 -0.47963357109E+03  0.51367506570E+03 -0.70593858351E+03  0.99612234155E+03  0.25500000920E-02 0. -1.
</event>
<event>
 5   0  0.3623359E-04  0.1900106E+04  0.7818609E-02  0.8654804E-01
       -2   -1    0    0    0  501  0.00000000000E+00  0.00000000000E+00  0.11402631742E+04  0.11402631742E+04  0.25500000920E-02 0.  1.
        2   -1    0    0  501    0  0.00000000000E+00  0.00000000000E+00 -0.79157202831E+03  0.79157202832E+03  0.25500000920E-02 0. -1.
    10030    2    1    2    0    0  0.00000000000E+00  0.00000000000E+00  0.34869114591E+03  0.19318352025E+04  0.19001057167E+04 0.  0.
        5    1    3    3  502    0 -0.58835548509E+03  0.29451635081E+03  0.87111907711E+03  0.10916833764E+04  0.46999998093E+01 0.  1.
       -5    1    3    3    0  502  0.58835548509E+03 -0.29451635081E+03 -0.52242793120E+03  0.84015182618E+03  0.46999998093E+01 0. -1.
</event>
<event>
 5   0  0.1694830E-04  0.1896616E+04  0.7818609E-02  0.8656543E-01
       -1   -1    0    0    0  501  0.00000000000E+00  0.00000000000E+00  0.37114702943E+03  0.37114702946E+03  0.50400001928E-02 0. -1.
        1   -1    0    0  501    0  0.00000000000E+00  0.00000000000E+00 -0.24229961245E+04  0.24229961245E+04  0.50400001928E-02 0.  1.
    10030    2    1    2    0    0  0.00000000000E+00  0.00000000000E+00 -0.20518490951E+04  0.27941431540E+04  0.18966157375E+04 0.  0.
        1    1    3    3  502    0  0.77930572819E+03 -0.33031524245E+03 -0.39593794091E+03  0.93444766063E+03  0.50400001928E-02 0. -1.
       -1    1    3    3    0  502 -0.77930572819E+03  0.33031524245E+03 -0.16559111542E+04  0.18596954933E+04  0.50400001928E-02 0.  1.
</event>
<event>
 5   0  0.1758946E-04  0.1907269E+04  0.7818609E-02  0.8651246E-01
       -1   -1    0    0    0  501  0.00000000000E+00  0.00000000000E+00  0.72525815647E+03  0.72525815649E+03  0.50400001928E-02 0. -1.
        1   -1    0    0  501    0  0.00000000000E+00  0.00000000000E+00 -0.12539247145E+04  0.12539247145E+04  0.50400001928E-02 0.  1.
    10030    2    1    2    0    0  0.00000000000E+00  0.00000000000E+00 -0.52866655802E+03  0.19791828710E+04  0.19072693851E+04 0.  0.
        2    1    3    3  502    0 -0.50724042513E+03 -0.61175876832E+03 -0.81134995678E+03  0.11357070009E+04  0.25500000920E-02 0.  1.
       -2    1    3    3    0  502  0.50724042513E+03  0.61175876832E+03  0.28268339876E+03  0.84347587010E+03  0.25500000920E-02 0. -1.
</event>
<event>
 5   0  0.1694830E-04  0.1804807E+04  0.7818609E-02  0.8703748E-01
       -1   -1    0    0    0  501  0.00000000000E+00  0.00000000000E+00  0.11403309993E+04  0.11403309993E+04  0.50400001928E-02 0.  1.
        1   -1    0    0  501    0  0.00000000000E+00  0.00000000000E+00 -0.71411873726E+03  0.71411873728E+03  0.50400001928E-02 0. -1.
    10030    2    1    2    0    0  0.00000000000E+00  0.00000000000E+00  0.42621226206E+03  0.18544497366E+04  0.18048066194E+04 0.  0.
        1    1    3    3  502    0 -0.79206078991E+03  0.23007867791E+03  0.58928456159E+03  0.10136827845E+04  0.50400001928E-02 0.  1.
       -1    1    3    3    0  502  0.79206078991E+03 -0.23007867791E+03 -0.16307229953E+03  0.84076695216E+03  0.50400001928E-02 0. -1.
</event>
<event>
 5   0  0.3623359E-04  0.1844047E+04  0.7818609E-02  0.8683220E-01
       -2   -1    0    0    0  501  0.00000000000E+00  0.00000000000E+00  0.58980598866E+03  0.58980598867E+03  0.25500000920E-02 0.  1.
        2   -1    0    0  501    0  0.00000000000E+00  0.00000000000E+00 -0.14413684925E+04  0.14413684925E+04  0.25500000920E-02 0. -1.
    10030    2    1    2    0    0  0.00000000000E+00  0.00000000000E+00 -0.85156250387E+03  0.20311744812E+04  0.18440474709E+04 0.  0.
        5    1    3    3  502    0 -0.23719240194E+03  0.42590700983E+03 -0.12877866391E+04  0.13769798598E+04  0.46999998093E+01 0. -1.
       -5    1    3    3    0  502  0.23719240194E+03 -0.42590700983E+03  0.43622413518E+03  0.65419462140E+03  0.46999998093E+01 0.  1.
</event>
<event>
 5   0  0.1813834E-04  0.1919791E+04  0.7818609E-02  0.8645067E-01
        1   -1    0    0  501    0  0.00000000000E+00  0.00000000000E+00  0.22495801894E+04  0.22495801894E+04  0.50400001928E-02 0.  1.
       -1   -1    0    0    0  501  0.00000000000E+00  0.00000000000E+00 -0.40958743295E+03  0.40958743298E+03  0.50400001928E-02 0. -1.
    10030    2    1    2    0    0  0.00000000000E+00  0.00000000000E+00  0.18399927565E+04  0.26591676224E+04  0.19197914210E+04 0.  0.
        5    1    3    3  502    0  0.78335107945E+03 -0.43623110634E+03  0.44531532730E+03  0.10011315211E+04  0.46999998093E+01 0. -1.
       -5    1    3    3    0  502 -0.78335107945E+03  0.43623110634E+03  0.13946774292E+04  0.16580361013E+04  0.46999998093E+01 0.  1.
</event>
<event>
 5   0  0.1782613E-04  0.1882803E+04  0.7818609E-02  0.8663464E-01
        1   -1    0    0  501    0  0.00000000000E+00  0.00000000000E+00  0.11853600760E+04  0.11853600761E+04  0.50400001928E-02 0.  1.
       -1   -1    0    0    0  501  0.00000000000E+00  0.00000000000E+00 -0.74765233634E+03  0.74765233636E+03  0.50400001928E-02 0. -1.
    10030    2    1    2    0    0  0.00000000000E+00  0.00000000000E+00  0.43770773971E+03  0.19330124124E+04  0.18828034739E+04 0.  0.
        3    1    3    3  502    0  0.14480726957E+02  0.19321567295E+03  0.11646674232E+04  0.11806744702E+04  0.10100000352E+00 0.  1.
       -3    1    3    3    0  502 -0.14480726957E+02 -0.19321567295E+03 -0.72695968348E+03  0.75233794224E+03  0.10100000352E+00 0. -1.
</event>
<event>
 5   0  0.3720978E-04  0.1920596E+04  0.7818609E-02  0.8644672E-01
        2   -1    0    0  501    0  0.00000000000E+00  0.00000000000E+00  0.11226488072E+04  0.11226488072E+04  0.25500000920E-02 0.  1.
       -2   -1    0    0    0  501  0.00000000000E+00  0.00000000000E+00 -0.82142547154E+03  0.82142547155E+03  0.25500000920E-02 0. -1.
    10030    2    1    2    0    0  0.00000000000E+00  0.00000000000E+00  0.30122333562E+03  0.19440742787E+04  0.19205960802E+04 0.  0.
        1    1    3    3  502    0 -0.92380537244E+03 -0.75865913461E+02 -0.10345529947E+03  0.93267089693E+03  0.50400001928E-02 0.  1.
       -1    1    3    3    0  502  0.92380537244E+03  0.75865913461E+02  0.40467863509E+03  0.10114033818E+04  0.50400001928E-02 0. -1.
</event>
<event>
 5   0  0.1694830E-04  0.1965838E+04  0.7818609E-02  0.8622761E-01
        1   -1    0    0  501    0  0.00000000000E+00  0.00000000000E+00  0.85824018633E+03  0.85824018635E+03  0.50400001928E-02 0. -1.
       -1   -1    0    0    0  501  0.00000000000E+00  0.00000000000E+00 -0.11257106794E+04  0.11257106794E+04  0.50400001928E-02 0.  1.
    10030    2    1    2    0    0  0.00000000000E+00  0.00000000000E+00 -0.26747049305E+03  0.19839508657E+04  0.19658383893E+04 0.  0.
        1    1    3    3  502    0 -0.53541441634E+03  0.38834021640E+03 -0.86751989981E+03  0.10909021484E+04  0.50400001928E-02 0.  1.
       -1    1    3    3    0  502  0.53541441634E+03 -0.38834021640E+03  0.60004940676E+03  0.89304871730E+03  0.50400001928E-02 0. -1.
</event>
<event>
 5   0  0.3459485E-04  0.1902921E+04  0.7818609E-02  0.8653404E-01
        2   -1    0    0  501    0  0.00000000000E+00  0.00000000000E+00  0.93953696684E+03  0.93953696685E+03  0.25500000920E-02 0.  1.
       -2   -1    0    0    0  501  0.00000000000E+00  0.00000000000E+00 -0.96353569163E+03  0.96353569163E+03  0.25500000920E-02 0. -1.
    10030    2    1    2    0    0  0.00000000000E+00  0.00000000000E+00 -0.23998724785E+02  0.19030726585E+04  0.19029213343E+04 0.  0.
        3    1    3    3  502    0 -0.60194531817E+03  0.60821902432E+03  0.40397703174E+03  0.94629065301E+03  0.10100000352E+00 0.  1.
       -3    1    3    3    0  502  0.60194531817E+03 -0.60821902432E+03 -0.42797575652E+03  0.95678200546E+03  0.10100000352E+00 0. -1.
</event>
<event>
 5   0  0.1694830E-04  0.1865393E+04  0.7818609E-02  0.8672277E-01
        1   -1    0    0  501    0  0.00000000000E+00  0.00000000000E+00  0.96719324440E+03  0.96719324442E+03  0.50400001928E-02 0. -1.
       -1   -1    0    0    0  501  0.00000000000E+00  0.00000000000E+00 -0.89942981388E+03  0.89942981390E+03  0.50400001928E-02 0.  1.
    10030    2    1    2    0    0  0.00000000000E+00  0.00000000000E+00  0.67763430521E+02  0.18666230583E+04  0.18653926555E+04 0.  0.
        1    1    3    3  502    0  0.47675199882E+03  0.74676380437E+03  0.32557663357E+03  0.94390083815E+03  0.50400001928E-02 0. -1.
       -1    1    3    3    0  502 -0.47675199882E+03 -0.74676380437E+03 -0.25781320305E+03  0.92272222017E+03  0.50400001928E-02 0.  1.
</event>
<event>
 5   0  0.1694830E-04  0.1908030E+04  0.7818609E-02  0.8650870E-01
        1   -1    0    0  501    0  0.00000000000E+00  0.00000000000E+00  0.10169265583E+04  0.10169265583E+04  0.50400001928E-02 0. -1.
       -1   -1    0    0    0  501  0.00000000000E+00  0.00000000000E+00 -0.89499515646E+03  0.89499515648E+03  0.50400001928E-02 0.  1.
    10030    2    1    2    0    0  0.00000000000E+00  0.00000000000E+00  0.12193140183E+03  0.19119217148E+04  0.19080297106E+04 0.  0.
        1    1    3    3  502    0 -0.61633511652E+03  0.63933481062E+03  0.41028311173E+03  0.97823831847E+03  0.50400001928E-02 0. -1.
       -1    1    3    3    0  502  0.61633511652E+03 -0.63933481062E+03 -0.28835170990E+03  0.93368339631E+03  0.50400001928E-02 0.  1.
</event>
<event>
 5   0  0.3720978E-04  0.1879756E+04  0.7818609E-02  0.8664999E-01
        2   -1    0    0  501    0  0.00000000000E+00  0.00000000000E+00  0.10487518096E+04  0.10487518096E+04  0.25500000920E-02 0. -1.
       -2   -1    0    0    0  501  0.00000000000E+00  0.00000000000E+00 -0.84230667966E+03  0.84230667967E+03  0.25500000920E-02 0.  1.
    10030    2    1    2    0    0  0.00000000000E+00  0.00000000000E+00  0.20644512995E+03  0.18910584893E+04  0.18797559996E+04 0.  0.
        1    1    3    3  502    0 -0.47375728575E+02  0.35259938779E+03  0.97839575547E+03  0.10410711034E+04  0.50400001928E-02 0. -1.
       -1    1    3    3    0  502  0.47375728575E+02 -0.35259938779E+03 -0.77195062552E+03  0.84998738591E+03  0.50400001928E-02 0.  1.
</event>
<event>
 5   0  0.1694830E-04  0.1928284E+04  0.7818609E-02  0.8640905E-01
        1   -1    0    0  501    0  0.00000000000E+00  0.00000000000E+00  0.74624091182E+03  0.74624091184E+03  0.50400001928E-02 0.  1.
       -1   -1    0    0    0  501  0.00000000000E+00  0.00000000000E+00 -0.12456692068E+04  0.12456692069E+04  0.50400001928E-02 0. -1.
    10030    2    1    2    0    0  0.00000000000E+00  0.00000000000E+00 -0.49942829502E+03  0.19919101187E+04  0.19282835111E+04 0.  0.
        1    1    3    3  502    0 -0.48846916729E+03  0.80789939498E+03 -0.47643119977E+02  0.94529012833E+03  0.50400001928E-02 0.  1.
       -1    1    3    3    0  502  0.48846916729E+03 -0.80789939498E+03 -0.45178517504E+03  0.10466199904E+04  0.50400001928E-02 0. -1.
</event>
<event>
 5   0  0.1694830E-04  0.1895635E+04  0.7818609E-02  0.8657032E-01
        1   -1    0    0  501    0  0.00000000000E+00  0.00000000000E+00  0.15500939623E+04  0.15500939623E+04  0.50400001928E-02 0. -1.
       -1   -1    0    0    0  501  0.00000000000E+00  0.00000000000E+00 -0.57955075025E+03  0.57955075027E+03  0.50400001928E-02 0.  1.
    10030    2    1    2    0    0  0.00000000000E+00  0.00000000000E+00  0.97054321204E+03  0.21296447126E+04  0.18956351113E+04 0.  0.
        1    1    3    3  502    0  0.73610353887E+02  0.81008755985E+03  0.10318462801E+04  0.13139128908E+04  0.50400001928E-02 0. -1.
       -1    1    3    3    0  502 -0.73610353887E+02 -0.81008755985E+03 -0.61303068094E+02  0.81573182174E+03  0.50400001928E-02 0.  1.
</event>
<event>
 5   0  0.3459485E-04  0.1873760E+04  0.7818609E-02  0.8668029E-01
       -2   -1    0    0    0  501  0.00000000000E+00  0.00000000000E+00  0.69884660616E+03  0.69884660616E+03  0.25500000920E-02 0. -1.
        2   -1    0    0  501    0  0.00000000000E+00  0.00000000000E+00 -0.12559898222E+04  0.12559898222E+04  0.25500000920E-02 0.  1.
    10030    2    1    2    0    0  0.00000000000E+00  0.00000000000E+00 -0.55714321607E+03  0.19548364284E+04  0.18737600963E+04 0.  0.
        3    1    3    3  502    0 -0.90774421199E+03  0.30447864284E+02 -0.38806645866E+02  0.90908338056E+03  0.10100000352E+00 0. -1.
       -3    1    3    3    0  502  0.90774421199E+03 -0.30447864284E+02 -0.51833657021E+03  0.10457530478E+04  0.10100000352E+00 0.  1.
</event>
<event>
 5   0  0.3623359E-04  0.1909574E+04  0.7818609E-02  0.8650106E-01
        2   -1    0    0  501    0  0.00000000000E+00  0.00000000000E+00  0.48076191446E+03  0.48076191447E+03  0.25500000920E-02 0.  1.
       -2   -1    0    0    0  501  0.00000000000E+00  0.00000000000E+00 -0.18961938602E+04  0.18961938602E+04  0.25500000920E-02 0. -1.
    10030    2    1    2    0    0  0.00000000000E+00  0.00000000000E+00 -0.14154319457E+04  0.23769557747E+04  0.19095735549E+04 0.  0.
        5    1    3    3  502    0 -0.26270608630E+03  0.89413479082E+03 -0.44928506911E+03  0.10345872004E+04  0.46999998093E+01 0.  1.
       -5    1    3    3    0  502  0.26270608630E+03 -0.89413479082E+03 -0.96614687663E+03  0.13423685743E+04  0.46999998093E+01 0. -1.
</event>
<event>
 5   0  0.3535876E-04  0.1815988E+04  0.7818609E-02  0.8697843E-01
        2   -1    0    0  501    0  0.00000000000E+00  0.00000000000E+00  0.14354224738E+04  0.14354224738E+04  0.25500000920E-02 0.  1.
       -2   -1    0    0    0  501  0.00000000000E+00  0.00000000000E+00 -0.57436238232E+03  0.57436238232E+03  0.25500000920E-02 0. -1.
    10030    2    1    2    0    0  0.00000000000E+00  0.00000000000E+00  0.86106009150E+03  0.20097848561E+04  0.18159875239E+04 0.  0.
        2    1    3    3  502    0 -0.30962273879E+03 -0.28920856846E+03  0.13193176595E+04  0.13856792280E+04  0.25500000920E-02 0.  1.
       -2    1    3    3    0  502  0.30962273879E+03  0.28920856846E+03 -0.45825756795E+03  0.62410562811E+03  0.25500000920E-02 0. -1.
</event>
<event>
 5   0  0.3535876E-04  0.1806391E+04  0.7818609E-02  0.8702908E-01
       -2   -1    0    0    0  501  0.00000000000E+00  0.00000000000E+00  0.66677880429E+03  0.66677880429E+03  0.25500000920E-02 0. -1.
        2   -1    0    0  501    0  0.00000000000E+00  0.00000000000E+00 -0.12234372186E+04  0.12234372186E+04  0.25500000920E-02 0.  1.
    10030    2    1    2    0    0  0.00000000000E+00  0.00000000000E+00 -0.55665841428E+03  0.18902160229E+04  0.18063908832E+04 0.  0.
        2    1    3    3  502    0 -0.53549155175E+03  0.10605156994E+03  0.47461982201E+03  0.72336858719E+03  0.25500000920E-02 0. -1.
       -2    1    3    3    0  502  0.53549155175E+03 -0.10605156994E+03 -0.10312782363E+04  0.11668474357E+04  0.25500000920E-02 0.  1.
</event>
<event>
 5   0  0.3459485E-04  0.1938487E+04  0.7818609E-02  0.8635933E-01
       -2   -1    0    0    0  501  0.00000000000E+00  0.00000000000E+00  0.39541608204E+03  0.39541608205E+03  0.25500000920E-02 0. -1.
        2   -1    0    0  501    0  0.00000000000E+00  0.00000000000E+00 -0.23758075180E+04  0.23758075180E+04  0.25500000920E-02 0.  1.
    10030    2    1    2    0    0  0.00000000000E+00  0.00000000000E+00 -0.19803914359E+04  0.27712236000E+04  0.19384865235E+04 0.  0.
        3    1    3    3  502    0 -0.83554085576E+03  0.19684087950E+03 -0.34679270030E+03  0.92581857870E+03  0.10100000352E+00 0. -1.
       -3    1    3    3    0  502  0.83554085576E+03 -0.19684087950E+03 -0.16335987356E+04  0.18454050213E+04  0.10100000352E+00 0.  1.
</event>
<event>
 5   0  0.1758946E-04  0.1915719E+04  0.7818609E-02  0.8647071E-01
       -1   -1    0    0    0  501  0.00000000000E+00  0.00000000000E+00  0.13840316568E+04  0.13840316568E+04  0.50400001928E-02 0. -1.
        1   -1    0    0  501    0  0.00000000000E+00  0.00000000000E+00 -0.66291487870E+03  0.66291487872E+03  0.50400001928E-02 0.  1.
    10030    2    1    2    0    0  0.00000000000E+00  0.00000000000E+00  0.72111677812E+03  0.20469465355E+04  0.19157193719E+04 0.  0.
        2    1    3    3  502    0  0.75206642407E+03  0.76722161094E+02 -0.26795680990E+03  0.80205426762E+03  0.25500000920E-02 0.  1.
       -2    1    3    3    0  502 -0.75206642407E+03 -0.76722161094E+02  0.98907358802E+03  0.12448922679E+04  0.25500000920E-02 0. -1.
</event>
<event>
 5   0  0.3720978E-04  0.1698678E+04  0.7818609E-02  0.8762119E-01
       -2   -1    0    0    0  501  0.00000000000E+00  0.00000000000E+00  0.11555121297E+04  0.11555121297E+04  0.25500000920E-02 0. -1.
        2   -1    0    0  501    0  0.00000000000E+00  0.00000000000E+00 -0.62429194622E+03  0.62429194623E+03  0.25500000920E-02 0.  1.
    10030    2    1    2    0    0  0.00000000000E+00  0.00000000000E+00  0.53122018344E+03  0.17798040759E+04  0.16986782112E+04 0.  0.
        1    1    3    3  502    0 -0.19852735143E+03 -0.23062547000E+03  0.10964339423E+04  0.11378789947E+04  0.50400001928E-02 0. -1.
       -1    1    3    3    0  502  0.19852735143E+03  0.23062547000E+03 -0.56521375885E+03  0.64192508122E+03  0.50400001928E-02 0.  1.
</event>
<event>
 5   0  0.1782613E-04  0.1868355E+04  0.7818609E-02  0.8670770E-01
       -1   -1    0    0    0  501  0.00000000000E+00  0.00000000000E+00  0.45226627071E+03  0.45226627073E+03  0.50400001928E-02 0. -1.
        1   -1    0    0  501    0  0.00000000000E+00  0.00000000000E+00 -0.19295881188E+04  0.19295881189E+04  0.50400001928E-02 0.  1.
    10030    2    1    2    0    0  0.00000000000E+00  0.00000000000E+00 -0.14773218481E+04  0.23818543896E+04  0.18683550225E+04 0.  0.
        3    1    3    3  502    0  0.52926101949E+01 -0.82952827550E+03 -0.12863119864E+04  0.15306024004E+04  0.10100000352E+00 0. -1.
       -3    1    3    3    0  502 -0.52926101949E+01  0.82952827550E+03 -0.19100986172E+03  0.85125198916E+03  0.10100000352E+00 0.  1.
</event>
<event>
 5   0  0.1782613E-04  0.1346920E+04  0.7818609E-02  0.8993163E-01
       -1   -1    0    0    0  501  0.00000000000E+00  0.00000000000E+00  0.56358404379E+03  0.56358404382E+03  0.50400001928E-02 0. -1.
        1   -1    0    0  501    0  0.00000000000E+00  0.00000000000E+00 -0.80475739887E+03  0.80475739888E+03  0.50400001928E-02 0.  1.
    10030    2    1    2    0    0  0.00000000000E+00  0.00000000000E+00 -0.24117335507E+03  0.13683414427E+04  0.13469200855E+04 0.  0.
        3    1    3    3  502    0 -0.49099875066E+03 -0.42638705248E+03  0.57305987539E+02  0.65281672626E+03  0.10100000352E+00 0.  1.
       -3    1    3    3    0  502  0.49099875066E+03  0.42638705248E+03 -0.29847934261E+03  0.71552471644E+03  0.10100000352E+00 0. -1.
</event>
<event>
 5   0  0.1711979E-04  0.1925894E+04  0.7818609E-02  0.8642074E-01
        1   -1    0    0  501    0  0.00000000000E+00  0.00000000000E+00  0.50976199908E+03  0.50976199910E+03  0.50400001928E-02 0.  1.
       -1   -1    0    0    0  501  0.00000000000E+00  0.00000000000E+00 -0.18190190409E+04  0.18190190409E+04  0.50400001928E-02 0. -1.
    10030    2    1    2    0    0  0.00000000000E+00  0.00000000000E+00 -0.13092570419E+04  0.23287810400E+04  0.19258938524E+04 0.  0.
        4    1    3    3  502    0 -0.68094945025E+03 -0.39373008967E+03  0.17045926131E+02  0.78677043272E+03  0.12699999809E+01 0.  1.
       -4    1    3    3    0  502  0.68094945025E+03  0.39373008967E+03 -0.13263029680E+04  0.15420106073E+04  0.12699999809E+01 0. -1.
</event>
<event>
 5   0  0.3516539E-04  0.1887629E+04  0.7818609E-02  0.8661039E-01
        2   -1    0    0  501    0  0.00000000000E+00  0.00000000000E+00  0.19260702369E+04  0.19260702369E+04  0.25500000920E-02 0.  1.
       -2   -1    0    0    0  501  0.00000000000E+00  0.00000000000E+00 -0.46248859113E+03  0.46248859114E+03  0.25500000920E-02 0. -1.
    10030    2    1    2    0    0  0.00000000000E+00  0.00000000000E+00  0.14635816458E+04  0.23885588281E+04  0.18876286820E+04 0.  0.
        4    1    3    3  502    0 -0.37306038178E+03  0.32754132570E+03  0.17475070266E+04  0.18166562111E+04  0.12699999809E+01 0.  1.
       -4    1    3    3    0  502  0.37306038178E+03 -0.32754132570E+03 -0.28392538081E+03  0.57190261694E+03  0.12699999809E+01 0. -1.
</event>
<event>
 5   0  0.1782613E-04  0.1896736E+04  0.7818609E-02  0.8656483E-01
       -1   -1    0    0    0  501  0.00000000000E+00  0.00000000000E+00  0.37263338452E+03  0.37263338455E+03  0.50400001928E-02 0.  1.
        1   -1    0    0  501    0  0.00000000000E+00  0.00000000000E+00 -0.24136376973E+04  0.24136376973E+04  0.50400001928E-02 0. -1.
    10030    2    1    2    0    0  0.00000000000E+00  0.00000000000E+00 -0.20410043128E+04  0.27862710818E+04  0.18967361273E+04 0.  0.
        3    1    3    3  502    0  0.83458007994E+03  0.24343020313E+03 -0.15772052190E+04  0.18009326713E+04  0.10100000352E+00 0. -1.
       -3    1    3    3    0  502 -0.83458007994E+03 -0.24343020313E+03 -0.46379909376E+03  0.98533841050E+03  0.10100000352E+00 0.  1.
</event>
<event>
 5   0  0.3623359E-04  0.1913334E+04  0.7818609E-02  0.8648248E-01
        2   -1    0    0  501    0  0.00000000000E+00  0.00000000000E+00  0.10033578485E+04  0.10033578485E+04  0.25500000920E-02 0. -1.
       -2   -1    0    0    0  501  0.00000000000E+00  0.00000000000E+00 -0.91214842634E+03  0.91214842635E+03  0.25500000920E-02 0.  1.
    10030    2    1    2    0    0  0.00000000000E+00  0.00000000000E+00  0.91209422189E+02  0.19155062749E+04  0.19133335126E+04 0.  0.
        5    1    3    3  502    0  0.39964307761E+03  0.56553170064E+03 -0.61518156040E+03  0.92628890535E+03  0.46999998093E+01 0.  1.
       -5    1    3    3    0  502 -0.39964307761E+03 -0.56553170064E+03  0.70639098259E+03  0.98921736954E+03  0.46999998093E+01 0. -1.
</event>
<event>
 5   0  0.1782613E-04  0.1954542E+04  0.7818609E-02  0.8628174E-01
       -1   -1    0    0    0  501  0.00000000000E+00  0.00000000000E+00  0.68360368693E+03  0.68360368695E+03  0.50400001928E-02 0.  1.
        1   -1    0    0  501    0  0.00000000000E+00  0.00000000000E+00 -0.13970940914E+04  0.13970940915E+04  0.50400001928E-02 0. -1.
    10030    2    1    2    0    0  0.00000000000E+00  0.00000000000E+00 -0.71349040452E+03  0.20806977784E+04  0.19545420660E+04 0.  0.
        3    1    3    3  502    0  0.32926540563E+03 -0.90564631641E+03 -0.18362092669E+03  0.98098298287E+03  0.10100000352E+00 0.  1.
       -3    1    3    3    0  502 -0.32926540563E+03  0.90564631641E+03 -0.52986947783E+03  0.10997147955E+04  0.10100000352E+00 0. -1.
</event>
<event>
 5   0  0.3720978E-04  0.1915116E+04  0.7818609E-02  0.8647369E-01
        2   -1    0    0  501    0  0.00000000000E+00  0.00000000000E+00  0.19554395322E+04  0.19554395322E+04  0.25500000920E-02 0.  1.
       -2   -1    0    0    0  501  0.00000000000E+00  0.00000000000E+00 -0.46890591456E+03  0.46890591456E+03  0.25500000920E-02 0. -1.
    10030    2    1    2    0    0  0.00000000000E+00  0.00000000000E+00  0.14865336176E+04  0.24243454467E+04  0.19151158317E+04 0.  0.
        1    1    3    3  502    0 -0.79681265303E+02 -0.71476008766E+03  0.15435781390E+04  0.17028988691E+04  0.50400001928E-02 0.  1.
       -1    1    3    3    0  502  0.79681265303E+02  0.71476008766E+03 -0.57044521432E+02  0.72144657765E+03  0.50400001928E-02 0. -1.
</event>
<event>
 5   0  0.1782613E-04  0.1874690E+04  0.7818609E-02  0.8667558E-01
        1   -1    0    0  501    0  0.00000000000E+00  0.00000000000E+00  0.17642693384E+04  0.17642693384E+04  0.50400001928E-02 0. -1.
       -1   -1    0    0    0  501  0.00000000000E+00  0.00000000000E+00 -0.49800561084E+03  0.49800561087E+03  0.50400001928E-02 0.  1.
    10030    2    1    2    0    0  0.00000000000E+00  0.00000000000E+00  0.12662637276E+04  0.22622749493E+04  0.18746904060E+04 0.  0.
        3    1    3    3  502    0  0.22233154293E+03 -0.34975861025E+03  0.16476984908E+04  0.16990211085E+04  0.10100000352E+00 0. -1.
       -3    1    3    3    0  502 -0.22233154293E+03  0.34975861025E+03 -0.38143476318E+03  0.56325384081E+03  0.10100000352E+00 0.  1.
</event>
<event>
 5   0  0.3623359E-04  0.1876029E+04  0.7818609E-02  0.8666881E-01
        2   -1    0    0  501    0  0.00000000000E+00  0.00000000000E+00  0.15391486470E+04  0.15391486470E+04  0.25500000920E-02 0.  1.
       -2   -1    0    0    0  501  0.00000000000E+00  0.00000000000E+00 -0.57166094317E+03  0.57166094317E+03  0.25500000920E-02 0. -1.
    10030    2    1    2    0    0  0.00000000000E+00  0.00000000000E+00  0.96748770384E+03  0.21108095902E+04  0.18760289627E+04 0.  0.
        5    1    3    3  502    0  0.17595773402E+02 -0.79207206859E+01 -0.57142435198E+03  0.57176938454E+03  0.46999998093E+01 0. -1.
       -5    1    3    3    0  502 -0.17595773402E+02  0.79207206859E+01  0.15389120558E+04  0.15390402056E+04  0.46999998093E+01 0.  1.
</event>
<event>
 5   0  0.3459485E-04  0.1174119E+04  0.7818609E-02  0.9135816E-01
        2   -1    0    0  501    0  0.00000000000E+00  0.00000000000E+00  0.24138027488E+04  0.24138027488E+04  0.25500000920E-02 0. -1.
       -2   -1    0    0    0  501  0.00000000000E+00  0.00000000000E+00 -0.14277847288E+03  0.14277847290E+03  0.25500000920E-02 0.  1.
    10030    2    1    2    0    0  0.00000000000E+00  0.00000000000E+00  0.22710242759E+04  0.25565812217E+04  0.11741193642E+04 0.  0.
        3    1    3    3  502    0  0.22721923313E+03  0.69096111218E+02 -0.33506974310E+02  0.23984490826E+03  0.10100000352E+00 0.  1.
       -3    1    3    3    0  502 -0.22721923313E+03 -0.69096111218E+02  0.23045312502E+04  0.23167363134E+04  0.10100000352E+00 0. -1.
</event>
<event>
 5   0  0.3459485E-04  0.1906047E+04  0.7818609E-02  0.8651852E-01
       -2   -1    0    0    0  501  0.00000000000E+00  0.00000000000E+00  0.48071523413E+03  0.48071523414E+03  0.25500000920E-02 0. -1.
        2   -1    0    0  501    0  0.00000000000E+00  0.00000000000E+00 -0.18893794180E+04  0.18893794180E+04  0.25500000920E-02 0.  1.
    10030    2    1    2    0    0  0.00000000000E+00  0.00000000000E+00 -0.14086641838E+04  0.23700946521E+04  0.19060466618E+04 0.  0.
        3    1    3    3  502    0 -0.94675115713E+03  0.10078664629E+03 -0.65219922123E+03  0.11540621890E+04  0.10100000352E+00 0. -1.
       -3    1    3    3    0  502  0.94675115713E+03 -0.10078664629E+03 -0.75646496261E+03  0.12160324632E+04  0.10100000352E+00 0.  1.
</event>
<event>
 5   0  0.1694830E-04  0.1905685E+04  0.7818609E-02  0.8652032E-01
       -1   -1    0    0    0  501  0.00000000000E+00  0.00000000000E+00  0.93865244334E+03  0.93865244335E+03  0.50400001928E-02 0.  1.
        1   -1    0    0  501    0  0.00000000000E+00  0.00000000000E+00 -0.96724727510E+03  0.96724727511E+03  0.50400001928E-02 0. -1.
    10030    2    1    2    0    0  0.00000000000E+00  0.00000000000E+00 -0.28594831764E+02  0.19058997185E+04  0.19056851976E+04 0.  0.
        1    1    3    3  502    0  0.57442885834E+03 -0.49927305050E+03 -0.58765674940E+03  0.96155215532E+03  0.50400001928E-02 0. -1.
       -1    1    3    3    0  502 -0.57442885834E+03  0.49927305050E+03  0.55906191764E+03  0.94434756315E+03  0.50400001928E-02 0.  1.
</event>
<event>
 5   0  0.1711979E-04  0.1926153E+04  0.7818609E-02  0.8641947E-01
        1   -1    0    0  501    0  0.00000000000E+00  0.00000000000E+00  0.12943193494E+04  0.12943193494E+04  0.50400001928E-02 0. -1.
       -1   -1    0    0    0  501  0.00000000000E+00  0.00000000000E+00 -0.71660555548E+03  0.71660555550E+03  0.50400001928E-02 0.  1.
    10030    2    1    2    0    0  0.00000000000E+00  0.00000000000E+00  0.57771379390E+03  0.20109249049E+04  0.19261530950E+04 0.  0.
        4    1    3    3  502    0  0.89093941396E+03  0.11984337436E+03  0.64957642526E+03  0.11090927008E+04  0.12699999809E+01 0. -1.
       -4    1    3    3    0  502 -0.89093941396E+03 -0.11984337436E+03 -0.71862631361E+02  0.90183220413E+03  0.12699999809E+01 0.  1.
</event>
<event>
 5   0  0.1694830E-04  0.1893665E+04  0.7818609E-02  0.8658016E-01
        1   -1    0    0  501    0  0.00000000000E+00  0.00000000000E+00  0.75220003887E+03  0.75220003889E+03  0.50400001928E-02 0. -1.
       -1   -1    0    0    0  501  0.00000000000E+00  0.00000000000E+00 -0.11918268638E+04  0.11918268639E+04  0.50400001928E-02 0.  1.
    10030    2    1    2    0    0  0.00000000000E+00  0.00000000000E+00 -0.43962682498E+03  0.19440269027E+04  0.18936654544E+04 0.  0.
        1    1    3    3  502    0 -0.78426818080E+03  0.30263954008E+03 -0.66708947169E+03  0.10731615134E+04  0.50400001928E-02 0.  1.
       -1    1    3    3    0  502  0.78426818080E+03 -0.30263954008E+03  0.22746264671E+03  0.87086538932E+03  0.50400001928E-02 0. -1.
</event>
<event>
 5   0  0.1287000E-04  0.1717406E+04  0.7818609E-02  0.8751499E-01
        3   -1    0    0  501    0  0.00000000000E+00  0.00000000000E+00  0.82580678090E+03  0.82580678708E+03  0.10100000352E+00 0.  1.
       -3   -1    0    0    0  501  0.00000000000E+00  0.00000000000E+00 -0.89290972804E+03  0.89290973375E+03  0.10100000352E+00 0. -1.
    10030    2    1    2    0    0  0.00000000000E+00  0.00000000000E+00 -0.67102947137E+02  0.17187165208E+04  0.17174060887E+04 0.  0.
        2    1    3    3  502    0  0.32232884261E+03  0.40414681975E+03 -0.71974249631E+03  0.88614885640E+03  0.25500000920E-02 0. -1.
       -2    1    3    3    0  502 -0.32232884261E+03 -0.40414681975E+03  0.65263954918E+03  0.83256766443E+03  0.25500000920E-02 0.  1.
</event>
<event>
 5   0  0.1782613E-04  0.1928455E+04  0.7818609E-02  0.8640821E-01
        1   -1    0    0  501    0  0.00000000000E+00  0.00000000000E+00  0.11672856379E+04  0.11672856379E+04  0.50400001928E-02 0. -1.
       -1   -1    0    0    0  501  0.00000000000E+00  0.00000000000E+00 -0.79649306269E+03  0.79649306270E+03  0.50400001928E-02 0.  1.
    10030    2    1    2    0    0  0.00000000000E+00  0.00000000000E+00  0.37079257517E+03  0.19637787006E+04  0.19284552499E+04 0.  0.
        3    1    3    3  502    0  0.81604488938E+03 -0.45338525289E+03 -0.60369514634E+02  0.93548486761E+03  0.10100000352E+00 0. -1.
       -3    1    3    3    0  502 -0.81604488938E+03  0.45338525289E+03  0.43116208980E+03  0.10282938330E+04  0.10100000352E+00 0.  1.
</event>
<event>
 5   0  0.1711979E-04  0.1908086E+04  0.7818609E-02  0.8650842E-01
       -1   -1    0    0    0  501  0.00000000000E+00  0.00000000000E+00  0.67988534301E+03  0.67988534303E+03  0.50400001928E-02 0.  1.
        1   -1    0    0  501    0  0.00000000000E+00  0.00000000000E+00 -0.13387521619E+04  0.13387521619E+04  0.50400001928E-02 0. -1.
    10030    2    1    2    0    0  0.00000000000E+00  0.00000000000E+00 -0.65886681891E+03  0.20186375050E+04  0.19080859235E+04 0.  0.
        4    1    3    3  502    0 -0.58651101189E+03  0.31997479666E+03  0.39106643677E+03  0.77415347861E+03  0.12699999809E+01 0.  1.
       -4    1    3    3    0  502  0.58651101189E+03 -0.31997479666E+03 -0.10499332557E+04  0.12444840264E+04  0.12699999809E+01 0. -1.
</event>
<event>
 5   0  0.1758946E-04  0.1913452E+04  0.7818609E-02  0.8648189E-01
       -1   -1    0    0    0  501  0.00000000000E+00  0.00000000000E+00  0.99214176885E+03  0.99214176887E+03  0.50400001928E-02 0.  1.
        1   -1    0    0  501    0  0.00000000000E+00  0.00000000000E+00 -0.92257451715E+03  0.92257451716E+03  0.50400001928E-02 0. -1.
    10030    2    1    2    0    0  0.00000000000E+00  0.00000000000E+00  0.69567251708E+02  0.19147162860E+04  0.19134520777E+04 0.  0.
        2    1    3    3  502    0 -0.57906863008E+02 -0.59730685860E+03  0.78039069272E+03  0.98444823196E+03  0.25500000920E-02 0.  1.
       -2    1    3    3    0  502  0.57906863008E+02  0.59730685860E+03 -0.71082344101E+03  0.93026805407E+03  0.25500000920E-02 0. -1.
</event>
<event>
 5   0  0.3535876E-04  0.1927691E+04  0.7818609E-02  0.8641194E-01
       -2   -1    0    0    0  501  0.00000000000E+00  0.00000000000E+00  0.86556487477E+03  0.86556487477E+03  0.25500000920E-02 0. -1.
        2   -1    0    0  501    0  0.00000000000E+00  0.00000000000E+00 -0.10732856822E+04  0.10732856822E+04  0.25500000920E-02 0.  1.
    10030    2    1    2    0    0  0.00000000000E+00  0.00000000000E+00 -0.20772080741E+03  0.19388505569E+04  0.19276912482E+04 0.  0.
        2    1    3    3  502    0  0.12935456668E+03  0.17554036657E+03 -0.10481518091E+04  0.10705929381E+04  0.25500000920E-02 0.  1.
       -2    1    3    3    0  502 -0.12935456668E+03 -0.17554036657E+03  0.84043100164E+03  0.86825761888E+03  0.25500000920E-02 0. -1.
</event>
<event>
 5   0  0.1813834E-04  0.1916881E+04  0.7818609E-02  0.8646499E-01
        1   -1    0    0  501    0  0.00000000000E+00  0.00000000000E+00  0.93480599208E+03  0.93480599209E+03  0.50400001928E-02 0. -1.
       -1   -1    0    0    0  501  0.00000000000E+00  0.00000000000E+00 -0.98267211717E+03  0.98267211719E+03  0.50400001928E-02 0.  1.
    10030    2    1    2    0    0  0.00000000000E+00  0.00000000000E+00 -0.47866125093E+02  0.19174781093E+04  0.19168805736E+04 0.  0.
        5    1    3    3  502    0 -0.15556334961E+03  0.53645221037E+03 -0.80302420473E+03  0.97818755519E+03  0.46999998093E+01 0.  1.
       -5    1    3    3    0  502  0.15556334961E+03 -0.53645221037E+03  0.75515807964E+03  0.93929055409E+03  0.46999998093E+01 0. -1.
</event>
<event>
 5   0  0.1782613E-04  0.1930149E+04  0.7818609E-02  0.8639993E-01
        1   -1    0    0  501    0  0.00000000000E+00  0.00000000000E+00  0.22618464627E+04  0.22618464627E+04  0.50400001928E-02 0.  1.
       -1   -1    0    0    0  501  0.00000000000E+00  0.00000000000E+00 -0.41177375011E+03  0.41177375014E+03  0.50400001928E-02 0. -1.
    10030    2    1    2    0    0  0.00000000000E+00  0.00000000000E+00  0.18500727126E+04  0.26736202128E+04  0.19301492172E+04 0.  0.
        3    1    3    3  502    0 -0.18105208479E+03 -0.83933509857E+03  0.31475795050E+03  0.91451399262E+03  0.10100000352E+00 0. -1.
       -3    1    3    3    0  502  0.18105208479E+03  0.83933509857E+03  0.15353147621E+04  0.17591062202E+04  0.10100000352E+00 0.  1.
</event>
<event>
 5   0  0.3535876E-04  0.1892508E+04  0.7818609E-02  0.8658595E-01
        2   -1    0    0  501    0  0.00000000000E+00  0.00000000000E+00  0.12473568725E+04  0.12473568725E+04  0.25500000920E-02 0. -1.
       -2   -1    0    0    0  501  0.00000000000E+00  0.00000000000E+00 -0.71783510781E+03  0.71783510781E+03  0.25500000920E-02 0.  1.
    10030    2    1    2    0    0  0.00000000000E+00  0.00000000000E+00  0.52952176470E+03  0.19651919803E+04  0.18925079181E+04 0.  0.
        2    1    3    3  502    0  0.98324069702E+02 -0.88462990905E+03  0.59827984966E+03  0.10724628092E+04  0.25500000920E-02 0.  1.
       -2    1    3    3    0  502 -0.98324069702E+02  0.88462990905E+03 -0.68758084964E+02  0.89272917109E+03  0.25500000920E-02 0. -1.
</event>
<event>
 5   0  0.1758946E-04  0.1818137E+04  0.7818609E-02  0.8696714E-01
       -1   -1    0    0    0  501  0.00000000000E+00  0.00000000000E+00  0.75292917493E+03  0.75292917494E+03  0.50400001928E-02 0. -1.
        1   -1    0    0  501    0  0.00000000000E+00  0.00000000000E+00 -0.10975867506E+04  0.10975867507E+04  0.50400001928E-02 0.  1.
    10030    2    1    2    0    0  0.00000000000E+00  0.00000000000E+00 -0.34465757572E+03  0.18505159256E+04  0.18181365038E+04 0.  0.
        2    1    3    3  502    0  0.80042201570E+03 -0.51059085106E+02 -0.60787814448E+03  0.10063787915E+04  0.25500000920E-02 0.  1.
       -2    1    3    3    0  502 -0.80042201570E+03  0.51059085106E+02  0.26322056877E+03  0.84413713413E+03  0.25500000920E-02 0. -1.
</event>
<event>
 5   0  0.1813834E-04  0.1866958E+04  0.7818609E-02  0.8671480E-01
       -1   -1    0    0    0  501  0.00000000000E+00  0.00000000000E+00  0.11220171532E+04  0.11220171532E+04  0.50400001928E-02 0.  1.
        1   -1    0    0  501    0  0.00000000000E+00  0.00000000000E+00 -0.77662210196E+03  0.77662210198E+03  0.50400001928E-02 0. -1.
    10030    2    1    2    0    0  0.00000000000E+00  0.00000000000E+00  0.34539505119E+03  0.18986392551E+04  0.18669582962E+04 0.  0.
        5    1    3    3  502    0 -0.24975226284E+03  0.89835825514E+03  0.21746130446E+03  0.95746292686E+03  0.46999998093E+01 0.  1.
       -5    1    3    3    0  502  0.24975226284E+03 -0.89835825514E+03  0.12793374673E+03  0.94117632828E+03  0.46999998093E+01 0. -1.
</event>
<event>
 5   0  0.3720978E-04  0.1916355E+04  0.7818609E-02  0.8646758E-01
       -2   -1    0    0    0  501  0.00000000000E+00  0.00000000000E+00  0.60329681686E+03  0.60329681687E+03  0.25500000920E-02 0.  1.
        2   -1    0    0  501    0  0.00000000000E+00  0.00000000000E+00 -0.15218114925E+04  0.15218114925E+04  0.25500000920E-02 0. -1.
    10030    2    1    2    0    0  0.00000000000E+00  0.00000000000E+00 -0.91851467559E+03  0.21251083093E+04  0.19163549037E+04 0.  0.
        1    1    3    3  502    0  0.89018617854E+03 -0.35328879269E+03 -0.49177054670E+03  0.10766070194E+04  0.50400001928E-02 0. -1.
       -1    1    3    3    0  502 -0.89018617854E+03  0.35328879269E+03 -0.42674412889E+03  0.10485012900E+04  0.50400001928E-02 0.  1.
</event>
<event>
 5   0  0.3535876E-04  0.1984541E+04  0.7818609E-02  0.8613883E-01
       -2   -1    0    0    0  501  0.00000000000E+00  0.00000000000E+00  0.95416064747E+03  0.95416064748E+03  0.25500000920E-02 0. -1.
        2   -1    0    0  501    0  0.00000000000E+00  0.00000000000E+00 -0.10319020147E+04  0.10319020147E+04  0.25500000920E-02 0.  1.
    10030    2    1    2    0    0  0.00000000000E+00  0.00000000000E+00 -0.77741367267E+02  0.19860626622E+04  0.19845405458E+04 0.  0.
        2    1    3    3  502    0  0.17945655768E+03  0.90686490757E+03  0.32194943513E+03  0.97890758270E+03  0.25500000920E-02 0. -1.
       -2    1    3    3    0  502 -0.17945655768E+03 -0.90686490757E+03 -0.39969080240E+03  0.10071550795E+04  0.25500000920E-02 0.  1.
</event>
<event>
 5   0  0.3516539E-04  0.1872700E+04  0.7818609E-02  0.8668566E-01
       -2   -1    0    0    0  501  0.00000000000E+00  0.00000000000E+00  0.84260784184E+03  0.84260784184E+03  0.25500000920E-02 0. -1.
        2   -1    0    0  501    0  0.00000000000E+00  0.00000000000E+00 -0.10405215846E+04  0.10405215846E+04  0.25500000920E-02 0.  1.
    10030    2    1    2    0    0  0.00000000000E+00  0.00000000000E+00 -0.19791374276E+03  0.18831294264E+04  0.18727003463E+04 0.  0.
        4    1    3    3  502    0 -0.37709780750E+03 -0.75760491170E+03 -0.50191545573E+03  0.98391498426E+03  0.12699999809E+01 0.  1.
       -4    1    3    3    0  502  0.37709780750E+03  0.75760491170E+03  0.30400171297E+03  0.89921444219E+03  0.12699999809E+01 0. -1.
</event>
<event>
 5   0  0.3623359E-04  0.1805912E+04  0.7818609E-02  0.8703162E-01
        2   -1    0    0  501    0  0.00000000000E+00  0.00000000000E+00  0.64437616534E+03  0.64437616535E+03  0.25500000920E-02 0. -1.
       -2   -1    0    0    0  501  0.00000000000E+00  0.00000000000E+00 -0.12653007946E+04  0.12653007946E+04  0.25500000920E-02 0.  1.
    10030    2    1    2    0    0  0.00000000000E+00  0.00000000000E+00 -0.62092462924E+03  0.19096769599E+04  0.18059121507E+04 0.  0.
        5    1    3    3  502    0 -0.86280896539E+02 -0.12853851115E+03  0.63022466665E+03  0.64897747450E+03  0.46999998093E+01 0. -1.
       -5    1    3    3    0  502  0.86280896539E+02  0.12853851115E+03 -0.12511492959E+04  0.12606994854E+04  0.46999998093E+01 0.  1.
</event>
<event>
 5   0  0.3516539E-04  0.1863375E+04  0.7818609E-02  0.8673305E-01
        2   -1    0    0  501    0  0.00000000000E+00  0.00000000000E+00  0.15574640130E+04  0.15574640130E+04  0.25500000920E-02 0.  1.
       -2   -1    0    0    0  501  0.00000000000E+00  0.00000000000E+00 -0.55734325280E+03  0.55734325280E+03  0.25500000920E-02 0. -1.
    10030    2    1    2    0    0  0.00000000000E+00  0.00000000000E+00  0.10001207602E+04  0.21148072658E+04  0.18633754953E+04 0.  0.
        4    1    3    3  502    0  0.92873401464E+03 -0.12223138186E+02  0.41709238534E+03  0.10181669538E+04  0.12699999809E+01 0.  1.
       -4    1    3    3    0  502 -0.92873401464E+03  0.12223138186E+02  0.58302837484E+03  0.10966403120E+04  0.12699999809E+01 0. -1.
</event>
<event>
 5   0  0.3720978E-04  0.1891824E+04  0.7818609E-02  0.8658937E-01
       -2   -1    0    0    0  501  0.00000000000E+00  0.00000000000E+00  0.33343882631E+03  0.33343882632E+03  0.25500000920E-02 0. -1.
        2   -1    0    0  501    0  0.00000000000E+00  0.00000000000E+00 -0.26834001309E+04  0.26834001309E+04  0.25500000920E-02 0.  1.
    10030    2    1    2    0    0  0.00000000000E+00  0.00000000000E+00 -0.23499613046E+04  0.30168389572E+04  0.18918242944E+04 0.  0.
        1    1    3    3  502    0 -0.30783467338E+03 -0.61241017521E+03 -0.13545348939E+03  0.69868165616E+03  0.50400001928E-02 0. -1.
       -1    1    3    3    0  502  0.30783467338E+03  0.61241017521E+03 -0.22145078152E+04  0.23181573011E+04  0.50400001928E-02 0.  1.
</event>
<event>
 5   0  0.1758946E-04  0.1913341E+04  0.7818609E-02  0.8648244E-01
        1   -1    0    0  501    0  0.00000000000E+00  0.00000000000E+00  0.16141902349E+04  0.16141902349E+04  0.50400001928E-02 0.  1.
       -1   -1    0    0    0  501  0.00000000000E+00  0.00000000000E+00 -0.56698318185E+03  0.56698318187E+03  0.50400001928E-02 0. -1.
    10030    2    1    2    0    0  0.00000000000E+00  0.00000000000E+00  0.10472070531E+04  0.21811734168E+04  0.19133412822E+04 0.  0.
        2    1    3    3  502    0  0.45685618497E+03  0.12637514003E+03  0.14709071013E+04  0.15453983145E+04  0.25500000920E-02 0.  1.
       -2    1    3    3    0  502 -0.45685618497E+03 -0.12637514003E+03 -0.42370004826E+03  0.63577510227E+03  0.25500000920E-02 0. -1.
</event>
<event>
 5   0  0.3535876E-04  0.1825324E+04  0.7818609E-02  0.8692947E-01
        2   -1    0    0  501    0  0.00000000000E+00  0.00000000000E+00  0.17015954901E+04  0.17015954901E+04  0.25500000920E-02 0. -1.
       -2   -1    0    0    0  501  0.00000000000E+00  0.00000000000E+00 -0.48951237721E+03  0.48951237721E+03  0.25500000920E-02 0.  1.
    10030    2    1    2    0    0  0.00000000000E+00  0.00000000000E+00  0.12120831129E+04  0.21911078673E+04  0.18253241393E+04 0.  0.
        2    1    3    3  502    0 -0.58376536764E+02  0.58333351882E+03 -0.23360475712E+03  0.63107606260E+03  0.25500000920E-02 0.  1.
       -2    1    3    3    0  502  0.58376536764E+02 -0.58333351882E+03  0.14456878700E+04  0.15600318047E+04  0.25500000920E-02 0. -1.
</event>
<event>
 5   0  0.3459485E-04  0.1952214E+04  0.7818609E-02  0.8629294E-01
        2   -1    0    0  501    0  0.00000000000E+00  0.00000000000E+00  0.10308038662E+04  0.10308038662E+04  0.25500000920E-02 0.  1.
       -2   -1    0    0    0  501  0.00000000000E+00  0.00000000000E+00 -0.92431257169E+03  0.92431257169E+03  0.25500000920E-02 0. -1.
    10030    2    1    2    0    0  0.00000000000E+00  0.00000000000E+00  0.10649129447E+03  0.19551164379E+04  0.19522140994E+04 0.  0.
        3    1    3    3  502    0  0.31115704639E+03  0.31493459524E+03 -0.81798011624E+03  0.93010428854E+03  0.10100000352E+00 0. -1.
       -3    1    3    3    0  502 -0.31115704639E+03 -0.31493459524E+03  0.92447141072E+03  0.10250121493E+04  0.10100000352E+00 0.  1.
</event>
<event>
 5   0  0.3623359E-04  0.1841645E+04  0.7818609E-02  0.8684461E-01
        2   -1    0    0  501    0  0.00000000000E+00  0.00000000000E+00  0.24029702629E+04  0.24029702629E+04  0.25500000920E-02 0. -1.
       -2   -1    0    0    0  501  0.00000000000E+00  0.00000000000E+00 -0.35286086476E+03  0.35286086477E+03  0.25500000920E-02 0.  1.
    10030    2    1    2    0    0  0.00000000000E+00  0.00000000000E+00  0.20501093982E+04  0.27558311277E+04  0.18416450961E+04 0.  0.
        5    1    3    3  502    0  0.12602933405E+03  0.70715580258E+03  0.16291819958E+03  0.73655763652E+03  0.46999998093E+01 0.  1.
       -5    1    3    3    0  502 -0.12602933405E+03 -0.70715580258E+03  0.18871911986E+04  0.20192734912E+04  0.46999998093E+01 0. -1.
</event>
<event>
 5   0  0.3720978E-04  0.2171869E+04  0.7818609E-02  0.8530229E-01
       -2   -1    0    0    0  501  0.00000000000E+00  0.00000000000E+00  0.87228061719E+03  0.87228061720E+03  0.25500000920E-02 0.  1.
        2   -1    0    0  501    0  0.00000000000E+00  0.00000000000E+00 -0.13519198196E+04  0.13519198197E+04  0.25500000920E-02 0. -1.
    10030    2    1    2    0    0  0.00000000000E+00  0.00000000000E+00 -0.47963920245E+03  0.22242004368E+04  0.21718687388E+04 0.  0.
        1    1    3    3  502    0  0.84224812677E+03  0.68099590068E+03 -0.15972952039E+03  0.10948291390E+04  0.50400001928E-02 0.  1.
       -1    1    3    3    0  502 -0.84224812677E+03 -0.68099590068E+03 -0.31990968206E+03  0.11293712979E+04  0.50400001928E-02 0. -1.
</event>
<event>
 5   0  0.1694830E-04  0.2500568E+04  0.7818609E-02  0.8402783E-01
        1   -1    0    0  501    0  0.00000000000E+00  0.00000000000E+00  0.10830303560E+04  0.10830303560E+04  0.50400001928E-02 0.  1.
       -1   -1    0    0    0  501  0.00000000000E+00  0.00000000000E+00 -0.14433663494E+04  0.14433663495E+04  0.50400001928E-02 0. -1.
    10030    2    1    2    0    0  0.00000000000E+00  0.00000000000E+00 -0.36033599345E+03  0.25263967055E+04  0.25005675926E+04 0.  0.
        1    1    3    3  502    0  0.37777145603E+03 -0.11849252445E+04 -0.50583807768E+02  0.12447159634E+04  0.50400001928E-02 0.  1.
       -1    1    3    3    0  502 -0.37777145603E+03  0.11849252445E+04 -0.30975218569E+03  0.12816807420E+04  0.50400001928E-02 0. -1.
</event>
<event>
 5   0  0.3535876E-04  0.1889106E+04  0.7818609E-02  0.8660298E-01
       -2   -1    0    0    0  501  0.00000000000E+00  0.00000000000E+00  0.61515254793E+03  0.61515254793E+03  0.25500000920E-02 0. -1.
        2   -1    0    0  501    0  0.00000000000E+00  0.00000000000E+00 -0.14503392992E+04  0.14503392993E+04  0.25500000920E-02 0.  1.
    10030    2    1    2    0    0  0.00000000000E+00  0.00000000000E+00 -0.83518675132E+03  0.20654918472E+04  0.18891055188E+04 0.  0.
        2    1    3    3  502    0  0.37867021871E+02 -0.23830484251E+03  0.58088588130E+03  0.62900835957E+03  0.25500000920E-02 0. -1.
       -2    1    3    3    0  502 -0.37867021871E+02  0.23830484251E+03 -0.14160726326E+04  0.14364834876E+04  0.25500000920E-02 0.  1.
</event>
<event>
 5   0  0.1782613E-04  0.1905419E+04  0.7818609E-02  0.8652164E-01
        1   -1    0    0  501    0  0.00000000000E+00  0.00000000000E+00  0.95980765438E+03  0.95980765440E+03  0.50400001928E-02 0. -1.
       -1   -1    0    0    0  501  0.00000000000E+00  0.00000000000E+00 -0.94566358039E+03  0.94566358040E+03  0.50400001928E-02 0.  1.
    10030    2    1    2    0    0  0.00000000000E+00  0.00000000000E+00  0.14144074000E+02  0.19054712348E+04  0.19054187392E+04 0.  0.
        3    1    3    3  502    0  0.48302279134E+03 -0.79557188982E+03 -0.19642677302E+03  0.95122507125E+03  0.10100000352E+00 0.  1.
       -3    1    3    3    0  502 -0.48302279134E+03  0.79557188982E+03  0.21057084702E+03  0.95424616354E+03  0.10100000352E+00 0. -1.
</event>
<event>
 5   0  0.3623359E-04  0.1512625E+04  0.7818609E-02  0.8876100E-01
        2   -1    0    0  501    0  0.00000000000E+00  0.00000000000E+00  0.18913024215E+04  0.18913024215E+04  0.25500000920E-02 0.  1.
       -2   -1    0    0    0  501  0.00000000000E+00  0.00000000000E+00 -0.30244171623E+03  0.30244171624E+03  0.25500000920E-02 0. -1.
    10030    2    1    2    0    0  0.00000000000E+00  0.00000000000E+00  0.15888607052E+04  0.21937441377E+04  0.15126252018E+04 0.  0.
        5    1    3    3  502    0 -0.18387078631E+03  0.95370756867E+02 -0.26048202052E+03  0.33283181989E+03  0.46999998093E+01 0. -1.
       -5    1    3    3    0  502  0.18387078631E+03 -0.95370756867E+02  0.18493427257E+04  0.18609123178E+04  0.46999998093E+01 0.  1.
</event>
<event>
 5   0  0.1711979E-04  0.1853663E+04  0.7818609E-02  0.8678271E-01
        1   -1    0    0  501    0  0.00000000000E+00  0.00000000000E+00  0.12046046569E+04  0.12046046569E+04  0.50400001928E-02 0. -1.
       -1   -1    0    0    0  501  0.00000000000E+00  0.00000000000E+00 -0.71311105345E+03  0.71311105347E+03  0.50400001928E-02 0.  1.
    10030    2    1    2    0    0  0.00000000000E+00  0.00000000000E+00  0.49149360340E+03  0.19177157103E+04  0.18536632875E+04 0.  0.
        4    1    3    3  502    0 -0.52577167418E+03  0.72298102091E+03  0.49890183107E+03  0.10237392539E+04  0.12699999809E+01 0. -1.
       -4    1    3    3    0  502  0.52577167418E+03 -0.72298102091E+03 -0.74082276692E+01  0.89397645646E+03  0.12699999809E+01 0.  1.
</event>
<event>
 5   0  0.3516539E-04  0.2043955E+04  0.7818609E-02  0.8586341E-01
        2   -1    0    0  501    0  0.00000000000E+00  0.00000000000E+00  0.13522961599E+04  0.13522961599E+04  0.25500000920E-02 0.  1.
       -2   -1    0    0    0  501  0.00000000000E+00  0.00000000000E+00 -0.77234437333E+03  0.77234437334E+03  0.25500000920E-02 0. -1.
    10030    2    1    2    0    0  0.00000000000E+00  0.00000000000E+00  0.57995178657E+03  0.21246405332E+04  0.20439553128E+04 0.  0.
        4    1    3    3  502    0 -0.81477999622E+02 -0.31020030599E+03  0.12986276611E+04  0.13376465562E+04  0.12699999809E+01 0.  1.
       -4    1    3    3    0  502  0.81477999622E+02  0.31020030599E+03 -0.71867587456E+03  0.78699397700E+03  0.12699999809E+01 0. -1.
</event>
<event>
 5   0  0.1694830E-04  0.1856320E+04  0.7818609E-02  0.8676910E-01
        1   -1    0    0  501    0  0.00000000000E+00  0.00000000000E+00  0.11128331082E+04  0.11128331082E+04  0.50400001928E-02 0. -1.
       -1   -1    0    0    0  501  0.00000000000E+00  0.00000000000E+00 -0.77413301298E+03  0.77413301300E+03  0.50400001928E-02 0.  1.
    10030    2    1    2    0    0  0.00000000000E+00  0.00000000000E+00  0.33870009519E+03  0.18869661212E+04  0.18563198507E+04 0.  0.
        1    1    3    3  502    0 -0.90536357850E+03  0.33277757192E+02 -0.35698340145E+02  0.90667799681E+03  0.50400001928E-02 0. -1.
       -1    1    3    3    0  502  0.90536357850E+03 -0.33277757192E+02  0.37439843534E+03  0.98028812438E+03  0.50400001928E-02 0.  1.
</event>
<event>
 5   0  0.3720978E-04  0.1969783E+04  0.7818609E-02  0.8620880E-01
       -2   -1    0    0    0  501  0.00000000000E+00  0.00000000000E+00  0.81104429875E+03  0.81104429875E+03  0.25500000920E-02 0.  1.
        2   -1    0    0  501    0  0.00000000000E+00  0.00000000000E+00 -0.11960028783E+04  0.11960028783E+04  0.25500000920E-02 0. -1.
    10030    2    1    2    0    0  0.00000000000E+00  0.00000000000E+00 -0.38495857952E+03  0.20070471770E+04  0.19697830497E+04 0.  0.
        1    1    3    3  502    0 -0.71508120727E+03  0.67082810544E+03 -0.97660586870E+02  0.98533703386E+03  0.50400001928E-02 0.  1.
       -1    1    3    3    0  502  0.71508120727E+03 -0.67082810544E+03 -0.28729799265E+03  0.10217101432E+04  0.50400001928E-02 0. -1.
</event>
<event>
 5   0  0.1711979E-04  0.1863539E+04  0.7818609E-02  0.8673221E-01
        1   -1    0    0  501    0  0.00000000000E+00  0.00000000000E+00  0.12075588321E+04  0.12075588321E+04  0.50400001928E-02 0.  1.
       -1   -1    0    0    0  501  0.00000000000E+00  0.00000000000E+00 -0.71896655487E+03  0.71896655489E+03  0.50400001928E-02 0. -1.
    10030    2    1    2    0    0  0.00000000000E+00  0.00000000000E+00  0.48859227726E+03  0.19265253870E+04  0.18635390131E+04 0.  0.
        4    1    3    3  502    0  0.35199246416E+03 -0.80641984983E+02  0.11322755916E+04  0.11884660083E+04  0.12699999809E+01 0.  1.
       -4    1    3    3    0  502 -0.35199246416E+03  0.80641984983E+02 -0.64368331433E+03  0.73805937878E+03  0.12699999809E+01 0. -1.
</event>
<event>
 5   0  0.3459485E-04  0.1908788E+04  0.7818609E-02  0.8650494E-01
        2   -1    0    0  501    0  0.00000000000E+00  0.00000000000E+00  0.17554136843E+04  0.17554136843E+04  0.25500000920E-02 0.  1.
       -2   -1    0    0    0  501  0.00000000000E+00  0.00000000000E+00 -0.51889090455E+03  0.51889090455E+03  0.25500000920E-02 0. -1.
    10030    2    1    2    0    0  0.00000000000E+00  0.00000000000E+00  0.12365227797E+04  0.22743045888E+04  0.19087883010E+04 0.  0.
        3    1    3    3  502    0 -0.14874260725E+03 -0.51712359238E+03 -0.32092324802E+03  0.62652447226E+03  0.10100000352E+00 0.  1.
       -3    1    3    3    0  502  0.14874260725E+03  0.51712359238E+03  0.15574460278E+04  0.16477801166E+04  0.10100000352E+00 0. -1.
</event>
<event>
 5   0  0.1782613E-04  0.1943768E+04  0.7818609E-02  0.8633372E-01
       -1   -1    0    0    0  501  0.00000000000E+00  0.00000000000E+00  0.13868376306E+04  0.13868376306E+04  0.50400001928E-02 0. -1.
        1   -1    0    0  501    0  0.00000000000E+00  0.00000000000E+00 -0.68108798449E+03  0.68108798451E+03  0.50400001928E-02 0.  1.
    10030    2    1    2    0    0  0.00000000000E+00  0.00000000000E+00  0.70574964611E+03  0.20679256151E+04  0.19437679354E+04 0.  0.
        3    1    3    3  502    0 -0.31818554669E+03 -0.11386930600E+03 -0.61656563423E+03  0.70310842157E+03  0.10100000352E+00 0.  1.
       -3    1    3    3    0  502  0.31818554669E+03  0.11386930600E+03  0.13223152803E+04  0.13648171936E+04  0.10100000352E+00 0. -1.
</event>
<event>
 5   0  0.3720978E-04  0.1650319E+04  0.7818609E-02  0.8790218E-01
        2   -1    0    0  501    0  0.00000000000E+00  0.00000000000E+00  0.11646774215E+04  0.11646774215E+04  0.25500000920E-02 0.  1.
       -2   -1    0    0    0  501  0.00000000000E+00  0.00000000000E+00 -0.58461556562E+03  0.58461556563E+03  0.25500000920E-02 0. -1.
    10030    2    1    2    0    0  0.00000000000E+00  0.00000000000E+00  0.58006185589E+03  0.17492929872E+04  0.16503194231E+04 0.  0.
        1    1    3    3  502    0  0.29769483650E+03 -0.74399437476E+03  0.81405572925E+02  0.80546676696E+03  0.50400001928E-02 0.  1.
       -1    1    3    3    0  502 -0.29769483650E+03  0.74399437476E+03  0.49865628297E+03  0.94382622019E+03  0.50400001928E-02 0. -1.
</event>
<event>
 5   0  0.1711979E-04  0.1786165E+04  0.7818609E-02  0.8713692E-01
        1   -1    0    0  501    0  0.00000000000E+00  0.00000000000E+00  0.33986134472E+04  0.33986134472E+04  0.50400001928E-02 0.  1.
       -1   -1    0    0    0  501  0.00000000000E+00  0.00000000000E+00 -0.23468275715E+03  0.23468275721E+03  0.50400001928E-02 0. -1.
    10030    2    1    2    0    0  0.00000000000E+00  0.00000000000E+00  0.31639306900E+04  0.36332962044E+04  0.17861645774E+04 0.  0.
        4    1    3    3  502    0  0.74215038670E+03  0.42073045992E+03  0.10445805101E+04  0.13486850527E+04  0.12699999809E+01 0. -1.
       -4    1    3    3    0  502 -0.74215038670E+03 -0.42073045992E+03  0.21193501799E+04  0.22846111517E+04  0.12699999809E+01 0.  1.
</event>
<event>
 5   0  0.3459485E-04  0.1790166E+04  0.7818609E-02  0.8711547E-01
        2   -1    0    0  501    0  0.00000000000E+00  0.00000000000E+00  0.22029234430E+04  0.22029234430E+04  0.25500000920E-02 0. -1.
       -2   -1    0    0    0  501  0.00000000000E+00  0.00000000000E+00 -0.36368655118E+03  0.36368655119E+03  0.25500000920E-02 0.  1.
    10030    2    1    2    0    0  0.00000000000E+00  0.00000000000E+00  0.18392368918E+04  0.25666099942E+04  0.17901660588E+04 0.  0.
        3    1    3    3  502    0  0.22039538725E+03  0.26887352640E+01  0.21634066595E+04  0.21746056517E+04  0.10100000352E+00 0. -1.
       -3    1    3    3    0  502 -0.22039538725E+03 -0.26887352640E+01 -0.32416976768E+03  0.39200434245E+03  0.10100000352E+00 0.  1.
</event>
<event>
 5   0  0.1711979E-04  0.1895290E+04  0.7818609E-02  0.8657205E-01
       -1   -1    0    0    0  501  0.00000000000E+00  0.00000000000E+00  0.83091473300E+03  0.83091473302E+03  0.50400001928E-02 0. -1.
        1   -1    0    0  501    0  0.00000000000E+00  0.00000000000E+00 -0.10807735989E+04  0.10807735989E+04  0.50400001928E-02 0.  1.
    10030    2    1    2    0    0  0.00000000000E+00  0.00000000000E+00 -0.24985886586E+03  0.19116883319E+04  0.18952896416E+04 0.  0.
        4    1    3    3  502    0 -0.54779504300E+03 -0.26754766719E+03 -0.85671899567E+03  0.10514895215E+04  0.12699999809E+01 0.  1.
       -4    1    3    3    0  502  0.54779504300E+03  0.26754766719E+03  0.60686012981E+03  0.86019881040E+03  0.12699999809E+01 0. -1.
</event>
<event>
 5   0  0.1287000E-04  0.1931374E+04  0.7818609E-02  0.8639395E-01
        3   -1    0    0  501    0  0.00000000000E+00  0.00000000000E+00  0.10637010928E+04  0.10637010976E+04  0.10100000352E+00 0. -1.
       -3   -1    0    0    0  501  0.00000000000E+00  0.00000000000E+00 -0.87670418066E+03  0.87670418648E+03  0.10100000352E+00 0.  1.
    10030    2    1    2    0    0  0.00000000000E+00  0.00000000000E+00  0.18699691212E+03  0.19404052841E+04  0.19313738171E+04 0.  0.
        4    1    3    3  502    0 -0.89798290688E+03 -0.35205070994E+03  0.14101219433E+03  0.97478154233E+03  0.12699999809E+01 0.  1.
       -4    1    3    3    0  502  0.89798290688E+03  0.35205070994E+03  0.45984717789E+02  0.96562374173E+03  0.12699999809E+01 0. -1.
</event>
<event>
 5   0  0.1711979E-04  0.1886240E+04  0.7818609E-02  0.8661736E-01
       -1   -1    0    0    0  501  0.00000000000E+00  0.00000000000E+00  0.47721695512E+03  0.47721695514E+03  0.50400001928E-02 0. -1.
        1   -1    0    0  501    0  0.00000000000E+00  0.00000000000E+00 -0.18638807215E+04  0.18638807215E+04  0.50400001928E-02 0.  1.
    10030    2    1    2    0    0  0.00000000000E+00  0.00000000000E+00 -0.13866637663E+04  0.23410976766E+04  0.18862401572E+04 0.  0.
        4    1    3    3  502    0 -0.43190971932E+03 -0.30478613945E+03 -0.16627236105E+04  0.17447326484E+04  0.12699999809E+01 0.  1.
       -4    1    3    3    0  502  0.43190971932E+03  0.30478613945E+03  0.27605984417E+03  0.59636502824E+03  0.12699999809E+01 0. -1.
</event>
<event>
 5   0  0.1813834E-04  0.1909619E+04  0.7818609E-02  0.8650083E-01
        1   -1    0    0  501    0  0.00000000000E+00  0.00000000000E+00  0.10897619053E+04  0.10897619053E+04  0.50400001928E-02 0.  1.
       -1   -1    0    0    0  501  0.00000000000E+00  0.00000000000E+00 -0.83656886928E+03  0.83656886930E+03  0.50400001928E-02 0. -1.
    10030    2    1    2    0    0  0.00000000000E+00  0.00000000000E+00  0.25319303605E+03  0.19263307746E+04  0.19096186896E+04 0.  0.
        5    1    3    3  502    0  0.89229638543E+03  0.33247538038E+02 -0.21450555406E+03  0.91833161818E+03  0.46999998093E+01 0.  1.
       -5    1    3    3    0  502 -0.89229638543E+03 -0.33247538038E+02  0.46769859011E+03  0.10079991565E+04  0.46999998093E+01 0. -1.
</event>
<event>
 5   0  0.3535876E-04  0.1873803E+04  0.7818609E-02  0.8668007E-01
       -2   -1    0    0    0  501  0.00000000000E+00  0.00000000000E+00  0.57701752226E+03  0.57701752227E+03  0.25500000920E-02 0. -1.
        2   -1    0    0  501    0  0.00000000000E+00  0.00000000000E+00 -0.15212444034E+04  0.15212444034E+04  0.25500000920E-02 0.  1.
    10030    2    1    2    0    0  0.00000000000E+00  0.00000000000E+00 -0.94422688116E+03  0.20982619257E+04  0.18738032729E+04 0.  0.
        2    1    3    3  502    0  0.68976423581E+03  0.62948926336E+03 -0.55704948971E+03  0.10873525499E+04  0.25500000920E-02 0. -1.
       -2    1    3    3    0  502 -0.68976423581E+03 -0.62948926336E+03 -0.38717739145E+03  0.10109093758E+04  0.25500000920E-02 0.  1.
</event>
<event>
 5   0  0.3516539E-04  0.1928500E+04  0.7818609E-02  0.8640799E-01
       -2   -1    0    0    0  501  0.00000000000E+00  0.00000000000E+00  0.75851981593E+03  0.75851981593E+03  0.25500000920E-02 0.  1.
        2   -1    0    0  501    0  0.00000000000E+00  0.00000000000E+00 -0.12257790766E+04  0.12257790766E+04  0.25500000920E-02 0. -1.
    10030    2    1    2    0    0  0.00000000000E+00  0.00000000000E+00 -0.46725926072E+03  0.19842988926E+04  0.19284996444E+04 0.  0.
        4    1    3    3  502    0  0.56043376069E+03  0.41583361734E+03 -0.91829419506E+03  0.11533730702E+04  0.12699999809E+01 0. -1.
       -4    1    3    3    0  502 -0.56043376069E+03 -0.41583361734E+03  0.45103493434E+03  0.83092582240E+03  0.12699999809E+01 0.  1.
</event>
<event>
 5   0  0.3623359E-04  0.1886382E+04  0.7818609E-02  0.8661665E-01
        2   -1    0    0  501    0  0.00000000000E+00  0.00000000000E+00  0.57479675992E+03  0.57479675992E+03  0.25500000920E-02 0. -1.
       -2   -1    0    0    0  501  0.00000000000E+00  0.00000000000E+00 -0.15476939944E+04  0.15476939944E+04  0.25500000920E-02 0.  1.
    10030    2    1    2    0    0  0.00000000000E+00  0.00000000000E+00 -0.97289723445E+03  0.21224907543E+04  0.18863822447E+04 0.  0.
        5    1    3    3  502    0  0.20815564825E+03 -0.33540227440E+02 -0.15208255154E+04  0.15353781485E+04  0.46999998093E+01 0.  1.
       -5    1    3    3    0  502 -0.20815564825E+03  0.33540227440E+02  0.54792828095E+03  0.58711260574E+03  0.46999998093E+01 0. -1.
</event>
<event>
 5   0  0.3623359E-04  0.1877962E+04  0.7818609E-02  0.8665904E-01
       -2   -1    0    0    0  501  0.00000000000E+00  0.00000000000E+00  0.15120956199E+04  0.15120956199E+04  0.25500000920E-02 0. -1.
        2   -1    0    0  501    0  0.00000000000E+00  0.00000000000E+00 -0.58308839433E+03  0.58308839434E+03  0.25500000920E-02 0.  1.
    10030    2    1    2    0    0  0.00000000000E+00  0.00000000000E+00  0.92900722557E+03  0.20951840142E+04  0.18779620945E+04 0.  0.
        5    1    3    3  502    0  0.46786467252E+03  0.63634796049E+02 -0.44098844747E+03  0.64609568940E+03  0.46999998093E+01 0.  1.
       -5    1    3    3    0  502 -0.46786467252E+03 -0.63634796049E+02  0.13699956730E+04  0.14490883248E+04  0.46999998093E+01 0. -1.
</event>
<event>
 5   0  0.1711979E-04  0.1776999E+04  0.7818609E-02  0.8718628E-01
       -1   -1    0    0    0  501  0.00000000000E+00  0.00000000000E+00  0.83387020105E+03  0.83387020107E+03  0.50400001928E-02 0.  1.
        1   -1    0    0  501    0  0.00000000000E+00  0.00000000000E+00 -0.94670754997E+03  0.94670754999E+03  0.50400001928E-02 0. -1.
    10030    2    1    2    0    0  0.00000000000E+00  0.00000000000E+00 -0.11283734892E+03  0.17805777511E+04  0.17769988352E+04 0.  0.
        4    1    3    3  502    0  0.13679045119E+03 -0.42503390238E+03 -0.82612209465E+03  0.93906590497E+03  0.12699999809E+01 0. -1.
       -4    1    3    3    0  502 -0.13679045119E+03  0.42503390238E+03  0.71328474573E+03  0.84151184608E+03  0.12699999809E+01 0.  1.
</event>
<event>
 5   0  0.1694830E-04  0.1853424E+04  0.7818609E-02  0.8678394E-01
       -1   -1    0    0    0  501  0.00000000000E+00  0.00000000000E+00  0.49262258169E+03  0.49262258172E+03  0.50400001928E-02 0. -1.
        1   -1    0    0  501    0  0.00000000000E+00  0.00000000000E+00 -0.17433126619E+04  0.17433126619E+04  0.50400001928E-02 0.  1.
    10030    2    1    2    0    0  0.00000000000E+00  0.00000000000E+00 -0.12506900802E+04  0.22359352436E+04  0.18534240575E+04 0.  0.
        1    1    3    3  502    0 -0.40836618812E+03  0.77114649354E+03 -0.24891299514E+03  0.90740704057E+03  0.50400001928E-02 0. -1.
       -1    1    3    3    0  502  0.40836618812E+03 -0.77114649354E+03 -0.10017770850E+04  0.13285282030E+04  0.50400001928E-02 0.  1.
</event>
<event>
 5   0  0.3459485E-04  0.1897299E+04  0.7818609E-02  0.8656202E-01
        2   -1    0    0  501    0  0.00000000000E+00  0.00000000000E+00  0.59505148217E+03  0.59505148218E+03  0.25500000920E-02 0. -1.
       -2   -1    0    0    0  501  0.00000000000E+00  0.00000000000E+00 -0.15123659333E+04  0.15123659333E+04  0.25500000920E-02 0.  1.
    10030    2    1    2    0    0  0.00000000000E+00  0.00000000000E+00 -0.91731445113E+03  0.21074174155E+04  0.18972987010E+04 0.  0.
        3    1    3    3  502    0 -0.21081991910E+03  0.76765342716E+03  0.11442622526E+03  0.80425754193E+03  0.10100000352E+00 0. -1.
       -3    1    3    3    0  502  0.21081991910E+03 -0.76765342716E+03 -0.10317406764E+04  0.13031598736E+04  0.10100000352E+00 0.  1.
</event>
<event>
 5   0  0.3720978E-04  0.1931671E+04  0.7818609E-02  0.8639250E-01
       -2   -1    0    0    0  501  0.00000000000E+00  0.00000000000E+00  0.43507566972E+03  0.43507566973E+03  0.25500000920E-02 0.  1.
        2   -1    0    0  501    0  0.00000000000E+00  0.00000000000E+00 -0.21440837845E+04  0.21440837845E+04  0.25500000920E-02 0. -1.
    10030    2    1    2    0    0  0.00000000000E+00  0.00000000000E+00 -0.17090081147E+04  0.25791594542E+04  0.19316714922E+04 0.  0.
        1    1    3    3  502    0  0.90754234995E+03 -0.27109537108E+03 -0.11068273286E+04  0.14567747089E+04  0.50400001928E-02 0.  1.
       -1    1    3    3    0  502 -0.90754234995E+03  0.27109537108E+03 -0.60218078610E+03  0.11223847452E+04  0.50400001928E-02 0. -1.
</event>
<event>
 5   0  0.3623359E-04  0.1885525E+04  0.7818609E-02  0.8662095E-01
       -2   -1    0    0    0  501  0.00000000000E+00  0.00000000000E+00  0.11027930776E+04  0.11027930776E+04  0.25500000920E-02 0.  1.
        2   -1    0    0  501    0  0.00000000000E+00  0.00000000000E+00 -0.80595478929E+03  0.80595478930E+03  0.25500000920E-02 0. -1.
    10030    2    1    2    0    0  0.00000000000E+00  0.00000000000E+00  0.29683828828E+03  0.19087478669E+04  0.18855252451E+04 0.  0.
        5    1    3    3  502    0 -0.10020168963E+00 -0.85902864848E+03  0.54159559099E+03  0.10155186375E+04  0.46999998093E+01 0.  1.
       -5    1    3    3    0  502  0.10020168963E+00  0.85902864848E+03 -0.24475730271E+03  0.89322922936E+03  0.46999998093E+01 0. -1.
</event>
<event>
 5   0  0.1782613E-04  0.1769579E+04  0.7818609E-02  0.8722646E-01
       -1   -1    0    0    0  501  0.00000000000E+00  0.00000000000E+00  0.52486502776E+03  0.52486502779E+03  0.50400001928E-02 0. -1.
        1   -1    0    0  501    0  0.00000000000E+00  0.00000000000E+00 -0.14915310580E+04  0.14915310580E+04  0.50400001928E-02 0.  1.
    10030    2    1    2    0    0  0.00000000000E+00  0.00000000000E+00 -0.96666603023E+03  0.20163960858E+04  0.17695790349E+04 0.  0.
        3    1    3    3  502    0  0.15879275896E+03  0.22582037220E+03  0.47453519061E+03  0.54899329516E+03  0.10100000352E+00 0. -1.
       -3    1    3    3    0  502 -0.15879275896E+03 -0.22582037220E+03 -0.14412012208E+04  0.14674027906E+04  0.10100000352E+00 0.  1.
</event>
<event>
 5   0  0.3535876E-04  0.1870928E+04  0.7818609E-02  0.8669464E-01
        2   -1    0    0  501    0  0.00000000000E+00  0.00000000000E+00  0.10013889282E+04  0.10013889282E+04  0.25500000920E-02 0.  1.
       -2   -1    0    0    0  501  0.00000000000E+00  0.00000000000E+00 -0.87387915835E+03  0.87387915836E+03  0.25500000920E-02 0. -1.
    10030    2    1    2    0    0  0.00000000000E+00  0.00000000000E+00  0.12750976983E+03  0.18752680865E+04  0.18709280197E+04 0.  0.
        2    1    3    3  502    0 -0.75967393278E+03 -0.42179927799E+03 -0.28356560806E+03  0.91401781664E+03  0.25500000920E-02 0. -1.
       -2    1    3    3    0  502  0.75967393278E+03  0.42179927799E+03  0.41107537789E+03  0.96125026990E+03  0.25500000920E-02 0.  1.
</event>
<event>
 5   0  0.1694830E-04  0.1890193E+04  0.7818609E-02  0.8659753E-01
        1   -1    0    0  501    0  0.00000000000E+00  0.00000000000E+00  0.19434127782E+04  0.19434127782E+04  0.50400001928E-02 0.  1.
       -1   -1    0    0    0  501  0.00000000000E+00  0.00000000000E+00 -0.45960788885E+03  0.45960788888E+03  0.50400001928E-02 0. -1.
    10030    2    1    2    0    0  0.00000000000E+00  0.00000000000E+00  0.14838048893E+04  0.24030206671E+04  0.18901934760E+04 0.  0.
        1    1    3    3  502    0  0.78218988284E+03  0.45626787788E+03  0.10858766962E+04  0.14139057920E+04  0.50400001928E-02 0.  1.
       -1    1    3    3    0  502 -0.78218988284E+03 -0.45626787788E+03  0.39792819310E+03  0.98911487507E+03  0.50400001928E-02 0. -1.
</event>
<event>
 5   0  0.3459485E-04  0.1829936E+04  0.7818609E-02  0.8690540E-01
        2   -1    0    0  501    0  0.00000000000E+00  0.00000000000E+00  0.60984895987E+03  0.60984895988E+03  0.25500000920E-02 0. -1.
       -2   -1    0    0    0  501  0.00000000000E+00  0.00000000000E+00 -0.13727435545E+04  0.13727435545E+04  0.25500000920E-02 0.  1.
    10030    2    1    2    0    0  0.00000000000E+00  0.00000000000E+00 -0.76289459458E+03  0.19825925143E+04  0.18299357681E+04 0.  0.
        3    1    3    3  502    0 -0.59060228908E+03 -0.52090311691E+03 -0.88615808833E+03  0.11855071863E+04  0.10100000352E+00 0.  1.
       -3    1    3    3    0  502  0.59060228908E+03  0.52090311691E+03  0.12326349374E+03  0.79708532803E+03  0.10100000352E+00 0. -1.
</event>
<event>
 5   0  0.3535876E-04  0.1912404E+04  0.7818609E-02  0.8648707E-01
        2   -1    0    0  501    0  0.00000000000E+00  0.00000000000E+00  0.85167484762E+03  0.85167484762E+03  0.25500000920E-02 0. -1.
       -2   -1    0    0    0  501  0.00000000000E+00  0.00000000000E+00 -0.10735581570E+04  0.10735581570E+04  0.25500000920E-02 0.  1.
    10030    2    1    2    0    0  0.00000000000E+00  0.00000000000E+00 -0.22188330938E+03  0.19252330046E+04  0.19124042248E+04 0.  0.
        2    1    3    3  502    0 -0.27360091658E+03 -0.84390059203E+02  0.80750694687E+03  0.85676520290E+03  0.25500000920E-02 0. -1.
       -2    1    3    3    0  502  0.27360091658E+03  0.84390059203E+02 -0.10293902562E+04  0.10684678017E+04  0.25500000920E-02 0.  1.
</event>
<event>
 5   0  0.1694830E-04  0.1924382E+04  0.7818609E-02  0.8642814E-01
        1   -1    0    0  501    0  0.00000000000E+00  0.00000000000E+00  0.19802533163E+04  0.19802533163E+04  0.50400001928E-02 0. -1.
       -1   -1    0    0    0  501  0.00000000000E+00  0.00000000000E+00 -0.46752152072E+03  0.46752152075E+03  0.50400001928E-02 0.  1.
    10030    2    1    2    0    0  0.00000000000E+00  0.00000000000E+00  0.15127317955E+04  0.24477748370E+04  0.19243815026E+04 0.  0.
        1    1    3    3  502    0  0.89915409862E+03 -0.97395300626E+02  0.33864660273E+03  0.96573570878E+03  0.50400001928E-02 0.  1.
       -1    1    3    3    0  502 -0.89915409862E+03  0.97395300626E+02  0.11740851928E+04  0.14820391283E+04  0.50400001928E-02 0. -1.
</event>
<event>
 5   0  0.3623359E-04  0.1893157E+04  0.7818609E-02  0.8658270E-01
       -2   -1    0    0    0  501  0.00000000000E+00  0.00000000000E+00  0.25728637348E+04  0.25728637348E+04  0.25500000920E-02 0.  1.
        2   -1    0    0  501    0  0.00000000000E+00  0.00000000000E+00 -0.34825420558E+03  0.34825420559E+03  0.25500000920E-02 0. -1.
    10030    2    1    2    0    0  0.00000000000E+00  0.00000000000E+00  0.22246095292E+04  0.29211179403E+04  0.18931567458E+04 0.  0.
        5    1    3    3  502    0  0.78514766686E+03 -0.51455750738E+03  0.12997777229E+04  0.16033310656E+04  0.46999998093E+01 0.  1.
       -5    1    3    3    0  502 -0.78514766686E+03  0.51455750738E+03  0.92483180632E+03  0.13177868747E+04  0.46999998093E+01 0. -1.
</event>
<event>
 5   0  0.3535876E-04  0.1907547E+04  0.7818609E-02  0.8651109E-01
        2   -1    0    0  501    0  0.00000000000E+00  0.00000000000E+00  0.21040187875E+04  0.21040187875E+04  0.25500000920E-02 0.  1.
       -2   -1    0    0    0  501  0.00000000000E+00  0.00000000000E+00 -0.43235534786E+03  0.43235534787E+03  0.25500000920E-02 0. -1.
    10030    2    1    2    0    0  0.00000000000E+00  0.00000000000E+00  0.16716634396E+04  0.25363741353E+04  0.19075468799E+04 0.  0.
        2    1    3    3  502    0 -0.23073725955E+03 -0.59982284677E+02 -0.39209785527E+03  0.45888809696E+03  0.25500000920E-02 0. -1.
       -2    1    3    3    0  502  0.23073725955E+03  0.59982284677E+02  0.20637612949E+04  0.20774860384E+04  0.25500000920E-02 0.  1.
</event>
<event>
 5   0  0.3623359E-04  0.1888880E+04  0.7818609E-02  0.8660411E-01
       -2   -1    0    0    0  501  0.00000000000E+00  0.00000000000E+00  0.85531570861E+03  0.85531570862E+03  0.25500000920E-02 0.  1.
        2   -1    0    0  501    0  0.00000000000E+00  0.00000000000E+00 -0.10428508912E+04  0.10428508912E+04  0.25500000920E-02 0. -1.
    10030    2    1    2    0    0  0.00000000000E+00  0.00000000000E+00 -0.18753518258E+03  0.18981665998E+04  0.18888798257E+04 0.  0.
        5    1    3    3  502    0 -0.56817381599E+03 -0.67636818412E+03 -0.42954997718E+03  0.98225794910E+03  0.46999998093E+01 0. -1.
       -5    1    3    3    0  502  0.56817381599E+03  0.67636818412E+03  0.24201479460E+03  0.91590865072E+03  0.46999998093E+01 0.  1.
</event>
<event>
 5   0  0.1694830E-04  0.1923029E+04  0.7818609E-02  0.8643478E-01
        1   -1    0    0  501    0  0.00000000000E+00  0.00000000000E+00  0.11131437899E+04  0.11131437899E+04  0.50400001928E-02 0.  1.
       -1   -1    0    0    0  501  0.00000000000E+00  0.00000000000E+00 -0.83053956491E+03  0.83053956492E+03  0.50400001928E-02 0. -1.
    10030    2    1    2    0    0  0.00000000000E+00  0.00000000000E+00  0.28260422501E+03  0.19436833549E+04  0.19230288183E+04 0.  0.
        1    1    3    3  502    0 -0.51750180183E+03 -0.57415298628E+02  0.95831904733E+03  0.10906328566E+04  0.50400001928E-02 0.  1.
       -1    1    3    3    0  502  0.51750180183E+03  0.57415298628E+02 -0.67571482232E+03  0.85305049824E+03  0.50400001928E-02 0. -1.
</event>
<event>
 5   0  0.3516539E-04  0.1872311E+04  0.7818609E-02  0.8668763E-01
       -2   -1    0    0    0  501  0.00000000000E+00  0.00000000000E+00  0.69437376229E+03  0.69437376230E+03  0.25500000920E-02 0.  1.
        2   -1    0    0  501    0  0.00000000000E+00  0.00000000000E+00 -0.12621262686E+04  0.12621262686E+04  0.25500000920E-02 0. -1.
    10030    2    1    2    0    0  0.00000000000E+00  0.00000000000E+00 -0.56775250626E+03  0.19565000308E+04  0.18723112621E+04 0.  0.
        4    1    3    3  502    0 -0.29466905569E+02  0.20597410467E+02  0.69365120258E+03  0.69458344033E+03  0.12699999809E+01 0.  1.
       -4    1    3    3    0  502  0.29466905569E+02 -0.20597410467E+02 -0.12614037088E+04  0.12619165905E+04  0.12699999809E+01 0. -1.
</event>
<event>
 5   0  0.3459485E-04  0.1854204E+04  0.7818609E-02  0.8677994E-01
        2   -1    0    0  501    0  0.00000000000E+00  0.00000000000E+00  0.17225078638E+04  0.17225078638E+04  0.25500000920E-02 0.  1.
       -2   -1    0    0    0  501  0.00000000000E+00  0.00000000000E+00 -0.49899232838E+03  0.49899232839E+03  0.25500000920E-02 0. -1.
    10030    2    1    2    0    0  0.00000000000E+00  0.00000000000E+00  0.12235155354E+04  0.22215001922E+04  0.18542040984E+04 0.  0.
        3    1    3    3  502    0  0.43195031788E+03 -0.64731853526E+03  0.12154751945E+04  0.14432540740E+04  0.10100000352E+00 0.  1.
       -3    1    3    3    0  502 -0.43195031788E+03  0.64731853526E+03  0.80403408347E+01  0.77824611820E+03  0.10100000352E+00 0. -1.
</event>
<event>
 5   0  0.3623359E-04  0.1357164E+04  0.7818609E-02  0.8985423E-01
       -2   -1    0    0    0  501  0.00000000000E+00  0.00000000000E+00  0.26718734391E+03  0.26718734392E+03  0.25500000920E-02 0.  1.
        2   -1    0    0  501    0  0.00000000000E+00  0.00000000000E+00 -0.17234104749E+04  0.17234104749E+04  0.25500000920E-02 0. -1.
    10030    2    1    2    0    0  0.00000000000E+00  0.00000000000E+00 -0.14562231310E+04  0.19905978188E+04  0.13571639065E+04 0.  0.
        5    1    3    3  502    0 -0.54471915143E+03  0.12899060585E+03 -0.12906451757E+04  0.14068207384E+04  0.46999998093E+01 0. -1.
       -5    1    3    3    0  502  0.54471915143E+03 -0.12899060585E+03 -0.16557795523E+03  0.58377708039E+03  0.46999998093E+01 0.  1.
</event>
<event>
 5   0  0.3459485E-04  0.1908598E+04  0.7818609E-02  0.8650589E-01
        2   -1    0    0  501    0  0.00000000000E+00  0.00000000000E+00  0.19239696680E+04  0.19239696680E+04  0.25500000920E-02 0.  1.
       -2   -1    0    0    0  501  0.00000000000E+00  0.00000000000E+00 -0.47333710909E+03  0.47333710909E+03  0.25500000920E-02 0. -1.
    10030    2    1    2    0    0  0.00000000000E+00  0.00000000000E+00  0.14506325589E+04  0.23973067771E+04  0.19085976429E+04 0.  0.
        3    1    3    3  502    0  0.88564308587E+03  0.17779691924E+03  0.11118692422E+04  0.14325601705E+04  0.10100000352E+00 0. -1.
       -3    1    3    3    0  502 -0.88564308587E+03 -0.17779691924E+03  0.33876331667E+03  0.96474660661E+03  0.10100000352E+00 0.  1.
</event>
<event>
 5   0  0.1782613E-04  0.1981743E+04  0.7818609E-02  0.8615204E-01
       -1   -1    0    0    0  501  0.00000000000E+00  0.00000000000E+00  0.16868336307E+04  0.16868336307E+04  0.50400001928E-02 0.  1.
        1   -1    0    0  501    0  0.00000000000E+00  0.00000000000E+00 -0.58205263228E+03  0.58205263231E+03  0.50400001928E-02 0. -1.
    10030    2    1    2    0    0  0.00000000000E+00  0.00000000000E+00  0.11047809984E+04  0.22688862630E+04  0.19817426221E+04 0.  0.
        3    1    3    3  502    0  0.80716083297E+03 -0.57214987277E+03  0.49008196063E+03  0.11041034487E+04  0.10100000352E+00 0.  1.
       -3    1    3    3    0  502 -0.80716083297E+03  0.57214987277E+03  0.61469903781E+03  0.11647828143E+04  0.10100000352E+00 0. -1.
</event>
<event>
 5   0  0.1782613E-04  0.1283939E+04  0.7818609E-02  0.9042400E-01
       -1   -1    0    0    0  501  0.00000000000E+00  0.00000000000E+00  0.61601648193E+03  0.61601648195E+03  0.50400001928E-02 0. -1.
        1   -1    0    0  501    0  0.00000000000E+00  0.00000000000E+00 -0.66901580878E+03  0.66901580880E+03  0.50400001928E-02 0.  1.
    10030    2    1    2    0    0  0.00000000000E+00  0.00000000000E+00 -0.52999326850E+02  0.12850322908E+04  0.12839388847E+04 0.  0.
        3    1    3    3  502    0 -0.36880757523E+03  0.12122673650E+03  0.48521825671E+03  0.62141106848E+03  0.10100000352E+00 0. -1.
       -3    1    3    3    0  502  0.36880757523E+03 -0.12122673650E+03 -0.53821758356E+03  0.66362122227E+03  0.10100000352E+00 0.  1.
</event>
<event>
 5   0  0.3516539E-04  0.1895068E+04  0.7818609E-02  0.8657315E-01
        2   -1    0    0  501    0  0.00000000000E+00  0.00000000000E+00  0.13432056923E+04  0.13432056923E+04  0.25500000920E-02 0.  1.
       -2   -1    0    0    0  501  0.00000000000E+00  0.00000000000E+00 -0.66841665502E+03  0.66841665502E+03  0.25500000920E-02 0. -1.
    10030    2    1    2    0    0  0.00000000000E+00  0.00000000000E+00  0.67478903728E+03  0.20116223473E+04  0.18950683954E+04 0.  0.
        4    1    3    3  502    0 -0.96925082812E+02  0.25291332838E+03 -0.62644850942E+03  0.68249466753E+03  0.12699999809E+01 0. -1.
       -4    1    3    3    0  502  0.96925082812E+02 -0.25291332838E+03  0.13012375467E+04  0.13291276798E+04  0.12699999809E+01 0.  1.
</event>
<event>
 5   0  0.1813834E-04  0.1244203E+04  0.7818609E-02  0.9075022E-01
       -1   -1    0    0    0  501  0.00000000000E+00  0.00000000000E+00  0.79430289762E+03  0.79430289763E+03  0.50400001928E-02 0.  1.
        1   -1    0    0  501    0  0.00000000000E+00  0.00000000000E+00 -0.48723238007E+03  0.48723238009E+03  0.50400001928E-02 0. -1.
    10030    2    1    2    0    0  0.00000000000E+00  0.00000000000E+00  0.30707051755E+03  0.12815352777E+04  0.12442027027E+04 0.  0.
        5    1    3    3  502    0 -0.84399331285E+02 -0.17031838517E+03 -0.45656910046E+03  0.49457965277E+03  0.46999998093E+01 0. -1.
       -5    1    3    3    0  502  0.84399331285E+02  0.17031838517E+03  0.76363961801E+03  0.78695562495E+03  0.46999998093E+01 0.  1.
</event>
<event>
 5   0  0.1287000E-04  0.1907449E+04  0.7818609E-02  0.8651157E-01
       -3   -1    0    0    0  501  0.00000000000E+00  0.00000000000E+00  0.79553459132E+03  0.79553459773E+03  0.10100000352E+00 0. -1.
        3   -1    0    0  501    0  0.00000000000E+00  0.00000000000E+00 -0.11433701842E+04  0.11433701886E+04  0.10100000352E+00 0.  1.
    10030    2    1    2    0    0  0.00000000000E+00  0.00000000000E+00 -0.34783559285E+03  0.19389047864E+04  0.19074491267E+04 0.  0.
        5    1    3    3  502    0  0.73217216766E+02  0.46062938790E+03  0.67168309778E+03  0.81775330490E+03  0.46999998093E+01 0. -1.
       -5    1    3    3    0  502 -0.73217216766E+02 -0.46062938790E+03 -0.10195186906E+04  0.11211514815E+04  0.46999998093E+01 0.  1.
</event>
<event>
 5   0  0.1782613E-04  0.1789265E+04  0.7818609E-02  0.8712029E-01
       -1   -1    0    0    0  501  0.00000000000E+00  0.00000000000E+00  0.53444595556E+03  0.53444595558E+03  0.50400001928E-02 0.  1.
        1   -1    0    0  501    0  0.00000000000E+00  0.00000000000E+00 -0.14975652550E+04  0.14975652550E+04  0.50400001928E-02 0. -1.
    10030    2    1    2    0    0  0.00000000000E+00  0.00000000000E+00 -0.96311929939E+03  0.20320112105E+04  0.17892654289E+04 0.  0.
        3    1    3    3  502    0  0.75969786155E+03 -0.40560943211E+03 -0.75672854952E+03  0.11464283493E+04  0.10100000352E+00 0. -1.
       -3    1    3    3    0  502 -0.75969786155E+03  0.40560943211E+03 -0.20639074987E+03  0.88558286123E+03  0.10100000352E+00 0.  1.
</event>
<event>
 5   0  0.1287000E-04  0.1809007E+04  0.7818609E-02  0.8701524E-01
       -3   -1    0    0    0  501  0.00000000000E+00  0.00000000000E+00  0.94070693038E+03  0.94070693580E+03  0.10100000352E+00 0. -1.
        3   -1    0    0  501    0  0.00000000000E+00  0.00000000000E+00 -0.86969342525E+03  0.86969343111E+03  0.10100000352E+00 0.  1.
    10030    2    1    2    0    0  0.00000000000E+00  0.00000000000E+00  0.71013505137E+02  0.18104003669E+04  0.18090070676E+04 0.  0.
        1    1    3    3  502    0  0.63463091848E+03  0.13656023696E+02  0.68035057029E+03  0.93049437838E+03  0.50400001928E-02 0. -1.
       -1    1    3    3    0  502 -0.63463091848E+03 -0.13656023696E+02 -0.60933706515E+03  0.87990598854E+03  0.50400001928E-02 0.  1.
</event>
<event>
 5   0  0.1782613E-04  0.1708948E+04  0.7818609E-02  0.8756277E-01
        1   -1    0    0  501    0  0.00000000000E+00  0.00000000000E+00  0.17440994846E+04  0.17440994846E+04  0.50400001928E-02 0.  1.
       -1   -1    0    0    0  501  0.00000000000E+00  0.00000000000E+00 -0.41862625069E+03  0.41862625072E+03  0.50400001928E-02 0. -1.
    10030    2    1    2    0    0  0.00000000000E+00  0.00000000000E+00  0.13254732339E+04  0.21627257354E+04  0.17089480134E+04 0.  0.
        3    1    3    3  502    0 -0.48448297727E+03 -0.42145932976E+03  0.13761345432E+04  0.15185842134E+04  0.10100000352E+00 0.  1.
       -3    1    3    3    0  502  0.48448297727E+03  0.42145932976E+03 -0.50661309250E+02  0.64414152200E+03  0.10100000352E+00 0. -1.
</event>
<event>
 5   0  0.3720978E-04  0.1287123E+04  0.7818609E-02  0.9039839E-01
        2   -1    0    0  501    0  0.00000000000E+00  0.00000000000E+00  0.30062014739E+03  0.30062014740E+03  0.25500000920E-02 0. -1.
       -2   -1    0    0    0  501  0.00000000000E+00  0.00000000000E+00 -0.13777242183E+04  0.13777242183E+04  0.25500000920E-02 0.  1.
    10030    2    1    2    0    0  0.00000000000E+00  0.00000000000E+00 -0.10771040709E+04  0.16783443657E+04  0.12871233936E+04 0.  0.
        1    1    3    3  502    0 -0.18019906894E+03  0.17220034970E+03 -0.13122317510E+04  0.13356933904E+04  0.50400001928E-02 0.  1.
       -1    1    3    3    0  502  0.18019906894E+03 -0.17220034970E+03  0.23512768009E+03  0.34265097527E+03  0.50400001928E-02 0. -1.
</event>
<event>
 5   0  0.1758946E-04  0.1864939E+04  0.7818609E-02  0.8672508E-01
        1   -1    0    0  501    0  0.00000000000E+00  0.00000000000E+00  0.82555521403E+03  0.82555521405E+03  0.50400001928E-02 0. -1.
       -1   -1    0    0    0  501  0.00000000000E+00  0.00000000000E+00 -0.10532292625E+04  0.10532292625E+04  0.50400001928E-02 0.  1.
    10030    2    1    2    0    0  0.00000000000E+00  0.00000000000E+00 -0.22767404843E+03  0.18787844765E+04  0.18649385075E+04 0.  0.
        2    1    3    3  502    0 -0.63984979623E+03 -0.67164408159E+03 -0.20933200681E+03  0.95096446997E+03  0.25500000920E-02 0. -1.
       -2    1    3    3    0  502  0.63984979623E+03  0.67164408159E+03 -0.18342041620E+02  0.92782000655E+03  0.25500000920E-02 0.  1.
</event>
<event>
 5   0  0.1782613E-04  0.1886613E+04  0.7818609E-02  0.8661549E-01
        1   -1    0    0  501    0  0.00000000000E+00  0.00000000000E+00  0.13810854551E+04  0.13810854551E+04  0.50400001928E-02 0. -1.
       -1   -1    0    0    0  501  0.00000000000E+00  0.00000000000E+00 -0.64429538551E+03  0.64429538553E+03  0.50400001928E-02 0.  1.
    10030    2    1    2    0    0  0.00000000000E+00  0.00000000000E+00  0.73679006958E+03  0.20253808406E+04  0.18866128228E+04 0.  0.
        3    1    3    3  502    0  0.67313914392E+03  0.59159786975E+02  0.10749948948E+04  0.12697362803E+04  0.10100000352E+00 0. -1.
       -3    1    3    3    0  502 -0.67313914392E+03 -0.59159786975E+02 -0.33820482526E+03  0.75564456029E+03  0.10100000352E+00 0.  1.
</event>
<event>
 5   0  0.1758946E-04  0.1925575E+04  0.7818609E-02  0.8642230E-01
       -1   -1    0    0    0  501  0.00000000000E+00  0.00000000000E+00  0.64076190155E+03  0.64076190157E+03  0.50400001928E-02 0. -1.
        1   -1    0    0  501    0  0.00000000000E+00  0.00000000000E+00 -0.14466529487E+04  0.14466529487E+04  0.50400001928E-02 0.  1.
    10030    2    1    2    0    0  0.00000000000E+00  0.00000000000E+00 -0.80589104717E+03  0.20874148503E+04  0.19255753367E+04 0.  0.
        2    1    3    3  502    0  0.89033617820E+03  0.34115300106E+03 -0.54788477917E+03  0.10996643177E+04  0.25500000920E-02 0.  1.
       -2    1    3    3    0  502 -0.89033617820E+03 -0.34115300106E+03 -0.25800626801E+03  0.98775053262E+03  0.25500000920E-02 0. -1.
</event>
<event>
 5   0  0.1782613E-04  0.1708489E+04  0.7818609E-02  0.8756537E-01
       -1   -1    0    0    0  501  0.00000000000E+00  0.00000000000E+00  0.13007724916E+04  0.13007724916E+04  0.50400001928E-02 0. -1.
        1   -1    0    0  501    0  0.00000000000E+00  0.00000000000E+00 -0.56100027887E+03  0.56100027889E+03  0.50400001928E-02 0.  1.
    10030    2    1    2    0    0  0.00000000000E+00  0.00000000000E+00  0.73977221271E+03  0.18617727705E+04  0.17084890758E+04 0.  0.
        3    1    3    3  502    0  0.39158478982E+02 -0.77782485276E+03 -0.12586325544E+02  0.77891162133E+03  0.10100000352E+00 0. -1.
       -3    1    3    3    0  502 -0.39158478982E+02  0.77782485276E+03  0.75235853826E+03  0.10828611491E+04  0.10100000352E+00 0.  1.
</event>
<event>
 5   0  0.3623359E-04  0.1875096E+04  0.7818609E-02  0.8667353E-01
       -2   -1    0    0    0  501  0.00000000000E+00  0.00000000000E+00  0.54057675602E+03  0.54057675603E+03  0.25500000920E-02 0. -1.
        2   -1    0    0  501    0  0.00000000000E+00  0.00000000000E+00 -0.16260345713E+04  0.16260345713E+04  0.25500000920E-02 0.  1.
    10030    2    1    2    0    0  0.00000000000E+00  0.00000000000E+00 -0.10854578153E+04  0.21666113273E+04  0.18750962575E+04 0.  0.
        5    1    3    3  502    0  0.92476289433E+03 -0.70339520428E+02 -0.38412938842E+03  0.10038483630E+04  0.46999998093E+01 0.  1.
       -5    1    3    3    0  502 -0.92476289433E+03  0.70339520428E+02 -0.70132842685E+03  0.11627629643E+04  0.46999998093E+01 0. -1.
</event>
<event>
 5   0  0.3720978E-04  0.1898274E+04  0.7818609E-02  0.8655716E-01
       -2   -1    0    0    0  501  0.00000000000E+00  0.00000000000E+00  0.68347853301E+03  0.68347853301E+03  0.25500000920E-02 0.  1.
        2   -1    0    0  501    0  0.00000000000E+00  0.00000000000E+00 -0.13180529188E+04  0.13180529188E+04  0.25500000920E-02 0. -1.
    10030    2    1    2    0    0  0.00000000000E+00  0.00000000000E+00 -0.63457438576E+03  0.20015314518E+04  0.18982738215E+04 0.  0.
        1    1    3    3  502    0  0.21575232820E+03 -0.29614491690E+03 -0.12404765718E+04  0.12934577706E+04  0.50400001928E-02 0. -1.
       -1    1    3    3    0  502 -0.21575232820E+03  0.29614491690E+03  0.60590218608E+03  0.70807368122E+03  0.50400001928E-02 0.  1.
</event>
<event>
 5   0  0.1694830E-04  0.1910242E+04  0.7818609E-02  0.8649775E-01
       -1   -1    0    0    0  501  0.00000000000E+00  0.00000000000E+00  0.54535750734E+03  0.54535750736E+03  0.50400001928E-02 0. -1.
        1   -1    0    0  501    0  0.00000000000E+00  0.00000000000E+00 -0.16727667169E+04  0.16727667169E+04  0.50400001928E-02 0.  1.
    10030    2    1    2    0    0  0.00000000000E+00  0.00000000000E+00 -0.11274092096E+04  0.22181242243E+04  0.19102417513E+04 0.  0.
        1    1    3    3  502    0  0.60226910637E+03 -0.29115211431E+03  0.22790506188E+03  0.70670952124E+03  0.50400001928E-02 0. -1.
       -1    1    3    3    0  502 -0.60226910637E+03  0.29115211431E+03 -0.13553142715E+04  0.15114147030E+04  0.50400001928E-02 0.  1.
</event>
<event>
 5   0  0.3535876E-04  0.1953320E+04  0.7818609E-02  0.8628762E-01
       -2   -1    0    0    0  501  0.00000000000E+00  0.00000000000E+00  0.14080133161E+04  0.14080133161E+04  0.25500000920E-02 0. -1.
        2   -1    0    0  501    0  0.00000000000E+00  0.00000000000E+00 -0.67745414369E+03  0.67745414370E+03  0.25500000920E-02 0.  1.
    10030    2    1    2    0    0  0.00000000000E+00  0.00000000000E+00  0.73055917244E+03  0.20854674598E+04  0.19533196926E+04 0.  0.
        2    1    3    3  502    0 -0.70500497531E+03  0.23326978118E+03  0.10425601292E+04  0.12799915738E+04  0.25500000920E-02 0. -1.
       -2    1    3    3    0  502  0.70500497531E+03 -0.23326978118E+03 -0.31200095672E+03  0.80547588606E+03  0.25500000920E-02 0.  1.
</event>
<event>
 5   0  0.3623359E-04  0.1920665E+04  0.7818609E-02  0.8644638E-01
       -2   -1    0    0    0  501  0.00000000000E+00  0.00000000000E+00  0.56077522311E+03  0.56077522311E+03  0.25500000920E-02 0.  1.
        2   -1    0    0  501    0  0.00000000000E+00  0.00000000000E+00 -0.16445780726E+04  0.16445780726E+04  0.25500000920E-02 0. -1.
    10030    2    1    2    0    0  0.00000000000E+00  0.00000000000E+00 -0.10838028495E+04  0.22053532957E+04  0.19206651302E+04 0.  0.
        5    1    3    3  502    0 -0.42936172103E+00  0.35110297393E+03 -0.15682253102E+04  0.16070551316E+04  0.46999998093E+01 0. -1.
       -5    1    3    3    0  502  0.42936172103E+00 -0.35110297393E+03  0.48442246071E+03  0.59829816404E+03  0.46999998093E+01 0.  1.
</event>
<event>
 5   0  0.1758946E-04  0.1917914E+04  0.7818609E-02  0.8645990E-01
       -1   -1    0    0    0  501  0.00000000000E+00  0.00000000000E+00  0.73858436434E+03  0.73858436435E+03  0.50400001928E-02 0. -1.
        1   -1    0    0  501    0  0.00000000000E+00  0.00000000000E+00 -0.12450825349E+04  0.12450825349E+04  0.50400001928E-02 0.  1.
    10030    2    1    2    0    0  0.00000000000E+00  0.00000000000E+00 -0.50649817052E+03  0.19836668992E+04  0.19179139632E+04 0.  0.
        2    1    3    3  502    0  0.82560459834E+03  0.25911948426E+03  0.17424001141E+03  0.88268082652E+03  0.25500000920E-02 0. -1.
       -2    1    3    3    0  502 -0.82560459834E+03 -0.25911948426E+03 -0.68073818193E+03  0.11009860727E+04  0.25500000920E-02 0.  1.
</event>
<event>
 5   0  0.3535876E-04  0.1935770E+04  0.7818609E-02  0.8637253E-01
        2   -1    0    0  501    0  0.00000000000E+00  0.00000000000E+00  0.14275725217E+04  0.14275725217E+04  0.25500000920E-02 0.  1.
       -2   -1    0    0    0  501  0.00000000000E+00  0.00000000000E+00 -0.65621994803E+03  0.65621994803E+03  0.25500000920E-02 0. -1.
    10030    2    1    2    0    0  0.00000000000E+00  0.00000000000E+00  0.77135257371E+03  0.20837924698E+04  0.19357701992E+04 0.  0.
        2    1    3    3  502    0  0.30241135357E+02  0.24082316764E+03 -0.62292849474E+03  0.66854336726E+03  0.25500000920E-02 0. -1.
       -2    1    3    3    0  502 -0.30241135357E+02 -0.24082316764E+03  0.13942810684E+04  0.14152491025E+04  0.25500000920E-02 0.  1.
</event>
<event>
 5   0  0.3459485E-04  0.1995610E+04  0.7818609E-02  0.8608676E-01
       -2   -1    0    0    0  501  0.00000000000E+00  0.00000000000E+00  0.47499608649E+03  0.47499608649E+03  0.25500000920E-02 0.  1.
        2   -1    0    0  501    0  0.00000000000E+00  0.00000000000E+00 -0.20960491799E+04  0.20960491799E+04  0.25500000920E-02 0. -1.
    10030    2    1    2    0    0  0.00000000000E+00  0.00000000000E+00 -0.16210530934E+04  0.25710452664E+04  0.19956103403E+04 0.  0.
        3    1    3    3  502    0  0.35900896521E+03  0.81651460297E+03 -0.23431322282E+03  0.92221810357E+03  0.10100000352E+00 0.  1.
       -3    1    3    3    0  502 -0.35900896521E+03 -0.81651460297E+03 -0.13867398706E+04  0.16488271628E+04  0.10100000352E+00 0. -1.
</event>
<event>
 5   0  0.1287000E-04  0.1902489E+04  0.7818609E-02  0.8653618E-01
        3   -1    0    0  501    0  0.00000000000E+00  0.00000000000E+00  0.91466340902E+03  0.91466341460E+03  0.10100000352E+00 0.  1.
       -3   -1    0    0    0  501  0.00000000000E+00  0.00000000000E+00 -0.98928856029E+03  0.98928856544E+03  0.10100000352E+00 0. -1.
    10030    2    1    2    0    0  0.00000000000E+00  0.00000000000E+00 -0.74625151266E+02  0.19039519800E+04  0.19024889564E+04 0.  0.
        2    1    3    3  502    0 -0.29012367290E+03 -0.71340619064E+03 -0.59608405987E+03  0.97387696598E+03  0.25500000920E-02 0. -1.
       -2    1    3    3    0  502  0.29012367290E+03  0.71340619064E+03  0.52145890860E+03  0.93007501407E+03  0.25500000920E-02 0.  1.
</event>
<event>
 5   0  0.1813834E-04  0.1903780E+04  0.7818609E-02  0.8652977E-01
       -1   -1    0    0    0  501  0.00000000000E+00  0.00000000000E+00  0.92201240423E+03  0.92201240424E+03  0.50400001928E-02 0. -1.
        1   -1    0    0  501    0  0.00000000000E+00  0.00000000000E+00 -0.98273530846E+03  0.98273530848E+03  0.50400001928E-02 0.  1.
    10030    2    1    2    0    0  0.00000000000E+00  0.00000000000E+00 -0.60722904236E+02  0.19047477127E+04  0.19037795508E+04 0.  0.
        5    1    3    3  502    0 -0.52712275433E+03  0.42721582583E+03 -0.69830885211E+03  0.97366786067E+03  0.46999998093E+01 0.  1.
       -5    1    3    3    0  502  0.52712275433E+03 -0.42721582583E+03  0.63758594787E+03  0.93107985205E+03  0.46999998093E+01 0. -1.
</event>
<event>
 5   0  0.3720978E-04  0.1841322E+04  0.7818609E-02  0.8684628E-01
       -2   -1    0    0    0  501  0.00000000000E+00  0.00000000000E+00  0.80479579614E+03  0.80479579615E+03  0.25500000920E-02 0. -1.
        2   -1    0    0  501    0  0.00000000000E+00  0.00000000000E+00 -0.10532075580E+04  0.10532075580E+04  0.25500000920E-02 0.  1.
    10030    2    1    2    0    0  0.00000000000E+00  0.00000000000E+00 -0.24841176182E+03  0.18580033541E+04  0.18413223673E+04 0.  0.
        1    1    3    3  502    0  0.56049698900E+03 -0.14889463013E+03 -0.84572947816E+03  0.10254681057E+04  0.50400001928E-02 0.  1.
       -1    1    3    3    0  502 -0.56049698900E+03  0.14889463013E+03  0.59731771634E+03  0.83253524841E+03  0.50400001928E-02 0. -1.
</event>
<event>
 5   0  0.1711979E-04  0.1918747E+04  0.7818609E-02  0.8645581E-01
        1   -1    0    0  501    0  0.00000000000E+00  0.00000000000E+00  0.26509527892E+04  0.26509527893E+04  0.50400001928E-02 0. -1.
       -1   -1    0    0    0  501  0.00000000000E+00  0.00000000000E+00 -0.34719486864E+03  0.34719486867E+03  0.50400001928E-02 0.  1.
    10030    2    1    2    0    0  0.00000000000E+00  0.00000000000E+00  0.23037579206E+04  0.29981476579E+04  0.19187466800E+04 0.  0.
        4    1    3    3  502    0 -0.10085840919E+03  0.30852854595E+03 -0.25878332639E+03  0.41512974512E+03  0.12699999809E+01 0.  1.
       -4    1    3    3    0  502  0.10085840919E+03 -0.30852854595E+03  0.25625412470E+04  0.25830179128E+04  0.12699999809E+01 0. -1.
</event>
<event>
 5   0  0.1758946E-04  0.1881208E+04  0.7818609E-02  0.8664267E-01
       -1   -1    0    0    0  501  0.00000000000E+00  0.00000000000E+00  0.72007336710E+03  0.72007336712E+03  0.50400001928E-02 0. -1.
        1   -1    0    0  501    0  0.00000000000E+00  0.00000000000E+00 -0.12286742181E+04  0.12286742181E+04  0.50400001928E-02 0.  1.
    10030    2    1    2    0    0  0.00000000000E+00  0.00000000000E+00 -0.50860085099E+03  0.19487475852E+04  0.18812076773E+04 0.  0.
        2    1    3    3  502    0  0.22713416385E+03 -0.91036837047E+03 -0.32281957980E+03  0.99225650890E+03  0.25500000920E-02 0. -1.
       -2    1    3    3    0  502 -0.22713416385E+03  0.91036837047E+03 -0.18578127119E+03  0.95649107631E+03  0.25500000920E-02 0.  1.
</event>
<event>
 5   0  0.3516539E-04  0.1921863E+04  0.7818609E-02  0.8644050E-01
       -2   -1    0    0    0  501  0.00000000000E+00  0.00000000000E+00  0.67738956985E+03  0.67738956985E+03  0.25500000920E-02 0. -1.
        2   -1    0    0  501    0  0.00000000000E+00  0.00000000000E+00 -0.13631584481E+04  0.13631584481E+04  0.25500000920E-02 0.  1.
    10030    2    1    2    0    0  0.00000000000E+00  0.00000000000E+00 -0.68576887829E+03  0.20405480180E+04  0.19218629658E+04 0.  0.
        4    1    3    3  502    0  0.25262791537E+03  0.86988267631E+03 -0.68342654220E+03  0.11347203116E+04  0.12699999809E+01 0. -1.
       -4    1    3    3    0  502 -0.25262791537E+03 -0.86988267631E+03 -0.23423360948E+01  0.90582770635E+03  0.12699999809E+01 0.  1.
</event>
<event>
 5   0  0.3535876E-04  0.1896109E+04  0.7818609E-02  0.8656796E-01
       -2   -1    0    0    0  501  0.00000000000E+00  0.00000000000E+00  0.36798915446E+03  0.36798915447E+03  0.25500000920E-02 0.  1.
        2   -1    0    0  501    0  0.00000000000E+00  0.00000000000E+00 -0.24424836829E+04  0.24424836829E+04  0.25500000920E-02 0. -1.
    10030    2    1    2    0    0  0.00000000000E+00  0.00000000000E+00 -0.20744945284E+04  0.28104728374E+04  0.18961091796E+04 0.  0.
        2    1    3    3  502    0  0.10294037269E+03 -0.91752817553E+03 -0.13563673854E+04  0.16407885779E+04  0.25500000920E-02 0. -1.
       -2    1    3    3    0  502 -0.10294037269E+03  0.91752817553E+03 -0.71812714302E+03  0.11696842594E+04  0.25500000920E-02 0.  1.
</event>
<event>
 5   0  0.3459485E-04  0.1908119E+04  0.7818609E-02  0.8650826E-01
       -2   -1    0    0    0  501  0.00000000000E+00  0.00000000000E+00  0.64909042248E+03  0.64909042248E+03  0.25500000920E-02 0.  1.
        2   -1    0    0  501    0  0.00000000000E+00  0.00000000000E+00 -0.14023147931E+04  0.14023147931E+04  0.25500000920E-02 0. -1.
    10030    2    1    2    0    0  0.00000000000E+00  0.00000000000E+00 -0.75322437065E+03  0.20514052156E+04  0.19081185514E+04 0.  0.
        3    1    3    3  502    0 -0.23201533882E+03  0.27503902397E+03  0.57334168748E+03  0.67690345172E+03  0.10100000352E+00 0.  1.
       -3    1    3    3    0  502  0.23201533882E+03 -0.27503902397E+03 -0.13265660581E+04  0.13745017639E+04  0.10100000352E+00 0. -1.
</event>
<event>
 5   0  0.1287000E-04  0.1864980E+04  0.7818609E-02  0.8672487E-01
       -4   -1    0    0    0  501  0.00000000000E+00  0.00000000000E+00  0.15545053607E+04  0.15545058795E+04  0.12699999809E+01 0.  1.
        4   -1    0    0  501    0  0.00000000000E+00  0.00000000000E+00 -0.55936467189E+03  0.55936611361E+03  0.12699999809E+01 0. -1.
    10030    2    1    2    0    0  0.00000000000E+00  0.00000000000E+00  0.99514068883E+03  0.21138719931E+04  0.18649798424E+04 0.  0.
        5    1    3    3  502    0  0.63118068655E+03  0.62419256293E+03  0.82117134218E+03  0.12092765928E+04  0.46999998093E+01 0.  1.
       -5    1    3    3    0  502 -0.63118068655E+03 -0.62419256293E+03  0.17396934665E+03  0.90459540031E+03  0.46999998093E+01 0. -1.
</event>
<event>
 5   0  0.3516539E-04  0.1933649E+04  0.7818609E-02  0.8638286E-01
        2   -1    0    0  501    0  0.00000000000E+00  0.00000000000E+00  0.14808657851E+04  0.14808657851E+04  0.25500000920E-02 0.  1.
       -2   -1    0    0    0  501  0.00000000000E+00  0.00000000000E+00 -0.63121805755E+03  0.63121805755E+03  0.25500000920E-02 0. -1.
    10030    2    1    2    0    0  0.00000000000E+00  0.00000000000E+00  0.84964772756E+03  0.21120838427E+04  0.19336485972E+04 0.  0.
        4    1    3    3  502    0 -0.20526530665E+03 -0.26647807285E+03  0.14148910420E+04  0.14543255080E+04  0.12699999809E+01 0.  1.
       -4    1    3    3    0  502  0.20526530665E+03  0.26647807285E+03 -0.56524331446E+03  0.65775833470E+03  0.12699999809E+01 0. -1.
</event>
<event>
 5   0  0.3459485E-04  0.1913983E+04  0.7818609E-02  0.8647927E-01
       -2   -1    0    0    0  501  0.00000000000E+00  0.00000000000E+00  0.92729990430E+03  0.92729990430E+03  0.25500000920E-02 0.  1.
        2   -1    0    0  501    0  0.00000000000E+00  0.00000000000E+00 -0.98763409768E+03  0.98763409768E+03  0.25500000920E-02 0. -1.
    10030    2    1    2    0    0  0.00000000000E+00  0.00000000000E+00 -0.60334193381E+02  0.19149340020E+04  0.19139832855E+04 0.  0.
        3    1    3    3  502    0 -0.64336325688E+03  0.17721629180E+03  0.65611173999E+03  0.93584428188E+03  0.10100000352E+00 0.  1.
       -3    1    3    3    0  502  0.64336325688E+03 -0.17721629180E+03 -0.71644593337E+03  0.97908972011E+03  0.10100000352E+00 0. -1.
</event>
<event>
 5   0  0.1782613E-04  0.1881773E+04  0.7818609E-02  0.8663983E-01
        1   -1    0    0  501    0  0.00000000000E+00  0.00000000000E+00  0.78117569658E+03  0.78117569659E+03  0.50400001928E-02 0. -1.
       -1   -1    0    0    0  501  0.00000000000E+00  0.00000000000E+00 -0.11332500695E+04  0.11332500695E+04  0.50400001928E-02 0.  1.
    10030    2    1    2    0    0  0.00000000000E+00  0.00000000000E+00 -0.35207437293E+03  0.19144257661E+04  0.18817730070E+04 0.  0.
        3    1    3    3  502    0 -0.29162574847E+03 -0.28676236950E+02  0.73356863674E+03  0.78993092024E+03  0.10100000352E+00 0. -1.
       -3    1    3    3    0  502  0.29162574847E+03  0.28676236950E+02 -0.10856430097E+04  0.11244948459E+04  0.10100000352E+00 0.  1.
</event>
<event>
 5   0  0.3459485E-04  0.1851760E+04  0.7818609E-02  0.8679248E-01
       -2   -1    0    0    0  501  0.00000000000E+00  0.00000000000E+00  0.60009193726E+03  0.60009193726E+03  0.25500000920E-02 0. -1.
        2   -1    0    0  501    0  0.00000000000E+00  0.00000000000E+00 -0.14285368436E+04  0.14285368436E+04  0.25500000920E-02 0.  1.
    10030    2    1    2    0    0  0.00000000000E+00  0.00000000000E+00 -0.82844490629E+03  0.20286287808E+04  0.18517596409E+04 0.  0.
        3    1    3    3  502    0 -0.28512183748E+03  0.85252545515E+03 -0.17132615721E+03  0.91512118117E+03  0.10100000352E+00 0.  1.
       -3    1    3    3    0  502  0.28512183748E+03 -0.85252545515E+03 -0.65711874908E+03  0.11135075996E+04  0.10100000352E+00 0. -1.
</event>
<event>
 5   0  0.1758946E-04  0.1897484E+04  0.7818609E-02  0.8656110E-01
        1   -1    0    0  501    0  0.00000000000E+00  0.00000000000E+00  0.21305424617E+04  0.21305424617E+04  0.50400001928E-02 0. -1.
       -1   -1    0    0    0  501  0.00000000000E+00  0.00000000000E+00 -0.42247999026E+03  0.42247999029E+03  0.50400001928E-02 0.  1.
    10030    2    1    2    0    0  0.00000000000E+00  0.00000000000E+00  0.17080624714E+04  0.25530224520E+04  0.18974841855E+04 0.  0.
        2    1    3    3  502    0  0.43580019268E+03 -0.73914064707E+03  0.13986769326E+04  0.16408984935E+04  0.25500000920E-02 0. -1.
       -2    1    3    3    0  502 -0.43580019268E+03  0.73914064707E+03  0.30938553886E+03  0.91212395855E+03  0.25500000920E-02 0.  1.
</event>
<event>
 5   0  0.1694830E-04  0.1921561E+04  0.7818609E-02  0.8644198E-01
       -1   -1    0    0    0  501  0.00000000000E+00  0.00000000000E+00  0.11122905104E+04  0.11122905104E+04  0.50400001928E-02 0.  1.
        1   -1    0    0  501    0  0.00000000000E+00  0.00000000000E+00 -0.82990792824E+03  0.82990792826E+03  0.50400001928E-02 0. -1.
    10030    2    1    2    0    0  0.00000000000E+00  0.00000000000E+00  0.28238258218E+03  0.19421984387E+04  0.19215605253E+04 0.  0.
        1    1    3    3  502    0  0.79950442797E+02 -0.73362042913E+03 -0.48064618924E+03  0.88068823461E+03  0.50400001928E-02 0. -1.
       -1    1    3    3    0  502 -0.79950442797E+02  0.73362042913E+03  0.76302877141E+03  0.10615102041E+04  0.50400001928E-02 0.  1.
</event>
<event>
 5   0  0.3516539E-04  0.1774674E+04  0.7818609E-02  0.8719885E-01
       -2   -1    0    0    0  501  0.00000000000E+00  0.00000000000E+00  0.87757437384E+03  0.87757437384E+03  0.25500000920E-02 0.  1.
        2   -1    0    0  501    0  0.00000000000E+00  0.00000000000E+00 -0.89720809383E+03  0.89720809384E+03  0.25500000920E-02 0. -1.
    10030    2    1    2    0    0  0.00000000000E+00  0.00000000000E+00 -0.19633719999E+02  0.17747824677E+04  0.17746738643E+04 0.  0.
        4    1    3    3  502    0 -0.86830370863E+03  0.17805481865E+03 -0.51176003269E+02  0.88784877376E+03  0.12699999809E+01 0.  1.
       -4    1    3    3    0  502  0.86830370863E+03 -0.17805481865E+03  0.31542283270E+02  0.88693369391E+03  0.12699999809E+01 0. -1.
</event>
<event>
 5   0  0.3516539E-04  0.1885558E+04  0.7818609E-02  0.8662079E-01
        2   -1    0    0  501    0  0.00000000000E+00  0.00000000000E+00  0.11423683135E+04  0.11423683135E+04  0.25500000920E-02 0. -1.
       -2   -1    0    0    0  501  0.00000000000E+00  0.00000000000E+00 -0.77806100997E+03  0.77806100997E+03  0.25500000920E-02 0.  1.
    10030    2    1    2    0    0  0.00000000000E+00  0.00000000000E+00  0.36430730356E+03  0.19204293235E+04  0.18855580010E+04 0.  0.
        4    1    3    3  502    0  0.75583919169E+03  0.56247019819E+03  0.14738997147E+03  0.95361995791E+03  0.12699999809E+01 0. -1.
       -4    1    3    3    0  502 -0.75583919169E+03 -0.56247019819E+03  0.21691733209E+03  0.96680936559E+03  0.12699999809E+01 0.  1.
</event>
<event>
 5   0  0.3516539E-04  0.1910064E+04  0.7818609E-02  0.8649863E-01
       -2   -1    0    0    0  501  0.00000000000E+00  0.00000000000E+00  0.56665149251E+03  0.56665149251E+03  0.25500000920E-02 0. -1.
        2   -1    0    0  501    0  0.00000000000E+00  0.00000000000E+00 -0.16096066334E+04  0.16096066334E+04  0.25500000920E-02 0.  1.
    10030    2    1    2    0    0  0.00000000000E+00  0.00000000000E+00 -0.10429551408E+04  0.21762581259E+04  0.19100638745E+04 0.  0.
        4    1    3    3  502    0 -0.43371857073E+03  0.31613019525E+03  0.37857264859E+03  0.65678684678E+03  0.12699999809E+01 0. -1.
       -4    1    3    3    0  502  0.43371857073E+03 -0.31613019525E+03 -0.14215277894E+04  0.15194712791E+04  0.12699999809E+01 0.  1.
</event>
<event>
 5   0  0.1694830E-04  0.1899506E+04  0.7818609E-02  0.8655102E-01
       -1   -1    0    0    0  501  0.00000000000E+00  0.00000000000E+00  0.47088672931E+03  0.47088672934E+03  0.50400001928E-02 0.  1.
        1   -1    0    0  501    0  0.00000000000E+00  0.00000000000E+00 -0.19156011779E+04  0.19156011779E+04  0.50400001928E-02 0. -1.
    10030    2    1    2    0    0  0.00000000000E+00  0.00000000000E+00 -0.14447144486E+04  0.23864879072E+04  0.18995064342E+04 0.  0.
        1    1    3    3  502    0  0.50358061816E+03  0.30408642386E+03 -0.16591506369E+04  0.17603530407E+04  0.50400001928E-02 0. -1.
       -1    1    3    3    0  502 -0.50358061816E+03 -0.30408642386E+03  0.21443618830E+03  0.62613486649E+03  0.50400001928E-02 0.  1.
</event>
<event>
 5   0  0.3459485E-04  0.1897881E+04  0.7818609E-02  0.8655912E-01
        2   -1    0    0  501    0  0.00000000000E+00  0.00000000000E+00  0.95149967121E+03  0.95149967121E+03  0.25500000920E-02 0.  1.
       -2   -1    0    0    0  501  0.00000000000E+00  0.00000000000E+00 -0.94638802166E+03  0.94638802166E+03  0.25500000920E-02 0. -1.
    10030    2    1    2    0    0  0.00000000000E+00  0.00000000000E+00  0.51116495465E+01  0.18978876929E+04  0.18978808092E+04 0.  0.
        3    1    3    3  502    0  0.30788271357E+03  0.60307002843E+03  0.66739103976E+03  0.95073447116E+03  0.10100000352E+00 0.  1.
       -3    1    3    3    0  502 -0.30788271357E+03 -0.60307002843E+03 -0.66227939021E+03  0.94715322171E+03  0.10100000352E+00 0. -1.
</event>
<event>
 5   0  0.3720978E-04  0.1915087E+04  0.7818609E-02  0.8647383E-01
        2   -1    0    0  501    0  0.00000000000E+00  0.00000000000E+00  0.87847821669E+03  0.87847821669E+03  0.25500000920E-02 0.  1.
       -2   -1    0    0    0  501  0.00000000000E+00  0.00000000000E+00 -0.10437247515E+04  0.10437247515E+04  0.25500000920E-02 0. -1.
    10030    2    1    2    0    0  0.00000000000E+00  0.00000000000E+00 -0.16524653486E+03  0.19222029682E+04  0.19150868998E+04 0.  0.
        1    1    3    3  502    0 -0.79757622966E+03 -0.27993488342E+03  0.36893515738E+03  0.92228224067E+03  0.50400001928E-02 0.  1.
       -1    1    3    3    0  502  0.79757622966E+03  0.27993488342E+03 -0.53418169224E+03  0.99992072757E+03  0.50400001928E-02 0. -1.
</event>
<event>
 5   0  0.1758946E-04  0.1876984E+04  0.7818609E-02  0.8666399E-01
       -1   -1    0    0    0  501  0.00000000000E+00  0.00000000000E+00  0.71279758377E+03  0.71279758379E+03  0.50400001928E-02 0.  1.
        1   -1    0    0  501    0  0.00000000000E+00  0.00000000000E+00 -0.12356482672E+04  0.12356482672E+04  0.50400001928E-02 0. -1.
    10030    2    1    2    0    0  0.00000000000E+00  0.00000000000E+00 -0.52285068341E+03  0.19484458510E+04  0.18769838564E+04 0.  0.
        2    1    3    3  502    0  0.27995278035E+02  0.93638168537E+03 -0.31989660951E+03  0.98991324725E+03  0.25500000920E-02 0. -1.
       -2    1    3    3    0  502 -0.27995278035E+02 -0.93638168537E+03 -0.20295407390E+03  0.95853260373E+03  0.25500000920E-02 0.  1.
</event>
<event>
 5   0  0.1694830E-04  0.1790427E+04  0.7818609E-02  0.8711407E-01
        1   -1    0    0  501    0  0.00000000000E+00  0.00000000000E+00  0.78230541499E+03  0.78230541501E+03  0.50400001928E-02 0.  1.
       -1   -1    0    0    0  501  0.00000000000E+00  0.00000000000E+00 -0.10244173582E+04  0.10244173582E+04  0.50400001928E-02 0. -1.
    10030    2    1    2    0    0  0.00000000000E+00  0.00000000000E+00 -0.24211194316E+03  0.18067227732E+04  0.17904270401E+04 0.  0.
        1    1    3    3  502    0  0.50776848168E+03 -0.53736736833E+03  0.38833020210E+03  0.83510051217E+03  0.50400001928E-02 0.  1.
       -1    1    3    3    0  502 -0.50776848168E+03  0.53736736833E+03 -0.63044214526E+03  0.97162226101E+03  0.50400001928E-02 0. -1.
</event>
<event>
 5   0  0.1758946E-04  0.1997585E+04  0.7818609E-02  0.8607751E-01
        1   -1    0    0  501    0  0.00000000000E+00  0.00000000000E+00  0.20670176448E+04  0.20670176448E+04  0.50400001928E-02 0. -1.
       -1   -1    0    0    0  501  0.00000000000E+00  0.00000000000E+00 -0.48262118767E+03  0.48262118770E+03  0.50400001928E-02 0.  1.
    10030    2    1    2    0    0  0.00000000000E+00  0.00000000000E+00  0.15843964571E+04  0.25496388325E+04  0.19975850527E+04 0.  0.
        2    1    3    3  502    0 -0.50710516450E+03  0.47217296148E+03 -0.12596873593E+03  0.70425213940E+03  0.25500000920E-02 0.  1.
       -2    1    3    3    0  502  0.50710516450E+03 -0.47217296148E+03  0.17103651930E+04  0.18453866931E+04  0.25500000920E-02 0. -1.
</event>
<event>
 5   0  0.3459485E-04  0.2076872E+04  0.7818609E-02  0.8571500E-01
        2   -1    0    0  501    0  0.00000000000E+00  0.00000000000E+00  0.17251136029E+04  0.17251136029E+04  0.25500000920E-02 0.  1.
       -2   -1    0    0    0  501  0.00000000000E+00  0.00000000000E+00 -0.62508898106E+03  0.62508898107E+03  0.25500000920E-02 0. -1.
    10030    2    1    2    0    0  0.00000000000E+00  0.00000000000E+00  0.11000246219E+04  0.23502025840E+04  0.20768721716E+04 0.  0.
        3    1    3    3  502    0  0.24059755839E+02  0.21944078875E+03  0.16982538398E+04  0.17125417502E+04  0.10100000352E+00 0.  1.
       -3    1    3    3    0  502 -0.24059755839E+02 -0.21944078875E+03 -0.59822921791E+03  0.63766083381E+03  0.10100000352E+00 0. -1.
</event>
<event>
 5   0  0.1758946E-04  0.1870900E+04  0.7818609E-02  0.8669479E-01
        1   -1    0    0  501    0  0.00000000000E+00  0.00000000000E+00  0.94859439658E+03  0.94859439659E+03  0.50400001928E-02 0.  1.
       -1   -1    0    0    0  501  0.00000000000E+00  0.00000000000E+00 -0.92248753626E+03  0.92248753628E+03  0.50400001928E-02 0. -1.
    10030    2    1    2    0    0  0.00000000000E+00  0.00000000000E+00  0.26106860312E+02  0.18710819329E+04  0.18708997919E+04 0.  0.
        2    1    3    3  502    0  0.59477920436E+03 -0.67930460691E+03  0.25771873369E+03  0.93895473618E+03  0.25500000920E-02 0.  1.
       -2    1    3    3    0  502 -0.59477920436E+03  0.67930460691E+03 -0.23161187338E+03  0.93212719668E+03  0.25500000920E-02 0. -1.
</event>
<event>
 5   0  0.3535876E-04  0.1892568E+04  0.7818609E-02  0.8658565E-01
       -2   -1    0    0    0  501  0.00000000000E+00  0.00000000000E+00  0.71111262821E+03  0.71111262821E+03  0.25500000920E-02 0. -1.
        2   -1    0    0  501    0  0.00000000000E+00  0.00000000000E+00 -0.12592286728E+04  0.12592286728E+04  0.25500000920E-02 0.  1.
    10030    2    1    2    0    0  0.00000000000E+00  0.00000000000E+00 -0.54811604463E+03  0.19703413011E+04  0.18925680025E+04 0.  0.
        2    1    3    3  502    0 -0.11090636654E+03 -0.12784910257E+03 -0.12433427544E+04  0.12548094756E+04  0.25500000920E-02 0.  1.
       -2    1    3    3    0  502  0.11090636654E+03  0.12784910257E+03  0.69522670979E+03  0.71553182542E+03  0.25500000920E-02 0. -1.
</event>
<event>
 5   0  0.1782613E-04  0.1901127E+04  0.7818609E-02  0.8654296E-01
       -1   -1    0    0    0  501  0.00000000000E+00  0.00000000000E+00  0.65002290080E+03  0.65002290082E+03  0.50400001928E-02 0. -1.
        1   -1    0    0  501    0  0.00000000000E+00  0.00000000000E+00 -0.13900602858E+04  0.13900602858E+04  0.50400001928E-02 0.  1.
    10030    2    1    2    0    0  0.00000000000E+00  0.00000000000E+00 -0.74003738502E+03  0.20400831866E+04  0.19011270545E+04 0.  0.
        3    1    3    3  502    0  0.10629471038E+03 -0.78600807865E+03 -0.93220365662E+03  0.12239734200E+04  0.10100000352E+00 0.  1.
       -3    1    3    3    0  502 -0.10629471038E+03  0.78600807865E+03  0.19216627159E+03  0.81610976669E+03  0.10100000352E+00 0. -1.
</event>
<event>
 5   0  0.1694830E-04  0.1891798E+04  0.7818609E-02  0.8658950E-01
       -1   -1    0    0    0  501  0.00000000000E+00  0.00000000000E+00  0.53754377918E+03  0.53754377920E+03  0.50400001928E-02 0.  1.
        1   -1    0    0  501    0  0.00000000000E+00  0.00000000000E+00 -0.16644681705E+04  0.16644681705E+04  0.50400001928E-02 0. -1.
    10030    2    1    2    0    0  0.00000000000E+00  0.00000000000E+00 -0.11269243914E+04  0.22020119498E+04  0.18917975692E+04 0.  0.
        1    1    3    3  502    0  0.46675015048E+03  0.66660816916E+03 -0.11247152118E+04  0.13882386185E+04  0.50400001928E-02 0.  1.
       -1    1    3    3    0  502 -0.46675015048E+03 -0.66660816916E+03 -0.22091795418E+01  0.81377333126E+03  0.50400001928E-02 0. -1.
</event>
<event>
 5   0  0.3516539E-04  0.2018332E+04  0.7818609E-02  0.8598098E-01
       -2   -1    0    0    0  501  0.00000000000E+00  0.00000000000E+00  0.13983142159E+04  0.13983142159E+04  0.25500000920E-02 0. -1.
        2   -1    0    0  501    0  0.00000000000E+00  0.00000000000E+00 -0.72831697135E+03  0.72831697135E+03  0.25500000920E-02 0.  1.
    10030    2    1    2    0    0  0.00000000000E+00  0.00000000000E+00  0.66999724451E+03  0.21266311872E+04  0.20183319595E+04 0.  0.
        4    1    3    3  502    0 -0.58469159717E+03 -0.70715159475E+03 -0.10764641284E+03  0.92385984049E+03  0.12699999809E+01 0.  1.
       -4    1    3    3    0  502  0.58469159717E+03  0.70715159475E+03  0.77764365735E+03  0.12027713467E+04  0.12699999809E+01 0. -1.
</event>
<event>
 5   0  0.3623359E-04  0.1888763E+04  0.7818609E-02  0.8660470E-01
        2   -1    0    0  501    0  0.00000000000E+00  0.00000000000E+00  0.92909606454E+03  0.92909606454E+03  0.25500000920E-02 0. -1.
       -2   -1    0    0    0  501  0.00000000000E+00  0.00000000000E+00 -0.95991850864E+03  0.95991850864E+03  0.25500000920E-02 0.  1.
    10030    2    1    2    0    0  0.00000000000E+00  0.00000000000E+00 -0.30822444099E+02  0.18890145732E+04  0.18887630965E+04 0.  0.
        5    1    3    3  502    0  0.19855319519E+03  0.69637348904E+03  0.59086666102E+03  0.93461484509E+03  0.46999998093E+01 0.  1.
       -5    1    3    3    0  502 -0.19855319519E+03 -0.69637348904E+03 -0.62168910512E+03  0.95439972809E+03  0.46999998093E+01 0. -1.
</event>
<event>
 5   0  0.1758946E-04  0.1900601E+04  0.7818609E-02  0.8654557E-01
       -1   -1    0    0    0  501  0.00000000000E+00  0.00000000000E+00  0.45757481706E+03  0.45757481709E+03  0.50400001928E-02 0.  1.
        1   -1    0    0  501    0  0.00000000000E+00  0.00000000000E+00 -0.19736023682E+04  0.19736023683E+04  0.50400001928E-02 0. -1.
    10030    2    1    2    0    0  0.00000000000E+00  0.00000000000E+00 -0.15160275512E+04  0.24311771853E+04  0.19006006868E+04 0.  0.
        2    1    3    3  502    0 -0.70290322627E+03  0.52428941458E+03 -0.12264709805E+04  0.15077079961E+04  0.25500000920E-02 0. -1.
       -2    1    3    3    0  502  0.70290322627E+03 -0.52428941458E+03 -0.28955657073E+03  0.92346918920E+03  0.25500000920E-02 0.  1.
</event>
<event>
 5   0  0.1758946E-04  0.1885206E+04  0.7818609E-02  0.8662255E-01
       -1   -1    0    0    0  501  0.00000000000E+00  0.00000000000E+00  0.42412019231E+03  0.42412019234E+03  0.50400001928E-02 0.  1.
        1   -1    0    0  501    0  0.00000000000E+00  0.00000000000E+00 -0.20949267545E+04  0.20949267545E+04  0.50400001928E-02 0. -1.
    10030    2    1    2    0    0  0.00000000000E+00  0.00000000000E+00 -0.16708065621E+04  0.25190469468E+04  0.18852063420E+04 0.  0.
        2    1    3    3  502    0 -0.35876312649E+03 -0.14583863199E+03 -0.19837122314E+04  0.20211615731E+04  0.25500000920E-02 0. -1.
       -2    1    3    3    0  502  0.35876312649E+03  0.14583863199E+03  0.31290566925E+03  0.49788537372E+03  0.25500000920E-02 0.  1.
</event>
<event>
 5   0  0.1694830E-04  0.1871825E+04  0.7818609E-02  0.8669009E-01
       -1   -1    0    0    0  501  0.00000000000E+00  0.00000000000E+00  0.10880354672E+04  0.10880354672E+04  0.50400001928E-02 0.  1.
        1   -1    0    0  501    0  0.00000000000E+00  0.00000000000E+00 -0.80505845629E+03  0.80505845630E+03  0.50400001928E-02 0. -1.
    10030    2    1    2    0    0  0.00000000000E+00  0.00000000000E+00  0.28297701090E+03  0.18930939235E+04  0.18718249423E+04 0.  0.
        1    1    3    3  502    0 -0.44171956941E+03  0.73559147229E+03  0.51952874100E+03  0.10030558832E+04  0.50400001928E-02 0.  1.
       -1    1    3    3    0  502  0.44171956941E+03 -0.73559147229E+03 -0.23655173010E+03  0.89003804028E+03  0.50400001928E-02 0. -1.
</event>
<event>
 5   0  0.1813834E-04  0.1895779E+04  0.7818609E-02  0.8656960E-01
        1   -1    0    0  501    0  0.00000000000E+00  0.00000000000E+00  0.75175883222E+03  0.75175883223E+03  0.50400001928E-02 0.  1.
       -1   -1    0    0    0  501  0.00000000000E+00  0.00000000000E+00 -0.11951894111E+04  0.11951894111E+04  0.50400001928E-02 0. -1.
    10030    2    1    2    0    0  0.00000000000E+00  0.00000000000E+00 -0.44343057892E+03  0.19469482434E+04  0.18957786749E+04 0.  0.
        5    1    3    3  502    0  0.30676295273E+03  0.76841046701E+03 -0.69670732496E+03  0.10816567578E+04  0.46999998093E+01 0. -1.
       -5    1    3    3    0  502 -0.30676295273E+03 -0.76841046701E+03  0.25327674604E+03  0.86529148561E+03  0.46999998093E+01 0.  1.
</event>
<event>
 5   0  0.1782613E-04  0.1899642E+04  0.7818609E-02  0.8655034E-01
        1   -1    0    0  501    0  0.00000000000E+00  0.00000000000E+00  0.52615404242E+03  0.52615404244E+03  0.50400001928E-02 0. -1.
       -1   -1    0    0    0  501  0.00000000000E+00  0.00000000000E+00 -0.17146313775E+04  0.17146313775E+04  0.50400001928E-02 0.  1.
    10030    2    1    2    0    0  0.00000000000E+00  0.00000000000E+00 -0.11884773351E+04  0.22407854199E+04  0.18996423143E+04 0.  0.
        3    1    3    3  502    0 -0.34697219673E+03  0.80688675684E+03 -0.10206937888E+04  0.13465777974E+04  0.10100000352E+00 0. -1.
       -3    1    3    3    0  502  0.34697219673E+03 -0.80688675684E+03 -0.16778354628E+03  0.89420762257E+03  0.10100000352E+00 0.  1.
</event>
<event>
 5   0  0.3720978E-04  0.1967337E+04  0.7818609E-02  0.8622046E-01
        2   -1    0    0  501    0  0.00000000000E+00  0.00000000000E+00  0.14096437600E+04  0.14096437600E+04  0.25500000920E-02 0.  1.
       -2   -1    0    0    0  501  0.00000000000E+00  0.00000000000E+00 -0.68641712082E+03  0.68641712083E+03  0.25500000920E-02 0. -1.
    10030    2    1    2    0    0  0.00000000000E+00  0.00000000000E+00  0.72322663920E+03  0.20960608809E+04  0.19673368915E+04 0.  0.
        1    1    3    3  502    0 -0.70398124216E+03 -0.96562947436E+02  0.10863329658E+04  0.12980883271E+04  0.50400001928E-02 0.  1.
       -1    1    3    3    0  502  0.70398124216E+03  0.96562947436E+02 -0.36310632665E+03  0.79797255379E+03  0.50400001928E-02 0. -1.
</event>
<event>
 5   0  0.1813834E-04  0.1867444E+04  0.7818609E-02  0.8671233E-01
       -1   -1    0    0    0  501  0.00000000000E+00  0.00000000000E+00  0.39115402143E+03  0.39115402146E+03  0.50400001928E-02 0.  1.
        1   -1    0    0  501    0  0.00000000000E+00  0.00000000000E+00 -0.22288833357E+04  0.22288833357E+04  0.50400001928E-02 0. -1.
    10030    2    1    2    0    0  0.00000000000E+00  0.00000000000E+00 -0.18377293143E+04  0.26200373572E+04  0.18674439002E+04 0.  0.
        5    1    3    3  502    0  0.70889315753E+03  0.28385055811E+03 -0.16499928013E+03  0.78124740036E+03  0.46999998093E+01 0.  1.
       -5    1    3    3    0  502 -0.70889315753E+03 -0.28385055811E+03 -0.16727300342E+04  0.18387899568E+04  0.46999998093E+01 0. -1.
</event>
<event>
 5   0  0.1694830E-04  0.1886147E+04  0.7818609E-02  0.8661783E-01
        1   -1    0    0  501    0  0.00000000000E+00  0.00000000000E+00  0.21917259819E+04  0.21917259819E+04  0.50400001928E-02 0. -1.
       -1   -1    0    0    0  501  0.00000000000E+00  0.00000000000E+00 -0.40579344846E+03  0.40579344849E+03  0.50400001928E-02 0.  1.
    10030    2    1    2    0    0  0.00000000000E+00  0.00000000000E+00  0.17859325335E+04  0.25975194304E+04  0.18861474432E+04 0.  0.
        1    1    3    3  502    0  0.15627261630E+03  0.28131242622E+03 -0.32784219892E+03  0.45938907166E+03  0.50400001928E-02 0.  1.
       -1    1    3    3    0  502 -0.15627261630E+03 -0.28131242622E+03  0.21137747324E+04  0.21381303588E+04  0.50400001928E-02 0. -1.
</event>
<event>
 5   0  0.1694830E-04  0.1903315E+04  0.7818609E-02  0.8653208E-01
        1   -1    0    0  501    0  0.00000000000E+00  0.00000000000E+00  0.12880760047E+04  0.12880760047E+04  0.50400001928E-02 0.  1.
       -1   -1    0    0    0  501  0.00000000000E+00  0.00000000000E+00 -0.70310471165E+03  0.70310471166E+03  0.50400001928E-02 0. -1.
    10030    2    1    2    0    0  0.00000000000E+00  0.00000000000E+00  0.58497129302E+03  0.19911807163E+04  0.19033153263E+04 0.  0.
        1    1    3    3  502    0  0.90331087883E+03 -0.22801770817E+03  0.49558624757E+03  0.10552574794E+04  0.50400001928E-02 0.  1.
       -1    1    3    3    0  502 -0.90331087883E+03  0.22801770817E+03  0.89385045448E+02  0.93592323693E+03  0.50400001928E-02 0. -1.
</event>
<event>
 5   0  0.1711979E-04  0.1625865E+04  0.7818609E-02  0.8804814E-01
       -1   -1    0    0    0  501  0.00000000000E+00  0.00000000000E+00  0.12783059936E+04  0.12783059936E+04  0.50400001928E-02 0.  1.
        1   -1    0    0  501    0  0.00000000000E+00  0.00000000000E+00 -0.51698028339E+03  0.51698028342E+03  0.50400001928E-02 0. -1.
    10030    2    1    2    0    0  0.00000000000E+00  0.00000000000E+00  0.76132571023E+03  0.17952862771E+04  0.16258646867E+04 0.  0.
        4    1    3    3  502    0  0.31690996668E+03 -0.25806608657E+03 -0.39529276379E+03  0.56858421894E+03  0.12699999809E+01 0. -1.
       -4    1    3    3    0  502 -0.31690996668E+03  0.25806608657E+03  0.11566184740E+04  0.12267020581E+04  0.12699999809E+01 0.  1.
</event>
<event>
 5   0  0.1782613E-04  0.1960557E+04  0.7818609E-02  0.8625287E-01
       -1   -1    0    0    0  501  0.00000000000E+00  0.00000000000E+00  0.90756008534E+03  0.90756008536E+03  0.50400001928E-02 0.  1.
        1   -1    0    0  501    0  0.00000000000E+00  0.00000000000E+00 -0.10588235351E+04  0.10588235351E+04  0.50400001928E-02 0. -1.
    10030    2    1    2    0    0  0.00000000000E+00  0.00000000000E+00 -0.15126344974E+03  0.19663836205E+04  0.19605570411E+04 0.  0.
        3    1    3    3  502    0  0.13893198656E+03  0.97037533611E+03 -0.79590335121E+02  0.98349632509E+03  0.10100000352E+00 0.  1.
       -3    1    3    3    0  502 -0.13893198656E+03 -0.97037533611E+03 -0.71673114622E+02  0.98288729536E+03  0.10100000352E+00 0. -1.
</event>
<event>
 5   0  0.3720978E-04  0.1854464E+04  0.7818609E-02  0.8677861E-01
        2   -1    0    0  501    0  0.00000000000E+00  0.00000000000E+00  0.13414911491E+04  0.13414911491E+04  0.25500000920E-02 0.  1.
       -2   -1    0    0    0  501  0.00000000000E+00  0.00000000000E+00 -0.64089804944E+03  0.64089804945E+03  0.25500000920E-02 0. -1.
    10030    2    1    2    0    0  0.00000000000E+00  0.00000000000E+00  0.70059309968E+03  0.19823891986E+04  0.18544638695E+04 0.  0.
        1    1    3    3  502    0 -0.79278812162E+03 -0.44553898707E+03  0.54372348662E+03  0.10595533138E+04  0.50400001928E-02 0. -1.
       -1    1    3    3    0  502  0.79278812162E+03  0.44553898707E+03  0.15686961306E+03  0.92283588481E+03  0.50400001928E-02 0.  1.
</event>
<event>
 5   0  0.3459485E-04  0.1897922E+04  0.7818609E-02  0.8655892E-01
       -2   -1    0    0    0  501  0.00000000000E+00  0.00000000000E+00  0.87974396731E+03  0.87974396731E+03  0.25500000920E-02 0. -1.
        2   -1    0    0  501    0  0.00000000000E+00  0.00000000000E+00 -0.10236235194E+04  0.10236235194E+04  0.25500000920E-02 0.  1.
    10030    2    1    2    0    0  0.00000000000E+00  0.00000000000E+00 -0.14387955207E+03  0.19033674867E+04  0.18979216169E+04 0.  0.
        3    1    3    3  502    0  0.32693355609E+03  0.86289322379E+03 -0.29406196554E+03  0.96847442689E+03  0.10100000352E+00 0.  1.
       -3    1    3    3    0  502 -0.32693355609E+03 -0.86289322379E+03  0.15018241346E+03  0.93489305981E+03  0.10100000352E+00 0. -1.
</event>
<event>
 5   0  0.1782613E-04  0.1894648E+04  0.7818609E-02  0.8657525E-01
        1   -1    0    0  501    0  0.00000000000E+00  0.00000000000E+00  0.14389334478E+04  0.14389334479E+04  0.50400001928E-02 0. -1.
       -1   -1    0    0    0  501  0.00000000000E+00  0.00000000000E+00 -0.62367232088E+03  0.62367232090E+03  0.50400001928E-02 0.  1.
    10030    2    1    2    0    0  0.00000000000E+00  0.00000000000E+00  0.81526112697E+03  0.20626057688E+04  0.18946482133E+04 0.  0.
        3    1    3    3  502    0 -0.40416042483E+02  0.93810407357E+03  0.27100521598E+03  0.97730064291E+03  0.10100000352E+00 0.  1.
       -3    1    3    3    0  502  0.40416042483E+02 -0.93810407357E+03  0.54425591099E+03  0.10853051258E+04  0.10100000352E+00 0. -1.
</event>
<event>
 5   0  0.1287000E-04  0.1629461E+04  0.7818609E-02  0.8802651E-01
        4   -1    0    0  501    0  0.00000000000E+00  0.00000000000E+00  0.49962726663E+03  0.49962888073E+03  0.12699999809E+01 0.  1.
       -4   -1    0    0    0  501  0.00000000000E+00  0.00000000000E+00 -0.13285583153E+04  0.13285589223E+04  0.12699999809E+01 0. -1.
    10030    2    1    2    0    0  0.00000000000E+00  0.00000000000E+00 -0.82893104862E+03  0.18281878030E+04  0.16294612483E+04 0.  0.
        2    1    3    3  502    0  0.35656189451E+03 -0.66516083512E+03 -0.70094332327E+02  0.75795022041E+03  0.25500000920E-02 0. -1.
       -2    1    3    3    0  502 -0.35656189451E+03  0.66516083512E+03 -0.75883671629E+03  0.10702375826E+04  0.25500000920E-02 0.  1.
</event>
<event>
 5   0  0.1711979E-04  0.1922145E+04  0.7818609E-02  0.8643911E-01
       -1   -1    0    0    0  501  0.00000000000E+00  0.00000000000E+00  0.70912247118E+03  0.70912247119E+03  0.50400001928E-02 0. -1.
        1   -1    0    0  501    0  0.00000000000E+00  0.00000000000E+00 -0.13025394515E+04  0.13025394515E+04  0.50400001928E-02 0.  1.
    10030    2    1    2    0    0  0.00000000000E+00  0.00000000000E+00 -0.59341698030E+03  0.20116619227E+04  0.19221446300E+04 0.  0.
        4    1    3    3  502    0  0.28816214668E+03  0.12510074378E+03  0.65387050076E+03  0.72542116287E+03  0.12699999809E+01 0. -1.
       -4    1    3    3    0  502 -0.28816214668E+03 -0.12510074378E+03 -0.12472874811E+04  0.12862407598E+04  0.12699999809E+01 0.  1.
</event>
<event>
 5   0  0.1758946E-04  0.1987629E+04  0.7818609E-02  0.8612426E-01
        1   -1    0    0  501    0  0.00000000000E+00  0.00000000000E+00  0.14314488226E+04  0.14314488227E+04  0.50400001928E-02 0. -1.
       -1   -1    0    0    0  501  0.00000000000E+00  0.00000000000E+00 -0.68997724584E+03  0.68997724585E+03  0.50400001928E-02 0.  1.
    10030    2    1    2    0    0  0.00000000000E+00  0.00000000000E+00  0.74147157681E+03  0.21214260685E+04  0.19876288549E+04 0.  0.
        2    1    3    3  502    0 -0.74336503133E+02  0.65713341244E+03 -0.42103417986E+03  0.78397705200E+03  0.25500000920E-02 0.  1.
       -2    1    3    3    0  502  0.74336503133E+02 -0.65713341244E+03  0.11625057567E+04  0.13374490165E+04  0.25500000920E-02 0. -1.
</event>
<event>
 5   0  0.1694830E-04  0.1891566E+04  0.7818609E-02  0.8659066E-01
        1   -1    0    0  501    0  0.00000000000E+00  0.00000000000E+00  0.66535927366E+03  0.66535927368E+03  0.50400001928E-02 0. -1.
       -1   -1    0    0    0  501  0.00000000000E+00  0.00000000000E+00 -0.13443947722E+04  0.13443947722E+04  0.50400001928E-02 0.  1.
    10030    2    1    2    0    0  0.00000000000E+00  0.00000000000E+00 -0.67903549851E+03  0.20097540459E+04  0.18915660487E+04 0.  0.
        1    1    3    3  502    0  0.76152066913E+03  0.34105933063E+02  0.25530929009E+03  0.80390284103E+03  0.50400001928E-02 0. -1.
       -1    1    3    3    0  502 -0.76152066913E+03 -0.34105933063E+02 -0.93434478860E+03  0.12058512048E+04  0.50400001928E-02 0.  1.
</event>
<event>
 5   0  0.1813834E-04  0.1956233E+04  0.7818609E-02  0.8627361E-01
        1   -1    0    0  501    0  0.00000000000E+00  0.00000000000E+00  0.79119155129E+03  0.79119155130E+03  0.50400001928E-02 0. -1.
       -1   -1    0    0    0  501  0.00000000000E+00  0.00000000000E+00 -0.12092040802E+04  0.12092040802E+04  0.50400001928E-02 0.  1.
    10030    2    1    2    0    0  0.00000000000E+00  0.00000000000E+00 -0.41801252892E+03  0.20003956315E+04  0.19562331682E+04 0.  0.
        5    1    3    3  502    0  0.92747555243E+03 -0.92558630470E+02 -0.51219933044E+03  0.10635545329E+04  0.46999998093E+01 0.  1.
       -5    1    3    3    0  502 -0.92747555243E+03  0.92558630470E+02  0.94186801522E+02  0.93684109859E+03  0.46999998093E+01 0. -1.
</event>
<event>
 5   0  0.3623359E-04  0.2009504E+04  0.7818609E-02  0.8602190E-01
       -2   -1    0    0    0  501  0.00000000000E+00  0.00000000000E+00  0.65578656198E+03  0.65578656198E+03  0.25500000920E-02 0. -1.
        2   -1    0    0  501    0  0.00000000000E+00  0.00000000000E+00 -0.15394136095E+04  0.15394136095E+04  0.25500000920E-02 0.  1.
    10030    2    1    2    0    0  0.00000000000E+00  0.00000000000E+00 -0.88362704755E+03  0.21952001715E+04  0.20095041761E+04 0.  0.
        5    1    3    3  502    0  0.68994670931E+03 -0.24797631201E+03  0.30868484530E+03  0.79550432854E+03  0.46999998093E+01 0. -1.
       -5    1    3    3    0  502 -0.68994670931E+03  0.24797631201E+03 -0.11923118929E+04  0.13996958430E+04  0.46999998093E+01 0.  1.
</event>
<event>
 5   0  0.3516539E-04  0.1885488E+04  0.7818609E-02  0.8662114E-01
       -2   -1    0    0    0  501  0.00000000000E+00  0.00000000000E+00  0.65784074615E+03  0.65784074616E+03  0.25500000920E-02 0. -1.
        2   -1    0    0  501    0  0.00000000000E+00  0.00000000000E+00 -0.13510354336E+04  0.13510354336E+04  0.25500000920E-02 0.  1.
    10030    2    1    2    0    0  0.00000000000E+00  0.00000000000E+00 -0.69319468744E+03  0.20088761797E+04  0.18854879026E+04 0.  0.
        4    1    3    3  502    0 -0.40369883750E+03 -0.84176025212E+03 -0.48645640213E+03  0.10526986832E+04  0.12699999809E+01 0.  1.
       -4    1    3    3    0  502  0.40369883750E+03  0.84176025212E+03 -0.20673828531E+03  0.95617749658E+03  0.12699999809E+01 0. -1.
</event>
<event>
 5   0  0.1813834E-04  0.1876211E+04  0.7818609E-02  0.8666789E-01
        1   -1    0    0  501    0  0.00000000000E+00  0.00000000000E+00  0.14966015392E+04  0.14966015392E+04  0.50400001928E-02 0. -1.
       -1   -1    0    0    0  501  0.00000000000E+00  0.00000000000E+00 -0.58802671870E+03  0.58802671872E+03  0.50400001928E-02 0.  1.
    10030    2    1    2    0    0  0.00000000000E+00  0.00000000000E+00  0.90857482050E+03  0.20846282579E+04  0.18762107476E+04 0.  0.
        5    1    3    3  502    0  0.94547578021E+02 -0.64335693947E+02  0.14888144382E+04  0.14932075701E+04  0.46999998093E+01 0. -1.
       -5    1    3    3    0  502 -0.94547578021E+02  0.64335693947E+02 -0.58023961770E+03  0.59142068781E+03  0.46999998093E+01 0.  1.
</event>
<event>
 5   0  0.1287000E-04  0.1913037E+04  0.7818609E-02  0.8648394E-01
        3   -1    0    0  501    0  0.00000000000E+00  0.00000000000E+00  0.98224964088E+03  0.98224964608E+03  0.10100000352E+00 0. -1.
       -3   -1    0    0    0  501  0.00000000000E+00  0.00000000000E+00 -0.93146120255E+03  0.93146120802E+03  0.10100000352E+00 0.  1.
    10030    2    1    2    0    0  0.00000000000E+00  0.00000000000E+00  0.50788438336E+02  0.19137108541E+04  0.19130367920E+04 0.  0.
        4    1    3    3  502    0 -0.49242137541E+03 -0.44960902196E+03 -0.66063072577E+03  0.93864884399E+03  0.12699999809E+01 0.  1.
       -4    1    3    3    0  502  0.49242137541E+03  0.44960902196E+03  0.71141916411E+03  0.97506201011E+03  0.12699999809E+01 0. -1.
</event>
<event>
 5   0  0.3720978E-04  0.1935545E+04  0.7818609E-02  0.8637363E-01
       -2   -1    0    0    0  501  0.00000000000E+00  0.00000000000E+00  0.10488678919E+04  0.10488678919E+04  0.25500000920E-02 0.  1.
        2   -1    0    0  501    0  0.00000000000E+00  0.00000000000E+00 -0.89294731833E+03  0.89294731833E+03  0.25500000920E-02 0. -1.
    10030    2    1    2    0    0  0.00000000000E+00  0.00000000000E+00  0.15592057360E+03  0.19418152103E+04  0.19355451649E+04 0.  0.
        1    1    3    3  502    0 -0.16778168037E+03  0.94092176240E+03 -0.74516647027E+02  0.95866427175E+03  0.50400001928E-02 0. -1.
       -1    1    3    3    0  502  0.16778168037E+03 -0.94092176240E+03  0.23043722063E+03  0.98315093852E+03  0.50400001928E-02 0.  1.
</event>
<event>
 5   0  0.3516539E-04  0.1591760E+04  0.7818609E-02  0.8825626E-01
       -2   -1    0    0    0  501  0.00000000000E+00  0.00000000000E+00  0.54306930842E+03  0.54306930843E+03  0.25500000920E-02 0. -1.
        2   -1    0    0  501    0  0.00000000000E+00  0.00000000000E+00 -0.11663789710E+04  0.11663789710E+04  0.25500000920E-02 0.  1.
    10030    2    1    2    0    0  0.00000000000E+00  0.00000000000E+00 -0.62330966262E+03  0.17094482795E+04  0.15917595562E+04 0.  0.
        4    1    3    3  502    0 -0.71214792469E+02 -0.28628035840E+03 -0.11054927963E+04  0.11441782754E+04  0.12699999809E+01 0.  1.
       -4    1    3    3    0  502  0.71214792469E+02  0.28628035840E+03  0.48218313365E+03  0.56527000412E+03  0.12699999809E+01 0. -1.
</event>
<event>
 5   0  0.3516539E-04  0.1755289E+04  0.7818609E-02  0.8730445E-01
        2   -1    0    0  501    0  0.00000000000E+00  0.00000000000E+00  0.60394850933E+03  0.60394850934E+03  0.25500000920E-02 0. -1.
       -2   -1    0    0    0  501  0.00000000000E+00  0.00000000000E+00 -0.12753728351E+04  0.12753728351E+04  0.25500000920E-02 0.  1.
    10030    2    1    2    0    0  0.00000000000E+00  0.00000000000E+00 -0.67142432576E+03  0.18793213444E+04  0.17552886060E+04 0.  0.
        4    1    3    3  502    0 -0.86971085591E+03  0.11293315260E+03 -0.37133546231E+03  0.95238779303E+03  0.12699999809E+01 0. -1.
       -4    1    3    3    0  502  0.86971085591E+03 -0.11293315260E+03 -0.30008886345E+03  0.92693355140E+03  0.12699999809E+01 0.  1.
</event>
<event>
 5   0  0.1711979E-04  0.1883027E+04  0.7818609E-02  0.8663351E-01
       -1   -1    0    0    0  501  0.00000000000E+00  0.00000000000E+00  0.77154780904E+03  0.77154780905E+03  0.50400001928E-02 0. -1.
        1   -1    0    0  501    0  0.00000000000E+00  0.00000000000E+00 -0.11489213950E+04  0.11489213950E+04  0.50400001928E-02 0.  1.
    10030    2    1    2    0    0  0.00000000000E+00  0.00000000000E+00 -0.37737358595E+03  0.19204692040E+04  0.18830271215E+04 0.  0.
        4    1    3    3  502    0  0.47603910821E+02  0.14344520423E+03  0.75909415048E+03  0.77399496196E+03  0.12699999809E+01 0. -1.
       -4    1    3    3    0  502 -0.47603910821E+02 -0.14344520423E+03 -0.11364677364E+04  0.11464742421E+04  0.12699999809E+01 0.  1.
</event>
<event>
 5   0  0.1782613E-04  0.1801191E+04  0.7818609E-02  0.8705666E-01
        1   -1    0    0  501    0  0.00000000000E+00  0.00000000000E+00  0.13588901258E+04  0.13588901258E+04  0.50400001928E-02 0. -1.
       -1   -1    0    0    0  501  0.00000000000E+00  0.00000000000E+00 -0.59686361909E+03  0.59686361911E+03  0.50400001928E-02 0.  1.
    10030    2    1    2    0    0  0.00000000000E+00  0.00000000000E+00  0.76202650667E+03  0.19557537449E+04  0.18011908044E+04 0.  0.
        3    1    3    3  502    0  0.18643462475E+03  0.22034584536E+03  0.13073078045E+04  0.13387919431E+04  0.10100000352E+00 0. -1.
       -3    1    3    3    0  502 -0.18643462475E+03 -0.22034584536E+03 -0.54528129786E+03  0.61696180179E+03  0.10100000352E+00 0.  1.
</event>
<event>
 5   0  0.1782613E-04  0.1903419E+04  0.7818609E-02  0.8653156E-01
       -1   -1    0    0    0  501  0.00000000000E+00  0.00000000000E+00  0.94148203820E+03  0.94148203821E+03  0.50400001928E-02 0.  1.
        1   -1    0    0  501    0  0.00000000000E+00  0.00000000000E+00 -0.96204801373E+03  0.96204801374E+03  0.50400001928E-02 0. -1.
    10030    2    1    2    0    0  0.00000000000E+00  0.00000000000E+00 -0.20565975526E+02  0.19035300520E+04  0.19034189500E+04 0.  0.
        3    1    3    3  502    0 -0.25411139091E+03 -0.91705596105E+03 -0.23946871930E+02  0.95191265228E+03  0.10100000352E+00 0.  1.
       -3    1    3    3    0  502  0.25411139091E+03  0.91705596105E+03  0.33808964045E+01  0.95161739967E+03  0.10100000352E+00 0. -1.
</event>
<event>
 5   0  0.3516539E-04  0.1831320E+04  0.7818609E-02  0.8689819E-01
        2   -1    0    0  501    0  0.00000000000E+00  0.00000000000E+00  0.10655784838E+04  0.10655784838E+04  0.25500000920E-02 0.  1.
       -2   -1    0    0    0  501  0.00000000000E+00  0.00000000000E+00 -0.78683409065E+03  0.78683409066E+03  0.25500000920E-02 0. -1.
    10030    2    1    2    0    0  0.00000000000E+00  0.00000000000E+00  0.27874439314E+03  0.18524125745E+04  0.18313202640E+04 0.  0.
        4    1    3    3  502    0  0.35262961107E+03  0.84291128225E+03  0.78809472044E+02  0.91709302589E+03  0.12699999809E+01 0.  1.
       -4    1    3    3    0  502 -0.35262961107E+03 -0.84291128225E+03  0.19993492110E+03  0.93531954856E+03  0.12699999809E+01 0. -1.
</event>
<event>
 5   0  0.1711979E-04  0.1893675E+04  0.7818609E-02  0.8658011E-01
       -1   -1    0    0    0  501  0.00000000000E+00  0.00000000000E+00  0.61408663580E+03  0.61408663582E+03  0.50400001928E-02 0.  1.
        1   -1    0    0  501    0  0.00000000000E+00  0.00000000000E+00 -0.14598941968E+04  0.14598941968E+04  0.50400001928E-02 0. -1.
    10030    2    1    2    0    0  0.00000000000E+00  0.00000000000E+00 -0.84580756099E+03  0.20739808326E+04  0.18936752794E+04 0.  0.
        4    1    3    3  502    0 -0.32594883079E+03  0.55116913357E+03 -0.11867873920E+04  0.13485162145E+04  0.12699999809E+01 0. -1.
       -4    1    3    3    0  502  0.32594883079E+03 -0.55116913357E+03  0.34097983099E+03  0.72546461812E+03  0.12699999809E+01 0.  1.
</event>
<event>
 5   0  0.3720978E-04  0.1945605E+04  0.7818609E-02  0.8632483E-01
        2   -1    0    0  501    0  0.00000000000E+00  0.00000000000E+00  0.11421606643E+04  0.11421606643E+04  0.25500000920E-02 0.  1.
       -2   -1    0    0    0  501  0.00000000000E+00  0.00000000000E+00 -0.82855669488E+03  0.82855669489E+03  0.25500000920E-02 0. -1.
    10030    2    1    2    0    0  0.00000000000E+00  0.00000000000E+00  0.31360396945E+03  0.19707173592E+04  0.19456051656E+04 0.  0.
        1    1    3    3  502    0 -0.68328120706E+02 -0.44668495908E+03  0.10294017488E+04  0.11242171255E+04  0.50400001928E-02 0.  1.
       -1    1    3    3    0  502  0.68328120706E+02  0.44668495908E+03 -0.71579777936E+03  0.84650023374E+03  0.50400001928E-02 0. -1.
</event>
<event>
 5   0  0.1813834E-04  0.2194734E+04  0.7818609E-02  0.8520623E-01
        1   -1    0    0  501    0  0.00000000000E+00  0.00000000000E+00  0.10417664226E+04  0.10417664226E+04  0.50400001928E-02 0.  1.
       -1   -1    0    0    0  501  0.00000000000E+00  0.00000000000E+00 -0.11559355124E+04  0.11559355124E+04  0.50400001928E-02 0. -1.
    10030    2    1    2    0    0  0.00000000000E+00  0.00000000000E+00 -0.11416908983E+03  0.21977019351E+04  0.21947344291E+04 0.  0.
        5    1    3    3  502    0  0.59765451347E+03  0.60969658843E+03  0.63324723591E+03  0.10629887108E+04  0.46999998093E+01 0.  1.
       -5    1    3    3    0  502 -0.59765451347E+03 -0.60969658843E+03 -0.74741632574E+03  0.11347132243E+04  0.46999998093E+01 0. -1.
</event>
<event>
 5   0  0.3459485E-04  0.1681834E+04  0.7818609E-02  0.8771793E-01
       -2   -1    0    0    0  501  0.00000000000E+00  0.00000000000E+00  0.72497300689E+03  0.72497300689E+03  0.25500000920E-02 0. -1.
        2   -1    0    0  501    0  0.00000000000E+00  0.00000000000E+00 -0.97540430649E+03  0.97540430649E+03  0.25500000920E-02 0.  1.
    10030    2    1    2    0    0  0.00000000000E+00  0.00000000000E+00 -0.25043129960E+03  0.17003773134E+04  0.16818344663E+04 0.  0.
        3    1    3    3  502    0 -0.74609243028E+03  0.31636909634E+03  0.10175552225E+03  0.81676037866E+03  0.10100000352E+00 0. -1.
       -3    1    3    3    0  502  0.74609243028E+03 -0.31636909634E+03 -0.35218682185E+03  0.88361693472E+03  0.10100000352E+00 0.  1.
</event>
<event>
 5   0  0.3720978E-04  0.1865582E+04  0.7818609E-02  0.8672181E-01
       -2   -1    0    0    0  501  0.00000000000E+00  0.00000000000E+00  0.14247608436E+04  0.14247608436E+04  0.25500000920E-02 0.  1.
        2   -1    0    0  501    0  0.00000000000E+00  0.00000000000E+00 -0.61069817961E+03  0.61069817961E+03  0.25500000920E-02 0. -1.
    10030    2    1    2    0    0  0.00000000000E+00  0.00000000000E+00  0.81406266399E+03  0.20354590232E+04  0.18655817898E+04 0.  0.
        1    1    3    3  502    0 -0.48248708654E+03  0.63760032347E+03  0.93116080849E+03  0.12273501589E+04  0.50400001928E-02 0.  1.
       -1    1    3    3    0  502  0.48248708654E+03 -0.63760032347E+03 -0.11709814449E+03  0.80810886435E+03  0.50400001928E-02 0. -1.
</event>
<event>
 5   0  0.1813834E-04  0.1889950E+04  0.7818609E-02  0.8659875E-01
        1   -1    0    0  501    0  0.00000000000E+00  0.00000000000E+00  0.84334059114E+03  0.84334059115E+03  0.50400001928E-02 0. -1.
       -1   -1    0    0    0  501  0.00000000000E+00  0.00000000000E+00 -0.10588582504E+04  0.10588582504E+04  0.50400001928E-02 0.  1.
    10030    2    1    2    0    0  0.00000000000E+00  0.00000000000E+00 -0.21551765926E+03  0.19021988416E+04  0.18899504151E+04 0.  0.
        5    1    3    3  502    0  0.44216515720E+03  0.19598302419E+03 -0.92483077010E+03  0.10436730404E+04  0.46999998093E+01 0.  1.
       -5    1    3    3    0  502 -0.44216515720E+03 -0.19598302419E+03  0.70931311083E+03  0.85852580113E+03  0.46999998093E+01 0. -1.
</event>
<event>
 5   0  0.1758946E-04  0.1925159E+04  0.7818609E-02  0.8642434E-01
       -1   -1    0    0    0  501  0.00000000000E+00  0.00000000000E+00  0.38618469321E+03  0.38618469324E+03  0.50400001928E-02 0.  1.
        1   -1    0    0  501    0  0.00000000000E+00  0.00000000000E+00 -0.23992637071E+04  0.23992637071E+04  0.50400001928E-02 0. -1.
    10030    2    1    2    0    0  0.00000000000E+00  0.00000000000E+00 -0.20130790138E+04  0.27854484003E+04  0.19251586103E+04 0.  0.
        2    1    3    3  502    0 -0.91933897938E+03 -0.21542230409E+03 -0.73597928919E+03  0.11971868869E+04  0.25500000920E-02 0.  1.
       -2    1    3    3    0  502  0.91933897938E+03  0.21542230409E+03 -0.12770997247E+04  0.15882615134E+04  0.25500000920E-02 0. -1.
</event>
<event>
 5   0  0.3535876E-04  0.1918243E+04  0.7818609E-02  0.8645828E-01
        2   -1    0    0  501    0  0.00000000000E+00  0.00000000000E+00  0.11352996271E+04  0.11352996271E+04  0.25500000920E-02 0. -1.
       -2   -1    0    0    0  501  0.00000000000E+00  0.00000000000E+00 -0.81028343949E+03  0.81028343949E+03  0.25500000920E-02 0.  1.
    10030    2    1    2    0    0  0.00000000000E+00  0.00000000000E+00  0.32501618759E+03  0.19455830666E+04  0.19182434535E+04 0.  0.
        2    1    3    3  502    0 -0.83732181432E+03  0.43174500518E+03  0.34508174607E+03  0.10032910753E+04  0.25500000920E-02 0.  1.
       -2    1    3    3    0  502  0.83732181432E+03 -0.43174500518E+03 -0.20065558482E+02  0.94229199130E+03  0.25500000920E-02 0. -1.
</event>
<event>
 5   0  0.3535876E-04  0.1707846E+04  0.7818609E-02  0.8756902E-01
        2   -1    0    0  501    0  0.00000000000E+00  0.00000000000E+00  0.13036601441E+04  0.13036601441E+04  0.25500000920E-02 0.  1.
       -2   -1    0    0    0  501  0.00000000000E+00  0.00000000000E+00 -0.55933656317E+03  0.55933656318E+03  0.25500000920E-02 0. -1.
    10030    2    1    2    0    0  0.00000000000E+00  0.00000000000E+00  0.74432358089E+03  0.18629967072E+04  0.17078463450E+04 0.  0.
        2    1    3    3  502    0  0.39652254796E+03 -0.38233694922E+03 -0.33962907114E+03  0.64711635719E+03  0.25500000920E-02 0. -1.
       -2    1    3    3    0  502 -0.39652254796E+03  0.38233694922E+03  0.10839526520E+04  0.12158803500E+04  0.25500000920E-02 0.  1.
</event>
<event>
 5   0  0.1782613E-04  0.1863550E+04  0.7818609E-02  0.8673216E-01
       -1   -1    0    0    0  501  0.00000000000E+00  0.00000000000E+00  0.71605827898E+03  0.71605827900E+03  0.50400001928E-02 0.  1.
        1   -1    0    0  501    0  0.00000000000E+00  0.00000000000E+00 -0.12124777057E+04  0.12124777058E+04  0.50400001928E-02 0. -1.
    10030    2    1    2    0    0  0.00000000000E+00  0.00000000000E+00 -0.49641942676E+03  0.19285359847E+04  0.18635500522E+04 0.  0.
        3    1    3    3  502    0 -0.79754144022E+03 -0.30622074021E+03 -0.63315042310E+03  0.10633545782E+04  0.10100000352E+00 0. -1.
       -3    1    3    3    0  502  0.79754144022E+03  0.30622074021E+03  0.13673099634E+03  0.86518140650E+03  0.10100000352E+00 0.  1.
</event>
<event>
 5   0  0.1758946E-04  0.1950530E+04  0.7818609E-02  0.8630105E-01
        1   -1    0    0  501    0  0.00000000000E+00  0.00000000000E+00  0.16897412887E+04  0.16897412887E+04  0.50400001928E-02 0. -1.
       -1   -1    0    0    0  501  0.00000000000E+00  0.00000000000E+00 -0.56289226658E+03  0.56289226661E+03  0.50400001928E-02 0.  1.
    10030    2    1    2    0    0  0.00000000000E+00  0.00000000000E+00  0.11268490221E+04  0.22526335553E+04  0.19505304960E+04 0.  0.
        2    1    3    3  502    0 -0.47438052352E+03 -0.33755457814E+03  0.14670138638E+04  0.15783249510E+04  0.25500000920E-02 0. -1.
       -2    1    3    3    0  502  0.47438052352E+03  0.33755457814E+03 -0.34016484170E+03  0.67430860431E+03  0.25500000920E-02 0.  1.
</event>
<event>
 5   0  0.3720978E-04  0.1564084E+04  0.7818609E-02  0.8842921E-01
        2   -1    0    0  501    0  0.00000000000E+00  0.00000000000E+00  0.16802163119E+04  0.16802163119E+04  0.25500000920E-02 0. -1.
       -2   -1    0    0    0  501  0.00000000000E+00  0.00000000000E+00 -0.36399479946E+03  0.36399479947E+03  0.25500000920E-02 0.  1.
    10030    2    1    2    0    0  0.00000000000E+00  0.00000000000E+00  0.13162215124E+04  0.20442111113E+04  0.15640843960E+04 0.  0.
        1    1    3    3  502    0 -0.15872429352E+03  0.16080896402E+03  0.16366263088E+04  0.16521496903E+04  0.50400001928E-02 0. -1.
       -1    1    3    3    0  502  0.15872429352E+03 -0.16080896402E+03 -0.32040479644E+03  0.39206142105E+03  0.50400001928E-02 0.  1.
</event>
<event>
 5   0  0.1711979E-04  0.1896615E+04  0.7818609E-02  0.8656543E-01
       -1   -1    0    0    0  501  0.00000000000E+00  0.00000000000E+00  0.10727089036E+04  0.10727089036E+04  0.50400001928E-02 0. -1.
        1   -1    0    0  501    0  0.00000000000E+00  0.00000000000E+00 -0.83833315671E+03  0.83833315672E+03  0.50400001928E-02 0.  1.
    10030    2    1    2    0    0  0.00000000000E+00  0.00000000000E+00  0.23437574691E+03  0.19110420603E+04  0.18966153447E+04 0.  0.
        4    1    3    3  502    0 -0.46509934017E+03  0.10120132467E+03 -0.70925021763E+03  0.85416426316E+03  0.12699999809E+01 0.  1.
       -4    1    3    3    0  502  0.46509934017E+03 -0.10120132467E+03  0.94362596454E+03  0.10568777972E+04  0.12699999809E+01 0. -1.
</event>
<event>
 5   0  0.3720978E-04  0.1931929E+04  0.7818609E-02  0.8639125E-01
       -2   -1    0    0    0  501  0.00000000000E+00  0.00000000000E+00  0.72228150104E+03  0.72228150105E+03  0.25500000920E-02 0. -1.
        2   -1    0    0  501    0  0.00000000000E+00  0.00000000000E+00 -0.12918608757E+04  0.12918608757E+04  0.25500000920E-02 0.  1.
    10030    2    1    2    0    0  0.00000000000E+00  0.00000000000E+00 -0.56957937464E+03  0.20141423767E+04  0.19319287900E+04 0.  0.
        1    1    3    3  502    0  0.94866133370E+03  0.10373065645E+03 -0.44071648416E+03  0.10511657313E+04  0.50400001928E-02 0.  1.
       -1    1    3    3    0  502 -0.94866133370E+03 -0.10373065645E+03 -0.12886289048E+03  0.96297664547E+03  0.50400001928E-02 0. -1.
</event>
<event>
 5   0  0.1694830E-04  0.1833654E+04  0.7818609E-02  0.8688605E-01
       -1   -1    0    0    0  501  0.00000000000E+00  0.00000000000E+00  0.68771462106E+03  0.68771462108E+03  0.50400001928E-02 0.  1.
        1   -1    0    0  501    0  0.00000000000E+00  0.00000000000E+00 -0.12222680147E+04  0.12222680147E+04  0.50400001928E-02 0. -1.
    10030    2    1    2    0    0  0.00000000000E+00  0.00000000000E+00 -0.53455339361E+03  0.19099826358E+04  0.18336538218E+04 0.  0.
        1    1    3    3  502    0  0.86063378070E+02  0.67684363844E+03 -0.90518041321E+03  0.11335236197E+04  0.50400001928E-02 0. -1.
       -1    1    3    3    0  502 -0.86063378070E+02 -0.67684363844E+03  0.37062701960E+03  0.77645901606E+03  0.50400001928E-02 0.  1.
</event>
<event>
 5   0  0.3516539E-04  0.1894819E+04  0.7818609E-02  0.8657440E-01
        2   -1    0    0  501    0  0.00000000000E+00  0.00000000000E+00  0.83439232052E+03  0.83439232052E+03  0.25500000920E-02 0. -1.
       -2   -1    0    0    0  501  0.00000000000E+00  0.00000000000E+00 -0.10757342237E+04  0.10757342237E+04  0.25500000920E-02 0.  1.
    10030    2    1    2    0    0  0.00000000000E+00  0.00000000000E+00 -0.24134190321E+03  0.19101265442E+04  0.18948185931E+04 0.  0.
        4    1    3    3  502    0  0.17034766965E+03  0.49380722458E+03  0.67610608744E+03  0.85439157180E+03  0.12699999809E+01 0. -1.
       -4    1    3    3    0  502 -0.17034766965E+03 -0.49380722458E+03 -0.91744799064E+03  0.10557349724E+04  0.12699999809E+01 0.  1.
</event>
<event>
 5   0  0.1287000E-04  0.1471674E+04  0.7818609E-02  0.8903511E-01
       -3   -1    0    0    0  501  0.00000000000E+00  0.00000000000E+00  0.12018147916E+04  0.12018147959E+04  0.10100000352E+00 0.  1.
        3   -1    0    0  501    0  0.00000000000E+00  0.00000000000E+00 -0.45053176958E+03  0.45053178090E+03  0.10100000352E+00 0. -1.
    10030    2    1    2    0    0  0.00000000000E+00  0.00000000000E+00  0.75128302204E+03  0.16523465768E+04  0.14716735475E+04 0.  0.
        4    1    3    3  502    0 -0.26316219062E+02  0.64799470439E+03  0.76597784349E+03  0.10036500137E+04  0.12699999809E+01 0.  1.
       -4    1    3    3    0  502  0.26316219062E+02 -0.64799470439E+03 -0.14694821453E+02  0.64869656310E+03  0.12699999809E+01 0. -1.
</event>
<event>
 5   0  0.3459485E-04  0.1964515E+04  0.7818609E-02  0.8623393E-01
       -2   -1    0    0    0  501  0.00000000000E+00  0.00000000000E+00  0.60954298796E+03  0.60954298797E+03  0.25500000920E-02 0.  1.
        2   -1    0    0  501    0  0.00000000000E+00  0.00000000000E+00 -0.15828746309E+04  0.15828746309E+04  0.25500000920E-02 0. -1.
    10030    2    1    2    0    0  0.00000000000E+00  0.00000000000E+00 -0.97333164293E+03  0.21924176189E+04  0.19645153418E+04 0.  0.
        3    1    3    3  502    0 -0.64462974540E+03 -0.66483565960E+03 -0.12113881789E+03  0.93393178891E+03  0.10100000352E+00 0.  1.
       -3    1    3    3    0  502  0.64462974540E+03  0.66483565960E+03 -0.85219282504E+03  0.12584858299E+04  0.10100000352E+00 0. -1.
</event>
<event>
 5   0  0.3535876E-04  0.1879585E+04  0.7818609E-02  0.8665085E-01
       -2   -1    0    0    0  501  0.00000000000E+00  0.00000000000E+00  0.44679459936E+03  0.44679459937E+03  0.25500000920E-02 0.  1.
        2   -1    0    0  501    0  0.00000000000E+00  0.00000000000E+00 -0.19767703569E+04  0.19767703569E+04  0.25500000920E-02 0. -1.
    10030    2    1    2    0    0  0.00000000000E+00  0.00000000000E+00 -0.15299757575E+04  0.24235649563E+04  0.18795854007E+04 0.  0.
        2    1    3    3  502    0 -0.67239597235E+02 -0.19633022347E+03 -0.19468569366E+04  0.19578862714E+04  0.25500000920E-02 0. -1.
       -2    1    3    3    0  502  0.67239597235E+02  0.19633022347E+03  0.41688117907E+03  0.46567868488E+03  0.25500000920E-02 0.  1.
</event>
<event>
 5   0  0.3720978E-04  0.1879964E+04  0.7818609E-02  0.8664894E-01
       -2   -1    0    0    0  501  0.00000000000E+00  0.00000000000E+00  0.47167472657E+03  0.47167472657E+03  0.25500000920E-02 0.  1.
        2   -1    0    0  501    0  0.00000000000E+00  0.00000000000E+00 -0.18732531534E+04  0.18732531534E+04  0.25500000920E-02 0. -1.
    10030    2    1    2    0    0  0.00000000000E+00  0.00000000000E+00 -0.14015784268E+04  0.23449278800E+04  0.18799640092E+04 0.  0.
        1    1    3    3  502    0  0.85681371531E+03  0.19875069825E+03 -0.11143574042E+04  0.14196562990E+04  0.50400001928E-02 0. -1.
       -1    1    3    3    0  502 -0.85681371531E+03 -0.19875069825E+03 -0.28722102261E+03  0.92527158102E+03  0.50400001928E-02 0.  1.
</event>
<event>
 5   0  0.1758946E-04  0.1645289E+04  0.7818609E-02  0.8793198E-01
        1   -1    0    0  501    0  0.00000000000E+00  0.00000000000E+00  0.85042228973E+03  0.85042228975E+03  0.50400001928E-02 0. -1.
       -1   -1    0    0    0  501  0.00000000000E+00  0.00000000000E+00 -0.79577384147E+03  0.79577384149E+03  0.50400001928E-02 0.  1.
    10030    2    1    2    0    0  0.00000000000E+00  0.00000000000E+00  0.54648448260E+02  0.16461961312E+04  0.16452888043E+04 0.  0.
        2    1    3    3  502    0 -0.43716834573E+03 -0.24428217947E+03  0.68033555444E+03  0.84477595395E+03  0.25500000920E-02 0. -1.
       -2    1    3    3    0  502  0.43716834573E+03  0.24428217947E+03 -0.62568710618E+03  0.80142017729E+03  0.25500000920E-02 0.  1.
</event>
<event>
 5   0  0.3535876E-04  0.1842839E+04  0.7818609E-02  0.8683844E-01
       -2   -1    0    0    0  501  0.00000000000E+00  0.00000000000E+00  0.51293134366E+03  0.51293134367E+03  0.25500000920E-02 0.  1.
        2   -1    0    0  501    0  0.00000000000E+00  0.00000000000E+00 -0.16552195726E+04  0.16552195726E+04  0.25500000920E-02 0. -1.
    10030    2    1    2    0    0  0.00000000000E+00  0.00000000000E+00 -0.11422882289E+04  0.21681509162E+04  0.18428391133E+04 0.  0.
        2    1    3    3  502    0 -0.22704103080E+03  0.80290776647E+03 -0.11123547967E+03  0.84177303537E+03  0.25500000920E-02 0.  1.
       -2    1    3    3    0  502  0.22704103080E+03 -0.80290776647E+03 -0.10310527492E+04  0.13263778809E+04  0.25500000920E-02 0. -1.
</event>
<event>
 5   0  0.1782613E-04  0.1173829E+04  0.7818609E-02  0.9136077E-01
       -1   -1    0    0    0  501  0.00000000000E+00  0.00000000000E+00  0.30298037405E+03  0.30298037410E+03  0.50400001928E-02 0.  1.
        1   -1    0    0  501    0  0.00000000000E+00  0.00000000000E+00 -0.11369345798E+04  0.11369345798E+04  0.50400001928E-02 0. -1.
    10030    2    1    2    0    0  0.00000000000E+00  0.00000000000E+00 -0.83395420577E+03  0.14399149539E+04  0.11738293987E+04 0.  0.
        3    1    3    3  502    0 -0.36487188078E+03  0.34474549474E+03 -0.79003336908E+03  0.93602012798E+03  0.10100000352E+00 0. -1.
       -3    1    3    3    0  502  0.36487188078E+03 -0.34474549474E+03 -0.43920836695E+02  0.50389482595E+03  0.10100000352E+00 0.  1.
</event>
<event>
 5   0  0.1711979E-04  0.1615715E+04  0.7818609E-02  0.8810951E-01
        1   -1    0    0  501    0  0.00000000000E+00  0.00000000000E+00  0.94294787268E+03  0.94294787269E+03  0.50400001928E-02 0. -1.
       -1   -1    0    0    0  501  0.00000000000E+00  0.00000000000E+00 -0.69212080459E+03  0.69212080461E+03  0.50400001928E-02 0.  1.
    10030    2    1    2    0    0  0.00000000000E+00  0.00000000000E+00  0.25082706809E+03  0.16350686773E+04  0.16157151238E+04 0.  0.
        4    1    3    3  502    0  0.25566354521E+03  0.11206749914E+03 -0.64176298887E+03  0.69984592554E+03  0.12699999809E+01 0.  1.
       -4    1    3    3    0  502 -0.25566354521E+03 -0.11206749914E+03  0.89259005696E+03  0.93522275176E+03  0.12699999809E+01 0. -1.
</event>
<event>
 5   0  0.1758946E-04  0.1892077E+04  0.7818609E-02  0.8658810E-01
       -1   -1    0    0    0  501  0.00000000000E+00  0.00000000000E+00  0.53341247549E+03  0.53341247551E+03  0.50400001928E-02 0. -1.
        1   -1    0    0  501    0  0.00000000000E+00  0.00000000000E+00 -0.16778552098E+04  0.16778552098E+04  0.50400001928E-02 0.  1.
    10030    2    1    2    0    0  0.00000000000E+00  0.00000000000E+00 -0.11444427343E+04  0.22112676853E+04  0.18920770608E+04 0.  0.
        2    1    3    3  502    0 -0.98705138919E+02  0.88719994926E+03 -0.93831037001E+03  0.12951033954E+04  0.25500000920E-02 0.  1.
       -2    1    3    3    0  502  0.98705138919E+02 -0.88719994926E+03 -0.20613236429E+03  0.91616428986E+03  0.25500000920E-02 0. -1.
</event>
<event>
 5   0  0.1813834E-04  0.1772070E+04  0.7818609E-02  0.8721295E-01
        1   -1    0    0  501    0  0.00000000000E+00  0.00000000000E+00  0.10057974621E+04  0.10057974621E+04  0.50400001928E-02 0. -1.
       -1   -1    0    0    0  501  0.00000000000E+00  0.00000000000E+00 -0.78053271379E+03  0.78053271381E+03  0.50400001928E-02 0.  1.
    10030    2    1    2    0    0  0.00000000000E+00  0.00000000000E+00  0.22526474831E+03  0.17863301759E+04  0.17720697759E+04 0.  0.
        5    1    3    3  502    0 -0.73988303180E+03  0.48162108276E+03  0.36861241829E+02  0.88360998707E+03  0.46999998093E+01 0.  1.
       -5    1    3    3    0  502  0.73988303180E+03 -0.48162108276E+03  0.18840350648E+03  0.90272018885E+03  0.46999998093E+01 0. -1.
</event>
<event>
 5   0  0.3459485E-04  0.1849806E+04  0.7818609E-02  0.8680252E-01
       -2   -1    0    0    0  501  0.00000000000E+00  0.00000000000E+00  0.11099679165E+04  0.11099679165E+04  0.25500000920E-02 0.  1.
        2   -1    0    0  501    0  0.00000000000E+00  0.00000000000E+00 -0.77069429941E+03  0.77069429942E+03  0.25500000920E-02 0. -1.
    10030    2    1    2    0    0  0.00000000000E+00  0.00000000000E+00  0.33927361710E+03  0.18806622159E+04  0.18498064178E+04 0.  0.
        3    1    3    3  502    0  0.19429472382E+03 -0.75310336298E+03  0.67851647496E+03  0.10321335825E+04  0.10100000352E+00 0.  1.
       -3    1    3    3    0  502 -0.19429472382E+03  0.75310336298E+03 -0.33924285785E+03  0.84852863348E+03  0.10100000352E+00 0. -1.
</event>
<event>
 5   0  0.3516539E-04  0.1891672E+04  0.7818609E-02  0.8659013E-01
       -2   -1    0    0    0  501  0.00000000000E+00  0.00000000000E+00  0.49955623246E+03  0.49955623246E+03  0.25500000920E-02 0. -1.
        2   -1    0    0  501    0  0.00000000000E+00  0.00000000000E+00 -0.17908016779E+04  0.17908016779E+04  0.25500000920E-02 0.  1.
    10030    2    1    2    0    0  0.00000000000E+00  0.00000000000E+00 -0.12912454455E+04  0.22903579104E+04  0.18916724233E+04 0.  0.
        4    1    3    3  502    0  0.54496138205E+03  0.55009949087E+03 -0.13032463169E+04  0.15159303853E+04  0.12699999809E+01 0.  1.
       -4    1    3    3    0  502 -0.54496138205E+03 -0.55009949087E+03  0.12000871413E+02  0.77442752507E+03  0.12699999809E+01 0. -1.
</event>
<event>
 5   0  0.3459485E-04  0.1817891E+04  0.7818609E-02  0.8696842E-01
        2   -1    0    0  501    0  0.00000000000E+00  0.00000000000E+00  0.12540860855E+04  0.12540860855E+04  0.25500000920E-02 0.  1.
       -2   -1    0    0    0  501  0.00000000000E+00  0.00000000000E+00 -0.65879235513E+03  0.65879235513E+03  0.25500000920E-02 0. -1.
    10030    2    1    2    0    0  0.00000000000E+00  0.00000000000E+00  0.59529373039E+03  0.19128784407E+04  0.18178914443E+04 0.  0.
        3    1    3    3  502    0  0.15811802370E+03  0.68833355919E+03  0.89971288637E+03  0.11438040419E+04  0.10100000352E+00 0.  1.
       -3    1    3    3    0  502 -0.15811802370E+03 -0.68833355919E+03 -0.30441915597E+03  0.76907439878E+03  0.10100000352E+00 0. -1.
</event>
<event>
 5   0  0.1758946E-04  0.1170366E+04  0.7818609E-02  0.9139198E-01
       -1   -1    0    0    0  501  0.00000000000E+00  0.00000000000E+00  0.42044796133E+03  0.42044796136E+03  0.50400001928E-02 0. -1.
        1   -1    0    0  501    0  0.00000000000E+00  0.00000000000E+00 -0.81446237478E+03  0.81446237479E+03  0.50400001928E-02 0.  1.
    10030    2    1    2    0    0  0.00000000000E+00  0.00000000000E+00 -0.39401441344E+03  0.12349103362E+04  0.11703658318E+04 0.  0.
        2    1    3    3  502    0 -0.57975966101E+03 -0.40165847112E+02 -0.12463532776E+03  0.59436396655E+03  0.25500000920E-02 0.  1.
       -2    1    3    3    0  502  0.57975966101E+03  0.40165847112E+02 -0.26937908569E+03  0.64054636961E+03  0.25500000920E-02 0. -1.
</event>
<event>
 5   0  0.1758946E-04  0.2012838E+04  0.7818609E-02  0.8600642E-01
       -1   -1    0    0    0  501  0.00000000000E+00  0.00000000000E+00  0.53926369880E+03  0.53926369882E+03  0.50400001928E-02 0. -1.
        1   -1    0    0  501    0  0.00000000000E+00  0.00000000000E+00 -0.18782634184E+04  0.18782634184E+04  0.50400001928E-02 0.  1.
    10030    2    1    2    0    0  0.00000000000E+00  0.00000000000E+00 -0.13389997196E+04  0.24175271173E+04  0.20128380743E+04 0.  0.
        2    1    3    3  502    0 -0.87713921907E+03 -0.46418863456E+03 -0.87060012487E+03  0.13201472931E+04  0.25500000920E-02 0. -1.
       -2    1    3    3    0  502  0.87713921907E+03  0.46418863456E+03 -0.46839959477E+03  0.10973798242E+04  0.25500000920E-02 0.  1.
</event>
<event>
 5   0  0.1287000E-04  0.1886965E+04  0.7818609E-02  0.8661372E-01
        3   -1    0    0  501    0  0.00000000000E+00  0.00000000000E+00  0.82302847957E+03  0.82302848577E+03  0.10100000352E+00 0. -1.
       -3   -1    0    0    0  501  0.00000000000E+00  0.00000000000E+00 -0.10815649540E+04  0.10815649587E+04  0.10100000352E+00 0.  1.
    10030    2    1    2    0    0  0.00000000000E+00  0.00000000000E+00 -0.25853647441E+03  0.19045934445E+04  0.18869645148E+04 0.  0.
        1    1    3    3  502    0  0.69942162475E+03 -0.63298526779E+03 -0.11184979335E+03  0.94993227901E+03  0.50400001928E-02 0. -1.
       -1    1    3    3    0  502 -0.69942162475E+03  0.63298526779E+03 -0.14668668107E+03  0.95466116546E+03  0.50400001928E-02 0.  1.
</event>
<event>
 5   0  0.1287000E-04  0.1904578E+04  0.7818609E-02  0.8652581E-01
        3   -1    0    0  501    0  0.00000000000E+00  0.00000000000E+00  0.10311816521E+04  0.10311816571E+04  0.10100000352E+00 0. -1.
       -3   -1    0    0    0  501  0.00000000000E+00  0.00000000000E+00 -0.87943222057E+03  0.87943222637E+03  0.10100000352E+00 0.  1.
    10030    2    1    2    0    0  0.00000000000E+00  0.00000000000E+00  0.15174943157E+03  0.19106138834E+04  0.19045780429E+04 0.  0.
        4    1    3    3  502    0 -0.39747692341E+03  0.85802841929E+03 -0.36963281745E+02  0.94634484733E+03  0.12699999809E+01 0.  1.
       -4    1    3    3    0  502  0.39747692341E+03 -0.85802841929E+03  0.18871271331E+03  0.96426903612E+03  0.12699999809E+01 0. -1.
</event>
<event>
 5   0  0.1711979E-04  0.1886644E+04  0.7818609E-02  0.8661533E-01
        1   -1    0    0  501    0  0.00000000000E+00  0.00000000000E+00  0.99679150829E+03  0.99679150830E+03  0.50400001928E-02 0. -1.
       -1   -1    0    0    0  501  0.00000000000E+00  0.00000000000E+00 -0.89272052987E+03  0.89272052988E+03  0.50400001928E-02 0.  1.
    10030    2    1    2    0    0  0.00000000000E+00  0.00000000000E+00  0.10407097842E+03  0.18895120382E+04  0.18866438386E+04 0.  0.
        4    1    3    3  502    0  0.48967442195E+03  0.12418177590E+03 -0.74582641923E+03  0.90081119748E+03  0.12699999809E+01 0.  1.
       -4    1    3    3    0  502 -0.48967442195E+03 -0.12418177590E+03  0.84989739765E+03  0.98870084071E+03  0.12699999809E+01 0. -1.
</event>
<event>
 5   0  0.1694830E-04  0.1889562E+04  0.7818609E-02  0.8660069E-01
        1   -1    0    0  501    0  0.00000000000E+00  0.00000000000E+00  0.11825843715E+04  0.11825843715E+04  0.50400001928E-02 0. -1.
       -1   -1    0    0    0  501  0.00000000000E+00  0.00000000000E+00 -0.75479735948E+03  0.75479735950E+03  0.50400001928E-02 0.  1.
    10030    2    1    2    0    0  0.00000000000E+00  0.00000000000E+00  0.42778701197E+03  0.19373817310E+04  0.18895624477E+04 0.  0.
        1    1    3    3  502    0  0.13359433046E+03 -0.35427690709E+02 -0.74437594067E+03  0.75709847938E+03  0.50400001928E-02 0.  1.
       -1    1    3    3    0  502 -0.13359433046E+03  0.35427690709E+02  0.11721629526E+04  0.11802832516E+04  0.50400001928E-02 0. -1.
</event>
<event>
 5   0  0.3516539E-04  0.1856308E+04  0.7818609E-02  0.8676916E-01
        2   -1    0    0  501    0  0.00000000000E+00  0.00000000000E+00  0.93890253006E+03  0.93890253006E+03  0.25500000920E-02 0.  1.
       -2   -1    0    0    0  501  0.00000000000E+00  0.00000000000E+00 -0.91752855338E+03  0.91752855338E+03  0.25500000920E-02 0. -1.
    10030    2    1    2    0    0  0.00000000000E+00  0.00000000000E+00  0.21373976678E+02  0.18564310834E+04  0.18563080350E+04 0.  0.
        4    1    3    3  502    0  0.50609585400E+03 -0.32979391819E+03 -0.69403782295E+03  0.92010170878E+03  0.12699999809E+01 0. -1.
       -4    1    3    3    0  502 -0.50609585400E+03  0.32979391819E+03  0.71541179963E+03  0.93632937466E+03  0.12699999809E+01 0.  1.
</event>
<event>
 5   0  0.3623359E-04  0.1890835E+04  0.7818609E-02  0.8659432E-01
       -2   -1    0    0    0  501  0.00000000000E+00  0.00000000000E+00  0.81942190995E+03  0.81942190995E+03  0.25500000920E-02 0.  1.
        2   -1    0    0  501    0  0.00000000000E+00  0.00000000000E+00 -0.10907859828E+04  0.10907859828E+04  0.25500000920E-02 0. -1.
    10030    2    1    2    0    0  0.00000000000E+00  0.00000000000E+00 -0.27136407287E+03  0.19102078928E+04  0.18908346658E+04 0.  0.
        5    1    3    3  502    0  0.10851397558E+03 -0.14175638240E+03  0.80222756936E+03  0.82186453743E+03  0.46999998093E+01 0.  1.
       -5    1    3    3    0  502 -0.10851397558E+03  0.14175638240E+03 -0.10735916422E+04  0.10883433553E+04  0.46999998093E+01 0. -1.
</event>
<event>
 5   0  0.1813834E-04  0.1886297E+04  0.7818609E-02  0.8661708E-01
        1   -1    0    0  501    0  0.00000000000E+00  0.00000000000E+00  0.13401216764E+04  0.13401216764E+04  0.50400001928E-02 0. -1.
       -1   -1    0    0    0  501  0.00000000000E+00  0.00000000000E+00 -0.66376729462E+03  0.66376729464E+03  0.50400001928E-02 0.  1.
    10030    2    1    2    0    0  0.00000000000E+00  0.00000000000E+00  0.67635438180E+03  0.20038889711E+04  0.18862968373E+04 0.  0.
        5    1    3    3  502    0  0.24808680154E+03  0.85512085721E+03  0.66857713505E+03  0.11134613676E+04  0.46999998093E+01 0. -1.
       -5    1    3    3    0  502 -0.24808680154E+03 -0.85512085721E+03  0.77772467519E+01  0.89042760351E+03  0.46999998093E+01 0.  1.
</event>
<event>
 5   0  0.3720978E-04  0.1847381E+04  0.7818609E-02  0.8681501E-01
       -2   -1    0    0    0  501  0.00000000000E+00  0.00000000000E+00  0.52740519798E+03  0.52740519798E+03  0.25500000920E-02 0.  1.
        2   -1    0    0  501    0  0.00000000000E+00  0.00000000000E+00 -0.16177388117E+04  0.16177388117E+04  0.25500000920E-02 0. -1.
    10030    2    1    2    0    0  0.00000000000E+00  0.00000000000E+00 -0.10903336137E+04  0.21451440097E+04  0.18473806952E+04 0.  0.
        1    1    3    3  502    0  0.36900053223E+03 -0.18673578302E+01  0.43810012627E+03  0.57279717219E+03  0.50400001928E-02 0.  1.
       -1    1    3    3    0  502 -0.36900053223E+03  0.18673578302E+01 -0.15284337400E+04  0.15723468375E+04  0.50400001928E-02 0. -1.
</event>
<event>
 5   0  0.3535876E-04  0.1894934E+04  0.7818609E-02  0.8657382E-01
        2   -1    0    0  501    0  0.00000000000E+00  0.00000000000E+00  0.12761851061E+04  0.12761851061E+04  0.25500000920E-02 0.  1.
       -2   -1    0    0    0  501  0.00000000000E+00  0.00000000000E+00 -0.70342003024E+03  0.70342003025E+03  0.25500000920E-02 0. -1.
    10030    2    1    2    0    0  0.00000000000E+00  0.00000000000E+00  0.57276507588E+03  0.19796051364E+04  0.18949344748E+04 0.  0.
        2    1    3    3  502    0 -0.52488772947E+02  0.47228054506E+03  0.11426974801E+04  0.12375627320E+04  0.25500000920E-02 0.  1.
       -2    1    3    3    0  502  0.52488772947E+02 -0.47228054506E+03 -0.56993240422E+03  0.74204240439E+03  0.25500000920E-02 0. -1.
</event>
<event>
 5   0  0.3535876E-04  0.1891197E+04  0.7818609E-02  0.8659251E-01
        2   -1    0    0  501    0  0.00000000000E+00  0.00000000000E+00  0.13147393743E+04  0.13147393743E+04  0.25500000920E-02 0. -1.
       -2   -1    0    0    0  501  0.00000000000E+00  0.00000000000E+00 -0.68010174729E+03  0.68010174730E+03  0.25500000920E-02 0.  1.
    10030    2    1    2    0    0  0.00000000000E+00  0.00000000000E+00  0.63463762703E+03  0.19948411216E+04  0.18911970238E+04 0.  0.
        2    1    3    3  502    0  0.40649007973E+03  0.64070383211E+03  0.91253174812E+03  0.11867812674E+04  0.25500000920E-02 0. -1.
       -2    1    3    3    0  502 -0.40649007973E+03 -0.64070383211E+03 -0.27789412109E+03  0.80805985419E+03  0.25500000920E-02 0.  1.
</event>
<event>
 5   0  0.1711979E-04  0.1889459E+04  0.7818609E-02  0.8660121E-01
        1   -1    0    0  501    0  0.00000000000E+00  0.00000000000E+00  0.12424469856E+04  0.12424469857E+04  0.50400001928E-02 0. -1.
       -1   -1    0    0    0  501  0.00000000000E+00  0.00000000000E+00 -0.71835155522E+03  0.71835155524E+03  0.50400001928E-02 0.  1.
    10030    2    1    2    0    0  0.00000000000E+00  0.00000000000E+00  0.52409543042E+03  0.19607985409E+04  0.18894588902E+04 0.  0.
        4    1    3    3  502    0 -0.90664593777E+03 -0.18710254699E+03  0.66525184624E+02  0.92813869258E+03  0.12699999809E+01 0. -1.
       -4    1    3    3    0  502  0.90664593777E+03  0.18710254699E+03  0.45757024580E+03  0.10326598483E+04  0.12699999809E+01 0.  1.
</event>
<event>
 5   0  0.1694830E-04  0.1674528E+04  0.7818609E-02  0.8776027E-01
       -1   -1    0    0    0  501  0.00000000000E+00  0.00000000000E+00  0.51943408701E+03  0.51943408703E+03  0.50400001928E-02 0. -1.
        1   -1    0    0  501    0  0.00000000000E+00  0.00000000000E+00 -0.13495671046E+04  0.13495671046E+04  0.50400001928E-02 0.  1.
    10030    2    1    2    0    0  0.00000000000E+00  0.00000000000E+00 -0.83013301759E+03  0.18690011916E+04  0.16745281805E+04 0.  0.
        1    1    3    3  502    0 -0.63856792401E+03  0.49444740237E+03 -0.66153787094E+03  0.10439729795E+04  0.50400001928E-02 0.  1.
       -1    1    3    3    0  502  0.63856792401E+03 -0.49444740237E+03 -0.16859514665E+03  0.82502821211E+03  0.50400001928E-02 0. -1.
</event>
<event>
 5   0  0.3623359E-04  0.1933485E+04  0.7818609E-02  0.8638366E-01
       -2   -1    0    0    0  501  0.00000000000E+00  0.00000000000E+00  0.86402624072E+03  0.86402624073E+03  0.25500000920E-02 0. -1.
        2   -1    0    0  501    0  0.00000000000E+00  0.00000000000E+00 -0.10816702682E+04  0.10816702682E+04  0.25500000920E-02 0.  1.
    10030    2    1    2    0    0  0.00000000000E+00  0.00000000000E+00 -0.21764402747E+03  0.19456965089E+04  0.19334854492E+04 0.  0.
        5    1    3    3  502    0 -0.71998950029E+03 -0.89338384883E+02 -0.75176488056E+03  0.10447673201E+04  0.46999998093E+01 0.  1.
       -5    1    3    3    0  502  0.71998950029E+03  0.89338384883E+02  0.53412085309E+03  0.90092918881E+03  0.46999998093E+01 0. -1.
</event>
<event>
 5   0  0.1813834E-04  0.1909051E+04  0.7818609E-02  0.8650364E-01
       -1   -1    0    0    0  501  0.00000000000E+00  0.00000000000E+00  0.61276007596E+03  0.61276007598E+03  0.50400001928E-02 0.  1.
        1   -1    0    0  501    0  0.00000000000E+00  0.00000000000E+00 -0.14869097038E+04  0.14869097038E+04  0.50400001928E-02 0. -1.
    10030    2    1    2    0    0  0.00000000000E+00  0.00000000000E+00 -0.87414962783E+03  0.20996697798E+04  0.19090509716E+04 0.  0.
        5    1    3    3  502    0  0.80386161063E+02 -0.74470539821E+03 -0.10878001820E+04  0.13207495565E+04  0.46999998093E+01 0. -1.
       -5    1    3    3    0  502 -0.80386161063E+02  0.74470539821E+03  0.21365055412E+03  0.77892022332E+03  0.46999998093E+01 0.  1.
</event>
<event>
 5   0  0.3535876E-04  0.1917868E+04  0.7818609E-02  0.8646013E-01
       -2   -1    0    0    0  501  0.00000000000E+00  0.00000000000E+00  0.10278209018E+04  0.10278209018E+04  0.25500000920E-02 0.  1.
        2   -1    0    0  501    0  0.00000000000E+00  0.00000000000E+00 -0.89466407694E+03  0.89466407695E+03  0.25500000920E-02 0. -1.
    10030    2    1    2    0    0  0.00000000000E+00  0.00000000000E+00  0.13315682489E+03  0.19224849788E+04  0.19178680230E+04 0.  0.
        2    1    3    3  502    0 -0.94652895577E+03  0.51572053103E+02  0.21176388003E+03  0.97129845139E+03  0.25500000920E-02 0. -1.
       -2    1    3    3    0  502  0.94652895577E+03 -0.51572053103E+02 -0.78607055140E+02  0.95118652740E+03  0.25500000920E-02 0.  1.
</event>
<event>
 5   0  0.3516539E-04  0.1953207E+04  0.7818609E-02  0.8628816E-01
        2   -1    0    0  501    0  0.00000000000E+00  0.00000000000E+00  0.67508413092E+03  0.67508413092E+03  0.25500000920E-02 0. -1.
       -2   -1    0    0    0  501  0.00000000000E+00  0.00000000000E+00 -0.14127927374E+04  0.14127927374E+04  0.25500000920E-02 0.  1.
    10030    2    1    2    0    0  0.00000000000E+00  0.00000000000E+00 -0.73770860647E+03  0.20878768683E+04  0.19532065506E+04 0.  0.
        4    1    3    3  502    0 -0.92460222997E+03 -0.28404882541E+03 -0.51298138512E+03  0.10948627920E+04  0.12699999809E+01 0.  1.
       -4    1    3    3    0  502  0.92460222997E+03  0.28404882541E+03 -0.22472722135E+03  0.99301407634E+03  0.12699999809E+01 0. -1.
</event>
<event>
 5   0  0.1711979E-04  0.1900526E+04  0.7818609E-02  0.8654595E-01
        1   -1    0    0  501    0  0.00000000000E+00  0.00000000000E+00  0.19943821131E+04  0.19943821132E+04  0.50400001928E-02 0. -1.
       -1   -1    0    0    0  501  0.00000000000E+00  0.00000000000E+00 -0.45277159018E+03  0.45277159021E+03  0.50400001928E-02 0.  1.
    10030    2    1    2    0    0  0.00000000000E+00  0.00000000000E+00  0.15416105230E+04  0.24471537034E+04  0.19005257808E+04 0.  0.
        4    1    3    3  502    0 -0.90392648391E+03 -0.29244925782E+03  0.74543258547E+03  0.12075930644E+04  0.12699999809E+01 0. -1.
       -4    1    3    3    0  502  0.90392648391E+03  0.29244925782E+03  0.79617793749E+03  0.12395606390E+04  0.12699999809E+01 0.  1.
</event>
<event>
 5   0  0.3623359E-04  0.1890795E+04  0.7818609E-02  0.8659452E-01
        2   -1    0    0  501    0  0.00000000000E+00  0.00000000000E+00  0.81685041826E+03  0.81685041826E+03  0.25500000920E-02 0.  1.
       -2   -1    0    0    0  501  0.00000000000E+00  0.00000000000E+00 -0.10941735879E+04  0.10941735879E+04  0.25500000920E-02 0. -1.
    10030    2    1    2    0    0  0.00000000000E+00  0.00000000000E+00 -0.27732316963E+03  0.19110240062E+04  0.18907947037E+04 0.  0.
        5    1    3    3  502    0 -0.44435986492E+03 -0.69448469613E+03 -0.60620061964E+03  0.10233601340E+04  0.46999998093E+01 0. -1.
       -5    1    3    3    0  502  0.44435986492E+03  0.69448469613E+03  0.32887745001E+03  0.88766387210E+03  0.46999998093E+01 0.  1.
</event>
<event>
 5   0  0.3459485E-04  0.1866551E+04  0.7818609E-02  0.8671688E-01
        2   -1    0    0  501    0  0.00000000000E+00  0.00000000000E+00  0.58996608797E+03  0.58996608798E+03  0.25500000920E-02 0.  1.
       -2   -1    0    0    0  501  0.00000000000E+00  0.00000000000E+00 -0.14763608103E+04  0.14763608103E+04  0.25500000920E-02 0. -1.
    10030    2    1    2    0    0  0.00000000000E+00  0.00000000000E+00 -0.88639472228E+03  0.20663268982E+04  0.18665506279E+04 0.  0.
        3    1    3    3  502    0  0.53887848190E+03 -0.35469368381E+03 -0.11897698003E+04  0.13534215218E+04  0.10100000352E+00 0. -1.
       -3    1    3    3    0  502 -0.53887848190E+03  0.35469368381E+03  0.30337507807E+03  0.71290537646E+03  0.10100000352E+00 0.  1.
</event>
<event>
 5   0  0.3516539E-04  0.1570723E+04  0.7818609E-02  0.8838739E-01
        2   -1    0    0  501    0  0.00000000000E+00  0.00000000000E+00  0.11686726025E+04  0.11686726025E+04  0.25500000920E-02 0.  1.
       -2   -1    0    0    0  501  0.00000000000E+00  0.00000000000E+00 -0.52777183818E+03  0.52777183818E+03  0.25500000920E-02 0. -1.
    10030    2    1    2    0    0  0.00000000000E+00  0.00000000000E+00  0.64090076432E+03  0.16964444407E+04  0.15707227478E+04 0.  0.
        4    1    3    3  502    0 -0.72429887624E+03  0.16903751980E+03  0.59284410962E+03  0.95113001027E+03  0.12699999809E+01 0.  1.
       -4    1    3    3    0  502  0.72429887624E+03 -0.16903751980E+03  0.48056654695E+02  0.74531443041E+03  0.12699999809E+01 0. -1.
</event>
<event>
 5   0  0.1758946E-04  0.1869129E+04  0.7818609E-02  0.8670377E-01
        1   -1    0    0  501    0  0.00000000000E+00  0.00000000000E+00  0.10293541362E+04  0.10293541363E+04  0.50400001928E-02 0. -1.
       -1   -1    0    0    0  501  0.00000000000E+00  0.00000000000E+00 -0.84850392877E+03  0.84850392878E+03  0.50400001928E-02 0.  1.
    10030    2    1    2    0    0  0.00000000000E+00  0.00000000000E+00  0.18085020748E+03  0.18778580650E+04  0.18691292397E+04 0.  0.
        2    1    3    3  502    0  0.82312536803E+03  0.61687636893E+02  0.53073001666E+03  0.98133332086E+03  0.25500000920E-02 0. -1.
       -2    1    3    3    0  502 -0.82312536803E+03 -0.61687636893E+02 -0.34987980919E+03  0.89652474418E+03  0.25500000920E-02 0.  1.
</event>
<event>
 5   0  0.3459485E-04  0.1881348E+04  0.7818609E-02  0.8664197E-01
        2   -1    0    0  501    0  0.00000000000E+00  0.00000000000E+00  0.19807935384E+04  0.19807935384E+04  0.25500000920E-02 0.  1.
       -2   -1    0    0    0  501  0.00000000000E+00  0.00000000000E+00 -0.44672383893E+03  0.44672383894E+03  0.25500000920E-02 0. -1.
    10030    2    1    2    0    0  0.00000000000E+00  0.00000000000E+00  0.15340696995E+04  0.24275173774E+04  0.18813481269E+04 0.  0.
        3    1    3    3  502    0  0.66374559765E+03  0.40331745015E+02 -0.91463597094E+02  0.67123056236E+03  0.10100000352E+00 0. -1.
       -3    1    3    3    0  502 -0.66374559765E+03 -0.40331745015E+02  0.16255332966E+04  0.17562868150E+04  0.10100000352E+00 0.  1.
</event>
<event>
 5   0  0.1813834E-04  0.1897544E+04  0.7818609E-02  0.8656080E-01
        1   -1    0    0  501    0  0.00000000000E+00  0.00000000000E+00  0.11332454446E+04  0.11332454447E+04  0.50400001928E-02 0.  1.
       -1   -1    0    0    0  501  0.00000000000E+00  0.00000000000E+00 -0.79432768844E+03  0.79432768845E+03  0.50400001928E-02 0. -1.
    10030    2    1    2    0    0  0.00000000000E+00  0.00000000000E+00  0.33891775620E+03  0.19275731331E+04  0.18975439226E+04 0.  0.
        5    1    3    3  502    0 -0.39701361047E+03 -0.23605897219E+02  0.10444667022E+04  0.11176358205E+04  0.46999998093E+01 0.  1.
       -5    1    3    3    0  502  0.39701361047E+03  0.23605897219E+02 -0.70554894595E+03  0.80993731264E+03  0.46999998093E+01 0. -1.
</event>
<event>
 5   0  0.3516539E-04  0.1911345E+04  0.7818609E-02  0.8649230E-01
       -2   -1    0    0    0  501  0.00000000000E+00  0.00000000000E+00  0.40954550667E+03  0.40954550667E+03  0.25500000920E-02 0.  1.
        2   -1    0    0  501    0  0.00000000000E+00  0.00000000000E+00 -0.22300581707E+04  0.22300581707E+04  0.25500000920E-02 0. -1.
    10030    2    1    2    0    0  0.00000000000E+00  0.00000000000E+00 -0.18205126640E+04  0.26396036773E+04  0.19113453936E+04 0.  0.
        4    1    3    3  502    0 -0.41733303526E+03 -0.21592863928E+03  0.23899405995E+03  0.52717341850E+03  0.12699999809E+01 0.  1.
       -4    1    3    3    0  502  0.41733303526E+03  0.21592863928E+03 -0.20595067239E+04  0.21124302588E+04  0.12699999809E+01 0. -1.
</event>
<event>
 5   0  0.1694830E-04  0.1978962E+04  0.7818609E-02  0.8616520E-01
        1   -1    0    0  501    0  0.00000000000E+00  0.00000000000E+00  0.95056122721E+03  0.95056122722E+03  0.50400001928E-02 0.  1.
       -1   -1    0    0    0  501  0.00000000000E+00  0.00000000000E+00 -0.10299938165E+04  0.10299938165E+04  0.50400001928E-02 0. -1.
    10030    2    1    2    0    0  0.00000000000E+00  0.00000000000E+00 -0.79432589300E+02  0.19805550437E+04  0.19789615320E+04 0.  0.
        1    1    3    3  502    0  0.75965226252E+03  0.61658603271E+03  0.10812635297E+03  0.98434811115E+03  0.50400001928E-02 0.  1.
       -1    1    3    3    0  502 -0.75965226252E+03 -0.61658603271E+03 -0.18755894227E+03  0.99620693259E+03  0.50400001928E-02 0. -1.
</event>
<event>
 5   0  0.3623359E-04  0.1897831E+04  0.7818609E-02  0.8655937E-01
       -2   -1    0    0    0  501  0.00000000000E+00  0.00000000000E+00  0.65229708212E+03  0.65229708213E+03  0.25500000920E-02 0.  1.
        2   -1    0    0  501    0  0.00000000000E+00  0.00000000000E+00 -0.13804150846E+04  0.13804150846E+04  0.25500000920E-02 0. -1.
    10030    2    1    2    0    0  0.00000000000E+00  0.00000000000E+00 -0.72811800249E+03  0.20327121667E+04  0.18978311114E+04 0.  0.
        5    1    3    3  502    0 -0.24007591272E+03  0.80707167475E+03  0.10454841320E+03  0.84850079125E+03  0.46999998093E+01 0.  1.
       -5    1    3    3    0  502  0.24007591272E+03 -0.80707167475E+03 -0.83266641569E+03  0.11842113755E+04  0.46999998093E+01 0. -1.
</event>
<event>
 5   0  0.1813834E-04  0.1882074E+04  0.7818609E-02  0.8663831E-01
       -1   -1    0    0    0  501  0.00000000000E+00  0.00000000000E+00  0.15990280279E+04  0.15990280279E+04  0.50400001928E-02 0.  1.
        1   -1    0    0  501    0  0.00000000000E+00  0.00000000000E+00 -0.55380551995E+03  0.55380551998E+03  0.50400001928E-02 0. -1.
    10030    2    1    2    0    0  0.00000000000E+00  0.00000000000E+00  0.10452225079E+04  0.21528335479E+04  0.18820739076E+04 0.  0.
        5    1    3    3  502    0  0.60284875273E+03 -0.32730344937E+02  0.13482791125E+04  0.14772868880E+04  0.46999998093E+01 0.  1.
       -5    1    3    3    0  502 -0.60284875273E+03  0.32730344937E+02 -0.30305660457E+03  0.67554665991E+03  0.46999998093E+01 0. -1.
</event>
<event>
 5   0  0.1813834E-04  0.1917359E+04  0.7818609E-02  0.8646264E-01
       -1   -1    0    0    0  501  0.00000000000E+00  0.00000000000E+00  0.12050514107E+04  0.12050514107E+04  0.50400001928E-02 0. -1.
        1   -1    0    0  501    0  0.00000000000E+00  0.00000000000E+00 -0.76267824132E+03  0.76267824134E+03  0.50400001928E-02 0.  1.
    10030    2    1    2    0    0  0.00000000000E+00  0.00000000000E+00  0.44237316935E+03  0.19677296520E+04  0.19173591115E+04 0.  0.
        5    1    3    3  502    0  0.45441418232E+03 -0.84402098024E+03  0.23498359001E+03  0.98696658593E+03  0.46999998093E+01 0. -1.
       -5    1    3    3    0  502 -0.45441418232E+03  0.84402098024E+03  0.20738957933E+03  0.98076306608E+03  0.46999998093E+01 0.  1.
</event>
<event>
 5   0  0.3623359E-04  0.1874857E+04  0.7818609E-02  0.8667474E-01
        2   -1    0    0  501    0  0.00000000000E+00  0.00000000000E+00  0.99385933738E+03  0.99385933739E+03  0.25500000920E-02 0. -1.
       -2   -1    0    0    0  501  0.00000000000E+00  0.00000000000E+00 -0.88420174954E+03  0.88420174954E+03  0.25500000920E-02 0.  1.
    10030    2    1    2    0    0  0.00000000000E+00  0.00000000000E+00  0.10965758784E+03  0.18780610869E+04  0.18748569705E+04 0.  0.
        5    1    3    3  502    0  0.47658656123E+03  0.78479279725E+03  0.24413745624E+03  0.95008403444E+03  0.46999998093E+01 0. -1.
       -5    1    3    3    0  502 -0.47658656123E+03 -0.78479279725E+03 -0.13447986839E+03  0.92797705249E+03  0.46999998093E+01 0.  1.
</event>
<event>
 5   0  0.1711979E-04  0.1884390E+04  0.7818609E-02  0.8662666E-01
        1   -1    0    0  501    0  0.00000000000E+00  0.00000000000E+00  0.76776185235E+03  0.76776185237E+03  0.50400001928E-02 0. -1.
       -1   -1    0    0    0  501  0.00000000000E+00  0.00000000000E+00 -0.11562589251E+04  0.11562589251E+04  0.50400001928E-02 0.  1.
    10030    2    1    2    0    0  0.00000000000E+00  0.00000000000E+00 -0.38849707277E+03  0.19240207775E+04  0.18843900808E+04 0.  0.
        4    1    3    3  502    0 -0.16976725247E+03  0.56305610841E+03  0.55735569928E+03  0.81024693128E+03  0.12699999809E+01 0. -1.
       -4    1    3    3    0  502  0.16976725247E+03 -0.56305610841E+03 -0.94585277204E+03  0.11137738462E+04  0.12699999809E+01 0.  1.
</event>
<event>
 5   0  0.1711979E-04  0.1846420E+04  0.7818609E-02  0.8681996E-01
       -1   -1    0    0    0  501  0.00000000000E+00  0.00000000000E+00  0.92860091120E+03  0.92860091122E+03  0.50400001928E-02 0.  1.
        1   -1    0    0  501    0  0.00000000000E+00  0.00000000000E+00 -0.91785002298E+03  0.91785002299E+03  0.50400001928E-02 0. -1.
    10030    2    1    2    0    0  0.00000000000E+00  0.00000000000E+00  0.10750888224E+02  0.18464509342E+04  0.18464196356E+04 0.  0.
        4    1    3    3  502    0 -0.68083111161E+03  0.61659124270E+03  0.98107764412E+02  0.92376539740E+03  0.12699999809E+01 0. -1.
       -4    1    3    3    0  502  0.68083111161E+03 -0.61659124270E+03 -0.87356876188E+02  0.92268553680E+03  0.12699999809E+01 0.  1.
</event>
<event>
 5   0  0.1813834E-04  0.1919396E+04  0.7818609E-02  0.8645262E-01
       -1   -1    0    0    0  501  0.00000000000E+00  0.00000000000E+00  0.44425012753E+03  0.44425012756E+03  0.50400001928E-02 0. -1.
        1   -1    0    0  501    0  0.00000000000E+00  0.00000000000E+00 -0.20732009913E+04  0.20732009913E+04  0.50400001928E-02 0.  1.
    10030    2    1    2    0    0  0.00000000000E+00  0.00000000000E+00 -0.16289508638E+04  0.25174511189E+04  0.19193955349E+04 0.  0.
        5    1    3    3  502    0  0.86840366823E+01 -0.90082631746E+03 -0.12483589926E+04  0.15394757975E+04  0.46999998093E+01 0.  1.
       -5    1    3    3    0  502 -0.86840366823E+01  0.90082631746E+03 -0.38059187111E+03  0.97797532130E+03  0.46999998093E+01 0. -1.
</event>
<event>
 5   0  0.1711979E-04  0.1922808E+04  0.7818609E-02  0.8643586E-01
        1   -1    0    0  501    0  0.00000000000E+00  0.00000000000E+00  0.72974475357E+03  0.72974475359E+03  0.50400001928E-02 0. -1.
       -1   -1    0    0    0  501  0.00000000000E+00  0.00000000000E+00 -0.12666039885E+04  0.12666039885E+04  0.50400001928E-02 0.  1.
    10030    2    1    2    0    0  0.00000000000E+00  0.00000000000E+00 -0.53685923489E+03  0.19963487421E+04  0.19228079628E+04 0.  0.
        4    1    3    3  502    0  0.23801954128E+03 -0.85648768021E+02  0.69457246003E+03  0.73920330669E+03  0.12699999809E+01 0. -1.
       -4    1    3    3    0  502 -0.23801954128E+03  0.85648768021E+02 -0.12314316949E+04  0.12571454354E+04  0.12699999809E+01 0.  1.
</event>
<event>
 5   0  0.1711979E-04  0.1874852E+04  0.7818609E-02  0.8667477E-01
       -1   -1    0    0    0  501  0.00000000000E+00  0.00000000000E+00  0.16979927607E+04  0.16979927607E+04  0.50400001928E-02 0.  1.
        1   -1    0    0  501    0  0.00000000000E+00  0.00000000000E+00 -0.51753288926E+03  0.51753288928E+03  0.50400001928E-02 0. -1.
    10030    2    1    2    0    0  0.00000000000E+00  0.00000000000E+00  0.11804598714E+04  0.22155256500E+04  0.18748515668E+04 0.  0.
        4    1    3    3  502    0  0.18228087404E+03 -0.89891303811E+03  0.81904983377E+03  0.12296809384E+04  0.12699999809E+01 0.  1.
       -4    1    3    3    0  502 -0.18228087404E+03  0.89891303811E+03  0.36141003764E+03  0.98584471157E+03  0.12699999809E+01 0. -1.
</event>
<event>
 5   0  0.1711979E-04  0.1917251E+04  0.7818609E-02  0.8646317E-01
        1   -1    0    0  501    0  0.00000000000E+00  0.00000000000E+00  0.16138517187E+04  0.16138517187E+04  0.50400001928E-02 0. -1.
       -1   -1    0    0    0  501  0.00000000000E+00  0.00000000000E+00 -0.56942208650E+03  0.56942208653E+03  0.50400001928E-02 0.  1.
    10030    2    1    2    0    0  0.00000000000E+00  0.00000000000E+00  0.10444296322E+04  0.21832738052E+04  0.19172509622E+04 0.  0.
        4    1    3    3  502    0 -0.53161435224E+03  0.78644591522E+03  0.67435741115E+03  0.11644185364E+04  0.12699999809E+01 0.  1.
       -4    1    3    3    0  502  0.53161435224E+03 -0.78644591522E+03  0.37007222103E+03  0.10188552688E+04  0.12699999809E+01 0. -1.
</event>
<event>
 5   0  0.1694830E-04  0.1942197E+04  0.7818609E-02  0.8634133E-01
        1   -1    0    0  501    0  0.00000000000E+00  0.00000000000E+00  0.15199223230E+04  0.15199223230E+04  0.50400001928E-02 0.  1.
       -1   -1    0    0    0  501  0.00000000000E+00  0.00000000000E+00 -0.62044738504E+03  0.62044738506E+03  0.50400001928E-02 0. -1.
    10030    2    1    2    0    0  0.00000000000E+00  0.00000000000E+00  0.89947493799E+03  0.21403697081E+04  0.19421965202E+04 0.  0.
        1    1    3    3  502    0 -0.41199560152E+03  0.13202892671E+03  0.14078494113E+04  0.14728244899E+04  0.50400001928E-02 0.  1.
       -1    1    3    3    0  502  0.41199560152E+03 -0.13202892671E+03 -0.50837447332E+03  0.66754521817E+03  0.50400001928E-02 0. -1.
</event>
<event>
 5   0  0.3535876E-04  0.1891867E+04  0.7818609E-02  0.8658915E-01
       -2   -1    0    0    0  501  0.00000000000E+00  0.00000000000E+00  0.14762776590E+04  0.14762776590E+04  0.25500000920E-02 0. -1.
        2   -1    0    0  501    0  0.00000000000E+00  0.00000000000E+00 -0.60611234822E+03  0.60611234823E+03  0.25500000920E-02 0.  1.
    10030    2    1    2    0    0  0.00000000000E+00  0.00000000000E+00  0.87016531074E+03  0.20823900072E+04  0.18918669282E+04 0.  0.
        2    1    3    3  502    0  0.37374341177E+03 -0.47517224591E+03  0.12358927464E+04  0.13758283621E+04  0.25500000920E-02 0. -1.
       -2    1    3    3    0  502 -0.37374341177E+03  0.47517224591E+03 -0.36572743571E+03  0.70656164513E+03  0.25500000920E-02 0.  1.
</event>
<event>
 5   0  0.1694830E-04  0.1919583E+04  0.7818609E-02  0.8645170E-01
       -1   -1    0    0    0  501  0.00000000000E+00  0.00000000000E+00  0.58627924309E+03  0.58627924312E+03  0.50400001928E-02 0. -1.
        1   -1    0    0  501    0  0.00000000000E+00  0.00000000000E+00 -0.15712636817E+04  0.15712636817E+04  0.50400001928E-02 0.  1.
    10030    2    1    2    0    0  0.00000000000E+00  0.00000000000E+00 -0.98498443859E+03  0.21575429248E+04  0.19195825401E+04 0.  0.
        1    1    3    3  502    0  0.94952043396E+03  0.98434980233E+02 -0.38054182937E+03  0.10276626800E+04  0.50400001928E-02 0.  1.
       -1    1    3    3    0  502 -0.94952043396E+03 -0.98434980233E+02 -0.60444260922E+03  0.11298802449E+04  0.50400001928E-02 0. -1.
</event>
<event>
 5   0  0.1711979E-04  0.1850819E+04  0.7818609E-02  0.8679732E-01
       -1   -1    0    0    0  501  0.00000000000E+00  0.00000000000E+00  0.39785657605E+03  0.39785657608E+03  0.50400001928E-02 0.  1.
        1   -1    0    0  501    0  0.00000000000E+00  0.00000000000E+00 -0.21524915691E+04  0.21524915691E+04  0.50400001928E-02 0. -1.
    10030    2    1    2    0    0  0.00000000000E+00  0.00000000000E+00 -0.17546349931E+04  0.25503481452E+04  0.18508191978E+04 0.  0.
        4    1    3    3  502    0  0.64137196634E+03 -0.14871598603E+03 -0.17734203156E+04  0.18916912201E+04  0.12699999809E+01 0. -1.
       -4    1    3    3    0  502 -0.64137196634E+03  0.14871598603E+03  0.18785322517E+02  0.65865692507E+03  0.12699999809E+01 0.  1.
</event>
<event>
 5   0  0.3623359E-04  0.1914165E+04  0.7818609E-02  0.8647838E-01
       -2   -1    0    0    0  501  0.00000000000E+00  0.00000000000E+00  0.53134700984E+03  0.53134700984E+03  0.25500000920E-02 0. -1.
        2   -1    0    0  501    0  0.00000000000E+00  0.00000000000E+00 -0.17239334879E+04  0.17239334879E+04  0.25500000920E-02 0.  1.
    10030    2    1    2    0    0  0.00000000000E+00  0.00000000000E+00 -0.11925864781E+04  0.22552804978E+04  0.19141649918E+04 0.  0.
        5    1    3    3  502    0 -0.85395044319E+02  0.57378835904E+03  0.30058339309E+03  0.65337421189E+03  0.46999998093E+01 0. -1.
       -5    1    3    3    0  502  0.85395044319E+02 -0.57378835904E+03 -0.14931698712E+04  0.16019062859E+04  0.46999998093E+01 0.  1.
</event>
<event>
 5   0  0.1287000E-04  0.1878553E+04  0.7818609E-02  0.8665606E-01
        4   -1    0    0  501    0  0.00000000000E+00  0.00000000000E+00  0.16349006412E+04  0.16349011345E+04  0.12699999809E+01 0.  1.
       -4   -1    0    0    0  501  0.00000000000E+00  0.00000000000E+00 -0.53962813618E+03  0.53962963063E+03  0.12699999809E+01 0. -1.
    10030    2    1    2    0    0  0.00000000000E+00  0.00000000000E+00  0.10952725050E+04  0.21745307651E+04  0.18785532168E+04 0.  0.
        4    1    3    3  502    0 -0.86583604667E+02  0.81286914645E+03  0.12166802774E+02  0.81755893601E+03  0.12699999809E+01 0. -1.
       -4    1    3    3    0  502  0.86583604667E+02 -0.81286914645E+03  0.10831057023E+04  0.13569718291E+04  0.12699999809E+01 0.  1.
</event>
<event>
 5   0  0.1782613E-04  0.1907341E+04  0.7818609E-02  0.8651211E-01
        1   -1    0    0  501    0  0.00000000000E+00  0.00000000000E+00  0.15281409291E+04  0.15281409291E+04  0.50400001928E-02 0. -1.
       -1   -1    0    0    0  501  0.00000000000E+00  0.00000000000E+00 -0.59515963884E+03  0.59515963886E+03  0.50400001928E-02 0.  1.
    10030    2    1    2    0    0  0.00000000000E+00  0.00000000000E+00  0.93298129028E+03  0.21233005680E+04  0.19073413994E+04 0.  0.
        3    1    3    3  502    0  0.94405117195E+03  0.80470146705E+02  0.58731396752E+03  0.11147402237E+04  0.10100000352E+00 0.  1.
       -3    1    3    3    0  502 -0.94405117195E+03 -0.80470146705E+02  0.34566732277E+03  0.10085603443E+04  0.10100000352E+00 0. -1.
</event>
<event>
 5   0  0.1711979E-04  0.2005456E+04  0.7818609E-02  0.8604074E-01
       -1   -1    0    0    0  501  0.00000000000E+00  0.00000000000E+00  0.10927797794E+04  0.10927797794E+04  0.50400001928E-02 0.  1.
        1   -1    0    0  501    0  0.00000000000E+00  0.00000000000E+00 -0.92009745881E+03  0.92009745882E+03  0.50400001928E-02 0. -1.
    10030    2    1    2    0    0  0.00000000000E+00  0.00000000000E+00  0.17268232059E+03  0.20128772382E+04  0.20054564549E+04 0.  0.
        4    1    3    3  502    0  0.35386027197E+03  0.88211027255E+03  0.40709629484E+03  0.10339558168E+04  0.12699999809E+01 0.  1.
       -4    1    3    3    0  502 -0.35386027197E+03 -0.88211027255E+03 -0.23441397425E+03  0.97892142138E+03  0.12699999809E+01 0. -1.
</event>
<event>
 5   0  0.1711979E-04  0.1967867E+04  0.7818609E-02  0.8621793E-01
       -1   -1    0    0    0  501  0.00000000000E+00  0.00000000000E+00  0.49494039850E+03  0.49494039852E+03  0.50400001928E-02 0. -1.
        1   -1    0    0  501    0  0.00000000000E+00  0.00000000000E+00 -0.19560437860E+04  0.19560437860E+04  0.50400001928E-02 0.  1.
    10030    2    1    2    0    0  0.00000000000E+00  0.00000000000E+00 -0.14611033875E+04  0.24509841845E+04  0.19678669578E+04 0.  0.
        4    1    3    3  502    0 -0.60982662155E+03 -0.75771809415E+03 -0.54540165396E+03  0.11151187361E+04  0.12699999809E+01 0. -1.
       -4    1    3    3    0  502  0.60982662155E+03  0.75771809415E+03 -0.91570173352E+03  0.13358654484E+04  0.12699999809E+01 0.  1.
</event>
<event>
 5   0  0.3516539E-04  0.1901729E+04  0.7818609E-02  0.8653996E-01
       -2   -1    0    0    0  501  0.00000000000E+00  0.00000000000E+00  0.11264635450E+04  0.11264635450E+04  0.25500000920E-02 0. -1.
        2   -1    0    0  501    0  0.00000000000E+00  0.00000000000E+00 -0.80263843728E+03  0.80263843728E+03  0.25500000920E-02 0.  1.
    10030    2    1    2    0    0  0.00000000000E+00  0.00000000000E+00  0.32382510776E+03  0.19291019823E+04  0.19017286236E+04 0.  0.
        4    1    3    3  502    0  0.13598567423E+03 -0.71615463399E+03 -0.45742604600E+03  0.86058687175E+03  0.12699999809E+01 0.  1.
       -4    1    3    3    0  502 -0.13598567423E+03  0.71615463399E+03  0.78125115376E+03  0.10685151106E+04  0.12699999809E+01 0. -1.
</event>
<event>
 5   0  0.1287000E-04  0.1857142E+04  0.7818609E-02  0.8676489E-01
       -3   -1    0    0    0  501  0.00000000000E+00  0.00000000000E+00  0.48833895755E+03  0.48833896799E+03  0.10100000352E+00 0. -1.
        3   -1    0    0  501    0  0.00000000000E+00  0.00000000000E+00 -0.17656665038E+04  0.17656665067E+04  0.10100000352E+00 0.  1.
    10030    2    1    2    0    0  0.00000000000E+00  0.00000000000E+00 -0.12773275462E+04  0.22540054747E+04  0.18571416261E+04 0.  0.
        1    1    3    3  502    0 -0.50117550625E+03 -0.51112399734E+03 -0.13565104883E+04  0.15338009432E+04  0.50400001928E-02 0.  1.
       -1    1    3    3    0  502  0.50117550625E+03  0.51112399734E+03  0.79182942038E+02  0.72020453140E+03  0.50400001928E-02 0. -1.
</event>
<event>
 5   0  0.1782613E-04  0.1886372E+04  0.7818609E-02  0.8661670E-01
       -1   -1    0    0    0  501  0.00000000000E+00  0.00000000000E+00  0.10258965901E+04  0.10258965901E+04  0.50400001928E-02 0. -1.
        1   -1    0    0  501    0  0.00000000000E+00  0.00000000000E+00 -0.86714339414E+03  0.86714339415E+03  0.50400001928E-02 0.  1.
    10030    2    1    2    0    0  0.00000000000E+00  0.00000000000E+00  0.15875319600E+03  0.18930399843E+04  0.18863715978E+04 0.  0.
        3    1    3    3  502    0  0.62557185309E+02 -0.55720065641E+03  0.84048595533E+03  0.10103477739E+04  0.10100000352E+00 0. -1.
       -3    1    3    3    0  502 -0.62557185309E+02  0.55720065641E+03 -0.68173275933E+03  0.88269221039E+03  0.10100000352E+00 0.  1.
</event>
<event>
 5   0  0.3535876E-04  0.1874391E+04  0.7818609E-02  0.8667710E-01
        2   -1    0    0  501    0  0.00000000000E+00  0.00000000000E+00  0.29764516044E+04  0.29764516044E+04  0.25500000920E-02 0.  1.
       -2   -1    0    0    0  501  0.00000000000E+00  0.00000000000E+00 -0.29509472342E+03  0.29509472343E+03  0.25500000920E-02 0. -1.
    10030    2    1    2    0    0  0.00000000000E+00  0.00000000000E+00  0.26813568810E+04  0.32715463278E+04  0.18743907415E+04 0.  0.
        2    1    3    3  502    0 -0.53798984585E+02  0.11641981203E+03 -0.27970641217E+03  0.30770697163E+03  0.25500000920E-02 0. -1.
       -2    1    3    3    0  502  0.53798984585E+02 -0.11641981203E+03  0.29610632931E+04  0.29638393562E+04  0.25500000920E-02 0.  1.
</event>
<event>
 5   0  0.3623359E-04  0.1773123E+04  0.7818609E-02  0.8720725E-01
       -2   -1    0    0    0  501  0.00000000000E+00  0.00000000000E+00  0.98330396935E+03  0.98330396936E+03  0.25500000920E-02 0. -1.
        2   -1    0    0  501    0  0.00000000000E+00  0.00000000000E+00 -0.79933670095E+03  0.79933670096E+03  0.25500000920E-02 0.  1.
    10030    2    1    2    0    0  0.00000000000E+00  0.00000000000E+00  0.18396726840E+03  0.17826406703E+04  0.17731226138E+04 0.  0.
        5    1    3    3  502    0 -0.82297403635E+03 -0.23799784550E+03 -0.13736286128E+03  0.86765193748E+03  0.46999998093E+01 0.  1.
       -5    1    3    3    0  502  0.82297403635E+03  0.23799784550E+03  0.32133012968E+03  0.91498873283E+03  0.46999998093E+01 0. -1.
</event>
<event>
 5   0  0.3459485E-04  0.1897027E+04  0.7818609E-02  0.8656338E-01
       -2   -1    0    0    0  501  0.00000000000E+00  0.00000000000E+00  0.63599537259E+03  0.63599537260E+03  0.25500000920E-02 0. -1.
        2   -1    0    0  501    0  0.00000000000E+00  0.00000000000E+00 -0.14145985178E+04  0.14145985178E+04  0.25500000920E-02 0.  1.
    10030    2    1    2    0    0  0.00000000000E+00  0.00000000000E+00 -0.77860314521E+03  0.20505938904E+04  0.18970272654E+04 0.  0.
        3    1    3    3  502    0  0.23901567624E+03 -0.75183964681E+03  0.17990597150E+03  0.80917088231E+03  0.10100000352E+00 0. -1.
       -3    1    3    3    0  502 -0.23901567624E+03  0.75183964681E+03 -0.95850911670E+03  0.12414230081E+04  0.10100000352E+00 0.  1.
</event>
<event>
 5   0  0.1758946E-04  0.2009128E+04  0.7818609E-02  0.8602365E-01
       -1   -1    0    0    0  501  0.00000000000E+00  0.00000000000E+00  0.62917507867E+03  0.62917507869E+03  0.50400001928E-02 0. -1.
        1   -1    0    0  501    0  0.00000000000E+00  0.00000000000E+00 -0.16039239224E+04  0.16039239224E+04  0.50400001928E-02 0.  1.
    10030    2    1    2    0    0  0.00000000000E+00  0.00000000000E+00 -0.97474884371E+03  0.22330990011E+04  0.20091281294E+04 0.  0.
        2    1    3    3  502    0 -0.67896443152E+03 -0.56940227164E+03 -0.10133475726E+04  0.13461370469E+04  0.25500000920E-02 0.  1.
       -2    1    3    3    0  502  0.67896443152E+03  0.56940227164E+03  0.38598728882E+02  0.88696195414E+03  0.25500000920E-02 0. -1.
</event>
<event>
 5   0  0.3459485E-04  0.1787157E+04  0.7818609E-02  0.8713159E-01
        2   -1    0    0  501    0  0.00000000000E+00  0.00000000000E+00  0.82790715052E+03  0.82790715052E+03  0.25500000920E-02 0. -1.
       -2   -1    0    0    0  501  0.00000000000E+00  0.00000000000E+00 -0.96445879691E+03  0.96445879691E+03  0.25500000920E-02 0.  1.
    10030    2    1    2    0    0  0.00000000000E+00  0.00000000000E+00 -0.13655164639E+03  0.17923659474E+04  0.17871567747E+04 0.  0.
        3    1    3    3  502    0  0.80880143212E+03 -0.12814740573E+03  0.29039882407E+03  0.86885729635E+03  0.10100000352E+00 0. -1.
       -3    1    3    3    0  502 -0.80880143212E+03  0.12814740573E+03 -0.42695047046E+03  0.92350865108E+03  0.10100000352E+00 0.  1.
</event>
<event>
 5   0  0.1813834E-04  0.1879732E+04  0.7818609E-02  0.8665011E-01
       -1   -1    0    0    0  501  0.00000000000E+00  0.00000000000E+00  0.99477144370E+03  0.99477144371E+03  0.50400001928E-02 0. -1.
        1   -1    0    0  501    0  0.00000000000E+00  0.00000000000E+00 -0.88799127921E+03  0.88799127923E+03  0.50400001928E-02 0.  1.
    10030    2    1    2    0    0  0.00000000000E+00  0.00000000000E+00  0.10678016449E+03  0.18827627229E+04  0.18797322861E+04 0.  0.
        5    1    3    3  502    0  0.29711586326E+03 -0.45154647796E+03  0.82349515982E+03  0.98505757507E+03  0.46999998093E+01 0. -1.
       -5    1    3    3    0  502 -0.29711586326E+03  0.45154647796E+03 -0.71671499534E+03  0.89770514786E+03  0.46999998093E+01 0.  1.
</event>
<event>
 5   0  0.1782613E-04  0.1935228E+04  0.7818609E-02  0.8637517E-01
       -1   -1    0    0    0  501  0.00000000000E+00  0.00000000000E+00  0.83700292263E+03  0.83700292265E+03  0.50400001928E-02 0.  1.
        1   -1    0    0  501    0  0.00000000000E+00  0.00000000000E+00 -0.11186065689E+04  0.11186065689E+04  0.50400001928E-02 0. -1.
    10030    2    1    2    0    0  0.00000000000E+00  0.00000000000E+00 -0.28160364630E+03  0.19556094916E+04  0.19352281183E+04 0.  0.
        3    1    3    3  502    0 -0.48535274777E+03 -0.58155708094E+03  0.46761973337E+03  0.89019332361E+03  0.10100000352E+00 0.  1.
       -3    1    3    3    0  502  0.48535274777E+03  0.58155708094E+03 -0.74922337968E+03  0.10654161680E+04  0.10100000352E+00 0. -1.
</event>
<event>
 5   0  0.1711979E-04  0.1174037E+04  0.7818609E-02  0.9135891E-01
       -1   -1    0    0    0  501  0.00000000000E+00  0.00000000000E+00  0.38682169989E+03  0.38682169992E+03  0.50400001928E-02 0. -1.
        1   -1    0    0  501    0  0.00000000000E+00  0.00000000000E+00 -0.89082524610E+03  0.89082524612E+03  0.50400001928E-02 0.  1.
    10030    2    1    2    0    0  0.00000000000E+00  0.00000000000E+00 -0.50400354622E+03  0.12776469460E+04  0.11740366877E+04 0.  0.
        4    1    3    3  502    0 -0.21274076971E+03  0.21090067438E+03 -0.80138137293E+03  0.85554161052E+03  0.12699999809E+01 0.  1.
       -4    1    3    3    0  502  0.21274076971E+03 -0.21090067438E+03  0.29737782672E+03  0.42210533552E+03  0.12699999809E+01 0. -1.
</event>
<event>
 5   0  0.3516539E-04  0.1892113E+04  0.7818609E-02  0.8658792E-01
       -2   -1    0    0    0  501  0.00000000000E+00  0.00000000000E+00  0.11589055921E+04  0.11589055921E+04  0.25500000920E-02 0. -1.
        2   -1    0    0  501    0  0.00000000000E+00  0.00000000000E+00 -0.77230012267E+03  0.77230012268E+03  0.25500000920E-02 0.  1.
    10030    2    1    2    0    0  0.00000000000E+00  0.00000000000E+00  0.38660546947E+03  0.19312057148E+04  0.18921130315E+04 0.  0.
        4    1    3    3  502    0  0.18100347995E+03  0.39302000767E+03  0.10519899588E+04  0.11375022956E+04  0.12699999809E+01 0. -1.
       -4    1    3    3    0  502 -0.18100347995E+03 -0.39302000767E+03 -0.66538448932E+03  0.79370341923E+03  0.12699999809E+01 0.  1.
</event>
<event>
 5   0  0.1711979E-04  0.1925374E+04  0.7818609E-02  0.8642328E-01
        1   -1    0    0  501    0  0.00000000000E+00  0.00000000000E+00  0.20419741121E+04  0.20419741121E+04  0.50400001928E-02 0. -1.
       -1   -1    0    0    0  501  0.00000000000E+00  0.00000000000E+00 -0.45385793386E+03  0.45385793389E+03  0.50400001928E-02 0.  1.
    10030    2    1    2    0    0  0.00000000000E+00  0.00000000000E+00  0.15881161782E+04  0.24958320460E+04  0.19253738874E+04 0.  0.
        4    1    3    3  502    0 -0.10958088263E+03  0.52020365293E+03 -0.24632194155E+03  0.58591460312E+03  0.12699999809E+01 0.  1.
       -4    1    3    3    0  502  0.10958088263E+03 -0.52020365293E+03  0.18344381198E+04  0.19099174429E+04  0.12699999809E+01 0. -1.
</event>
<event>
 5   0  0.3623359E-04  0.1583377E+04  0.7818609E-02  0.8830826E-01
        2   -1    0    0  501    0  0.00000000000E+00  0.00000000000E+00  0.77568488380E+03  0.77568488381E+03  0.25500000920E-02 0. -1.
       -2   -1    0    0    0  501  0.00000000000E+00  0.00000000000E+00 -0.80802182387E+03  0.80802182388E+03  0.25500000920E-02 0.  1.
    10030    2    1    2    0    0  0.00000000000E+00  0.00000000000E+00 -0.32336940069E+02  0.15837067077E+04  0.15833765371E+04 0.  0.
        5    1    3    3  502    0  0.33544920733E+03  0.53333442135E+02  0.69908735003E+03  0.77724889174E+03  0.46999998093E+01 0. -1.
       -5    1    3    3    0  502 -0.33544920733E+03 -0.53333442135E+02 -0.73142429010E+03  0.80645781594E+03  0.46999998093E+01 0.  1.
</event>
<event>
 5   0  0.1782613E-04  0.1681902E+04  0.7818609E-02  0.8771754E-01
       -1   -1    0    0    0  501  0.00000000000E+00  0.00000000000E+00  0.47317007027E+03  0.47317007030E+03  0.50400001928E-02 0. -1.
        1   -1    0    0  501    0  0.00000000000E+00  0.00000000000E+00 -0.14945973713E+04  0.14945973713E+04  0.50400001928E-02 0.  1.
    10030    2    1    2    0    0  0.00000000000E+00  0.00000000000E+00 -0.10214273010E+04  0.19677674416E+04  0.16819021889E+04 0.  0.
        3    1    3    3  502    0  0.36179970411E+03 -0.90102666486E+02 -0.13926078191E+04  0.14416567083E+04  0.10100000352E+00 0.  1.
       -3    1    3    3    0  502 -0.36179970411E+03  0.90102666486E+02  0.37118051816E+03  0.52611073327E+03  0.10100000352E+00 0. -1.
</event>
<event>
 5   0  0.3535876E-04  0.1920167E+04  0.7818609E-02  0.8644883E-01
       -2   -1    0    0    0  501  0.00000000000E+00  0.00000000000E+00  0.32132537553E+03  0.32132537554E+03  0.25500000920E-02 0.  1.
        2   -1    0    0  501    0  0.00000000000E+00  0.00000000000E+00 -0.28686187085E+04  0.28686187085E+04  0.25500000920E-02 0. -1.
    10030    2    1    2    0    0  0.00000000000E+00  0.00000000000E+00 -0.25472933329E+04  0.31899440840E+04  0.19201666425E+04 0.  0.
        2    1    3    3  502    0  0.40681277574E+03  0.34773743148E+03  0.50536132555E+02  0.53756102579E+03  0.25500000920E-02 0.  1.
       -2    1    3    3    0  502 -0.40681277574E+03 -0.34773743148E+03 -0.25978294655E+04  0.26523830582E+04  0.25500000920E-02 0. -1.
</event>
<event>
 5   0  0.3516539E-04  0.1951019E+04  0.7818609E-02  0.8629869E-01
        2   -1    0    0  501    0  0.00000000000E+00  0.00000000000E+00  0.18607509543E+04  0.18607509543E+04  0.25500000920E-02 0.  1.
       -2   -1    0    0    0  501  0.00000000000E+00  0.00000000000E+00 -0.51141675517E+03  0.51141675518E+03  0.25500000920E-02 0. -1.
    10030    2    1    2    0    0  0.00000000000E+00  0.00000000000E+00  0.13493341991E+04  0.23721677094E+04  0.19510194414E+04 0.  0.
        4    1    3    3  502    0 -0.24996711594E+02 -0.15781261954E+03  0.18447318826E+04  0.18516390011E+04  0.12699999809E+01 0.  1.
       -4    1    3    3    0  502  0.24996711594E+02  0.15781261954E+03 -0.49539768356E+03  0.52052870838E+03  0.12699999809E+01 0. -1.
</event>
<event>
 5   0  0.3535876E-04  0.1341056E+04  0.7818609E-02  0.8997626E-01
        2   -1    0    0  501    0  0.00000000000E+00  0.00000000000E+00  0.33137838864E+03  0.33137838865E+03  0.25500000920E-02 0. -1.
       -2   -1    0    0    0  501  0.00000000000E+00  0.00000000000E+00 -0.13567806394E+04  0.13567806394E+04  0.25500000920E-02 0.  1.
    10030    2    1    2    0    0  0.00000000000E+00  0.00000000000E+00 -0.10254022508E+04  0.16881590281E+04  0.13410559750E+04 0.  0.
        2    1    3    3  502    0 -0.11623358400E+03 -0.16647131903E+03  0.29175294591E+03  0.35544722191E+03  0.25500000920E-02 0. -1.
       -2    1    3    3    0  502  0.11623358400E+03  0.16647131903E+03 -0.13171551967E+04  0.13327118061E+04  0.25500000920E-02 0.  1.
</event>
<event>
 5   0  0.1711979E-04  0.1898066E+04  0.7818609E-02  0.8655820E-01
        1   -1    0    0  501    0  0.00000000000E+00  0.00000000000E+00  0.80847650357E+03  0.80847650359E+03  0.50400001928E-02 0. -1.
       -1   -1    0    0    0  501  0.00000000000E+00  0.00000000000E+00 -0.11140255230E+04  0.11140255230E+04  0.50400001928E-02 0.  1.
    10030    2    1    2    0    0  0.00000000000E+00  0.00000000000E+00 -0.30554901946E+03  0.19225020266E+04  0.18980658153E+04 0.  0.
        4    1    3    3  502    0 -0.25545315959E+01  0.85998167498E+03 -0.55929792904E+03  0.10258610009E+04  0.12699999809E+01 0.  1.
       -4    1    3    3    0  502  0.25545315959E+01 -0.85998167498E+03  0.25374890958E+03  0.89664102569E+03  0.12699999809E+01 0. -1.
</event>
<event>
 5   0  0.3623359E-04  0.1894912E+04  0.7818609E-02  0.8657393E-01
        2   -1    0    0  501    0  0.00000000000E+00  0.00000000000E+00  0.22014507086E+04  0.22014507086E+04  0.25500000920E-02 0.  1.
       -2   -1    0    0    0  501  0.00000000000E+00  0.00000000000E+00 -0.40776443351E+03  0.40776443352E+03  0.25500000920E-02 0. -1.
    10030    2    1    2    0    0  0.00000000000E+00  0.00000000000E+00  0.17936862751E+04  0.26092151421E+04  0.18949124530E+04 0.  0.
        5    1    3    3  502    0  0.36057379294E+03  0.85455380377E+03  0.11630471036E+04  0.14876075823E+04  0.46999998093E+01 0. -1.
       -5    1    3    3    0  502 -0.36057379294E+03 -0.85455380377E+03  0.63063917154E+03  0.11216075599E+04  0.46999998093E+01 0.  1.
</event>
<event>
 5   0  0.1758946E-04  0.1887338E+04  0.7818609E-02  0.8661185E-01
        1   -1    0    0  501    0  0.00000000000E+00  0.00000000000E+00  0.99479278098E+03  0.99479278100E+03  0.50400001928E-02 0.  1.
       -1   -1    0    0    0  501  0.00000000000E+00  0.00000000000E+00 -0.89517293214E+03  0.89517293216E+03  0.50400001928E-02 0. -1.
    10030    2    1    2    0    0  0.00000000000E+00  0.00000000000E+00  0.99619848841E+02  0.18899657132E+04  0.18873384123E+04 0.  0.
        2    1    3    3  502    0 -0.42510132323E+03 -0.79348557604E+03 -0.23374688898E+03  0.93003661353E+03  0.25500000920E-02 0. -1.
       -2    1    3    3    0  502  0.42510132323E+03  0.79348557604E+03  0.33336673783E+03  0.95992909962E+03  0.25500000920E-02 0.  1.
</event>
<event>
 5   0  0.1694830E-04  0.1916336E+04  0.7818609E-02  0.8646767E-01
       -1   -1    0    0    0  501  0.00000000000E+00  0.00000000000E+00  0.58694440464E+03  0.58694440466E+03  0.50400001928E-02 0. -1.
        1   -1    0    0  501    0  0.00000000000E+00  0.00000000000E+00 -0.15641794220E+04  0.15641794220E+04  0.50400001928E-02 0.  1.
    10030    2    1    2    0    0  0.00000000000E+00  0.00000000000E+00 -0.97723501738E+03  0.21511238267E+04  0.19163364628E+04 0.  0.
        1    1    3    3  502    0 -0.69187920041E+03  0.44611767250E+03 -0.10389592745E+04  0.13255769234E+04  0.50400001928E-02 0. -1.
       -1    1    3    3    0  502  0.69187920041E+03 -0.44611767250E+03  0.61724257097E+02  0.82554690334E+03  0.50400001928E-02 0.  1.
</event>
<event>
 5   0  0.1813834E-04  0.1891841E+04  0.7818609E-02  0.8658928E-01
        1   -1    0    0  501    0  0.00000000000E+00  0.00000000000E+00  0.16495432195E+04  0.16495432195E+04  0.50400001928E-02 0.  1.
       -1   -1    0    0    0  501  0.00000000000E+00  0.00000000000E+00 -0.54243247751E+03  0.54243247753E+03  0.50400001928E-02 0. -1.
    10030    2    1    2    0    0  0.00000000000E+00  0.00000000000E+00  0.11071107420E+04  0.21919756970E+04  0.18918412358E+04 0.  0.
        5    1    3    3  502    0  0.23702131696E+03  0.53193180099E+03  0.14172044553E+04  0.15321948648E+04  0.46999998093E+01 0.  1.
       -5    1    3    3    0  502 -0.23702131696E+03 -0.53193180099E+03 -0.31009371328E+03  0.65978083226E+03  0.46999998093E+01 0. -1.
</event>
<event>
 5   0  0.1711979E-04  0.1875593E+04  0.7818609E-02  0.8667101E-01
       -1   -1    0    0    0  501  0.00000000000E+00  0.00000000000E+00  0.97100237580E+03  0.97100237582E+03  0.50400001928E-02 0. -1.
        1   -1    0    0  501    0  0.00000000000E+00  0.00000000000E+00 -0.90572647416E+03  0.90572647418E+03  0.50400001928E-02 0.  1.
    10030    2    1    2    0    0  0.00000000000E+00  0.00000000000E+00  0.65275901642E+02  0.18767288500E+04  0.18755933016E+04 0.  0.
        4    1    3    3  502    0 -0.45584057131E+03  0.28229131759E+03 -0.73723149276E+03  0.91158702341E+03  0.12699999809E+01 0.  1.
       -4    1    3    3    0  502  0.45584057131E+03 -0.28229131759E+03  0.80250739440E+03  0.96514182658E+03  0.12699999809E+01 0. -1.
</event>
<event>
 5   0  0.3720978E-04  0.1908004E+04  0.7818609E-02  0.8650883E-01
       -2   -1    0    0    0  501  0.00000000000E+00  0.00000000000E+00  0.34354504356E+03  0.34354504357E+03  0.25500000920E-02 0.  1.
        2   -1    0    0  501    0  0.00000000000E+00  0.00000000000E+00 -0.26491994708E+04  0.26491994708E+04  0.25500000920E-02 0. -1.
    10030    2    1    2    0    0  0.00000000000E+00  0.00000000000E+00 -0.23056544272E+04  0.29927445143E+04  0.19080035090E+04 0.  0.
        1    1    3    3  502    0  0.88650755278E+03  0.27097489278E+03 -0.79931324939E+03  0.12240198954E+04  0.50400001928E-02 0. -1.
       -1    1    3    3    0  502 -0.88650755278E+03 -0.27097489278E+03 -0.15063411778E+04  0.17687246189E+04  0.50400001928E-02 0.  1.
</event>
<event>
 5   0  0.1694830E-04  0.1890593E+04  0.7818609E-02  0.8659553E-01
       -1   -1    0    0    0  501  0.00000000000E+00  0.00000000000E+00  0.87993568633E+03  0.87993568635E+03  0.50400001928E-02 0. -1.
        1   -1    0    0  501    0  0.00000000000E+00  0.00000000000E+00 -0.10155127825E+04  0.10155127825E+04  0.50400001928E-02 0.  1.
    10030    2    1    2    0    0  0.00000000000E+00  0.00000000000E+00 -0.13557709615E+03  0.18954484688E+04  0.18905934912E+04 0.  0.
        1    1    3    3  502    0 -0.78310776941E+03 -0.37439594496E+03  0.30754675519E+03  0.92087735816E+03  0.50400001928E-02 0. -1.
       -1    1    3    3    0  502  0.78310776941E+03  0.37439594496E+03 -0.44312385134E+03  0.97457111068E+03  0.50400001928E-02 0.  1.
</event>
<event>
 5   0  0.3459485E-04  0.1700192E+04  0.7818609E-02  0.8761255E-01
        2   -1    0    0  501    0  0.00000000000E+00  0.00000000000E+00  0.14286919108E+04  0.14286919108E+04  0.25500000920E-02 0. -1.
       -2   -1    0    0    0  501  0.00000000000E+00  0.00000000000E+00 -0.50582134284E+03  0.50582134285E+03  0.25500000920E-02 0.  1.
    10030    2    1    2    0    0  0.00000000000E+00  0.00000000000E+00  0.92287056793E+03  0.19345132536E+04  0.17001915902E+04 0.  0.
        3    1    3    3  502    0  0.25253605266E+03 -0.14524156726E+01  0.13850249799E+04  0.14078603526E+04  0.10100000352E+00 0. -1.
       -3    1    3    3    0  502 -0.25253605266E+03  0.14524156726E+01 -0.46215441197E+03  0.52665290098E+03  0.10100000352E+00 0.  1.
</event>
<event>
 5   0  0.3720978E-04  0.1863480E+04  0.7818609E-02  0.8673251E-01
        2   -1    0    0  501    0  0.00000000000E+00  0.00000000000E+00  0.10649903533E+04  0.10649903533E+04  0.25500000920E-02 0.  1.
       -2   -1    0    0    0  501  0.00000000000E+00  0.00000000000E+00 -0.81516208375E+03  0.81516208376E+03  0.25500000920E-02 0. -1.
    10030    2    1    2    0    0  0.00000000000E+00  0.00000000000E+00  0.24982826950E+03  0.18801524370E+04  0.18634803520E+04 0.  0.
        1    1    3    3  502    0  0.90839592183E+03 -0.18651652772E+03  0.33727508267E+02  0.92795964931E+03  0.50400001928E-02 0.  1.
       -1    1    3    3    0  502 -0.90839592183E+03  0.18651652772E+03  0.21610076123E+03  0.95219278770E+03  0.50400001928E-02 0. -1.
</event>
<event>
 5   0  0.3720978E-04  0.1915843E+04  0.7818609E-02  0.8647010E-01
       -2   -1    0    0    0  501  0.00000000000E+00  0.00000000000E+00  0.37475875100E+03  0.37475875101E+03  0.25500000920E-02 0. -1.
        2   -1    0    0  501    0  0.00000000000E+00  0.00000000000E+00 -0.24485436242E+04  0.24485436242E+04  0.25500000920E-02 0.  1.
    10030    2    1    2    0    0  0.00000000000E+00  0.00000000000E+00 -0.20737848732E+04  0.28233023752E+04  0.19158425305E+04 0.  0.
        1    1    3    3  502    0 -0.12384078728E+03 -0.33614845225E+03 -0.23461146346E+04  0.23733070179E+04  0.50400001928E-02 0.  1.
       -1    1    3    3    0  502  0.12384078728E+03  0.33614845225E+03  0.27232976145E+03  0.44999535725E+03  0.50400001928E-02 0. -1.
</event>
<event>
 5   0  0.3623359E-04  0.1888170E+04  0.7818609E-02  0.8660767E-01
       -2   -1    0    0    0  501  0.00000000000E+00  0.00000000000E+00  0.50136278941E+03  0.50136278941E+03  0.25500000920E-02 0. -1.
        2   -1    0    0  501    0  0.00000000000E+00  0.00000000000E+00 -0.17777483827E+04  0.17777483827E+04  0.25500000920E-02 0.  1.
    10030    2    1    2    0    0  0.00000000000E+00  0.00000000000E+00 -0.12763855933E+04  0.22791111721E+04  0.18881704245E+04 0.  0.
        5    1    3    3  502    0  0.43028673420E+03  0.12411327811E+02  0.37599574220E+03  0.57157291996E+03  0.46999998093E+01 0. -1.
       -5    1    3    3    0  502 -0.43028673420E+03 -0.12411327811E+02 -0.16523813355E+04  0.17075382522E+04  0.46999998093E+01 0.  1.
</event>
<event>
 5   0  0.1813834E-04  0.2011366E+04  0.7818609E-02  0.8601325E-01
        1   -1    0    0  501    0  0.00000000000E+00  0.00000000000E+00  0.97658438184E+03  0.97658438185E+03  0.50400001928E-02 0.  1.
       -1   -1    0    0    0  501  0.00000000000E+00  0.00000000000E+00 -0.10356485534E+04  0.10356485534E+04  0.50400001928E-02 0. -1.
    10030    2    1    2    0    0  0.00000000000E+00  0.00000000000E+00 -0.59064171545E+02  0.20122329352E+04  0.20113659064E+04 0.  0.
        5    1    3    3  502    0  0.28724216253E+03 -0.33203100706E+01 -0.99371982450E+03  0.10344178382E+04  0.46999998093E+01 0. -1.
       -5    1    3    3    0  502 -0.28724216253E+03  0.33203100706E+01  0.93465565296E+03  0.97781509704E+03  0.46999998093E+01 0.  1.
</event>
<event>
 5   0  0.3459485E-04  0.1911207E+04  0.7818609E-02  0.8649298E-01
        2   -1    0    0  501    0  0.00000000000E+00  0.00000000000E+00  0.13668289806E+04  0.13668289806E+04  0.25500000920E-02 0. -1.
       -2   -1    0    0    0  501  0.00000000000E+00  0.00000000000E+00 -0.66809945492E+03  0.66809945493E+03  0.25500000920E-02 0.  1.
    10030    2    1    2    0    0  0.00000000000E+00  0.00000000000E+00  0.69872952569E+03  0.20349284355E+04  0.19112066314E+04 0.  0.
        3    1    3    3  502    0  0.62330331556E+03  0.44961849000E+03  0.95403097273E+03  0.12250873099E+04  0.10100000352E+00 0. -1.
       -3    1    3    3    0  502 -0.62330331556E+03 -0.44961849000E+03 -0.25530144703E+03  0.80984112565E+03  0.10100000352E+00 0.  1.
</event>
<event>
 5   0  0.1758946E-04  0.1919583E+04  0.7818609E-02  0.8645170E-01
        1   -1    0    0  501    0  0.00000000000E+00  0.00000000000E+00  0.52362436575E+03  0.52362436577E+03  0.50400001928E-02 0. -1.
       -1   -1    0    0    0  501  0.00000000000E+00  0.00000000000E+00 -0.17592760339E+04  0.17592760339E+04  0.50400001928E-02 0.  1.
    10030    2    1    2    0    0  0.00000000000E+00  0.00000000000E+00 -0.12356516681E+04  0.22829003997E+04  0.19195830771E+04 0.  0.
        2    1    3    3  502    0 -0.18284510638E+03 -0.36904089954E+03  0.41319296452E+03  0.58339690126E+03  0.25500000920E-02 0. -1.
       -2    1    3    3    0  502  0.18284510638E+03  0.36904089954E+03 -0.16488446327E+04  0.16995034984E+04  0.25500000920E-02 0.  1.
</event>
<event>
 5   0  0.1694830E-04  0.1931674E+04  0.7818609E-02  0.8639249E-01
       -1   -1    0    0    0  501  0.00000000000E+00  0.00000000000E+00  0.10649305343E+04  0.10649305343E+04  0.50400001928E-02 0. -1.
        1   -1    0    0  501    0  0.00000000000E+00  0.00000000000E+00 -0.87596396355E+03  0.87596396356E+03  0.50400001928E-02 0.  1.
    10030    2    1    2    0    0  0.00000000000E+00  0.00000000000E+00  0.18896657077E+03  0.19408944979E+04  0.19316736492E+04 0.  0.
        1    1    3    3  502    0  0.82882639753E+03  0.42437773637E+03 -0.16323888783E+03  0.94535527443E+03  0.50400001928E-02 0.  1.
       -1    1    3    3    0  502 -0.82882639753E+03 -0.42437773637E+03  0.35220545860E+03  0.99553922347E+03  0.50400001928E-02 0. -1.
</event>
<event>
 5   0  0.1782613E-04  0.1911140E+04  0.7818609E-02  0.8649331E-01
        1   -1    0    0  501    0  0.00000000000E+00  0.00000000000E+00  0.21876780810E+04  0.21876780810E+04  0.50400001928E-02 0. -1.
       -1   -1    0    0    0  501  0.00000000000E+00  0.00000000000E+00 -0.41738952995E+03  0.41738952998E+03  0.50400001928E-02 0.  1.
    10030    2    1    2    0    0  0.00000000000E+00  0.00000000000E+00  0.17702885510E+04  0.26050676109E+04  0.19111398964E+04 0.  0.
        3    1    3    3  502    0  0.25773551656E+03 -0.51381811966E+03 -0.15535205956E+03  0.59545858731E+03  0.10100000352E+00 0.  1.
       -3    1    3    3    0  502 -0.25773551656E+03  0.51381811966E+03  0.19256406106E+04  0.20096090236E+04  0.10100000352E+00 0. -1.
</event>
<event>
 5   0  0.1782613E-04  0.1879429E+04  0.7818609E-02  0.8665164E-01
       -1   -1    0    0    0  501  0.00000000000E+00  0.00000000000E+00  0.88282647052E+03  0.88282647054E+03  0.50400001928E-02 0.  1.
        1   -1    0    0  501    0  0.00000000000E+00  0.00000000000E+00 -0.10002680113E+04  0.10002680113E+04  0.50400001928E-02 0. -1.
    10030    2    1    2    0    0  0.00000000000E+00  0.00000000000E+00 -0.11744154075E+03  0.18830944818E+04  0.18794287196E+04 0.  0.
        3    1    3    3  502    0 -0.73293112193E+03  0.56824960484E+03 -0.21056643755E+03  0.95101728571E+03  0.10100000352E+00 0.  1.
       -3    1    3    3    0  502  0.73293112193E+03 -0.56824960484E+03  0.93124896803E+02  0.93207719611E+03  0.10100000352E+00 0. -1.
</event>
<event>
 5   0  0.3535876E-04  0.1898211E+04  0.7818609E-02  0.8655747E-01
       -2   -1    0    0    0  501  0.00000000000E+00  0.00000000000E+00  0.97831779986E+03  0.97831779986E+03  0.25500000920E-02 0.  1.
        2   -1    0    0  501    0  0.00000000000E+00  0.00000000000E+00 -0.92076595357E+03  0.92076595358E+03  0.25500000920E-02 0. -1.
    10030    2    1    2    0    0  0.00000000000E+00  0.00000000000E+00  0.57551846282E+02  0.18990837534E+04  0.18982114971E+04 0.  0.
        2    1    3    3  502    0  0.79255270568E+03 -0.51551262327E+03 -0.54380655501E+02  0.94702181165E+03  0.25500000920E-02 0.  1.
       -2    1    3    3    0  502 -0.79255270568E+03  0.51551262327E+03  0.11193250178E+03  0.95206194179E+03  0.25500000920E-02 0. -1.
</event>
<event>
 5   0  0.1813834E-04  0.1881567E+04  0.7818609E-02  0.8664087E-01
       -1   -1    0    0    0  501  0.00000000000E+00  0.00000000000E+00  0.68867837859E+03  0.68867837861E+03  0.50400001928E-02 0. -1.
        1   -1    0    0  501    0  0.00000000000E+00  0.00000000000E+00 -0.12851767802E+04  0.12851767802E+04  0.50400001928E-02 0.  1.
    10030    2    1    2    0    0  0.00000000000E+00  0.00000000000E+00 -0.59649840165E+03  0.19738551589E+04  0.18815668590E+04 0.  0.
        5    1    3    3  502    0  0.43898703242E+03  0.90028461527E+02  0.56950912032E+03  0.72469129058E+03  0.46999998093E+01 0. -1.
       -5    1    3    3    0  502 -0.43898703242E+03 -0.90028461527E+02 -0.11660075220E+04  0.12491638683E+04  0.46999998093E+01 0.  1.
</event>
<event>
 5   0  0.3623359E-04  0.1443703E+04  0.7818609E-02  0.8922778E-01
       -2   -1    0    0    0  501  0.00000000000E+00  0.00000000000E+00  0.86457793530E+03  0.86457793530E+03  0.25500000920E-02 0. -1.
        2   -1    0    0  501    0  0.00000000000E+00  0.00000000000E+00 -0.60268657071E+03  0.60268657071E+03  0.25500000920E-02 0.  1.
    10030    2    1    2    0    0  0.00000000000E+00  0.00000000000E+00  0.26189136460E+03  0.14672645060E+04  0.14437028932E+04 0.  0.
        5    1    3    3  502    0 -0.33804299004E+03  0.17909115263E+03  0.75306379672E+03  0.84467382817E+03  0.46999998093E+01 0. -1.
       -5    1    3    3    0  502  0.33804299004E+03 -0.17909115263E+03 -0.49117243212E+03  0.62259067785E+03  0.46999998093E+01 0.  1.
</event>
<event>
 5   0  0.1758946E-04  0.1900880E+04  0.7818609E-02  0.8654418E-01
        1   -1    0    0  501    0  0.00000000000E+00  0.00000000000E+00  0.95424454387E+03  0.95424454389E+03  0.50400001928E-02 0.  1.
       -1   -1    0    0    0  501  0.00000000000E+00  0.00000000000E+00 -0.94665071075E+03  0.94665071077E+03  0.50400001928E-02 0. -1.
    10030    2    1    2    0    0  0.00000000000E+00  0.00000000000E+00  0.75938331195E+01  0.19008952547E+04  0.19008800864E+04 0.  0.
        2    1    3    3  502    0  0.73384432461E+03 -0.36985194589E+03  0.48131336661E+03  0.95235524439E+03  0.25500000920E-02 0.  1.
       -2    1    3    3    0  502 -0.73384432461E+03  0.36985194589E+03 -0.47371953349E+03  0.94854001026E+03  0.25500000920E-02 0. -1.
</event>
<event>
 5   0  0.1287000E-04  0.1637031E+04  0.7818609E-02  0.8798116E-01
       -4   -1    0    0    0  501  0.00000000000E+00  0.00000000000E+00  0.15889859164E+04  0.15889864239E+04  0.12699999809E+01 0. -1.
        4   -1    0    0  501    0  0.00000000000E+00  0.00000000000E+00 -0.42163070742E+03  0.42163262011E+03  0.12699999809E+01 0.  1.
    10030    2    1    2    0    0  0.00000000000E+00  0.00000000000E+00  0.11673552089E+04  0.20106190440E+04  0.16370310798E+04 0.  0.
        3    1    3    3  502    0  0.59830467156E+03 -0.43335135001E+03  0.15082123138E+03  0.75399530941E+03  0.10100000352E+00 0.  1.
       -3    1    3    3    0  502 -0.59830467156E+03  0.43335135001E+03  0.10165339776E+04  0.12566237346E+04  0.10100000352E+00 0. -1.
</event>
<event>
 5   0  0.1694830E-04  0.1897784E+04  0.7818609E-02  0.8655960E-01
        1   -1    0    0  501    0  0.00000000000E+00  0.00000000000E+00  0.77021079669E+03  0.77021079670E+03  0.50400001928E-02 0.  1.
       -1   -1    0    0    0  501  0.00000000000E+00  0.00000000000E+00 -0.11690250688E+04  0.11690250688E+04  0.50400001928E-02 0. -1.
    10030    2    1    2    0    0  0.00000000000E+00  0.00000000000E+00 -0.39881427213E+03  0.19392358655E+04  0.18977836859E+04 0.  0.
        1    1    3    3  502    0  0.28051981675E+03 -0.49768759579E+03  0.57477686434E+03  0.81040283464E+03  0.50400001928E-02 0.  1.
       -1    1    3    3    0  502 -0.28051981675E+03  0.49768759579E+03 -0.97359113647E+03  0.11288330309E+04  0.50400001928E-02 0. -1.
</event>
<event>
 5   0  0.1758946E-04  0.1876489E+04  0.7818609E-02  0.8666649E-01
       -1   -1    0    0    0  501  0.00000000000E+00  0.00000000000E+00  0.36185470043E+03  0.36185470047E+03  0.50400001928E-02 0.  1.
        1   -1    0    0  501    0  0.00000000000E+00  0.00000000000E+00 -0.24327523893E+04  0.24327523893E+04  0.50400001928E-02 0. -1.
    10030    2    1    2    0    0  0.00000000000E+00  0.00000000000E+00 -0.20708976889E+04  0.27946070898E+04  0.18764891549E+04 0.  0.
        2    1    3    3  502    0 -0.32457451848E+02 -0.24145107326E+03  0.31392801361E+03  0.39736998465E+03  0.25500000920E-02 0.  1.
       -2    1    3    3    0  502  0.32457451848E+02  0.24145107326E+03 -0.23848257025E+04  0.23972371052E+04  0.25500000920E-02 0. -1.
</event>
<event>
 5   0  0.3720978E-04  0.1890729E+04  0.7818609E-02  0.8659485E-01
       -2   -1    0    0    0  501  0.00000000000E+00  0.00000000000E+00  0.47643377707E+03  0.47643377707E+03  0.25500000920E-02 0.  1.
        2   -1    0    0  501    0  0.00000000000E+00  0.00000000000E+00 -0.18758417578E+04  0.18758417578E+04  0.25500000920E-02 0. -1.
    10030    2    1    2    0    0  0.00000000000E+00  0.00000000000E+00 -0.13994079807E+04  0.23522755349E+04  0.18907293554E+04 0.  0.
        1    1    3    3  502    0  0.26355747498E+03  0.89292163857E+03 -0.49549257489E+03  0.10546489876E+04  0.50400001928E-02 0. -1.
       -1    1    3    3    0  502 -0.26355747498E+03 -0.89292163857E+03 -0.90391540585E+03  0.12976265473E+04  0.50400001928E-02 0.  1.
</event>
<event>
 5   0  0.3720978E-04  0.1876479E+04  0.7818609E-02  0.8666654E-01
       -2   -1    0    0    0  501  0.00000000000E+00  0.00000000000E+00  0.79755981174E+03  0.79755981174E+03  0.25500000920E-02 0.  1.
        2   -1    0    0  501    0  0.00000000000E+00  0.00000000000E+00 -0.11037335000E+04  0.11037335000E+04  0.25500000920E-02 0. -1.
    10030    2    1    2    0    0  0.00000000000E+00  0.00000000000E+00 -0.30617368827E+03  0.19012933117E+04  0.18764791312E+04 0.  0.
        1    1    3    3  502    0  0.77480892262E+03 -0.50611998531E+03  0.32492746803E+01  0.92547115780E+03  0.50400001928E-02 0. -1.
       -1    1    3    3    0  502 -0.77480892262E+03  0.50611998531E+03 -0.30942296295E+03  0.97582215395E+03  0.50400001928E-02 0.  1.
</event>
<event>
 5   0  0.1287000E-04  0.1882344E+04  0.7818609E-02  0.8663695E-01
       -3   -1    0    0    0  501  0.00000000000E+00  0.00000000000E+00  0.16681654322E+04  0.16681654352E+04  0.10100000352E+00 0. -1.
        3   -1    0    0  501    0  0.00000000000E+00  0.00000000000E+00 -0.53100543212E+03  0.53100544172E+03  0.10100000352E+00 0.  1.
    10030    2    1    2    0    0  0.00000000000E+00  0.00000000000E+00  0.11371600000E+04  0.21991708769E+04  0.18823441981E+04 0.  0.
        1    1    3    3  502    0 -0.60667110130E+03 -0.24528002023E+03 -0.22173373592E+03  0.69092543964E+03  0.50400001928E-02 0.  1.
       -1    1    3    3    0  502  0.60667110130E+03  0.24528002023E+03  0.13588937360E+04  0.15082454373E+04  0.50400001928E-02 0. -1.
</event>
<event>
 5   0  0.1711979E-04  0.1792085E+04  0.7818609E-02  0.8710520E-01
       -1   -1    0    0    0  501  0.00000000000E+00  0.00000000000E+00  0.61224290343E+03  0.61224290345E+03  0.50400001928E-02 0.  1.
        1   -1    0    0  501    0  0.00000000000E+00  0.00000000000E+00 -0.13113945324E+04  0.13113945324E+04  0.50400001928E-02 0. -1.
    10030    2    1    2    0    0  0.00000000000E+00  0.00000000000E+00 -0.69915162897E+03  0.19236374359E+04  0.17920848151E+04 0.  0.
        4    1    3    3  502    0 -0.42438038303E+03 -0.30294303301E+03 -0.11317778674E+04  0.12461123324E+04  0.12699999809E+01 0. -1.
       -4    1    3    3    0  502  0.42438038303E+03  0.30294303301E+03  0.43262623847E+03  0.67752510349E+03  0.12699999809E+01 0.  1.
</event>
<event>
 5   0  0.3623359E-04  0.1858928E+04  0.7818609E-02  0.8675575E-01
        2   -1    0    0  501    0  0.00000000000E+00  0.00000000000E+00  0.21558502473E+04  0.21558502473E+04  0.25500000920E-02 0.  1.
       -2   -1    0    0    0  501  0.00000000000E+00  0.00000000000E+00 -0.40072509200E+03  0.40072509201E+03  0.25500000920E-02 0. -1.
    10030    2    1    2    0    0  0.00000000000E+00  0.00000000000E+00  0.17551251553E+04  0.25565753393E+04  0.18589279585E+04 0.  0.
        5    1    3    3  502    0  0.61382996717E+03 -0.17519524544E+03  0.18066768631E+04  0.19161377770E+04  0.46999998093E+01 0.  1.
       -5    1    3    3    0  502 -0.61382996717E+03  0.17519524544E+03 -0.51551707854E+02  0.64043756230E+03  0.46999998093E+01 0. -1.
</event>
<event>
 5   0  0.1813834E-04  0.1933649E+04  0.7818609E-02  0.8638286E-01
       -1   -1    0    0    0  501  0.00000000000E+00  0.00000000000E+00  0.96220511761E+03  0.96220511762E+03  0.50400001928E-02 0.  1.
        1   -1    0    0  501    0  0.00000000000E+00  0.00000000000E+00 -0.97146578576E+03  0.97146578578E+03  0.50400001928E-02 0. -1.
    10030    2    1    2    0    0  0.00000000000E+00  0.00000000000E+00 -0.92606681545E+01  0.19336709034E+04  0.19336487278E+04 0.  0.
        5    1    3    3  502    0  0.92776404332E+03  0.40881989598E+02 -0.27353824038E+03  0.96812329591E+03  0.46999998093E+01 0.  1.
       -5    1    3    3    0  502 -0.92776404332E+03 -0.40881989598E+02  0.26427757222E+03  0.96554760749E+03  0.46999998093E+01 0. -1.
</event>
<event>
 5   0  0.1758946E-04  0.1914308E+04  0.7818609E-02  0.8647767E-01
       -1   -1    0    0    0  501  0.00000000000E+00  0.00000000000E+00  0.59774507298E+03  0.59774507301E+03  0.50400001928E-02 0.  1.
        1   -1    0    0  501    0  0.00000000000E+00  0.00000000000E+00 -0.15326656814E+04  0.15326656814E+04  0.50400001928E-02 0. -1.
    10030    2    1    2    0    0  0.00000000000E+00  0.00000000000E+00 -0.93492060837E+03  0.21304107544E+04  0.19143075611E+04 0.  0.
        2    1    3    3  502    0  0.83810450460E+03 -0.13016566685E+03 -0.96113778921E+03  0.12818533892E+04  0.25500000920E-02 0. -1.
       -2    1    3    3    0  502 -0.83810450460E+03  0.13016566685E+03  0.26217180844E+02  0.84855736520E+03  0.25500000920E-02 0.  1.
</event>
<event>
 5   0  0.3623359E-04  0.1868730E+04  0.7818609E-02  0.8670580E-01
       -2   -1    0    0    0  501  0.00000000000E+00  0.00000000000E+00  0.71960301507E+03  0.71960301507E+03  0.25500000920E-02 0. -1.
        2   -1    0    0  501    0  0.00000000000E+00  0.00000000000E+00 -0.12132222822E+04  0.12132222822E+04  0.25500000920E-02 0.  1.
    10030    2    1    2    0    0  0.00000000000E+00  0.00000000000E+00 -0.49361926713E+03  0.19328252973E+04  0.18687304913E+04 0.  0.
        5    1    3    3  502    0  0.32696087750E+03  0.53211110683E+03 -0.96560672507E+03  0.11499843838E+04  0.46999998093E+01 0.  1.
       -5    1    3    3    0  502 -0.32696087750E+03 -0.53211110683E+03  0.47198745793E+03  0.78284091351E+03  0.46999998093E+01 0. -1.
</event>
<event>
 5   0  0.3720978E-04  0.1899725E+04  0.7818609E-02  0.8654993E-01
       -2   -1    0    0    0  501  0.00000000000E+00  0.00000000000E+00  0.15517392421E+04  0.15517392421E+04  0.25500000920E-02 0. -1.
        2   -1    0    0  501    0  0.00000000000E+00  0.00000000000E+00 -0.58143715607E+03  0.58143715607E+03  0.25500000920E-02 0.  1.
    10030    2    1    2    0    0  0.00000000000E+00  0.00000000000E+00  0.97030208602E+03  0.21331763982E+04  0.18997250874E+04 0.  0.
        1    1    3    3  502    0 -0.89344693861E+03  0.16078837907E+03  0.17126746545E+03  0.92381431018E+03  0.50400001928E-02 0.  1.
       -1    1    3    3    0  502  0.89344693861E+03 -0.16078837907E+03  0.79903462057E+03  0.12093620880E+04  0.50400001928E-02 0. -1.
</event>
<event>
 5   0  0.1758946E-04  0.1919401E+04  0.7818609E-02  0.8645259E-01
       -1   -1    0    0    0  501  0.00000000000E+00  0.00000000000E+00  0.52812241535E+03  0.52812241537E+03  0.50400001928E-02 0. -1.
        1   -1    0    0  501    0  0.00000000000E+00  0.00000000000E+00 -0.17439609020E+04  0.17439609020E+04  0.50400001928E-02 0.  1.
    10030    2    1    2    0    0  0.00000000000E+00  0.00000000000E+00 -0.12158384867E+04  0.22720833174E+04  0.19194007855E+04 0.  0.
        2    1    3    3  502    0  0.51421391948E+03  0.80183648150E+03 -0.74630694569E+03  0.12100957628E+04  0.25500000920E-02 0.  1.
       -2    1    3    3    0  502 -0.51421391948E+03 -0.80183648150E+03 -0.46953154098E+03  0.10619875546E+04  0.25500000920E-02 0. -1.
</event>
<event>
 5   0  0.1813834E-04  0.2108910E+04  0.7818609E-02  0.8557329E-01
        1   -1    0    0  501    0  0.00000000000E+00  0.00000000000E+00  0.77548586311E+03  0.77548586313E+03  0.50400001928E-02 0. -1.
       -1   -1    0    0    0  501  0.00000000000E+00  0.00000000000E+00 -0.14337785163E+04  0.14337785163E+04  0.50400001928E-02 0.  1.
    10030    2    1    2    0    0  0.00000000000E+00  0.00000000000E+00 -0.65829265314E+03  0.22092643794E+04  0.21089096427E+04 0.  0.
        5    1    3    3  502    0  0.63562313900E+03  0.77361959355E+03  0.17268752265E+02  0.10014111794E+04  0.46999998093E+01 0. -1.
       -5    1    3    3    0  502 -0.63562313900E+03 -0.77361959355E+03 -0.67556140541E+03  0.12078532000E+04  0.46999998093E+01 0.  1.
</event>
<event>
 5   0  0.1782613E-04  0.1899122E+04  0.7818609E-02  0.8655294E-01
       -1   -1    0    0    0  501  0.00000000000E+00  0.00000000000E+00  0.45045211461E+03  0.45045211463E+03  0.50400001928E-02 0.  1.
        1   -1    0    0  501    0  0.00000000000E+00  0.00000000000E+00 -0.20016914746E+04  0.20016914746E+04  0.50400001928E-02 0. -1.
    10030    2    1    2    0    0  0.00000000000E+00  0.00000000000E+00 -0.15512393600E+04  0.24521435893E+04  0.18991220683E+04 0.  0.
        3    1    3    3  502    0 -0.40652303850E+03 -0.82327225795E+03 -0.10882602926E+04  0.14238499451E+04  0.10100000352E+00 0. -1.
       -3    1    3    3    0  502  0.40652303850E+03  0.82327225795E+03 -0.46297906743E+03  0.10282936442E+04  0.10100000352E+00 0.  1.
</event>
<event>
 5   0  0.1782613E-04  0.1904797E+04  0.7818609E-02  0.8652472E-01
        1   -1    0    0  501    0  0.00000000000E+00  0.00000000000E+00  0.13277059837E+04  0.13277059837E+04  0.50400001928E-02 0.  1.
       -1   -1    0    0    0  501  0.00000000000E+00  0.00000000000E+00 -0.68318039566E+03  0.68318039567E+03  0.50400001928E-02 0. -1.
    10030    2    1    2    0    0  0.00000000000E+00  0.00000000000E+00  0.64452558808E+03  0.20108863794E+04  0.19047967863E+04 0.  0.
        3    1    3    3  502    0 -0.92010959074E+03 -0.19237860710E+03  0.48393084825E+03  0.10572607358E+04  0.10100000352E+00 0. -1.
       -3    1    3    3    0  502  0.92010959074E+03  0.19237860710E+03  0.16059473983E+03  0.95362564359E+03  0.10100000352E+00 0.  1.
</event>
<event>
 5   0  0.1813834E-04  0.1194653E+04  0.7818609E-02  0.9117549E-01
       -1   -1    0    0    0  501  0.00000000000E+00  0.00000000000E+00  0.77338132246E+03  0.77338132248E+03  0.50400001928E-02 0.  1.
        1   -1    0    0  501    0  0.00000000000E+00  0.00000000000E+00 -0.46134957780E+03  0.46134957783E+03  0.50400001928E-02 0. -1.
    10030    2    1    2    0    0  0.00000000000E+00  0.00000000000E+00  0.31203174466E+03  0.12347309003E+04  0.11946533332E+04 0.  0.
        5    1    3    3  502    0  0.40188899643E+03  0.25963038153E+03 -0.21354687121E+03  0.52397238159E+03  0.46999998093E+01 0. -1.
       -5    1    3    3    0  502 -0.40188899643E+03 -0.25963038153E+03  0.52557861587E+03  0.71075851871E+03  0.46999998093E+01 0.  1.
</event>
<event>
 5   0  0.1711979E-04  0.1917195E+04  0.7818609E-02  0.8646345E-01
       -1   -1    0    0    0  501  0.00000000000E+00  0.00000000000E+00  0.11673163223E+04  0.11673163223E+04  0.50400001928E-02 0. -1.
        1   -1    0    0  501    0  0.00000000000E+00  0.00000000000E+00 -0.78719771781E+03  0.78719771782E+03  0.50400001928E-02 0.  1.
    10030    2    1    2    0    0  0.00000000000E+00  0.00000000000E+00  0.38011860452E+03  0.19545140402E+04  0.19171945597E+04 0.  0.
        4    1    3    3  502    0  0.53962918991E+03  0.51379562216E+03 -0.42477361374E+03  0.85768283169E+03  0.12699999809E+01 0.  1.
       -4    1    3    3    0  502 -0.53962918991E+03 -0.51379562216E+03  0.80489221827E+03  0.10968312085E+04  0.12699999809E+01 0. -1.
</event>
<event>
 5   0  0.1813834E-04  0.1839822E+04  0.7818609E-02  0.8685405E-01
        1   -1    0    0  501    0  0.00000000000E+00  0.00000000000E+00  0.92460999643E+03  0.92460999645E+03  0.50400001928E-02 0.  1.
       -1   -1    0    0    0  501  0.00000000000E+00  0.00000000000E+00 -0.91523590485E+03  0.91523590487E+03  0.50400001928E-02 0. -1.
    10030    2    1    2    0    0  0.00000000000E+00  0.00000000000E+00  0.93740915811E+01  0.18398459013E+04  0.18398220205E+04 0.  0.
        5    1    3    3  502    0  0.44960261068E+03  0.39106249806E+03  0.70551123340E+03  0.92349367911E+03  0.46999998093E+01 0.  1.
       -5    1    3    3    0  502 -0.44960261068E+03 -0.39106249806E+03 -0.69613714182E+03  0.91635222220E+03  0.46999998093E+01 0. -1.
</event>
<event>
 5   0  0.3516539E-04  0.1884568E+04  0.7818609E-02  0.8662576E-01
       -2   -1    0    0    0  501  0.00000000000E+00  0.00000000000E+00  0.55827592619E+03  0.55827592619E+03  0.25500000920E-02 0.  1.
        2   -1    0    0  501    0  0.00000000000E+00  0.00000000000E+00 -0.15904312481E+04  0.15904312481E+04  0.25500000920E-02 0. -1.
    10030    2    1    2    0    0  0.00000000000E+00  0.00000000000E+00 -0.10321553220E+04  0.21487071743E+04  0.18845683624E+04 0.  0.
        4    1    3    3  502    0  0.73181787221E+03  0.52850753935E+03 -0.20798100145E+03  0.92635593974E+03  0.12699999809E+01 0. -1.
       -4    1    3    3    0  502 -0.73181787221E+03 -0.52850753935E+03 -0.82417432051E+03  0.12223512346E+04  0.12699999809E+01 0.  1.
</event>
<event>
 5   0  0.1813834E-04  0.1904625E+04  0.7818609E-02  0.8652558E-01
       -1   -1    0    0    0  501  0.00000000000E+00  0.00000000000E+00  0.51148097916E+03  0.51148097919E+03  0.50400001928E-02 0.  1.
        1   -1    0    0  501    0  0.00000000000E+00  0.00000000000E+00 -0.17730849939E+04  0.17730849940E+04  0.50400001928E-02 0. -1.
    10030    2    1    2    0    0  0.00000000000E+00  0.00000000000E+00 -0.12616040148E+04  0.22845659731E+04  0.19046251588E+04 0.  0.
        5    1    3    3  502    0  0.42857129730E+03 -0.81979917726E+03 -0.90203673600E+03  0.12920667208E+04  0.46999998093E+01 0.  1.
       -5    1    3    3    0  502 -0.42857129730E+03  0.81979917726E+03 -0.35956727879E+03  0.99249925234E+03  0.46999998093E+01 0. -1.
</event>
<event>
 5   0  0.3459485E-04  0.1831856E+04  0.7818609E-02  0.8689540E-01
        2   -1    0    0  501    0  0.00000000000E+00  0.00000000000E+00  0.11331436815E+04  0.11331436815E+04  0.25500000920E-02 0.  1.
       -2   -1    0    0    0  501  0.00000000000E+00  0.00000000000E+00 -0.74035115509E+03  0.74035115510E+03  0.25500000920E-02 0. -1.
    10030    2    1    2    0    0  0.00000000000E+00  0.00000000000E+00  0.39279252643E+03  0.18734948366E+04  0.18318561445E+04 0.  0.
        3    1    3    3  502    0 -0.36152708848E+03  0.55780516306E+03 -0.44806651324E+03  0.80163086650E+03  0.10100000352E+00 0. -1.
       -3    1    3    3    0  502  0.36152708848E+03 -0.55780516306E+03  0.84085903967E+03  0.10718639701E+04  0.10100000352E+00 0.  1.
</event>
<event>
 5   0  0.3459485E-04  0.1973032E+04  0.7818609E-02  0.8619334E-01
       -2   -1    0    0    0  501  0.00000000000E+00  0.00000000000E+00  0.12292124227E+04  0.12292124227E+04  0.25500000920E-02 0. -1.
        2   -1    0    0  501    0  0.00000000000E+00  0.00000000000E+00 -0.79173804559E+03  0.79173804560E+03  0.25500000920E-02 0.  1.
    10030    2    1    2    0    0  0.00000000000E+00  0.00000000000E+00  0.43747437710E+03  0.20209504683E+04  0.19730324287E+04 0.  0.
        3    1    3    3  502    0  0.88152144862E+03  0.39333245448E+03  0.10265955264E+02  0.96534754579E+03  0.10100000352E+00 0. -1.
       -3    1    3    3    0  502 -0.88152144862E+03 -0.39333245448E+03  0.42720842183E+03  0.10556029225E+04  0.10100000352E+00 0.  1.
</event>
<event>
 5   0  0.1287000E-04  0.1905164E+04  0.7818609E-02  0.8652290E-01
        4   -1    0    0  501    0  0.00000000000E+00  0.00000000000E+00  0.97479612563E+03  0.97479695293E+03  0.12699999809E+01 0.  1.
       -4   -1    0    0    0  501  0.00000000000E+00  0.00000000000E+00 -0.93087280962E+03  0.93087367596E+03  0.12699999809E+01 0. -1.
    10030    2    1    2    0    0  0.00000000000E+00  0.00000000000E+00  0.43923316006E+02  0.19056706289E+04  0.19051643730E+04 0.  0.
        5    1    3    3  502    0 -0.69907890047E+03 -0.28713599725E+03 -0.55804787520E+03  0.93946682273E+03  0.46999998093E+01 0. -1.
       -5    1    3    3    0  502  0.69907890047E+03  0.28713599725E+03  0.60197119121E+03  0.96620380616E+03  0.46999998093E+01 0.  1.
</event>
<event>
 5   0  0.3623359E-04  0.1868185E+04  0.7818609E-02  0.8670857E-01
       -2   -1    0    0    0  501  0.00000000000E+00  0.00000000000E+00  0.80078153282E+03  0.80078153283E+03  0.25500000920E-02 0. -1.
        2   -1    0    0  501    0  0.00000000000E+00  0.00000000000E+00 -0.10895970887E+04  0.10895970887E+04  0.25500000920E-02 0.  1.
    10030    2    1    2    0    0  0.00000000000E+00  0.00000000000E+00 -0.28881555584E+03  0.18903786215E+04  0.18681854585E+04 0.  0.
        5    1    3    3  502    0  0.45975023241E+02  0.61197233049E+03  0.56814748404E+03  0.83632379475E+03  0.46999998093E+01 0. -1.
       -5    1    3    3    0  502 -0.45975023241E+02 -0.61197233049E+03 -0.85696303988E+03  0.10540548267E+04  0.46999998093E+01 0.  1.
</event>
<event>
 5   0  0.1813834E-04  0.1381087E+04  0.7818609E-02  0.8967624E-01
       -1   -1    0    0    0  501  0.00000000000E+00  0.00000000000E+00  0.89523028468E+03  0.89523028469E+03  0.50400001928E-02 0.  1.
        1   -1    0    0  501    0  0.00000000000E+00  0.00000000000E+00 -0.53265671563E+03  0.53265671565E+03  0.50400001928E-02 0. -1.
    10030    2    1    2    0    0  0.00000000000E+00  0.00000000000E+00  0.36257356905E+03  0.14278870003E+04  0.13810871416E+04 0.  0.
        5    1    3    3  502    0  0.53718046691E+03  0.40529740007E+03  0.21119495596E+02  0.67327331718E+03  0.46999998093E+01 0. -1.
       -5    1    3    3    0  502 -0.53718046691E+03 -0.40529740007E+03  0.34145407346E+03  0.75461368316E+03  0.46999998093E+01 0.  1.
</event>
<event>
 5   0  0.1758946E-04  0.1925574E+04  0.7818609E-02  0.8642230E-01
       -1   -1    0    0    0  501  0.00000000000E+00  0.00000000000E+00  0.11300379511E+04  0.11300379511E+04  0.50400001928E-02 0.  1.
        1   -1    0    0  501    0  0.00000000000E+00  0.00000000000E+00 -0.82028984119E+03  0.82028984120E+03  0.50400001928E-02 0. -1.
    10030    2    1    2    0    0  0.00000000000E+00  0.00000000000E+00  0.30974810994E+03  0.19503277923E+04  0.19255738381E+04 0.  0.
        2    1    3    3  502    0  0.35866195244E+03  0.75868539712E+02  0.10565794414E+04  0.11183713817E+04  0.25500000920E-02 0.  1.
       -2    1    3    3    0  502 -0.35866195244E+03 -0.75868539712E+02 -0.74683133149E+03  0.83195641060E+03  0.25500000920E-02 0. -1.
</event>
<event>
 5   0  0.3623359E-04  0.1901891E+04  0.7818609E-02  0.8653916E-01
       -2   -1    0    0    0  501  0.00000000000E+00  0.00000000000E+00  0.12767606822E+04  0.12767606822E+04  0.25500000920E-02 0.  1.
        2   -1    0    0  501    0  0.00000000000E+00  0.00000000000E+00 -0.70827494181E+03  0.70827494182E+03  0.25500000920E-02 0. -1.
    10030    2    1    2    0    0  0.00000000000E+00  0.00000000000E+00  0.56848574036E+03  0.19850356240E+04  0.19018912670E+04 0.  0.
        5    1    3    3  502    0  0.58246710539E+03  0.27577715022E+03 -0.44557898309E+03  0.78350729774E+03  0.46999998093E+01 0. -1.
       -5    1    3    3    0  502 -0.58246710539E+03 -0.27577715022E+03  0.10140647235E+04  0.12015283263E+04  0.46999998093E+01 0.  1.
</event>
<event>
 5   0  0.3720978E-04  0.1823368E+04  0.7818609E-02  0.8693970E-01
        2   -1    0    0  501    0  0.00000000000E+00  0.00000000000E+00  0.67656783260E+03  0.67656783260E+03  0.25500000920E-02 0. -1.
       -2   -1    0    0    0  501  0.00000000000E+00  0.00000000000E+00 -0.12285062072E+04  0.12285062072E+04  0.25500000920E-02 0.  1.
    10030    2    1    2    0    0  0.00000000000E+00  0.00000000000E+00 -0.55193837458E+03  0.19050740398E+04  0.18233680725E+04 0.  0.
        1    1    3    3  502    0  0.32273936751E+03 -0.47951990903E+03 -0.10125922328E+04  0.11659515738E+04  0.50400001928E-02 0.  1.
       -1    1    3    3    0  502 -0.32273936751E+03  0.47951990903E+03  0.46065385826E+03  0.73912246594E+03  0.50400001928E-02 0. -1.
</event>
<event>
 5   0  0.1758946E-04  0.1912481E+04  0.7818609E-02  0.8648669E-01
       -1   -1    0    0    0  501  0.00000000000E+00  0.00000000000E+00  0.19915753969E+04  0.19915753970E+04  0.50400001928E-02 0. -1.
        1   -1    0    0  501    0  0.00000000000E+00  0.00000000000E+00 -0.45913179333E+03  0.45913179336E+03  0.50400001928E-02 0.  1.
    10030    2    1    2    0    0  0.00000000000E+00  0.00000000000E+00  0.15324436036E+04  0.24507071903E+04  0.19124806756E+04 0.  0.
        2    1    3    3  502    0 -0.26747989883E+03 -0.63242626858E+03 -0.86565815843E+02  0.69209979190E+03  0.25500000920E-02 0.  1.
       -2    1    3    3    0  502  0.26747989883E+03  0.63242626858E+03  0.16190094195E+04  0.17586073984E+04  0.25500000920E-02 0. -1.
</event>
<event>
 5   0  0.3720978E-04  0.2121046E+04  0.7818609E-02  0.8552029E-01
       -2   -1    0    0    0  501  0.00000000000E+00  0.00000000000E+00  0.12091349344E+04  0.12091349344E+04  0.25500000920E-02 0.  1.
        2   -1    0    0  501    0  0.00000000000E+00  0.00000000000E+00 -0.93017666648E+03  0.93017666649E+03  0.25500000920E-02 0. -1.
    10030    2    1    2    0    0  0.00000000000E+00  0.00000000000E+00  0.27895826788E+03  0.21393116008E+04  0.21210460651E+04 0.  0.
        1    1    3    3  502    0  0.85762314631E+03 -0.56453955028E+03  0.40725883398E+03  0.11045732763E+04  0.50400001928E-02 0. -1.
       -1    1    3    3    0  502 -0.85762314631E+03  0.56453955028E+03 -0.12830056611E+03  0.10347383245E+04  0.50400001928E-02 0.  1.
</event>
<event>
 5   0  0.1711979E-04  0.1927754E+04  0.7818609E-02  0.8641163E-01
       -1   -1    0    0    0  501  0.00000000000E+00  0.00000000000E+00  0.68471666598E+03  0.68471666600E+03  0.50400001928E-02 0. -1.
        1   -1    0    0  501    0  0.00000000000E+00  0.00000000000E+00 -0.13568518323E+04  0.13568518323E+04  0.50400001928E-02 0.  1.
    10030    2    1    2    0    0  0.00000000000E+00  0.00000000000E+00 -0.67213516632E+03  0.20415684983E+04  0.19277541989E+04 0.  0.
        4    1    3    3  502    0  0.57760159758E+03  0.57826648050E+03 -0.87715478389E+03  0.11989236238E+04  0.12699999809E+01 0.  1.
       -4    1    3    3    0  502 -0.57760159758E+03 -0.57826648050E+03  0.20501961756E+03  0.84264487448E+03  0.12699999809E+01 0. -1.
</event>
<event>
 5   0  0.3459485E-04  0.1884806E+04  0.7818609E-02  0.8662456E-01
       -2   -1    0    0    0  501  0.00000000000E+00  0.00000000000E+00  0.72733778209E+03  0.72733778209E+03  0.25500000920E-02 0. -1.
        2   -1    0    0  501    0  0.00000000000E+00  0.00000000000E+00 -0.12210610925E+04  0.12210610925E+04  0.25500000920E-02 0.  1.
    10030    2    1    2    0    0  0.00000000000E+00  0.00000000000E+00 -0.49372331040E+03  0.19483988746E+04  0.18848064800E+04 0.  0.
        3    1    3    3  502    0  0.89579642303E+02 -0.64936740060E+03 -0.94677376720E+03  0.11515568200E+04  0.10100000352E+00 0.  1.
       -3    1    3    3    0  502 -0.89579642303E+02  0.64936740060E+03  0.45305045681E+03  0.79684205455E+03  0.10100000352E+00 0. -1.
</event>
<event>
 5   0  0.1711979E-04  0.1868136E+04  0.7818609E-02  0.8670882E-01
       -1   -1    0    0    0  501  0.00000000000E+00  0.00000000000E+00  0.17361514903E+04  0.17361514903E+04  0.50400001928E-02 0.  1.
        1   -1    0    0  501    0  0.00000000000E+00  0.00000000000E+00 -0.50253855396E+03  0.50253855398E+03  0.50400001928E-02 0. -1.
    10030    2    1    2    0    0  0.00000000000E+00  0.00000000000E+00  0.12336129364E+04  0.22386900443E+04  0.18681360330E+04 0.  0.
        4    1    3    3  502    0 -0.39847663250E+03 -0.20793607277E+03 -0.36442629238E+03  0.57864425383E+03  0.12699999809E+01 0. -1.
       -4    1    3    3    0  502  0.39847663250E+03  0.20793607277E+03  0.15980392287E+04  0.16600457905E+04  0.12699999809E+01 0.  1.
</event>
<event>
 5   0  0.3459485E-04  0.1901009E+04  0.7818609E-02  0.8654354E-01
        2   -1    0    0  501    0  0.00000000000E+00  0.00000000000E+00  0.15169622129E+04  0.15169622129E+04  0.25500000920E-02 0. -1.
       -2   -1    0    0    0  501  0.00000000000E+00  0.00000000000E+00 -0.59557109078E+03  0.59557109078E+03  0.25500000920E-02 0.  1.
    10030    2    1    2    0    0  0.00000000000E+00  0.00000000000E+00  0.92139112216E+03  0.21125333037E+04  0.19010090372E+04 0.  0.
        3    1    3    3  502    0 -0.16783715135E+03 -0.73265484902E+02  0.14971720669E+04  0.15083306497E+04  0.10100000352E+00 0. -1.
       -3    1    3    3    0  502  0.16783715135E+03  0.73265484902E+02 -0.57578094473E+03  0.60420265405E+03  0.10100000352E+00 0.  1.
</event>
<event>
 5   0  0.3516539E-04  0.1896826E+04  0.7818609E-02  0.8656438E-01
        2   -1    0    0  501    0  0.00000000000E+00  0.00000000000E+00  0.88453256446E+03  0.88453256447E+03  0.25500000920E-02 0.  1.
       -2   -1    0    0    0  501  0.00000000000E+00  0.00000000000E+00 -0.10169069273E+04  0.10169069273E+04  0.25500000920E-02 0. -1.
    10030    2    1    2    0    0  0.00000000000E+00  0.00000000000E+00 -0.13237436281E+03  0.19014394917E+04  0.18968260776E+04 0.  0.
        4    1    3    3  502    0 -0.45358492699E+03 -0.79197766394E+03 -0.32472486225E+03  0.96871861510E+03  0.12699999809E+01 0.  1.
       -4    1    3    3    0  502  0.45358492699E+03  0.79197766394E+03  0.19235049944E+03  0.93272087664E+03  0.12699999809E+01 0. -1.
</event>
<event>
 5   0  0.3535876E-04  0.1775959E+04  0.7818609E-02  0.8719190E-01
        2   -1    0    0  501    0  0.00000000000E+00  0.00000000000E+00  0.13991279075E+04  0.13991279075E+04  0.25500000920E-02 0.  1.
       -2   -1    0    0    0  501  0.00000000000E+00  0.00000000000E+00 -0.56357090460E+03  0.56357090460E+03  0.25500000920E-02 0. -1.
    10030    2    1    2    0    0  0.00000000000E+00  0.00000000000E+00  0.83555700288E+03  0.19626988121E+04  0.17759592118E+04 0.  0.
        2    1    3    3  502    0  0.27392449670E+03  0.17907370834E+03  0.13300488765E+04  0.13697196927E+04  0.25500000920E-02 0.  1.
       -2    1    3    3    0  502 -0.27392449670E+03 -0.17907370834E+03 -0.49449187358E+03  0.59297911933E+03  0.25500000920E-02 0. -1.
</event>
<event>
 5   0  0.3535876E-04  0.1880282E+04  0.7818609E-02  0.8664734E-01
       -2   -1    0    0    0  501  0.00000000000E+00  0.00000000000E+00  0.91669036176E+03  0.91669036176E+03  0.25500000920E-02 0. -1.
        2   -1    0    0  501    0  0.00000000000E+00  0.00000000000E+00 -0.96419141335E+03  0.96419141336E+03  0.25500000920E-02 0.  1.
    10030    2    1    2    0    0  0.00000000000E+00  0.00000000000E+00 -0.47501051599E+02  0.18808817751E+04  0.18802818677E+04 0.  0.
        2    1    3    3  502    0  0.33521798802E+03  0.92671930321E+02 -0.89747398320E+03  0.96250648657E+03  0.25500000920E-02 0.  1.
       -2    1    3    3    0  502 -0.33521798802E+03 -0.92671930321E+02  0.84997293160E+03  0.91837528855E+03  0.25500000920E-02 0. -1.
</event>
<event>
 5   0  0.1711979E-04  0.1868860E+04  0.7818609E-02  0.8670514E-01
       -1   -1    0    0    0  501  0.00000000000E+00  0.00000000000E+00  0.74469948302E+03  0.74469948303E+03  0.50400001928E-02 0. -1.
        1   -1    0    0  501    0  0.00000000000E+00  0.00000000000E+00 -0.11724990276E+04  0.11724990276E+04  0.50400001928E-02 0.  1.
    10030    2    1    2    0    0  0.00000000000E+00  0.00000000000E+00 -0.42779954455E+03  0.19171985106E+04  0.18688599944E+04 0.  0.
        4    1    3    3  502    0 -0.81546335641E+03  0.22796910519E+03  0.19155379783E+03  0.86812721933E+03  0.12699999809E+01 0. -1.
       -4    1    3    3    0  502  0.81546335641E+03 -0.22796910519E+03 -0.61935334238E+03  0.10490712913E+04  0.12699999809E+01 0.  1.
</event>
<event>
 5   0  0.3535876E-04  0.1913199E+04  0.7818609E-02  0.8648314E-01
       -2   -1    0    0    0  501  0.00000000000E+00  0.00000000000E+00  0.52007595352E+03  0.52007595353E+03  0.25500000920E-02 0.  1.
        2   -1    0    0  501    0  0.00000000000E+00  0.00000000000E+00 -0.17595166964E+04  0.17595166964E+04  0.25500000920E-02 0. -1.
    10030    2    1    2    0    0  0.00000000000E+00  0.00000000000E+00 -0.12394407428E+04  0.22795926499E+04  0.19131987075E+04 0.  0.
        2    1    3    3  502    0  0.78487272916E+03  0.41833450232E+02 -0.12694008220E+04  0.14930350583E+04  0.25500000920E-02 0. -1.
       -2    1    3    3    0  502 -0.78487272916E+03 -0.41833450232E+02  0.29960079116E+02  0.78655759159E+03  0.25500000920E-02 0.  1.
</event>
<event>
 5   0  0.3623359E-04  0.1925841E+04  0.7818609E-02  0.8642099E-01
       -2   -1    0    0    0  501  0.00000000000E+00  0.00000000000E+00  0.93924898298E+03  0.93924898299E+03  0.25500000920E-02 0. -1.
        2   -1    0    0  501    0  0.00000000000E+00  0.00000000000E+00 -0.98718881663E+03  0.98718881663E+03  0.25500000920E-02 0.  1.
    10030    2    1    2    0    0  0.00000000000E+00  0.00000000000E+00 -0.47939833645E+02  0.19264377996E+04  0.19258412105E+04 0.  0.
        5    1    3    3  502    0 -0.15772029521E+03 -0.27962544273E+03  0.88412622335E+03  0.94062072514E+03  0.46999998093E+01 0. -1.
       -5    1    3    3    0  502  0.15772029521E+03  0.27962544273E+03 -0.93206605699E+03  0.98581707448E+03  0.46999998093E+01 0.  1.
</event>
<event>
 5   0  0.3623359E-04  0.2020761E+04  0.7818609E-02  0.8596975E-01
        2   -1    0    0  501    0  0.00000000000E+00  0.00000000000E+00  0.12847877656E+04  0.12847877656E+04  0.25500000920E-02 0. -1.
       -2   -1    0    0    0  501  0.00000000000E+00  0.00000000000E+00 -0.79458153535E+03  0.79458153535E+03  0.25500000920E-02 0.  1.
    10030    2    1    2    0    0  0.00000000000E+00  0.00000000000E+00  0.49020623020E+03  0.20793693009E+04  0.20207608818E+04 0.  0.
        5    1    3    3  502    0 -0.40427904727E+03  0.91999890419E+03  0.13714595463E+03  0.10142340137E+04  0.46999998093E+01 0. -1.
       -5    1    3    3    0  502  0.40427904727E+03 -0.91999890419E+03  0.35306027557E+03  0.10651352872E+04  0.46999998093E+01 0.  1.
</event>
<event>
 5   0  0.3459485E-04  0.1904498E+04  0.7818609E-02  0.8652621E-01
        2   -1    0    0  501    0  0.00000000000E+00  0.00000000000E+00  0.11415108910E+04  0.11415108910E+04  0.25500000920E-02 0. -1.
       -2   -1    0    0    0  501  0.00000000000E+00  0.00000000000E+00 -0.79436627530E+03  0.79436627531E+03  0.25500000920E-02 0.  1.
    10030    2    1    2    0    0  0.00000000000E+00  0.00000000000E+00  0.34714461574E+03  0.19358771664E+04  0.19044975765E+04 0.  0.
        3    1    3    3  502    0 -0.57449999774E+03 -0.20399857957E+03  0.91713869490E+03  0.11012761070E+04  0.10100000352E+00 0. -1.
       -3    1    3    3    0  502  0.57449999774E+03  0.20399857957E+03 -0.56999407916E+03  0.83460105940E+03  0.10100000352E+00 0.  1.
</event>
<event>
 5   0  0.1813834E-04  0.1923285E+04  0.7818609E-02  0.8643352E-01
       -1   -1    0    0    0  501  0.00000000000E+00  0.00000000000E+00  0.13070649283E+04  0.13070649283E+04  0.50400001928E-02 0.  1.
        1   -1    0    0  501    0  0.00000000000E+00  0.00000000000E+00 -0.70750594495E+03  0.70750594496E+03  0.50400001928E-02 0. -1.
    10030    2    1    2    0    0  0.00000000000E+00  0.00000000000E+00  0.59955898339E+03  0.20145708733E+04  0.19232849058E+04 0.  0.
        5    1    3    3  502    0  0.97504020048E+02  0.63954857281E+03 -0.44547056323E+03  0.78549062605E+03  0.46999998093E+01 0. -1.
       -5    1    3    3    0  502 -0.97504020048E+02 -0.63954857281E+03  0.10450295466E+04  0.12290802473E+04  0.46999998093E+01 0.  1.
</event>
<event>
 5   0  0.1694830E-04  0.1909771E+04  0.7818609E-02  0.8650008E-01
       -1   -1    0    0    0  501  0.00000000000E+00  0.00000000000E+00  0.17446316540E+04  0.17446316540E+04  0.50400001928E-02 0.  1.
        1   -1    0    0  501    0  0.00000000000E+00  0.00000000000E+00 -0.52263546946E+03  0.52263546948E+03  0.50400001928E-02 0. -1.
    10030    2    1    2    0    0  0.00000000000E+00  0.00000000000E+00  0.12219961846E+04  0.22672671235E+04  0.19097710686E+04 0.  0.
        1    1    3    3  502    0  0.46177823404E+03 -0.61341217200E+03 -0.62981351813E+02  0.77037671362E+03  0.50400001928E-02 0. -1.
       -1    1    3    3    0  502 -0.46177823404E+03  0.61341217200E+03  0.12849775364E+04  0.14968904099E+04  0.50400001928E-02 0.  1.
</event>
<event>
 5   0  0.3459485E-04  0.1896047E+04  0.7818609E-02  0.8656827E-01
        2   -1    0    0  501    0  0.00000000000E+00  0.00000000000E+00  0.17791243727E+04  0.17791243727E+04  0.25500000920E-02 0. -1.
       -2   -1    0    0    0  501  0.00000000000E+00  0.00000000000E+00 -0.50516333008E+03  0.50516333008E+03  0.25500000920E-02 0.  1.
    10030    2    1    2    0    0  0.00000000000E+00  0.00000000000E+00  0.12739610426E+04  0.22842877028E+04  0.18960468272E+04 0.  0.
        3    1    3    3  502    0  0.42247800380E+03 -0.48806720872E+03 -0.19948547379E+03  0.67564171598E+03  0.10100000352E+00 0.  1.
       -3    1    3    3    0  502 -0.42247800380E+03  0.48806720872E+03  0.14734465164E+04  0.16086459868E+04  0.10100000352E+00 0. -1.
</event>
<event>
 5   0  0.1758946E-04  0.1905201E+04  0.7818609E-02  0.8652272E-01
        1   -1    0    0  501    0  0.00000000000E+00  0.00000000000E+00  0.90529383353E+03  0.90529383354E+03  0.50400001928E-02 0. -1.
       -1   -1    0    0    0  501  0.00000000000E+00  0.00000000000E+00 -0.10023795624E+04  0.10023795624E+04  0.50400001928E-02 0.  1.
    10030    2    1    2    0    0  0.00000000000E+00  0.00000000000E+00 -0.97085728852E+02  0.19076733959E+04  0.19052013402E+04 0.  0.
        2    1    3    3  502    0 -0.31079955484E+03 -0.53375697485E+03  0.67762580455E+03  0.91688036433E+03  0.25500000920E-02 0. -1.
       -2    1    3    3    0  502  0.31079955484E+03  0.53375697485E+03 -0.77471153340E+03  0.99079303161E+03  0.25500000920E-02 0.  1.
</event>
<event>
 5   0  0.3516539E-04  0.1940431E+04  0.7818609E-02  0.8634989E-01
       -2   -1    0    0    0  501  0.00000000000E+00  0.00000000000E+00  0.13028781644E+04  0.13028781644E+04  0.25500000920E-02 0. -1.
        2   -1    0    0  501    0  0.00000000000E+00  0.00000000000E+00 -0.72249139623E+03  0.72249139623E+03  0.25500000920E-02 0.  1.
    10030    2    1    2    0    0  0.00000000000E+00  0.00000000000E+00  0.58038676820E+03  0.20253695607E+04  0.19404311522E+04 0.  0.
        4    1    3    3  502    0  0.16211603453E+03  0.69224844378E+03  0.97926311579E+03  0.12101435367E+04  0.12699999809E+01 0. -1.
       -4    1    3    3    0  502 -0.16211603453E+03 -0.69224844378E+03 -0.39887634759E+03  0.81522602396E+03  0.12699999809E+01 0.  1.
</event>
<event>
 5   0  0.1711979E-04  0.1906723E+04  0.7818609E-02  0.8651517E-01
       -1   -1    0    0    0  501  0.00000000000E+00  0.00000000000E+00  0.92291067621E+03  0.92291067622E+03  0.50400001928E-02 0. -1.
        1   -1    0    0  501    0  0.00000000000E+00  0.00000000000E+00 -0.98481694802E+03  0.98481694803E+03  0.50400001928E-02 0.  1.
    10030    2    1    2    0    0  0.00000000000E+00  0.00000000000E+00 -0.61906271809E+02  0.19077276243E+04  0.19067229222E+04 0.  0.
        4    1    3    3  502    0  0.57981798274E+03  0.26570332286E+03 -0.73992323549E+03  0.97687008154E+03  0.12699999809E+01 0.  1.
       -4    1    3    3    0  502 -0.57981798274E+03 -0.26570332286E+03  0.67801696368E+03  0.93085754271E+03  0.12699999809E+01 0. -1.
</event>
<event>
 5   0  0.3516539E-04  0.1968644E+04  0.7818609E-02  0.8621422E-01
       -2   -1    0    0    0  501  0.00000000000E+00  0.00000000000E+00  0.52977146517E+03  0.52977146517E+03  0.25500000920E-02 0. -1.
        2   -1    0    0  501    0  0.00000000000E+00  0.00000000000E+00 -0.18288827531E+04  0.18288827531E+04  0.25500000920E-02 0.  1.
    10030    2    1    2    0    0  0.00000000000E+00  0.00000000000E+00 -0.12991112880E+04  0.23586542183E+04  0.19686440976E+04 0.  0.
        4    1    3    3  502    0  0.56669231272E+03 -0.20538627226E+03 -0.15819020532E+04  0.16928494962E+04  0.12699999809E+01 0.  1.
       -4    1    3    3    0  502 -0.56669231272E+03  0.20538627226E+03  0.28279076522E+03  0.66580472207E+03  0.12699999809E+01 0. -1.
</event>
<event>
 5   0  0.3720978E-04  0.1653029E+04  0.7818609E-02  0.8788616E-01
        2   -1    0    0  501    0  0.00000000000E+00  0.00000000000E+00  0.14908873137E+04  0.14908873137E+04  0.25500000920E-02 0. -1.
       -2   -1    0    0    0  501  0.00000000000E+00  0.00000000000E+00 -0.45820135220E+03  0.45820135221E+03  0.25500000920E-02 0.  1.
    10030    2    1    2    0    0  0.00000000000E+00  0.00000000000E+00  0.10326859615E+04  0.19490886659E+04  0.16530294409E+04 0.  0.
        1    1    3    3  502    0  0.21566939516E+02 -0.21129894532E+03 -0.42547327453E+03  0.47554167487E+03  0.50400001928E-02 0.  1.
       -1    1    3    3    0  502 -0.21566939516E+02  0.21129894532E+03  0.14581592360E+04  0.14735469910E+04  0.50400001928E-02 0. -1.
</event>
<event>
 5   0  0.3535876E-04  0.1922200E+04  0.7818609E-02  0.8643884E-01
        2   -1    0    0  501    0  0.00000000000E+00  0.00000000000E+00  0.25429199645E+04  0.25429199645E+04  0.25500000920E-02 0.  1.
       -2   -1    0    0    0  501  0.00000000000E+00  0.00000000000E+00 -0.36324885433E+03  0.36324885434E+03  0.25500000920E-02 0. -1.
    10030    2    1    2    0    0  0.00000000000E+00  0.00000000000E+00  0.21796711102E+04  0.29061688189E+04  0.19221995357E+04 0.  0.
        2    1    3    3  502    0 -0.89960583953E+03 -0.24787734688E+02  0.57979098534E+03  0.10705431729E+04  0.25500000920E-02 0. -1.
       -2    1    3    3    0  502  0.89960583953E+03  0.24787734688E+02  0.15998801249E+04  0.18356256460E+04  0.25500000920E-02 0.  1.
</event>
<event>
 5   0  0.1782613E-04  0.1829661E+04  0.7818609E-02  0.8690683E-01
        1   -1    0    0  501    0  0.00000000000E+00  0.00000000000E+00  0.15820547706E+04  0.15820547706E+04  0.50400001928E-02 0. -1.
       -1   -1    0    0    0  501  0.00000000000E+00  0.00000000000E+00 -0.52900487532E+03  0.52900487535E+03  0.50400001928E-02 0.  1.
    10030    2    1    2    0    0  0.00000000000E+00  0.00000000000E+00  0.10530498953E+04  0.21110596460E+04  0.18296608284E+04 0.  0.
        3    1    3    3  502    0  0.49868453996E+03 -0.29508719429E+02  0.14107874837E+04  0.14966223202E+04  0.10100000352E+00 0. -1.
       -3    1    3    3    0  502 -0.49868453996E+03  0.29508719429E+02 -0.35773758843E+03  0.61443732576E+03  0.10100000352E+00 0.  1.
</event>
<event>
 5   0  0.1694830E-04  0.1853594E+04  0.7818609E-02  0.8678307E-01
        1   -1    0    0  501    0  0.00000000000E+00  0.00000000000E+00  0.95241192573E+03  0.95241192575E+03  0.50400001928E-02 0. -1.
       -1   -1    0    0    0  501  0.00000000000E+00  0.00000000000E+00 -0.90187096411E+03  0.90187096412E+03  0.50400001928E-02 0.  1.
    10030    2    1    2    0    0  0.00000000000E+00  0.00000000000E+00  0.50540961624E+02  0.18542828899E+04  0.18535939811E+04 0.  0.
        1    1    3    3  502    0  0.29604927866E+03  0.88936492230E+02 -0.84878062902E+03  0.90331801225E+03  0.50400001928E-02 0.  1.
       -1    1    3    3    0  502 -0.29604927866E+03 -0.88936492230E+02  0.89932159064E+03  0.95096487762E+03  0.50400001928E-02 0. -1.
</event>
<event>
 5   0  0.1758946E-04  0.1896192E+04  0.7818609E-02  0.8656754E-01
        1   -1    0    0  501    0  0.00000000000E+00  0.00000000000E+00  0.10885154024E+04  0.10885154024E+04  0.50400001928E-02 0. -1.
       -1   -1    0    0    0  501  0.00000000000E+00  0.00000000000E+00 -0.82579119559E+03  0.82579119561E+03  0.50400001928E-02 0.  1.
    10030    2    1    2    0    0  0.00000000000E+00  0.00000000000E+00  0.26272420681E+03  0.19143065980E+04  0.18961924329E+04 0.  0.
        2    1    3    3  502    0 -0.57585752881E+03 -0.75074995846E+03  0.70377736887E+02  0.94878365262E+03  0.25500000920E-02 0. -1.
       -2    1    3    3    0  502  0.57585752881E+03  0.75074995846E+03  0.19234646993E+03  0.96552294541E+03  0.25500000920E-02 0.  1.
</event>
<event>
 5   0  0.3535876E-04  0.1915883E+04  0.7818609E-02  0.8646991E-01
       -2   -1    0    0    0  501  0.00000000000E+00  0.00000000000E+00  0.91185219638E+03  0.91185219638E+03  0.25500000920E-02 0.  1.
        2   -1    0    0  501    0  0.00000000000E+00  0.00000000000E+00 -0.10063602681E+04  0.10063602681E+04  0.25500000920E-02 0. -1.
    10030    2    1    2    0    0  0.00000000000E+00  0.00000000000E+00 -0.94508071682E+02  0.19182124644E+04  0.19158828991E+04 0.  0.
        2    1    3    3  502    0  0.15023324863E+03  0.46797194627E+03 -0.87049712304E+03  0.99966645073E+03  0.25500000920E-02 0. -1.
       -2    1    3    3    0  502 -0.15023324863E+03 -0.46797194627E+03  0.77598905135E+03  0.91854601372E+03  0.25500000920E-02 0.  1.
</event>
<event>
 5   0  0.3623359E-04  0.1905641E+04  0.7818609E-02  0.8652054E-01
       -2   -1    0    0    0  501  0.00000000000E+00  0.00000000000E+00  0.70894802670E+03  0.70894802671E+03  0.25500000920E-02 0. -1.
        2   -1    0    0  501    0  0.00000000000E+00  0.00000000000E+00 -0.12805833393E+04  0.12805833393E+04  0.25500000920E-02 0.  1.
    10030    2    1    2    0    0  0.00000000000E+00  0.00000000000E+00 -0.57163531257E+03  0.19895313660E+04  0.19056411324E+04 0.  0.
        5    1    3    3  502    0 -0.20487259267E+03  0.80185815725E+03  0.20708422551E+03  0.85314433131E+03  0.46999998093E+01 0.  1.
       -5    1    3    3    0  502  0.20487259267E+03 -0.80185815725E+03 -0.77871953808E+03  0.11363870347E+04  0.46999998093E+01 0. -1.
</event>
<event>
 5   0  0.1694830E-04  0.1749977E+04  0.7818609E-02  0.8733363E-01
        1   -1    0    0  501    0  0.00000000000E+00  0.00000000000E+00  0.12981927523E+04  0.12981927523E+04  0.50400001928E-02 0.  1.
       -1   -1    0    0    0  501  0.00000000000E+00  0.00000000000E+00 -0.58974691233E+03  0.58974691235E+03  0.50400001928E-02 0. -1.
    10030    2    1    2    0    0  0.00000000000E+00  0.00000000000E+00  0.70844584000E+03  0.18879396647E+04  0.17499773339E+04 0.  0.
        1    1    3    3  502    0 -0.26075425002E+03  0.33820920165E+03 -0.46967701687E+03  0.63480291681E+03  0.50400001928E-02 0. -1.
       -1    1    3    3    0  502  0.26075425002E+03 -0.33820920165E+03  0.11781228569E+04  0.12531367479E+04  0.50400001928E-02 0.  1.
</event>
<event>
 5   0  0.3720978E-04  0.1895207E+04  0.7818609E-02  0.8657246E-01
        2   -1    0    0  501    0  0.00000000000E+00  0.00000000000E+00  0.13021711087E+04  0.13021711087E+04  0.25500000920E-02 0. -1.
       -2   -1    0    0    0  501  0.00000000000E+00  0.00000000000E+00 -0.68958119316E+03  0.68958119317E+03  0.25500000920E-02 0.  1.
    10030    2    1    2    0    0  0.00000000000E+00  0.00000000000E+00  0.61258991551E+03  0.19917523018E+04  0.18952073310E+04 0.  0.
        1    1    3    3  502    0  0.51354385605E+03  0.35456168525E+03  0.10557213062E+04  0.12263721936E+04  0.50400001928E-02 0. -1.
       -1    1    3    3    0  502 -0.51354385605E+03 -0.35456168525E+03 -0.44313139069E+03  0.76538010829E+03  0.50400001928E-02 0.  1.
</event>
<event>
 5   0  0.1694830E-04  0.1915186E+04  0.7818609E-02  0.8647334E-01
       -1   -1    0    0    0  501  0.00000000000E+00  0.00000000000E+00  0.89116199294E+03  0.89116199296E+03  0.50400001928E-02 0. -1.
        1   -1    0    0  501    0  0.00000000000E+00  0.00000000000E+00 -0.10289762666E+04  0.10289762666E+04  0.50400001928E-02 0.  1.
    10030    2    1    2    0    0  0.00000000000E+00  0.00000000000E+00 -0.13781427361E+03  0.19201382595E+04  0.19151861950E+04 0.  0.
        1    1    3    3  502    0 -0.69428440699E+03  0.65710811301E+03 -0.12528981753E+03  0.96411588949E+03  0.50400001928E-02 0. -1.
       -1    1    3    3    0  502  0.69428440699E+03 -0.65710811301E+03 -0.12524456077E+02  0.95602237003E+03  0.50400001928E-02 0.  1.
</event>
<event>
 5   0  0.3623359E-04  0.1373418E+04  0.7818609E-02  0.8973288E-01
       -2   -1    0    0    0  501  0.00000000000E+00  0.00000000000E+00  0.74323808260E+03  0.74323808261E+03  0.25500000920E-02 0.  1.
        2   -1    0    0  501    0  0.00000000000E+00  0.00000000000E+00 -0.63447977848E+03  0.63447977849E+03  0.25500000920E-02 0. -1.
    10030    2    1    2    0    0  0.00000000000E+00  0.00000000000E+00  0.10875830412E+03  0.13777178611E+04  0.13734184126E+04 0.  0.
        5    1    3    3  502    0  0.53842127231E+02  0.50327569236E+03 -0.41114477563E+03  0.65211004724E+03  0.46999998093E+01 0. -1.
       -5    1    3    3    0  502 -0.53842127231E+02 -0.50327569236E+03  0.51990307975E+03  0.72560781385E+03  0.46999998093E+01 0.  1.
</event>
<event>
 5   0  0.3516539E-04  0.1875375E+04  0.7818609E-02  0.8667212E-01
       -2   -1    0    0    0  501  0.00000000000E+00  0.00000000000E+00  0.11092609386E+04  0.11092609386E+04  0.25500000920E-02 0. -1.
        2   -1    0    0  501    0  0.00000000000E+00  0.00000000000E+00 -0.79265191260E+03  0.79265191260E+03  0.25500000920E-02 0.  1.
    10030    2    1    2    0    0  0.00000000000E+00  0.00000000000E+00  0.31660902601E+03  0.19019128512E+04  0.18753749540E+04 0.  0.
        4    1    3    3  502    0  0.60532682740E+03 -0.33032905537E+03  0.80268404957E+03  0.10582254718E+04  0.12699999809E+01 0. -1.
       -4    1    3    3    0  502 -0.60532682740E+03  0.33032905537E+03 -0.48607502356E+03  0.84368737944E+03  0.12699999809E+01 0.  1.
</event>
<event>
 5   0  0.3623359E-04  0.1899680E+04  0.7818609E-02  0.8655016E-01
        2   -1    0    0  501    0  0.00000000000E+00  0.00000000000E+00  0.13805535695E+04  0.13805535695E+04  0.25500000920E-02 0.  1.
       -2   -1    0    0    0  501  0.00000000000E+00  0.00000000000E+00 -0.65350296384E+03  0.65350296385E+03  0.25500000920E-02 0. -1.
    10030    2    1    2    0    0  0.00000000000E+00  0.00000000000E+00  0.72705060565E+03  0.20340565333E+04  0.18996798145E+04 0.  0.
        5    1    3    3  502    0  0.90769830405E+03  0.16065043041E+03  0.60874263622E+03  0.11046784415E+04  0.46999998093E+01 0.  1.
       -5    1    3    3    0  502 -0.90769830405E+03 -0.16065043041E+03  0.11830796944E+03  0.92937809185E+03  0.46999998093E+01 0. -1.
</event>
<event>
 5   0  0.3623359E-04  0.1931109E+04  0.7818609E-02  0.8639524E-01
        2   -1    0    0  501    0  0.00000000000E+00  0.00000000000E+00  0.22602235640E+04  0.22602235640E+04  0.25500000920E-02 0. -1.
       -2   -1    0    0    0  501  0.00000000000E+00  0.00000000000E+00 -0.41247946634E+03  0.41247946635E+03  0.25500000920E-02 0.  1.
    10030    2    1    2    0    0  0.00000000000E+00  0.00000000000E+00  0.18477440976E+04  0.26727030303E+04  0.19311093283E+04 0.  0.
        5    1    3    3  502    0  0.53401050648E+03  0.49986232627E+03  0.17961855640E+04  0.19394159524E+04  0.46999998093E+01 0. -1.
       -5    1    3    3    0  502 -0.53401050648E+03 -0.49986232627E+03  0.51558533664E+02  0.73328707792E+03  0.46999998093E+01 0.  1.
</event>
<event>
 5   0  0.1287000E-04  0.1784117E+04  0.7818609E-02  0.8714792E-01
        4   -1    0    0  501    0  0.00000000000E+00  0.00000000000E+00  0.18292467740E+04  0.18292472148E+04  0.12699999809E+01 0.  1.
       -4   -1    0    0    0  501  0.00000000000E+00  0.00000000000E+00 -0.43502390552E+03  0.43502575932E+03  0.12699999809E+01 0. -1.
    10030    2    1    2    0    0  0.00000000000E+00  0.00000000000E+00  0.13942228685E+04  0.22642729742E+04  0.17841173433E+04 0.  0.
        5    1    3    3  502    0 -0.31165977303E+03 -0.38024553030E+03 -0.24753930037E+03  0.55046913870E+03  0.46999998093E+01 0. -1.
       -5    1    3    3    0  502  0.31165977303E+03  0.38024553030E+03  0.16417621688E+04  0.17138038355E+04  0.46999998093E+01 0.  1.
</event>
<event>
 5   0  0.3720978E-04  0.1909129E+04  0.7818609E-02  0.8650326E-01
        2   -1    0    0  501    0  0.00000000000E+00  0.00000000000E+00  0.15860431947E+04  0.15860431947E+04  0.25500000920E-02 0.  1.
       -2   -1    0    0    0  501  0.00000000000E+00  0.00000000000E+00 -0.57450719498E+03  0.57450719499E+03  0.25500000920E-02 0. -1.
    10030    2    1    2    0    0  0.00000000000E+00  0.00000000000E+00  0.10115359997E+04  0.21605503897E+04  0.19091288347E+04 0.  0.
        1    1    3    3  502    0 -0.89447477985E+03 -0.26150196766E+03  0.27184697226E+03  0.97075701760E+03  0.50400001928E-02 0. -1.
       -1    1    3    3    0  502  0.89447477985E+03  0.26150196766E+03  0.73968902743E+03  0.11897933721E+04  0.50400001928E-02 0.  1.
</event>
<event>
 5   0  0.1758946E-04  0.1913676E+04  0.7818609E-02  0.8648079E-01
       -1   -1    0    0    0  501  0.00000000000E+00  0.00000000000E+00  0.66502598369E+03  0.66502598371E+03  0.50400001928E-02 0. -1.
        1   -1    0    0  501    0  0.00000000000E+00  0.00000000000E+00 -0.13766964464E+04  0.13766964464E+04  0.50400001928E-02 0.  1.
    10030    2    1    2    0    0  0.00000000000E+00  0.00000000000E+00 -0.71167046266E+03  0.20417224301E+04  0.19136759480E+04 0.  0.
        2    1    3    3  502    0 -0.41754000546E+03  0.92368436114E+02  0.55739801372E+03  0.70254119442E+03  0.25500000920E-02 0. -1.
       -2    1    3    3    0  502  0.41754000546E+03 -0.92368436114E+02 -0.12690684764E+04  0.13391812357E+04  0.25500000920E-02 0.  1.
</event>
<event>
 5   0  0.3516539E-04  0.1943260E+04  0.7818609E-02  0.8633618E-01
       -2   -1    0    0    0  501  0.00000000000E+00  0.00000000000E+00  0.84550857316E+03  0.84550857316E+03  0.25500000920E-02 0. -1.
        2   -1    0    0  501    0  0.00000000000E+00  0.00000000000E+00 -0.11165650230E+04  0.11165650230E+04  0.25500000920E-02 0.  1.
    10030    2    1    2    0    0  0.00000000000E+00  0.00000000000E+00 -0.27105644989E+03  0.19620735962E+04  0.19432604555E+04 0.  0.
        4    1    3    3  502    0 -0.69514456703E+03  0.63261678614E+03 -0.38415127227E+03  0.10153835630E+04  0.12699999809E+01 0.  1.
       -4    1    3    3    0  502  0.69514456703E+03 -0.63261678614E+03  0.11309482238E+03  0.94669003318E+03  0.12699999809E+01 0. -1.
</event>
<event>
 5   0  0.1782613E-04  0.1885694E+04  0.7818609E-02  0.8662010E-01
       -1   -1    0    0    0  501  0.00000000000E+00  0.00000000000E+00  0.99824397188E+03  0.99824397189E+03  0.50400001928E-02 0. -1.
        1   -1    0    0  501    0  0.00000000000E+00  0.00000000000E+00 -0.89052413309E+03  0.89052413311E+03  0.50400001928E-02 0.  1.
    10030    2    1    2    0    0  0.00000000000E+00  0.00000000000E+00  0.10771983879E+03  0.18887681050E+04  0.18856938752E+04 0.  0.
        3    1    3    3  502    0 -0.61032522961E+03 -0.67665847678E+03  0.29632223127E+03  0.95821211381E+03  0.10100000352E+00 0. -1.
       -3    1    3    3    0  502  0.61032522961E+03  0.67665847678E+03 -0.18860239249E+03  0.93055599120E+03  0.10100000352E+00 0.  1.
</event>
<event>
 5   0  0.3459485E-04  0.1912421E+04  0.7818609E-02  0.8648698E-01
        2   -1    0    0  501    0  0.00000000000E+00  0.00000000000E+00  0.10228863100E+04  0.10228863100E+04  0.25500000920E-02 0.  1.
       -2   -1    0    0    0  501  0.00000000000E+00  0.00000000000E+00 -0.89388044062E+03  0.89388044062E+03  0.25500000920E-02 0. -1.
    10030    2    1    2    0    0  0.00000000000E+00  0.00000000000E+00  0.12900586939E+03  0.19167667506E+04  0.19124205244E+04 0.  0.
        3    1    3    3  502    0 -0.77114807470E+03  0.49811417303E+03  0.33260097700E+03  0.97642741799E+03  0.10100000352E+00 0.  1.
       -3    1    3    3    0  502  0.77114807470E+03 -0.49811417303E+03 -0.20359510761E+03  0.94033933265E+03  0.10100000352E+00 0. -1.
</event>
<event>
 5   0  0.1711979E-04  0.2207028E+04  0.7818609E-02  0.8515508E-01
       -1   -1    0    0    0  501  0.00000000000E+00  0.00000000000E+00  0.13098576621E+04  0.13098576621E+04  0.50400001928E-02 0.  1.
        1   -1    0    0  501    0  0.00000000000E+00  0.00000000000E+00 -0.92967625599E+03  0.92967625600E+03  0.50400001928E-02 0. -1.
    10030    2    1    2    0    0  0.00000000000E+00  0.00000000000E+00  0.38018140610E+03  0.22395339181E+04  0.22070283797E+04 0.  0.
        4    1    3    3  502    0  0.11309158141E+03  0.26424078159E+03  0.12712068336E+04  0.13032963298E+04  0.12699999809E+01 0.  1.
       -4    1    3    3    0  502 -0.11309158141E+03 -0.26424078159E+03 -0.89102542752E+03  0.93623758834E+03  0.12699999809E+01 0. -1.
</event>
<event>
 5   0  0.3720978E-04  0.1890352E+04  0.7818609E-02  0.8659674E-01
       -2   -1    0    0    0  501  0.00000000000E+00  0.00000000000E+00  0.10967084741E+04  0.10967084741E+04  0.25500000920E-02 0. -1.
        2   -1    0    0  501    0  0.00000000000E+00  0.00000000000E+00 -0.81458079828E+03  0.81458079829E+03  0.25500000920E-02 0.  1.
    10030    2    1    2    0    0  0.00000000000E+00  0.00000000000E+00  0.28212767578E+03  0.19112892724E+04  0.18903519929E+04 0.  0.
        1    1    3    3  502    0 -0.59017067714E+03 -0.66194371932E+03  0.47162031841E+03  0.10044384702E+04  0.50400001928E-02 0. -1.
       -1    1    3    3    0  502  0.59017067714E+03  0.66194371932E+03 -0.18949264262E+03  0.90685080214E+03  0.50400001928E-02 0.  1.
</event>
<event>
 5   0  0.1813834E-04  0.1875195E+04  0.7818609E-02  0.8667303E-01
        1   -1    0    0  501    0  0.00000000000E+00  0.00000000000E+00  0.18433081414E+04  0.18433081414E+04  0.50400001928E-02 0. -1.
       -1   -1    0    0    0  501  0.00000000000E+00  0.00000000000E+00 -0.47690818295E+03  0.47690818298E+03  0.50400001928E-02 0.  1.
    10030    2    1    2    0    0  0.00000000000E+00  0.00000000000E+00  0.13663999584E+04  0.23202163244E+04  0.18751946420E+04 0.  0.
        5    1    3    3  502    0  0.16768342726E+03 -0.43469266573E+03  0.16899189047E+04  0.17529755959E+04  0.46999998093E+01 0. -1.
       -5    1    3    3    0  502 -0.16768342726E+03  0.43469266573E+03 -0.32351894627E+03  0.56724072845E+03  0.46999998093E+01 0.  1.
</event>
<event>
 5   0  0.1711979E-04  0.1791689E+04  0.7818609E-02  0.8710732E-01
       -1   -1    0    0    0  501  0.00000000000E+00  0.00000000000E+00  0.58457290610E+03  0.58457290613E+03  0.50400001928E-02 0. -1.
        1   -1    0    0  501    0  0.00000000000E+00  0.00000000000E+00 -0.13728612405E+04  0.13728612405E+04  0.50400001928E-02 0.  1.
    10030    2    1    2    0    0  0.00000000000E+00  0.00000000000E+00 -0.78828833443E+03  0.19574341467E+04  0.17916891305E+04 0.  0.
        4    1    3    3  502    0  0.32508933649E+03 -0.40421430119E+03 -0.11920964004E+04  0.13000645056E+04  0.12699999809E+01 0.  1.
       -4    1    3    3    0  502 -0.32508933649E+03  0.40421430119E+03  0.40380806595E+03  0.65736964108E+03  0.12699999809E+01 0. -1.
</event>
<event>
 5   0  0.3459485E-04  0.1764209E+04  0.7818609E-02  0.8725568E-01
        2   -1    0    0  501    0  0.00000000000E+00  0.00000000000E+00  0.92431131741E+03  0.92431131741E+03  0.25500000920E-02 0. -1.
       -2   -1    0    0    0  501  0.00000000000E+00  0.00000000000E+00 -0.84182501942E+03  0.84182501943E+03  0.25500000920E-02 0.  1.
    10030    2    1    2    0    0  0.00000000000E+00  0.00000000000E+00  0.82486297983E+02  0.17661363368E+04  0.17642090497E+04 0.  0.
        3    1    3    3  502    0 -0.10320483221E+03 -0.56290883019E+03 -0.63075076159E+03  0.85168311122E+03  0.10100000352E+00 0.  1.
       -3    1    3    3    0  502  0.10320483221E+03  0.56290883019E+03  0.71323705957E+03  0.91445322562E+03  0.10100000352E+00 0. -1.
</event>
<event>
 5   0  0.1813834E-04  0.1833548E+04  0.7818609E-02  0.8688660E-01
        1   -1    0    0  501    0  0.00000000000E+00  0.00000000000E+00  0.21384867569E+04  0.21384867569E+04  0.50400001928E-02 0. -1.
       -1   -1    0    0    0  501  0.00000000000E+00  0.00000000000E+00 -0.39302288201E+03  0.39302288204E+03  0.50400001928E-02 0.  1.
    10030    2    1    2    0    0  0.00000000000E+00  0.00000000000E+00  0.17454638749E+04  0.25315096389E+04  0.18335476306E+04 0.  0.
        5    1    3    3  502    0 -0.52454392082E+03  0.66291651614E+03  0.38294218322E+03  0.92804710976E+03  0.46999998093E+01 0.  1.
       -5    1    3    3    0  502  0.52454392082E+03 -0.66291651614E+03  0.13625216917E+04  0.16034625292E+04  0.46999998093E+01 0. -1.
</event>
<event>
 5   0  0.1782613E-04  0.1881178E+04  0.7818609E-02  0.8664282E-01
        1   -1    0    0  501    0  0.00000000000E+00  0.00000000000E+00  0.60589215874E+03  0.60589215876E+03  0.50400001928E-02 0.  1.
       -1   -1    0    0    0  501  0.00000000000E+00  0.00000000000E+00 -0.14601735534E+04  0.14601735534E+04  0.50400001928E-02 0. -1.
    10030    2    1    2    0    0  0.00000000000E+00  0.00000000000E+00 -0.85428139470E+03  0.20660657122E+04  0.18811780420E+04 0.  0.
        3    1    3    3  502    0 -0.54109196175E+02  0.65043640731E+03  0.31670774172E+03  0.72546476753E+03  0.10100000352E+00 0.  1.
       -3    1    3    3    0  502  0.54109196175E+02 -0.65043640731E+03 -0.11709891364E+04  0.13406009447E+04  0.10100000352E+00 0. -1.
</event>
<event>
 5   0  0.1758946E-04  0.1881149E+04  0.7818609E-02  0.8664297E-01
        1   -1    0    0  501    0  0.00000000000E+00  0.00000000000E+00  0.12137766092E+04  0.12137766092E+04  0.50400001928E-02 0.  1.
       -1   -1    0    0    0  501  0.00000000000E+00  0.00000000000E+00 -0.72886611462E+03  0.72886611464E+03  0.50400001928E-02 0. -1.
    10030    2    1    2    0    0  0.00000000000E+00  0.00000000000E+00  0.48491049461E+03  0.19426427239E+04  0.18811492670E+04 0.  0.
        2    1    3    3  502    0  0.58078996740E+03 -0.48949618611E+03 -0.33043805631E+03  0.82831926907E+03  0.25500000920E-02 0. -1.
       -2    1    3    3    0  502 -0.58078996740E+03  0.48949618611E+03  0.81534855092E+03  0.11143234548E+04  0.25500000920E-02 0.  1.
</event>
<event>
 5   0  0.3535876E-04  0.1935181E+04  0.7818609E-02  0.8637540E-01
       -2   -1    0    0    0  501  0.00000000000E+00  0.00000000000E+00  0.73093968184E+03  0.73093968184E+03  0.25500000920E-02 0. -1.
        2   -1    0    0  501    0  0.00000000000E+00  0.00000000000E+00 -0.12808594542E+04  0.12808594542E+04  0.25500000920E-02 0.  1.
    10030    2    1    2    0    0  0.00000000000E+00  0.00000000000E+00 -0.54991977232E+03  0.20117991360E+04  0.19351806137E+04 0.  0.
        2    1    3    3  502    0  0.29587626498E+03 -0.90732876116E+03 -0.10913672245E+03  0.96057226131E+03  0.25500000920E-02 0. -1.
       -2    1    3    3    0  502 -0.29587626498E+03  0.90732876116E+03 -0.44078304987E+03  0.10512268747E+04  0.25500000920E-02 0.  1.
</event>
<event>
 5   0  0.1758946E-04  0.2003466E+04  0.7818609E-02  0.8605002E-01
        1   -1    0    0  501    0  0.00000000000E+00  0.00000000000E+00  0.15248932559E+04  0.15248932559E+04  0.50400001928E-02 0. -1.
       -1   -1    0    0    0  501  0.00000000000E+00  0.00000000000E+00 -0.65805881357E+03  0.65805881359E+03  0.50400001928E-02 0.  1.
    10030    2    1    2    0    0  0.00000000000E+00  0.00000000000E+00  0.86683444233E+03  0.21829520695E+04  0.20034664428E+04 0.  0.
        2    1    3    3  502    0  0.95478698081E+03  0.13157735160E+03  0.13594052925E+03  0.97335019683E+03  0.25500000920E-02 0.  1.
       -2    1    3    3    0  502 -0.95478698081E+03 -0.13157735160E+03  0.73089391308E+03  0.12096018727E+04  0.25500000920E-02 0. -1.
</event>
<event>
 5   0  0.1758946E-04  0.1641213E+04  0.7818609E-02  0.8795622E-01
       -1   -1    0    0    0  501  0.00000000000E+00  0.00000000000E+00  0.37904683966E+03  0.37904683969E+03  0.50400001928E-02 0. -1.
        1   -1    0    0  501    0  0.00000000000E+00  0.00000000000E+00 -0.17765476704E+04  0.17765476704E+04  0.50400001928E-02 0.  1.
    10030    2    1    2    0    0  0.00000000000E+00  0.00000000000E+00 -0.13975008308E+04  0.21555945101E+04  0.16412126980E+04 0.  0.
        2    1    3    3  502    0 -0.55439297464E+03 -0.55335047514E+03 -0.10200583412E+04  0.12861054926E+04  0.25500000920E-02 0.  1.
       -2    1    3    3    0  502  0.55439297464E+03  0.55335047514E+03 -0.37744248961E+03  0.86948901755E+03  0.25500000920E-02 0. -1.
</event>
<event>
 5   0  0.1782613E-04  0.1815833E+04  0.7818609E-02  0.8697924E-01
       -1   -1    0    0    0  501  0.00000000000E+00  0.00000000000E+00  0.13656709693E+04  0.13656709693E+04  0.50400001928E-02 0.  1.
        1   -1    0    0  501    0  0.00000000000E+00  0.00000000000E+00 -0.60359547445E+03  0.60359547447E+03  0.50400001928E-02 0. -1.
    10030    2    1    2    0    0  0.00000000000E+00  0.00000000000E+00  0.76207549481E+03  0.19692664437E+04  0.18158334909E+04 0.  0.
        3    1    3    3  502    0  0.74490958178E+02 -0.29673250727E+03  0.13080854680E+04  0.13433862757E+04  0.10100000352E+00 0.  1.
       -3    1    3    3    0  502 -0.74490958178E+02  0.29673250727E+03 -0.54600997323E+03  0.62588016808E+03  0.10100000352E+00 0. -1.
</event>
<event>
 5   0  0.3720978E-04  0.1735778E+04  0.7818609E-02  0.8741218E-01
        2   -1    0    0  501    0  0.00000000000E+00  0.00000000000E+00  0.74638296681E+03  0.74638296681E+03  0.25500000920E-02 0.  1.
       -2   -1    0    0    0  501  0.00000000000E+00  0.00000000000E+00 -0.10091754110E+04  0.10091754110E+04  0.25500000920E-02 0. -1.
    10030    2    1    2    0    0  0.00000000000E+00  0.00000000000E+00 -0.26279244416E+03  0.17555583778E+04  0.17357780241E+04 0.  0.
        1    1    3    3  502    0 -0.87856832203E+02  0.70304337428E+03  0.37555674295E+03  0.80189255907E+03  0.50400001928E-02 0. -1.
       -1    1    3    3    0  502  0.87856832203E+02 -0.70304337428E+03 -0.63834918711E+03  0.95366581872E+03  0.50400001928E-02 0.  1.
</event>
<event>
 5   0  0.3516539E-04  0.1233131E+04  0.7818609E-02  0.9084341E-01
        2   -1    0    0  501    0  0.00000000000E+00  0.00000000000E+00  0.53305245916E+03  0.53305245917E+03  0.25500000920E-02 0. -1.
       -2   -1    0    0    0  501  0.00000000000E+00  0.00000000000E+00 -0.71316302195E+03  0.71316302195E+03  0.25500000920E-02 0.  1.
    10030    2    1    2    0    0  0.00000000000E+00  0.00000000000E+00 -0.18011056278E+03  0.12462154811E+04  0.12331314652E+04 0.  0.
        4    1    3    3  502    0 -0.32684145884E+03 -0.26130475463E+03 -0.54768013112E+03  0.68924643846E+03  0.12699999809E+01 0.  1.
       -4    1    3    3    0  502  0.32684145884E+03  0.26130475463E+03  0.36756956834E+03  0.55696904266E+03  0.12699999809E+01 0. -1.
</event>
<event>
 5   0  0.1694830E-04  0.1875397E+04  0.7818609E-02  0.8667201E-01
        1   -1    0    0  501    0  0.00000000000E+00  0.00000000000E+00  0.11517997128E+04  0.11517997129E+04  0.50400001928E-02 0.  1.
       -1   -1    0    0    0  501  0.00000000000E+00  0.00000000000E+00 -0.76339510083E+03  0.76339510084E+03  0.50400001928E-02 0. -1.
    10030    2    1    2    0    0  0.00000000000E+00  0.00000000000E+00  0.38840461202E+03  0.19151948137E+04  0.18753967665E+04 0.  0.
        1    1    3    3  502    0  0.58732147843E+03 -0.48101592097E+02  0.93907653231E+03  0.11086591071E+04  0.50400001928E-02 0.  1.
       -1    1    3    3    0  502 -0.58732147843E+03  0.48101592097E+02 -0.55067192030E+03  0.80653570660E+03  0.50400001928E-02 0. -1.
</event>
<event>
 5   0  0.3720978E-04  0.1920774E+04  0.7818609E-02  0.8644585E-01
       -2   -1    0    0    0  501  0.00000000000E+00  0.00000000000E+00  0.60250507255E+03  0.60250507256E+03  0.25500000920E-02 0.  1.
        2   -1    0    0  501    0  0.00000000000E+00  0.00000000000E+00 -0.15308466240E+04  0.15308466240E+04  0.25500000920E-02 0. -1.
    10030    2    1    2    0    0  0.00000000000E+00  0.00000000000E+00 -0.92834155145E+03  0.21333516966E+04  0.19207736527E+04 0.  0.
        1    1    3    3  502    0 -0.90996645240E+03  0.21328112418E+02 -0.80442313594E+03  0.12147388256E+04  0.50400001928E-02 0. -1.
       -1    1    3    3    0  502  0.90996645240E+03 -0.21328112418E+02 -0.12391841551E+03  0.91861287091E+03  0.50400001928E-02 0.  1.
</event>
<event>
 5   0  0.3516539E-04  0.1905223E+04  0.7818609E-02  0.8652261E-01
        2   -1    0    0  501    0  0.00000000000E+00  0.00000000000E+00  0.63176092557E+03  0.63176092557E+03  0.25500000920E-02 0. -1.
       -2   -1    0    0    0  501  0.00000000000E+00  0.00000000000E+00 -0.14364117375E+04  0.14364117375E+04  0.25500000920E-02 0.  1.
    10030    2    1    2    0    0  0.00000000000E+00  0.00000000000E+00 -0.80465081191E+03  0.20681726631E+04  0.19052231458E+04 0.  0.
        4    1    3    3  502    0  0.77058758810E+03  0.51841894513E+03 -0.17229655534E+03  0.94459046655E+03  0.12699999809E+01 0. -1.
       -4    1    3    3    0  502 -0.77058758810E+03 -0.51841894513E+03 -0.63235425657E+03  0.11235821965E+04  0.12699999809E+01 0.  1.
</event>
<event>
 5   0  0.3623359E-04  0.1825230E+04  0.7818609E-02  0.8692997E-01
        2   -1    0    0  501    0  0.00000000000E+00  0.00000000000E+00  0.17867662709E+04  0.17867662709E+04  0.25500000920E-02 0.  1.
       -2   -1    0    0    0  501  0.00000000000E+00  0.00000000000E+00 -0.46613026268E+03  0.46613026269E+03  0.25500000920E-02 0. -1.
    10030    2    1    2    0    0  0.00000000000E+00  0.00000000000E+00  0.13206360082E+04  0.22528965335E+04  0.18252296636E+04 0.  0.
        5    1    3    3  502    0 -0.11211172420E+03 -0.53008772752E+01  0.17781999668E+04  0.17817447488E+04  0.46999998093E+01 0.  1.
       -5    1    3    3    0  502  0.11211172420E+03  0.53008772752E+01 -0.45756395864E+03  0.47115178472E+03  0.46999998093E+01 0. -1.
</event>
<event>
 5   0  0.3720978E-04  0.1913337E+04  0.7818609E-02  0.8648246E-01
        2   -1    0    0  501    0  0.00000000000E+00  0.00000000000E+00  0.92834547689E+03  0.92834547690E+03  0.25500000920E-02 0. -1.
       -2   -1    0    0    0  501  0.00000000000E+00  0.00000000000E+00 -0.98585568886E+03  0.98585568886E+03  0.25500000920E-02 0.  1.
    10030    2    1    2    0    0  0.00000000000E+00  0.00000000000E+00 -0.57510211968E+02  0.19142011658E+04  0.19133370530E+04 0.  0.
        1    1    3    3  502    0  0.73411587136E+00  0.63194645624E+02  0.92625474479E+03  0.92840829080E+03  0.50400001928E-02 0. -1.
       -1    1    3    3    0  502 -0.73411587136E+00 -0.63194645624E+02 -0.98376495675E+03  0.98579287496E+03  0.50400001928E-02 0.  1.
</event>
<event>
 5   0  0.3623359E-04  0.1906616E+04  0.7818609E-02  0.8651570E-01
        2   -1    0    0  501    0  0.00000000000E+00  0.00000000000E+00  0.17913514446E+04  0.17913514446E+04  0.25500000920E-02 0. -1.
       -2   -1    0    0    0  501  0.00000000000E+00  0.00000000000E+00 -0.50732433482E+03  0.50732433483E+03  0.25500000920E-02 0.  1.
    10030    2    1    2    0    0  0.00000000000E+00  0.00000000000E+00  0.12840271097E+04  0.22986757794E+04  0.19066160390E+04 0.  0.
        5    1    3    3  502    0  0.18979172563E+03  0.48470040023E+03  0.16048734681E+04  0.16871859162E+04  0.46999998093E+01 0. -1.
       -5    1    3    3    0  502 -0.18979172563E+03 -0.48470040023E+03 -0.32084635840E+03  0.61148986320E+03  0.46999998093E+01 0.  1.
</event>
<event>
 5   0  0.3720978E-04  0.1879250E+04  0.7818609E-02  0.8665254E-01
        2   -1    0    0  501    0  0.00000000000E+00  0.00000000000E+00  0.17955130110E+04  0.17955130110E+04  0.25500000920E-02 0. -1.
       -2   -1    0    0    0  501  0.00000000000E+00  0.00000000000E+00 -0.49172331067E+03  0.49172331067E+03  0.25500000920E-02 0.  1.
    10030    2    1    2    0    0  0.00000000000E+00  0.00000000000E+00  0.13037897003E+04  0.22872363216E+04  0.18792504911E+04 0.  0.
        1    1    3    3  502    0  0.58666938186E+03 -0.73392520228E+03  0.66196343528E+03  0.11493575405E+04  0.50400001928E-02 0.  1.
       -1    1    3    3    0  502 -0.58666938186E+03  0.73392520228E+03  0.64182626503E+03  0.11378787812E+04  0.50400001928E-02 0. -1.
</event>
<event>
 5   0  0.1711979E-04  0.1663093E+04  0.7818609E-02  0.8782698E-01
        1   -1    0    0  501    0  0.00000000000E+00  0.00000000000E+00  0.73679944326E+03  0.73679944328E+03  0.50400001928E-02 0.  1.
       -1   -1    0    0    0  501  0.00000000000E+00  0.00000000000E+00 -0.93847692732E+03  0.93847692733E+03  0.50400001928E-02 0. -1.
    10030    2    1    2    0    0  0.00000000000E+00  0.00000000000E+00 -0.20167748406E+03  0.16752763706E+04  0.16630926343E+04 0.  0.
        4    1    3    3  502    0  0.42722505203E+03  0.61855175659E+03 -0.45888629225E+03  0.88074159819E+03  0.12699999809E+01 0. -1.
       -4    1    3    3    0  502 -0.42722505203E+03 -0.61855175659E+03  0.25720880819E+03  0.79453477242E+03  0.12699999809E+01 0.  1.
</event>
<event>
 5   0  0.1782613E-04  0.1426759E+04  0.7818609E-02  0.8934674E-01
        1   -1    0    0  501    0  0.00000000000E+00  0.00000000000E+00  0.18377515438E+04  0.18377515438E+04  0.50400001928E-02 0.  1.
       -1   -1    0    0    0  501  0.00000000000E+00  0.00000000000E+00 -0.27692005817E+03  0.27692005822E+03  0.50400001928E-02 0. -1.
    10030    2    1    2    0    0  0.00000000000E+00  0.00000000000E+00  0.15608314856E+04  0.21146716020E+04  0.14267589348E+04 0.  0.
        3    1    3    3  502    0  0.19719206683E+03 -0.27760805740E+02  0.17957212257E+04  0.18067291176E+04  0.10100000352E+00 0.  1.
       -3    1    3    3    0  502 -0.19719206683E+03  0.27760805740E+02 -0.23488974007E+03  0.30794248448E+03  0.10100000352E+00 0. -1.
</event>
<event>
 5   0  0.3720978E-04  0.1923216E+04  0.7818609E-02  0.8643386E-01
        2   -1    0    0  501    0  0.00000000000E+00  0.00000000000E+00  0.13229601420E+04  0.13229601420E+04  0.25500000920E-02 0. -1.
       -2   -1    0    0    0  501  0.00000000000E+00  0.00000000000E+00 -0.69895511086E+03  0.69895511087E+03  0.25500000920E-02 0.  1.
    10030    2    1    2    0    0  0.00000000000E+00  0.00000000000E+00  0.62400503112E+03  0.20219152529E+04  0.19232157993E+04 0.  0.
        1    1    3    3  502    0 -0.84050711019E+02 -0.40980099434E+03  0.12222831821E+04  0.12918891417E+04  0.50400001928E-02 0. -1.
       -1    1    3    3    0  502  0.84050711019E+02  0.40980099434E+03 -0.59827815103E+03  0.73002611118E+03  0.50400001928E-02 0.  1.
</event>
<event>
 5   0  0.1758946E-04  0.1447875E+04  0.7818609E-02  0.8919875E-01
       -1   -1    0    0    0  501  0.00000000000E+00  0.00000000000E+00  0.38461383755E+03  0.38461383759E+03  0.50400001928E-02 0.  1.
        1   -1    0    0  501    0  0.00000000000E+00  0.00000000000E+00 -0.13626269948E+04  0.13626269948E+04  0.50400001928E-02 0. -1.
    10030    2    1    2    0    0  0.00000000000E+00  0.00000000000E+00 -0.97801315727E+03  0.17472408324E+04  0.14478745770E+04 0.  0.
        2    1    3    3  502    0 -0.36217113860E+02  0.67736215369E+02 -0.13576956986E+04  0.13598667156E+04  0.25500000920E-02 0. -1.
       -2    1    3    3    0  502  0.36217113860E+02 -0.67736215369E+02  0.37968254131E+03  0.38737411683E+03  0.25500000920E-02 0.  1.
</event>
<event>
 5   0  0.3535876E-04  0.1880792E+04  0.7818609E-02  0.8664477E-01
        2   -1    0    0  501    0  0.00000000000E+00  0.00000000000E+00  0.78531202887E+03  0.78531202888E+03  0.25500000920E-02 0. -1.
       -2   -1    0    0    0  501  0.00000000000E+00  0.00000000000E+00 -0.11261064469E+04  0.11261064469E+04  0.25500000920E-02 0.  1.
    10030    2    1    2    0    0  0.00000000000E+00  0.00000000000E+00 -0.34079441807E+03  0.19114184758E+04  0.18807923209E+04 0.  0.
        2    1    3    3  502    0 -0.14222530709E+03  0.27190217709E+03 -0.10737962630E+04  0.11167798558E+04  0.25500000920E-02 0.  1.
       -2    1    3    3    0  502  0.14222530709E+03 -0.27190217709E+03  0.73300184489E+03  0.79463862006E+03  0.25500000920E-02 0. -1.
</event>
<event>
 5   0  0.1711979E-04  0.1907243E+04  0.7818609E-02  0.8651259E-01
       -1   -1    0    0    0  501  0.00000000000E+00  0.00000000000E+00  0.90493314421E+03  0.90493314423E+03  0.50400001928E-02 0.  1.
        1   -1    0    0  501    0  0.00000000000E+00  0.00000000000E+00 -0.10049295601E+04  0.10049295601E+04  0.50400001928E-02 0. -1.
    10030    2    1    2    0    0  0.00000000000E+00  0.00000000000E+00 -0.99996415894E+02  0.19098627043E+04  0.19072431062E+04 0.  0.
        4    1    3    3  502    0 -0.86581308842E+02 -0.80113073337E+03 -0.56068463288E+03  0.98166982506E+03  0.12699999809E+01 0. -1.
       -4    1    3    3    0  502  0.86581308842E+02  0.80113073337E+03  0.46068821698E+03  0.92819287929E+03  0.12699999809E+01 0.  1.
</event>
<event>
 5   0  0.3623359E-04  0.1876810E+04  0.7818609E-02  0.8666486E-01
       -2   -1    0    0    0  501  0.00000000000E+00  0.00000000000E+00  0.10505854364E+04  0.10505854364E+04  0.25500000920E-02 0. -1.
        2   -1    0    0  501    0  0.00000000000E+00  0.00000000000E+00 -0.83820329826E+03  0.83820329827E+03  0.25500000920E-02 0.  1.
    10030    2    1    2    0    0  0.00000000000E+00  0.00000000000E+00  0.21238213816E+03  0.18887887347E+04  0.18768102492E+04 0.  0.
        5    1    3    3  502    0  0.55056510577E+03 -0.37035575342E+03  0.77397469539E+03  0.10194823387E+04  0.46999998093E+01 0. -1.
       -5    1    3    3    0  502 -0.55056510577E+03  0.37035575342E+03 -0.56159255724E+03  0.86930639600E+03  0.46999998093E+01 0.  1.
</event>
<event>
 5   0  0.1711979E-04  0.1891270E+04  0.7818609E-02  0.8659214E-01
        1   -1    0    0  501    0  0.00000000000E+00  0.00000000000E+00  0.11634410477E+04  0.11634410477E+04  0.50400001928E-02 0. -1.
       -1   -1    0    0    0  501  0.00000000000E+00  0.00000000000E+00 -0.76860424132E+03  0.76860424134E+03  0.50400001928E-02 0.  1.
    10030    2    1    2    0    0  0.00000000000E+00  0.00000000000E+00  0.39483680633E+03  0.19320452890E+04  0.18912701804E+04 0.  0.
        4    1    3    3  502    0 -0.87043586583E+03 -0.10514821854E+03 -0.16449260749E+03  0.89206175526E+03  0.12699999809E+01 0.  1.
       -4    1    3    3    0  502  0.87043586583E+03  0.10514821854E+03  0.55932941383E+03  0.10399835337E+04  0.12699999809E+01 0. -1.
</event>
<event>
 5   0  0.3720978E-04  0.1887068E+04  0.7818609E-02  0.8661320E-01
        2   -1    0    0  501    0  0.00000000000E+00  0.00000000000E+00  0.11415290857E+04  0.11415290857E+04  0.25500000920E-02 0. -1.
       -2   -1    0    0    0  501  0.00000000000E+00  0.00000000000E+00 -0.77988098749E+03  0.77988098750E+03  0.25500000920E-02 0.  1.
    10030    2    1    2    0    0  0.00000000000E+00  0.00000000000E+00  0.36164809819E+03  0.19214100732E+04  0.18870684467E+04 0.  0.
        1    1    3    3  502    0 -0.58870262646E+03  0.51515169367E+03 -0.35632244268E+03  0.85960324166E+03  0.50400001928E-02 0.  1.
       -1    1    3    3    0  502  0.58870262646E+03 -0.51515169367E+03  0.71797054087E+03  0.10618068315E+04  0.50400001928E-02 0. -1.
</event>
<event>
 5   0  0.1758946E-04  0.1888317E+04  0.7818609E-02  0.8660694E-01
       -1   -1    0    0    0  501  0.00000000000E+00  0.00000000000E+00  0.11660905268E+04  0.11660905268E+04  0.50400001928E-02 0. -1.
        1   -1    0    0  501    0  0.00000000000E+00  0.00000000000E+00 -0.76446474296E+03  0.76446474298E+03  0.50400001928E-02 0.  1.
    10030    2    1    2    0    0  0.00000000000E+00  0.00000000000E+00  0.40162578381E+03  0.19305552698E+04  0.18883168112E+04 0.  0.
        2    1    3    3  502    0  0.50898040942E+03  0.79504003144E+03  0.21808414186E+03  0.96887068368E+03  0.25500000920E-02 0. -1.
       -2    1    3    3    0  502 -0.50898040942E+03 -0.79504003144E+03  0.18354164195E+03  0.96168458608E+03  0.25500000920E-02 0.  1.
</event>
<event>
 5   0  0.1758946E-04  0.1926602E+04  0.7818609E-02  0.8641727E-01
        1   -1    0    0  501    0  0.00000000000E+00  0.00000000000E+00  0.11572620198E+04  0.11572620198E+04  0.50400001928E-02 0.  1.
       -1   -1    0    0    0  501  0.00000000000E+00  0.00000000000E+00 -0.80184889757E+03  0.80184889759E+03  0.50400001928E-02 0. -1.
    10030    2    1    2    0    0  0.00000000000E+00  0.00000000000E+00  0.35541312224E+03  0.19591109174E+04  0.19266024757E+04 0.  0.
        2    1    3    3  502    0  0.35830452467E+03 -0.55670310890E+03 -0.53384971568E+03  0.85046810804E+03  0.25500000920E-02 0. -1.
       -2    1    3    3    0  502 -0.35830452467E+03  0.55670310890E+03  0.88926283792E+03  0.11086428094E+04  0.25500000920E-02 0.  1.
</event>
<event>
 5   0  0.1782613E-04  0.1925535E+04  0.7818609E-02  0.8642249E-01
        1   -1    0    0  501    0  0.00000000000E+00  0.00000000000E+00  0.62232830107E+03  0.62232830109E+03  0.50400001928E-02 0.  1.
       -1   -1    0    0    0  501  0.00000000000E+00  0.00000000000E+00 -0.14894415132E+04  0.14894415132E+04  0.50400001928E-02 0. -1.
    10030    2    1    2    0    0  0.00000000000E+00  0.00000000000E+00 -0.86711321211E+03  0.21117698143E+04  0.19255353608E+04 0.  0.
        3    1    3    3  502    0 -0.32479997180E+03 -0.90536539221E+03 -0.38780779275E+03  0.10370999997E+04  0.10100000352E+00 0.  1.
       -3    1    3    3    0  502  0.32479997180E+03  0.90536539221E+03 -0.47930541936E+03  0.10746698146E+04  0.10100000352E+00 0. -1.
</event>
<event>
 5   0  0.1813834E-04  0.1858675E+04  0.7818609E-02  0.8675705E-01
       -1   -1    0    0    0  501  0.00000000000E+00  0.00000000000E+00  0.72119211664E+03  0.72119211665E+03  0.50400001928E-02 0. -1.
        1   -1    0    0  501    0  0.00000000000E+00  0.00000000000E+00 -0.11975558217E+04  0.11975558217E+04  0.50400001928E-02 0.  1.
    10030    2    1    2    0    0  0.00000000000E+00  0.00000000000E+00 -0.47636370504E+03  0.19187479383E+04  0.18586746007E+04 0.  0.
        5    1    3    3  502    0 -0.87265300724E+03  0.83968121396E+02 -0.55648464319E+03  0.10383983651E+04  0.46999998093E+01 0.  1.
       -5    1    3    3    0  502  0.87265300724E+03 -0.83968121396E+02  0.80120938144E+02  0.88034957328E+03  0.46999998093E+01 0. -1.
</event>
<event>
 5   0  0.1711979E-04  0.1923370E+04  0.7818609E-02  0.8643310E-01
        1   -1    0    0  501    0  0.00000000000E+00  0.00000000000E+00  0.14494778046E+04  0.14494778046E+04  0.50400001928E-02 0. -1.
       -1   -1    0    0    0  501  0.00000000000E+00  0.00000000000E+00 -0.63804920271E+03  0.63804920273E+03  0.50400001928E-02 0.  1.
    10030    2    1    2    0    0  0.00000000000E+00  0.00000000000E+00  0.81142860189E+03  0.20875270073E+04  0.19233701231E+04 0.  0.
        4    1    3    3  502    0  0.79381279983E+03  0.38076597227E+03 -0.14239946931E+02  0.88052590865E+03  0.12699999809E+01 0. -1.
       -4    1    3    3    0  502 -0.79381279983E+03 -0.38076597227E+03  0.82566854882E+03  0.12070010987E+04  0.12699999809E+01 0.  1.
</event>
<event>
 5   0  0.3516539E-04  0.1894314E+04  0.7818609E-02  0.8657692E-01
       -2   -1    0    0    0  501  0.00000000000E+00  0.00000000000E+00  0.58680619996E+03  0.58680619997E+03  0.25500000920E-02 0. -1.
        2   -1    0    0  501    0  0.00000000000E+00  0.00000000000E+00 -0.15287945295E+04  0.15287945295E+04  0.25500000920E-02 0.  1.
    10030    2    1    2    0    0  0.00000000000E+00  0.00000000000E+00 -0.94198832958E+03  0.21156007295E+04  0.18943137105E+04 0.  0.
        4    1    3    3  502    0  0.10845318185E+03  0.89263544146E+03 -0.80331860765E+03  0.12057705098E+04  0.12699999809E+01 0.  1.
       -4    1    3    3    0  502 -0.10845318185E+03 -0.89263544146E+03 -0.13866972193E+03  0.90983021971E+03  0.12699999809E+01 0. -1.
</event>
<event>
 5   0  0.3720978E-04  0.1823099E+04  0.7818609E-02  0.8694111E-01
        2   -1    0    0  501    0  0.00000000000E+00  0.00000000000E+00  0.21437602807E+04  0.21437602807E+04  0.25500000920E-02 0.  1.
       -2   -1    0    0    0  501  0.00000000000E+00  0.00000000000E+00 -0.38760061796E+03  0.38760061797E+03  0.25500000920E-02 0. -1.
    10030    2    1    2    0    0  0.00000000000E+00  0.00000000000E+00  0.17561596628E+04  0.25313608987E+04  0.18230993496E+04 0.  0.
        1    1    3    3  502    0  0.81342344940E+03 -0.19436218739E+03  0.37459369065E+03  0.91638136222E+03  0.50400001928E-02 0. -1.
       -1    1    3    3    0  502 -0.81342344940E+03  0.19436218739E+03  0.13815659721E+04  0.16149795365E+04  0.50400001928E-02 0.  1.
</event>
<event>
 5   0  0.3623359E-04  0.1912408E+04  0.7818609E-02  0.8648705E-01
        2   -1    0    0  501    0  0.00000000000E+00  0.00000000000E+00  0.10189836875E+04  0.10189836876E+04  0.25500000920E-02 0. -1.
       -2   -1    0    0    0  501  0.00000000000E+00  0.00000000000E+00 -0.89729202789E+03  0.89729202789E+03  0.25500000920E-02 0.  1.
    10030    2    1    2    0    0  0.00000000000E+00  0.00000000000E+00  0.12169165966E+03  0.19162757154E+04  0.19124078429E+04 0.  0.
        5    1    3    3  502    0  0.53323609800E+03 -0.50356987322E+03 -0.55389355037E+03  0.91909929201E+03  0.46999998093E+01 0.  1.
       -5    1    3    3    0  502 -0.53323609800E+03  0.50356987322E+03  0.67558521003E+03  0.99717642343E+03  0.46999998093E+01 0. -1.
</event>
<event>
 5   0  0.3535876E-04  0.1917432E+04  0.7818609E-02  0.8646228E-01
       -2   -1    0    0    0  501  0.00000000000E+00  0.00000000000E+00  0.54710598692E+03  0.54710598693E+03  0.25500000920E-02 0. -1.
        2   -1    0    0  501    0  0.00000000000E+00  0.00000000000E+00 -0.16799962917E+04  0.16799962917E+04  0.25500000920E-02 0.  1.
    10030    2    1    2    0    0  0.00000000000E+00  0.00000000000E+00 -0.11328903048E+04  0.22271022786E+04  0.19174316459E+04 0.  0.
        2    1    3    3  502    0  0.80774105909E+03 -0.43204405101E+03 -0.89502596485E+03  0.12806947951E+04  0.25500000920E-02 0.  1.
       -2    1    3    3    0  502 -0.80774105909E+03  0.43204405101E+03 -0.23786433990E+03  0.94640748346E+03  0.25500000920E-02 0. -1.
</event>
<event>
 5   0  0.1758946E-04  0.1924328E+04  0.7818609E-02  0.8642841E-01
        1   -1    0    0  501    0  0.00000000000E+00  0.00000000000E+00  0.10568246876E+04  0.10568246877E+04  0.50400001928E-02 0. -1.
       -1   -1    0    0    0  501  0.00000000000E+00  0.00000000000E+00 -0.87598198902E+03  0.87598198903E+03  0.50400001928E-02 0.  1.
    10030    2    1    2    0    0  0.00000000000E+00  0.00000000000E+00  0.18084269863E+03  0.19328066767E+04  0.19243278223E+04 0.  0.
        2    1    3    3  502    0  0.69969718380E+03 -0.65367903980E+03 -0.42646723034E+01  0.95754405827E+03  0.25500000920E-02 0.  1.
       -2    1    3    3    0  502 -0.69969718380E+03  0.65367903980E+03  0.18510737093E+03  0.97526261841E+03  0.25500000920E-02 0. -1.
</event>
<event>
 5   0  0.1694830E-04  0.1936493E+04  0.7818609E-02  0.8636902E-01
       -1   -1    0    0    0  501  0.00000000000E+00  0.00000000000E+00  0.71852766267E+03  0.71852766269E+03  0.50400001928E-02 0.  1.
        1   -1    0    0  501    0  0.00000000000E+00  0.00000000000E+00 -0.13047531190E+04  0.13047531190E+04  0.50400001928E-02 0. -1.
    10030    2    1    2    0    0  0.00000000000E+00  0.00000000000E+00 -0.58622545634E+03  0.20232807817E+04  0.19364929217E+04 0.  0.
        1    1    3    3  502    0 -0.68795407069E+03  0.54665677746E+03 -0.71801654227E+03  0.11347520393E+04  0.50400001928E-02 0. -1.
       -1    1    3    3    0  502  0.68795407069E+03 -0.54665677746E+03  0.13179108593E+03  0.88852874240E+03  0.50400001928E-02 0.  1.
</event>
<event>
 5   0  0.3623359E-04  0.1901898E+04  0.7818609E-02  0.8653912E-01
        2   -1    0    0  501    0  0.00000000000E+00  0.00000000000E+00  0.69582794312E+03  0.69582794313E+03  0.25500000920E-02 0.  1.
       -2   -1    0    0    0  501  0.00000000000E+00  0.00000000000E+00 -0.12996088111E+04  0.12996088111E+04  0.25500000920E-02 0. -1.
    10030    2    1    2    0    0  0.00000000000E+00  0.00000000000E+00 -0.60378086795E+03  0.19954367542E+04  0.19018981317E+04 0.  0.
        5    1    3    3  502    0  0.20588928900E+03  0.92835218075E+03 -0.29419019454E+03  0.99538843242E+03  0.46999998093E+01 0.  1.
       -5    1    3    3    0  502 -0.20588928900E+03 -0.92835218075E+03 -0.30959067341E+03  0.10000483218E+04  0.46999998093E+01 0. -1.
</event>
<event>
 5   0  0.3720978E-04  0.1837821E+04  0.7818609E-02  0.8686441E-01
        2   -1    0    0  501    0  0.00000000000E+00  0.00000000000E+00  0.12042069236E+04  0.12042069236E+04  0.25500000920E-02 0.  1.
       -2   -1    0    0    0  501  0.00000000000E+00  0.00000000000E+00 -0.70120560878E+03  0.70120560878E+03  0.25500000920E-02 0. -1.
    10030    2    1    2    0    0  0.00000000000E+00  0.00000000000E+00  0.50300131480E+03  0.19054125324E+04  0.18378211545E+04 0.  0.
        1    1    3    3  502    0  0.10845263190E+03  0.60083257864E+03 -0.46051367018E+03  0.76474479493E+03  0.50400001928E-02 0. -1.
       -1    1    3    3    0  502 -0.10845263190E+03 -0.60083257864E+03  0.96351498498E+03  0.11406677374E+04  0.50400001928E-02 0.  1.
</event>
<event>
 5   0  0.1813834E-04  0.1934192E+04  0.7818609E-02  0.8638021E-01
        1   -1    0    0  501    0  0.00000000000E+00  0.00000000000E+00  0.14776784251E+04  0.14776784251E+04  0.50400001928E-02 0.  1.
       -1   -1    0    0    0  501  0.00000000000E+00  0.00000000000E+00 -0.63293535641E+03  0.63293535643E+03  0.50400001928E-02 0. -1.
    10030    2    1    2    0    0  0.00000000000E+00  0.00000000000E+00  0.84474306873E+03  0.21106137816E+04  0.19341922559E+04 0.  0.
        5    1    3    3  502    0 -0.74051725182E+03  0.16323519455E+03  0.10773181180E+04  0.13174399214E+04  0.46999998093E+01 0.  1.
       -5    1    3    3    0  502  0.74051725182E+03 -0.16323519455E+03 -0.23257504929E+03  0.79317386022E+03  0.46999998093E+01 0. -1.
</event>
<event>
 5   0  0.1782613E-04  0.1874631E+04  0.7818609E-02  0.8667588E-01
        1   -1    0    0  501    0  0.00000000000E+00  0.00000000000E+00  0.96416927758E+03  0.96416927760E+03  0.50400001928E-02 0. -1.
       -1   -1    0    0    0  501  0.00000000000E+00  0.00000000000E+00 -0.91120968438E+03  0.91120968440E+03  0.50400001928E-02 0.  1.
    10030    2    1    2    0    0  0.00000000000E+00  0.00000000000E+00  0.52959593200E+02  0.18753789620E+04  0.18746310391E+04 0.  0.
        3    1    3    3  502    0  0.91617394314E+02 -0.93245946889E+03  0.27841595524E+00  0.93694956950E+03  0.10100000352E+00 0. -1.
       -3    1    3    3    0  502 -0.91617394314E+02  0.93245946889E+03  0.52681177245E+02  0.93842939250E+03  0.10100000352E+00 0.  1.
</event>
<event>
 5   0  0.3623359E-04  0.1893491E+04  0.7818609E-02  0.8658103E-01
       -2   -1    0    0    0  501  0.00000000000E+00  0.00000000000E+00  0.51030999834E+03  0.51030999835E+03  0.25500000920E-02 0.  1.
        2   -1    0    0  501    0  0.00000000000E+00  0.00000000000E+00 -0.17564360481E+04  0.17564360481E+04  0.25500000920E-02 0. -1.
    10030    2    1    2    0    0  0.00000000000E+00  0.00000000000E+00 -0.12461260497E+04  0.22667460464E+04  0.18934908257E+04 0.  0.
        5    1    3    3  502    0 -0.93718483915E+02 -0.89289199085E+03 -0.26339600333E+03  0.93564886904E+03  0.46999998093E+01 0. -1.
       -5    1    3    3    0  502  0.93718483915E+02  0.89289199085E+03 -0.98273004641E+03  0.13310971774E+04  0.46999998093E+01 0.  1.
</event>
<event>
 5   0  0.1782613E-04  0.1953485E+04  0.7818609E-02  0.8628682E-01
        1   -1    0    0  501    0  0.00000000000E+00  0.00000000000E+00  0.13517061646E+04  0.13517061646E+04  0.50400001928E-02 0. -1.
       -1   -1    0    0    0  501  0.00000000000E+00  0.00000000000E+00 -0.70579401568E+03  0.70579401570E+03  0.50400001928E-02 0.  1.
    10030    2    1    2    0    0  0.00000000000E+00  0.00000000000E+00  0.64591214889E+03  0.20575001803E+04  0.19534852156E+04 0.  0.
        3    1    3    3  502    0  0.26158176105E+03 -0.68870816073E+03  0.99841616022E+03  0.12407976417E+04  0.10100000352E+00 0. -1.
       -3    1    3    3    0  502 -0.26158176105E+03  0.68870816073E+03 -0.35250401134E+03  0.81670253861E+03  0.10100000352E+00 0.  1.
</event>
<event>
 5   0  0.3623359E-04  0.2017476E+04  0.7818609E-02  0.8598494E-01
        2   -1    0    0  501    0  0.00000000000E+00  0.00000000000E+00  0.85385393815E+03  0.85385393816E+03  0.25500000920E-02 0. -1.
       -2   -1    0    0    0  501  0.00000000000E+00  0.00000000000E+00 -0.11917167929E+04  0.11917167929E+04  0.25500000920E-02 0.  1.
    10030    2    1    2    0    0  0.00000000000E+00  0.00000000000E+00 -0.33786285474E+03  0.20455707311E+04  0.20174757265E+04 0.  0.
        5    1    3    3  502    0  0.57891353254E+03  0.81636580170E+03 -0.29692720954E+03  0.10439261746E+04  0.46999998093E+01 0.  1.
       -5    1    3    3    0  502 -0.57891353254E+03 -0.81636580170E+03 -0.40935645205E+02  0.10016445564E+04  0.46999998093E+01 0. -1.
</event>
<event>
 5   0  0.1758946E-04  0.1889527E+04  0.7818609E-02  0.8660087E-01
       -1   -1    0    0    0  501  0.00000000000E+00  0.00000000000E+00  0.47958831749E+03  0.47958831752E+03  0.50400001928E-02 0. -1.
        1   -1    0    0  501    0  0.00000000000E+00  0.00000000000E+00 -0.18611338097E+04  0.18611338097E+04  0.50400001928E-02 0.  1.
    10030    2    1    2    0    0  0.00000000000E+00  0.00000000000E+00 -0.13815454922E+04  0.23407221273E+04  0.18895269593E+04 0.  0.
        2    1    3    3  502    0 -0.10597890075E+03  0.69195898132E+03  0.95188073736E+02  0.70646976483E+03  0.25500000920E-02 0. -1.
       -2    1    3    3    0  502  0.10597890075E+03 -0.69195898132E+03 -0.14767335660E+04  0.16342523624E+04  0.25500000920E-02 0.  1.
</event>
<event>
 5   0  0.3720978E-04  0.1898037E+04  0.7818609E-02  0.8655834E-01
        2   -1    0    0  501    0  0.00000000000E+00  0.00000000000E+00  0.11065643579E+04  0.11065643579E+04  0.25500000920E-02 0.  1.
       -2   -1    0    0    0  501  0.00000000000E+00  0.00000000000E+00 -0.81390327489E+03  0.81390327490E+03  0.25500000920E-02 0. -1.
    10030    2    1    2    0    0  0.00000000000E+00  0.00000000000E+00  0.29266108300E+03  0.19204676328E+04  0.18980372544E+04 0.  0.
        1    1    3    3  502    0  0.80246648819E+03  0.40412098532E+03 -0.16284577338E+03  0.91311827349E+03  0.50400001928E-02 0. -1.
       -1    1    3    3    0  502 -0.80246648819E+03 -0.40412098532E+03  0.45550685638E+03  0.10073493593E+04  0.50400001928E-02 0.  1.
</event>
<event>
 5   0  0.1758946E-04  0.1935507E+04  0.7818609E-02  0.8637381E-01
       -1   -1    0    0    0  501  0.00000000000E+00  0.00000000000E+00  0.95079727099E+03  0.95079727101E+03  0.50400001928E-02 0.  1.
        1   -1    0    0  501    0  0.00000000000E+00  0.00000000000E+00 -0.98501262094E+03  0.98501262095E+03  0.50400001928E-02 0. -1.
    10030    2    1    2    0    0  0.00000000000E+00  0.00000000000E+00 -0.34215349947E+02  0.19358098920E+04  0.19355074910E+04 0.  0.
        2    1    3    3  502    0  0.71757253948E+02  0.89967115372E+03  0.33221759702E+03  0.96173063802E+03  0.25500000920E-02 0.  1.
       -2    1    3    3    0  502 -0.71757253948E+02 -0.89967115372E+03 -0.36643294697E+03  0.97407925394E+03  0.25500000920E-02 0. -1.
</event>
<event>
 5   0  0.3516539E-04  0.1854564E+04  0.7818609E-02  0.8677809E-01
       -2   -1    0    0    0  501  0.00000000000E+00  0.00000000000E+00  0.74276925018E+03  0.74276925019E+03  0.25500000920E-02 0. -1.
        2   -1    0    0  501    0  0.00000000000E+00  0.00000000000E+00 -0.11576299919E+04  0.11576299919E+04  0.25500000920E-02 0.  1.
    10030    2    1    2    0    0  0.00000000000E+00  0.00000000000E+00 -0.41486074170E+03  0.19003992421E+04  0.18545640577E+04 0.  0.
        4    1    3    3  502    0 -0.87065938175E+03  0.12147449113E+03 -0.50975864107E+03  0.10161984531E+04  0.12699999809E+01 0.  1.
       -4    1    3    3    0  502  0.87065938175E+03 -0.12147449113E+03  0.94897899371E+02  0.88420078898E+03  0.12699999809E+01 0. -1.
</event>
<event>
 5   0  0.1711979E-04  0.1929348E+04  0.7818609E-02  0.8640384E-01
        1   -1    0    0  501    0  0.00000000000E+00  0.00000000000E+00  0.50166530001E+03  0.50166530003E+03  0.50400001928E-02 0.  1.
       -1   -1    0    0    0  501  0.00000000000E+00  0.00000000000E+00 -0.18550139304E+04  0.18550139304E+04  0.50400001928E-02 0. -1.
    10030    2    1    2    0    0  0.00000000000E+00  0.00000000000E+00 -0.13533486304E+04  0.23566792304E+04  0.19293482008E+04 0.  0.
        4    1    3    3  502    0 -0.67358372577E+03  0.65601250073E+02 -0.15163772418E+04  0.16605481360E+04  0.12699999809E+01 0. -1.
       -4    1    3    3    0  502  0.67358372577E+03 -0.65601250073E+02  0.16302861139E+03  0.69613109445E+03  0.12699999809E+01 0.  1.
</event>
<event>
 5   0  0.1287000E-04  0.2047110E+04  0.7818609E-02  0.8584906E-01
       -4   -1    0    0    0  501  0.00000000000E+00  0.00000000000E+00  0.84413501971E+03  0.84413597507E+03  0.12699999809E+01 0. -1.
        4   -1    0    0  501    0  0.00000000000E+00  0.00000000000E+00 -0.12411086231E+04  0.12411092729E+04  0.12699999809E+01 0.  1.
    10030    2    1    2    0    0  0.00000000000E+00  0.00000000000E+00 -0.39697360337E+03  0.20852452479E+04  0.20471100855E+04 0.  0.
        5    1    3    3  502    0  0.10090125542E+04 -0.10393990695E+03 -0.33790503409E+03  0.10691640383E+04  0.46999998093E+01 0.  1.
       -5    1    3    3    0  502 -0.10090125542E+04  0.10393990695E+03 -0.59068569274E+02  0.10160812096E+04  0.46999998093E+01 0. -1.
</event>
<event>
 5   0  0.1813834E-04  0.1608709E+04  0.7818609E-02  0.8815216E-01
       -1   -1    0    0    0  501  0.00000000000E+00  0.00000000000E+00  0.72896922166E+03  0.72896922168E+03  0.50400001928E-02 0. -1.
        1   -1    0    0  501    0  0.00000000000E+00  0.00000000000E+00 -0.88753550285E+03  0.88753550286E+03  0.50400001928E-02 0.  1.
    10030    2    1    2    0    0  0.00000000000E+00  0.00000000000E+00 -0.15856628119E+03  0.16165047245E+04  0.16087088795E+04 0.  0.
        5    1    3    3  502    0 -0.12278474726E+02  0.11154895198E+03  0.72105009631E+03  0.72974602501E+03  0.46999998093E+01 0. -1.
       -5    1    3    3    0  502  0.12278474726E+02 -0.11154895198E+03 -0.87961637750E+03  0.88675869953E+03  0.46999998093E+01 0.  1.
</event>
<event>
 5   0  0.1758946E-04  0.1911312E+04  0.7818609E-02  0.8649246E-01
        1   -1    0    0  501    0  0.00000000000E+00  0.00000000000E+00  0.11691267272E+04  0.11691267272E+04  0.50400001928E-02 0. -1.
       -1   -1    0    0    0  501  0.00000000000E+00  0.00000000000E+00 -0.78116313435E+03  0.78116313437E+03  0.50400001928E-02 0.  1.
    10030    2    1    2    0    0  0.00000000000E+00  0.00000000000E+00  0.38796359288E+03  0.19502898616E+04  0.19113123227E+04 0.  0.
        2    1    3    3  502    0  0.13052218064E+03 -0.35034160418E+03 -0.70344415115E+03  0.79662347006E+03  0.25500000920E-02 0.  1.
       -2    1    3    3    0  502 -0.13052218064E+03  0.35034160418E+03  0.10914077440E+04  0.11536663916E+04  0.25500000920E-02 0. -1.
</event>
<event>
 5   0  0.1782613E-04  0.1885368E+04  0.7818609E-02  0.8662174E-01
       -1   -1    0    0    0  501  0.00000000000E+00  0.00000000000E+00  0.69753343470E+03  0.69753343472E+03  0.50400001928E-02 0. -1.
        1   -1    0    0  501    0  0.00000000000E+00  0.00000000000E+00 -0.12739942403E+04  0.12739942403E+04  0.50400001928E-02 0.  1.
    10030    2    1    2    0    0  0.00000000000E+00  0.00000000000E+00 -0.57646080557E+03  0.19715276750E+04  0.18853684820E+04 0.  0.
        3    1    3    3  502    0  0.21852238468E+03  0.67737198431E+03  0.35813392883E+03  0.79677145965E+03  0.10100000352E+00 0. -1.
       -3    1    3    3    0  502 -0.21852238468E+03 -0.67737198431E+03 -0.93459473440E+03  0.11747562153E+04  0.10100000352E+00 0.  1.
</event>
<event>
 5   0  0.1813834E-04  0.1888001E+04  0.7818609E-02  0.8660852E-01
       -1   -1    0    0    0  501  0.00000000000E+00  0.00000000000E+00  0.17864479810E+04  0.17864479810E+04  0.50400001928E-02 0. -1.
        1   -1    0    0  501    0  0.00000000000E+00  0.00000000000E+00 -0.49883193897E+03  0.49883193899E+03  0.50400001928E-02 0.  1.
    10030    2    1    2    0    0  0.00000000000E+00  0.00000000000E+00  0.12876160420E+04  0.22852799200E+04  0.18880013880E+04 0.  0.
        5    1    3    3  502    0 -0.11908399620E+03  0.17433699882E+03 -0.46987359332E+03  0.51514820295E+03  0.46999998093E+01 0.  1.
       -5    1    3    3    0  502  0.11908399620E+03 -0.17433699882E+03  0.17574896353E+04  0.17701317170E+04  0.46999998093E+01 0. -1.
</event>
<event>
 5   0  0.1813834E-04  0.1930306E+04  0.7818609E-02  0.8639916E-01
       -1   -1    0    0    0  501  0.00000000000E+00  0.00000000000E+00  0.89914958778E+03  0.89914958779E+03  0.50400001928E-02 0. -1.
        1   -1    0    0  501    0  0.00000000000E+00  0.00000000000E+00 -0.10360018347E+04  0.10360018348E+04  0.50400001928E-02 0.  1.
    10030    2    1    2    0    0  0.00000000000E+00  0.00000000000E+00 -0.13685224697E+03  0.19351514226E+04  0.19303063204E+04 0.  0.
        5    1    3    3  502    0  0.38961648033E+03 -0.60166846499E+03 -0.71633973802E+03  0.10133956058E+04  0.46999998093E+01 0.  1.
       -5    1    3    3    0  502 -0.38961648033E+03  0.60166846499E+03  0.57948749105E+03  0.92175581679E+03  0.46999998093E+01 0. -1.
</event>
<event>
 5   0  0.1813834E-04  0.1640348E+04  0.7818609E-02  0.8796137E-01
        1   -1    0    0  501    0  0.00000000000E+00  0.00000000000E+00  0.18110409138E+04  0.18110409138E+04  0.50400001928E-02 0. -1.
       -1   -1    0    0    0  501  0.00000000000E+00  0.00000000000E+00 -0.37143593066E+03  0.37143593069E+03  0.50400001928E-02 0.  1.
    10030    2    1    2    0    0  0.00000000000E+00  0.00000000000E+00  0.14396049831E+04  0.21824768445E+04  0.16403483378E+04 0.  0.
        5    1    3    3  502    0 -0.78408810884E+03  0.15003350345E+03  0.46961489421E+03  0.92620972433E+03  0.46999998093E+01 0. -1.
       -5    1    3    3    0  502  0.78408810884E+03 -0.15003350345E+03  0.96999008892E+03  0.12562671202E+04  0.46999998093E+01 0.  1.
</event>
<event>
 5   0  0.3516539E-04  0.1882298E+04  0.7818609E-02  0.8663718E-01
        2   -1    0    0  501    0  0.00000000000E+00  0.00000000000E+00  0.13096964459E+04  0.13096964459E+04  0.25500000920E-02 0. -1.
       -2   -1    0    0    0  501  0.00000000000E+00  0.00000000000E+00 -0.67631031789E+03  0.67631031790E+03  0.25500000920E-02 0.  1.
    10030    2    1    2    0    0  0.00000000000E+00  0.00000000000E+00  0.63338612797E+03  0.19860067638E+04  0.18822977657E+04 0.  0.
        4    1    3    3  502    0 -0.62286545090E+03 -0.29829400434E+03  0.99131101286E+03  0.12081555446E+04  0.12699999809E+01 0. -1.
       -4    1    3    3    0  502  0.62286545090E+03  0.29829400434E+03 -0.35792488489E+03  0.77785121911E+03  0.12699999809E+01 0.  1.
</event>
<event>
 5   0  0.1711979E-04  0.2081457E+04  0.7818609E-02  0.8569456E-01
       -1   -1    0    0    0  501  0.00000000000E+00  0.00000000000E+00  0.68504511198E+03  0.68504511200E+03  0.50400001928E-02 0. -1.
        1   -1    0    0  501    0  0.00000000000E+00  0.00000000000E+00 -0.15810866487E+04  0.15810866487E+04  0.50400001928E-02 0.  1.
    10030    2    1    2    0    0  0.00000000000E+00  0.00000000000E+00 -0.89604153667E+03  0.22661317607E+04  0.20814568747E+04 0.  0.
        4    1    3    3  502    0  0.46846701669E+02 -0.50038779597E+03 -0.14402129414E+04  0.15253843743E+04  0.12699999809E+01 0.  1.
       -4    1    3    3    0  502 -0.46846701669E+02  0.50038779597E+03  0.54417140472E+03  0.74074738638E+03  0.12699999809E+01 0. -1.
</event>
<event>
 5   0  0.3459485E-04  0.1922692E+04  0.7818609E-02  0.8643643E-01
        2   -1    0    0  501    0  0.00000000000E+00  0.00000000000E+00  0.26482198296E+04  0.26482198296E+04  0.25500000920E-02 0. -1.
       -2   -1    0    0    0  501  0.00000000000E+00  0.00000000000E+00 -0.34898394247E+03  0.34898394248E+03  0.25500000920E-02 0.  1.
    10030    2    1    2    0    0  0.00000000000E+00  0.00000000000E+00  0.22992358871E+04  0.29972037721E+04  0.19226920676E+04 0.  0.
        3    1    3    3  502    0 -0.59571320596E+03  0.28836660157E+03  0.62705255834E+02  0.66480183511E+03  0.10100000352E+00 0.  1.
       -3    1    3    3    0  502  0.59571320596E+03 -0.28836660157E+03  0.22365306313E+04  0.23324019370E+04  0.10100000352E+00 0. -1.
</event>
<event>
 5   0  0.3720978E-04  0.1902965E+04  0.7818609E-02  0.8653382E-01
       -2   -1    0    0    0  501  0.00000000000E+00  0.00000000000E+00  0.61384119414E+03  0.61384119415E+03  0.25500000920E-02 0.  1.
        2   -1    0    0  501    0  0.00000000000E+00  0.00000000000E+00 -0.14748429596E+04  0.14748429596E+04  0.25500000920E-02 0. -1.
    10030    2    1    2    0    0  0.00000000000E+00  0.00000000000E+00 -0.86100176547E+03  0.20886841538E+04  0.19029654369E+04 0.  0.
        1    1    3    3  502    0  0.34732056013E+03  0.29262015423E+03 -0.13481982424E+04  0.14226372085E+04  0.50400001928E-02 0. -1.
       -1    1    3    3    0  502 -0.34732056013E+03 -0.29262015423E+03  0.48719647693E+03  0.66604694527E+03  0.50400001928E-02 0.  1.
</event>
<event>
 5   0  0.1711979E-04  0.1757880E+04  0.7818609E-02  0.8729025E-01
       -1   -1    0    0    0  501  0.00000000000E+00  0.00000000000E+00  0.10574652521E+04  0.10574652521E+04  0.50400001928E-02 0.  1.
        1   -1    0    0  501    0  0.00000000000E+00  0.00000000000E+00 -0.73055438514E+03  0.73055438516E+03  0.50400001928E-02 0. -1.
    10030    2    1    2    0    0  0.00000000000E+00  0.00000000000E+00  0.32691086692E+03  0.17880196372E+04  0.17578804021E+04 0.  0.
        4    1    3    3  502    0 -0.77075242041E+02  0.81535563641E+03 -0.16105829889E+03  0.83467765952E+03  0.12699999809E+01 0. -1.
       -4    1    3    3    0  502  0.77075242041E+02 -0.81535563641E+03  0.48796916581E+03  0.95334197770E+03  0.12699999809E+01 0.  1.
</event>
<event>
 5   0  0.3720978E-04  0.1545858E+04  0.7818609E-02  0.8854518E-01
       -2   -1    0    0    0  501  0.00000000000E+00  0.00000000000E+00  0.55252804107E+03  0.55252804108E+03  0.25500000920E-02 0. -1.
        2   -1    0    0  501    0  0.00000000000E+00  0.00000000000E+00 -0.10812473500E+04  0.10812473500E+04  0.25500000920E-02 0.  1.
    10030    2    1    2    0    0  0.00000000000E+00  0.00000000000E+00 -0.52871930891E+03  0.16337753911E+04  0.15458583120E+04 0.  0.
        1    1    3    3  502    0 -0.43628328952E+03  0.75607016400E+01 -0.93862387814E+03  0.10350918112E+04  0.50400001928E-02 0.  1.
       -1    1    3    3    0  502  0.43628328952E+03 -0.75607016400E+01  0.40990456923E+03  0.59868357989E+03  0.50400001928E-02 0. -1.
</event>
<event>
 5   0  0.3459485E-04  0.1911491E+04  0.7818609E-02  0.8649158E-01
       -2   -1    0    0    0  501  0.00000000000E+00  0.00000000000E+00  0.47275214506E+03  0.47275214506E+03  0.25500000920E-02 0.  1.
        2   -1    0    0  501    0  0.00000000000E+00  0.00000000000E+00 -0.19321943181E+04  0.19321943181E+04  0.25500000920E-02 0. -1.
    10030    2    1    2    0    0  0.00000000000E+00  0.00000000000E+00 -0.14594421731E+04  0.24049464632E+04  0.19114905269E+04 0.  0.
        3    1    3    3  502    0 -0.46549791000E+02  0.91508706642E+03 -0.38770309871E+03  0.99491955711E+03  0.10100000352E+00 0. -1.
       -3    1    3    3    0  502  0.46549791000E+02 -0.91508706642E+03 -0.10717390744E+04  0.14100269061E+04  0.10100000352E+00 0.  1.
</event>
<event>
 5   0  0.1758946E-04  0.1888204E+04  0.7818609E-02  0.8660750E-01
        1   -1    0    0  501    0  0.00000000000E+00  0.00000000000E+00  0.13696321517E+04  0.13696321517E+04  0.50400001928E-02 0.  1.
       -1   -1    0    0    0  501  0.00000000000E+00  0.00000000000E+00 -0.65077936730E+03  0.65077936732E+03  0.50400001928E-02 0. -1.
    10030    2    1    2    0    0  0.00000000000E+00  0.00000000000E+00  0.71885278441E+03  0.20204115190E+04  0.18882037445E+04 0.  0.
        2    1    3    3  502    0  0.35057874922E+02 -0.86892717342E+03  0.75267044588E+03  0.11501201187E+04  0.25500000920E-02 0.  1.
       -2    1    3    3    0  502 -0.35057874922E+02  0.86892717342E+03 -0.33817661463E+02  0.87029140035E+03  0.25500000920E-02 0. -1.
</event>
<event>
 5   0  0.3459485E-04  0.1808628E+04  0.7818609E-02  0.8701724E-01
       -2   -1    0    0    0  501  0.00000000000E+00  0.00000000000E+00  0.42456925168E+03  0.42456925169E+03  0.25500000920E-02 0. -1.
        2   -1    0    0  501    0  0.00000000000E+00  0.00000000000E+00 -0.19261503639E+04  0.19261503639E+04  0.25500000920E-02 0.  1.
    10030    2    1    2    0    0  0.00000000000E+00  0.00000000000E+00 -0.15015811122E+04  0.23507196156E+04  0.18086284512E+04 0.  0.
        3    1    3    3  502    0 -0.26685152496E+03 -0.82285294447E+03 -0.10934043377E+04  0.13942129538E+04  0.10100000352E+00 0.  1.
       -3    1    3    3    0  502  0.26685152496E+03  0.82285294447E+03 -0.40817677451E+03  0.95650666179E+03  0.10100000352E+00 0. -1.
</event>
<event>
 5   0  0.1711979E-04  0.1895098E+04  0.7818609E-02  0.8657300E-01
       -1   -1    0    0    0  501  0.00000000000E+00  0.00000000000E+00  0.12677333611E+04  0.12677333611E+04  0.50400001928E-02 0. -1.
        1   -1    0    0  501    0  0.00000000000E+00  0.00000000000E+00 -0.70823190086E+03  0.70823190088E+03  0.50400001928E-02 0.  1.
    10030    2    1    2    0    0  0.00000000000E+00  0.00000000000E+00  0.55950146025E+03  0.19759652620E+04  0.18950981063E+04 0.  0.
        4    1    3    3  502    0  0.14007736748E+03 -0.12653796118E+03 -0.68842716006E+03  0.71383968236E+03  0.12699999809E+01 0.  1.
       -4    1    3    3    0  502 -0.14007736748E+03  0.12653796118E+03  0.12479286203E+04  0.12621255796E+04  0.12699999809E+01 0. -1.
</event>
<event>
 5   0  0.1758946E-04  0.1570250E+04  0.7818609E-02  0.8839036E-01
       -1   -1    0    0    0  501  0.00000000000E+00  0.00000000000E+00  0.64122280657E+03  0.64122280659E+03  0.50400001928E-02 0. -1.
        1   -1    0    0  501    0  0.00000000000E+00  0.00000000000E+00 -0.96132172463E+03  0.96132172465E+03  0.50400001928E-02 0.  1.
    10030    2    1    2    0    0  0.00000000000E+00  0.00000000000E+00 -0.32009891806E+03  0.16025445312E+04  0.15702501894E+04 0.  0.
        2    1    3    3  502    0 -0.65319105163E+03  0.41433529086E+03 -0.22787527616E+02  0.77385499585E+03  0.25500000920E-02 0. -1.
       -2    1    3    3    0  502  0.65319105163E+03 -0.41433529086E+03 -0.29731139044E+03  0.82868953539E+03  0.25500000920E-02 0.  1.
</event>
<event>
 5   0  0.1694830E-04  0.1843853E+04  0.7818609E-02  0.8683320E-01
        1   -1    0    0  501    0  0.00000000000E+00  0.00000000000E+00  0.14506399487E+04  0.14506399487E+04  0.50400001928E-02 0. -1.
       -1   -1    0    0    0  501  0.00000000000E+00  0.00000000000E+00 -0.58591289558E+03  0.58591289560E+03  0.50400001928E-02 0.  1.
    10030    2    1    2    0    0  0.00000000000E+00  0.00000000000E+00  0.86472705309E+03  0.20365528443E+04  0.18438531968E+04 0.  0.
        1    1    3    3  502    0  0.60568157459E+03 -0.51453267420E+03  0.94848333313E+03  0.12374225939E+04  0.50400001928E-02 0. -1.
       -1    1    3    3    0  502 -0.60568157459E+03  0.51453267420E+03 -0.83756280040E+02  0.79913025039E+03  0.50400001928E-02 0.  1.
</event>
<event>
 5   0  0.3720978E-04  0.1964386E+04  0.7818609E-02  0.8623455E-01
        2   -1    0    0  501    0  0.00000000000E+00  0.00000000000E+00  0.10418926307E+04  0.10418926307E+04  0.25500000920E-02 0. -1.
       -2   -1    0    0    0  501  0.00000000000E+00  0.00000000000E+00 -0.92591402369E+03  0.92591402369E+03  0.25500000920E-02 0.  1.
    10030    2    1    2    0    0  0.00000000000E+00  0.00000000000E+00  0.11597860701E+03  0.19678066544E+04  0.19643859071E+04 0.  0.
        1    1    3    3  502    0 -0.95560183933E+03  0.27499908125E+02  0.28370784094E+03  0.99720672847E+03  0.50400001928E-02 0. -1.
       -1    1    3    3    0  502  0.95560183933E+03 -0.27499908125E+02 -0.16772923392E+03  0.97059992593E+03  0.50400001928E-02 0.  1.
</event>
<event>
 5   0  0.1694830E-04  0.1928081E+04  0.7818609E-02  0.8641004E-01
        1   -1    0    0  501    0  0.00000000000E+00  0.00000000000E+00  0.13875746831E+04  0.13875746831E+04  0.50400001928E-02 0. -1.
       -1   -1    0    0    0  501  0.00000000000E+00  0.00000000000E+00 -0.66978305864E+03  0.66978305866E+03  0.50400001928E-02 0.  1.
    10030    2    1    2    0    0  0.00000000000E+00  0.00000000000E+00  0.71779162448E+03  0.20573577418E+04  0.19280809271E+04 0.  0.
        1    1    3    3  502    0 -0.80980133523E+02  0.45597507505E+03 -0.54331516221E+03  0.71390644808E+03  0.50400001928E-02 0.  1.
       -1    1    3    3    0  502  0.80980133523E+02 -0.45597507505E+03  0.12611067867E+04  0.13434512937E+04  0.50400001928E-02 0. -1.
</event>
<event>
 5   0  0.1711979E-04  0.1907254E+04  0.7818609E-02  0.8651254E-01
        1   -1    0    0  501    0  0.00000000000E+00  0.00000000000E+00  0.20185456418E+04  0.20185456418E+04  0.50400001928E-02 0.  1.
       -1   -1    0    0    0  501  0.00000000000E+00  0.00000000000E+00 -0.45052469485E+03  0.45052469487E+03  0.50400001928E-02 0. -1.
    10030    2    1    2    0    0  0.00000000000E+00  0.00000000000E+00  0.15680209469E+04  0.24690703366E+04  0.19072542141E+04 0.  0.
        4    1    3    3  502    0 -0.62614296795E+03 -0.70405131799E+03  0.59348554087E+03  0.11135393908E+04  0.12699999809E+01 0.  1.
       -4    1    3    3    0  502  0.62614296795E+03  0.70405131799E+03  0.97453540605E+03  0.13555309459E+04  0.12699999809E+01 0. -1.
</event>
<event>
 5   0  0.3535876E-04  0.1900062E+04  0.7818609E-02  0.8654825E-01
       -2   -1    0    0    0  501  0.00000000000E+00  0.00000000000E+00  0.90463426427E+03  0.90463426427E+03  0.25500000920E-02 0. -1.
        2   -1    0    0  501    0  0.00000000000E+00  0.00000000000E+00 -0.99770618934E+03  0.99770618935E+03  0.25500000920E-02 0.  1.
    10030    2    1    2    0    0  0.00000000000E+00  0.00000000000E+00 -0.93071925077E+02  0.19023404536E+04  0.19000623196E+04 0.  0.
        2    1    3    3  502    0 -0.31372829265E+03 -0.71841180353E+03  0.49078080897E+03  0.92488202681E+03  0.25500000920E-02 0. -1.
       -2    1    3    3    0  502  0.31372829265E+03  0.71841180353E+03 -0.58385273405E+03  0.97745842680E+03  0.25500000920E-02 0.  1.
</event>
<event>
 5   0  0.3535876E-04  0.1848250E+04  0.7818609E-02  0.8681053E-01
        2   -1    0    0  501    0  0.00000000000E+00  0.00000000000E+00  0.15150326990E+04  0.15150326990E+04  0.25500000920E-02 0.  1.
       -2   -1    0    0    0  501  0.00000000000E+00  0.00000000000E+00 -0.56368884411E+03  0.56368884412E+03  0.25500000920E-02 0. -1.
    10030    2    1    2    0    0  0.00000000000E+00  0.00000000000E+00  0.95134385487E+03  0.20787215431E+04  0.18482500165E+04 0.  0.
        2    1    3    3  502    0 -0.29333284219E+03 -0.71767488209E+03 -0.89935174464E+02  0.78050607192E+03  0.25500000920E-02 0.  1.
       -2    1    3    3    0  502  0.29333284219E+03  0.71767488209E+03  0.10412790293E+04  0.12982154712E+04  0.25500000920E-02 0. -1.
</event>
<event>
 5   0  0.3623359E-04  0.1879618E+04  0.7818609E-02  0.8665069E-01
        2   -1    0    0  501    0  0.00000000000E+00  0.00000000000E+00  0.19172113777E+04  0.19172113777E+04  0.25500000920E-02 0.  1.
       -2   -1    0    0    0  501  0.00000000000E+00  0.00000000000E+00 -0.46069026137E+03  0.46069026137E+03  0.25500000920E-02 0. -1.
    10030    2    1    2    0    0  0.00000000000E+00  0.00000000000E+00  0.14565211164E+04  0.23779016391E+04  0.18796176321E+04 0.  0.
        5    1    3    3  502    0  0.17644202921E+03 -0.69327876244E+03  0.14992977204E+04  0.16612293570E+04  0.46999998093E+01 0.  1.
       -5    1    3    3    0  502 -0.17644202921E+03  0.69327876244E+03 -0.42776604027E+02  0.71667228213E+03  0.46999998093E+01 0. -1.
</event>
<event>
 5   0  0.3720978E-04  0.1909330E+04  0.7818609E-02  0.8650226E-01
       -2   -1    0    0    0  501  0.00000000000E+00  0.00000000000E+00  0.60377579702E+03  0.60377579703E+03  0.25500000920E-02 0.  1.
        2   -1    0    0  501    0  0.00000000000E+00  0.00000000000E+00 -0.15094759761E+04  0.15094759761E+04  0.25500000920E-02 0. -1.
    10030    2    1    2    0    0  0.00000000000E+00  0.00000000000E+00 -0.90570017906E+03  0.21132517731E+04  0.19093297887E+04 0.  0.
        1    1    3    3  502    0 -0.87383753729E+03  0.38160900364E+03 -0.50437990560E+03  0.10787106018E+04  0.50400001928E-02 0.  1.
       -1    1    3    3    0  502  0.87383753729E+03 -0.38160900364E+03 -0.40132027346E+03  0.10345411713E+04  0.50400001928E-02 0. -1.
</event>
<event>
 5   0  0.1782613E-04  0.1895171E+04  0.7818609E-02  0.8657264E-01
        1   -1    0    0  501    0  0.00000000000E+00  0.00000000000E+00  0.29726440613E+04  0.29726440613E+04  0.50400001928E-02 0.  1.
       -1   -1    0    0    0  501  0.00000000000E+00  0.00000000000E+00 -0.30206062634E+03  0.30206062638E+03  0.50400001928E-02 0. -1.
    10030    2    1    2    0    0  0.00000000000E+00  0.00000000000E+00  0.26705834350E+04  0.32747046877E+04  0.18951714721E+04 0.  0.
        3    1    3    3  502    0 -0.14704611305E+03  0.75865419732E+03  0.38770447608E+03  0.86457707663E+03  0.10100000352E+00 0. -1.
       -3    1    3    3    0  502  0.14704611305E+03 -0.75865419732E+03  0.22828789589E+04  0.24101276111E+04  0.10100000352E+00 0.  1.
</event>
<event>
 5   0  0.3516539E-04  0.1633493E+04  0.7818609E-02  0.8800232E-01
       -2   -1    0    0    0  501  0.00000000000E+00  0.00000000000E+00  0.44292105612E+03  0.44292105613E+03  0.25500000920E-02 0. -1.
        2   -1    0    0  501    0  0.00000000000E+00  0.00000000000E+00 -0.15060812641E+04  0.15060812641E+04  0.25500000920E-02 0.  1.
    10030    2    1    2    0    0  0.00000000000E+00  0.00000000000E+00 -0.10631602080E+04  0.19490023203E+04  0.16334933169E+04 0.  0.
        4    1    3    3  502    0 -0.18703417040E+03  0.89243211247E+02  0.41102894493E+03  0.46031786639E+03  0.12699999809E+01 0. -1.
       -4    1    3    3    0  502  0.18703417040E+03 -0.89243211247E+02 -0.14741891529E+04  0.14886844539E+04  0.12699999809E+01 0.  1.
</event>
<event>
 5   0  0.3623359E-04  0.1555576E+04  0.7818609E-02  0.8848314E-01
       -2   -1    0    0    0  501  0.00000000000E+00  0.00000000000E+00  0.73629743616E+03  0.73629743616E+03  0.25500000920E-02 0. -1.
        2   -1    0    0  501    0  0.00000000000E+00  0.00000000000E+00 -0.82161612548E+03  0.82161612548E+03  0.25500000920E-02 0.  1.
    10030    2    1    2    0    0  0.00000000000E+00  0.00000000000E+00 -0.85318689320E+02  0.15579135616E+04  0.15555755806E+04 0.  0.
        5    1    3    3  502    0  0.71588603296E+03 -0.27448150263E+03 -0.17361844485E+03  0.78612871838E+03  0.46999998093E+01 0. -1.
       -5    1    3    3    0  502 -0.71588603296E+03  0.27448150263E+03  0.88299755525E+02  0.77178484327E+03  0.46999998093E+01 0.  1.
</event>
<event>
 5   0  0.3459485E-04  0.1807787E+04  0.7818609E-02  0.8702169E-01
        2   -1    0    0  501    0  0.00000000000E+00  0.00000000000E+00  0.11940486650E+04  0.11940486650E+04  0.25500000920E-02 0. -1.
       -2   -1    0    0    0  501  0.00000000000E+00  0.00000000000E+00 -0.68424666206E+03  0.68424666206E+03  0.25500000920E-02 0.  1.
    10030    2    1    2    0    0  0.00000000000E+00  0.00000000000E+00  0.50980200295E+03  0.18782953271E+04  0.18077873917E+04 0.  0.
        3    1    3    3  502    0 -0.51588324245E+03  0.39791065009E+03  0.90588003576E+03  0.11158346897E+04  0.10100000352E+00 0. -1.
       -3    1    3    3    0  502  0.51588324245E+03 -0.39791065009E+03 -0.39607803281E+03  0.76246063739E+03  0.10100000352E+00 0.  1.
</event>
<event>
 5   0  0.1694830E-04  0.1892284E+04  0.7818609E-02  0.8658707E-01
       -1   -1    0    0    0  501  0.00000000000E+00  0.00000000000E+00  0.88972313204E+03  0.88972313205E+03  0.50400001928E-02 0. -1.
        1   -1    0    0  501    0  0.00000000000E+00  0.00000000000E+00 -0.10061381630E+04  0.10061381630E+04  0.50400001928E-02 0.  1.
    10030    2    1    2    0    0  0.00000000000E+00  0.00000000000E+00 -0.11641503096E+03  0.18958612951E+04  0.18922836972E+04 0.  0.
        1    1    3    3  502    0 -0.24857656199E+03 -0.83990085444E+03  0.30018466306E+03  0.92592363854E+03  0.50400001928E-02 0. -1.
       -1    1    3    3    0  502  0.24857656199E+03  0.83990085444E+03 -0.41659969402E+03  0.96993765652E+03  0.50400001928E-02 0.  1.
</event>
<event>
 5   0  0.1758946E-04  0.2163495E+04  0.7818609E-02  0.8533778E-01
        1   -1    0    0  501    0  0.00000000000E+00  0.00000000000E+00  0.15024253754E+04  0.15024253754E+04  0.50400001928E-02 0.  1.
       -1   -1    0    0    0  501  0.00000000000E+00  0.00000000000E+00 -0.77885915411E+03  0.77885915412E+03  0.50400001928E-02 0. -1.
    10030    2    1    2    0    0  0.00000000000E+00  0.00000000000E+00  0.72356622126E+03  0.22812845295E+04  0.21634950954E+04 0.  0.
        2    1    3    3  502    0  0.26996813444E+03  0.98873728655E+03 -0.30203075596E+01  0.10249357725E+04  0.25500000920E-02 0.  1.
       -2    1    3    3    0  502 -0.26996813444E+03 -0.98873728655E+03  0.72658652881E+03  0.12563487570E+04  0.25500000920E-02 0. -1.
</event>
<event>
 5   0  0.1758946E-04  0.1896018E+04  0.7818609E-02  0.8656841E-01
        1   -1    0    0  501    0  0.00000000000E+00  0.00000000000E+00  0.63361733192E+03  0.63361733194E+03  0.50400001928E-02 0.  1.
       -1   -1    0    0    0  501  0.00000000000E+00  0.00000000000E+00 -0.14183977118E+04  0.14183977118E+04  0.50400001928E-02 0. -1.
    10030    2    1    2    0    0  0.00000000000E+00  0.00000000000E+00 -0.78478037987E+03  0.20520150437E+04  0.18960183267E+04 0.  0.
        2    1    3    3  502    0  0.75906040620E+03 -0.52736727498E+03 -0.16425722440E+03  0.93875948930E+03  0.25500000920E-02 0.  1.
       -2    1    3    3    0  502 -0.75906040620E+03  0.52736727498E+03 -0.62052315547E+03  0.11132555544E+04  0.25500000920E-02 0. -1.
</event>
<event>
 5   0  0.3535876E-04  0.1899532E+04  0.7818609E-02  0.8655089E-01
        2   -1    0    0  501    0  0.00000000000E+00  0.00000000000E+00  0.13887036054E+04  0.13887036054E+04  0.25500000920E-02 0.  1.
       -2   -1    0    0    0  501  0.00000000000E+00  0.00000000000E+00 -0.64956646643E+03  0.64956646643E+03  0.25500000920E-02 0. -1.
    10030    2    1    2    0    0  0.00000000000E+00  0.00000000000E+00  0.73913713899E+03  0.20382700719E+04  0.18995318306E+04 0.  0.
        2    1    3    3  502    0  0.66123830498E+03 -0.65371629055E+03  0.57729004162E+03  0.10944609982E+04  0.25500000920E-02 0.  1.
       -2    1    3    3    0  502 -0.66123830498E+03  0.65371629055E+03  0.16184709737E+03  0.94380907361E+03  0.25500000920E-02 0. -1.
</event>
<event>
 5   0  0.3516539E-04  0.1874588E+04  0.7818609E-02  0.8667610E-01
       -2   -1    0    0    0  501  0.00000000000E+00  0.00000000000E+00  0.69247404328E+03  0.69247404329E+03  0.25500000920E-02 0. -1.
        2   -1    0    0  501    0  0.00000000000E+00  0.00000000000E+00 -0.12686679464E+04  0.12686679464E+04  0.25500000920E-02 0.  1.
    10030    2    1    2    0    0  0.00000000000E+00  0.00000000000E+00 -0.57619390311E+03  0.19611419897E+04  0.18745875519E+04 0.  0.
        4    1    3    3  502    0 -0.30515379030E+03  0.63550737042E+01  0.63902606554E+03  0.70817734222E+03  0.12699999809E+01 0. -1.
       -4    1    3    3    0  502  0.30515379030E+03 -0.63550737042E+01 -0.12152199687E+04  0.12529646475E+04  0.12699999809E+01 0.  1.
</event>
<event>
 5   0  0.3623359E-04  0.1898650E+04  0.7818609E-02  0.8655529E-01
       -2   -1    0    0    0  501  0.00000000000E+00  0.00000000000E+00  0.71282051148E+03  0.71282051149E+03  0.25500000920E-02 0. -1.
        2   -1    0    0  501    0  0.00000000000E+00  0.00000000000E+00 -0.12642989464E+04  0.12642989464E+04  0.25500000920E-02 0.  1.
    10030    2    1    2    0    0  0.00000000000E+00  0.00000000000E+00 -0.55147843488E+03  0.19771194579E+04  0.18986502802E+04 0.  0.
        5    1    3    3  502    0  0.70392434426E+03  0.17767631837E+03 -0.91266980250E+03  0.11662189395E+04  0.46999998093E+01 0.  1.
       -5    1    3    3    0  502 -0.70392434426E+03 -0.17767631837E+03  0.36119136763E+03  0.81090051831E+03  0.46999998093E+01 0. -1.
</event>
<event>
 5   0  0.1694830E-04  0.1504495E+04  0.7818609E-02  0.8881469E-01
       -1   -1    0    0    0  501  0.00000000000E+00  0.00000000000E+00  0.64195213873E+03  0.64195213875E+03  0.50400001928E-02 0.  1.
        1   -1    0    0  501    0  0.00000000000E+00  0.00000000000E+00 -0.88149289153E+03  0.88149289155E+03  0.50400001928E-02 0. -1.
    10030    2    1    2    0    0  0.00000000000E+00  0.00000000000E+00 -0.23954075280E+03  0.15234450303E+04  0.15044949279E+04 0.  0.
        1    1    3    3  502    0  0.35049675952E+03 -0.35580321345E+03  0.44983816519E+03  0.67215941563E+03  0.50400001928E-02 0.  1.
       -1    1    3    3    0  502 -0.35049675952E+03  0.35580321345E+03 -0.68937891799E+03  0.85128561466E+03  0.50400001928E-02 0. -1.
</event>
<event>
 5   0  0.1711979E-04  0.1868691E+04  0.7818609E-02  0.8670600E-01
       -1   -1    0    0    0  501  0.00000000000E+00  0.00000000000E+00  0.89523136094E+03  0.89523136095E+03  0.50400001928E-02 0. -1.
        1   -1    0    0  501    0  0.00000000000E+00  0.00000000000E+00 -0.97516831709E+03  0.97516831710E+03  0.50400001928E-02 0.  1.
    10030    2    1    2    0    0  0.00000000000E+00  0.00000000000E+00 -0.79936956147E+02  0.18703996781E+04  0.18686907285E+04 0.  0.
        4    1    3    3  502    0 -0.59288185103E+03 -0.65729537004E+03  0.25939291294E+03  0.92240576155E+03  0.12699999809E+01 0. -1.
       -4    1    3    3    0  502  0.59288185103E+03  0.65729537004E+03 -0.33932986909E+03  0.94799391650E+03  0.12699999809E+01 0.  1.
</event>
<event>
 5   0  0.3535876E-04  0.1906818E+04  0.7818609E-02  0.8651470E-01
        2   -1    0    0  501    0  0.00000000000E+00  0.00000000000E+00  0.78977364224E+03  0.78977364225E+03  0.25500000920E-02 0.  1.
       -2   -1    0    0    0  501  0.00000000000E+00  0.00000000000E+00 -0.11509489959E+04  0.11509489959E+04  0.25500000920E-02 0. -1.
    10030    2    1    2    0    0  0.00000000000E+00  0.00000000000E+00 -0.36117535362E+03  0.19407226381E+04  0.19068184817E+04 0.  0.
        2    1    3    3  502    0  0.81568638552E+02 -0.69250521244E+03  0.48118276495E+03  0.84720349701E+03  0.25500000920E-02 0.  1.
       -2    1    3    3    0  502 -0.81568638552E+02  0.69250521244E+03 -0.84235811857E+03  0.10935191411E+04  0.25500000920E-02 0. -1.
</event>
<event>
 5   0  0.3720978E-04  0.1917529E+04  0.7818609E-02  0.8646180E-01
        2   -1    0    0  501    0  0.00000000000E+00  0.00000000000E+00  0.37337526166E+03  0.37337526166E+03  0.25500000920E-02 0. -1.
       -2   -1    0    0    0  501  0.00000000000E+00  0.00000000000E+00 -0.24619441593E+04  0.24619441593E+04  0.25500000920E-02 0.  1.
    10030    2    1    2    0    0  0.00000000000E+00  0.00000000000E+00 -0.20885688976E+04  0.28353194210E+04  0.19175286644E+04 0.  0.
        1    1    3    3  502    0 -0.78705287410E+03  0.20255158358E+03 -0.29214211463E+03  0.86361240485E+03  0.50400001928E-02 0. -1.
       -1    1    3    3    0  502  0.78705287410E+03 -0.20255158358E+03 -0.17964267830E+04  0.19717070161E+04  0.50400001928E-02 0.  1.
</event>
<event>
 5   0  0.3720978E-04  0.1892289E+04  0.7818609E-02  0.8658704E-01
       -2   -1    0    0    0  501  0.00000000000E+00  0.00000000000E+00  0.45489950877E+03  0.45489950878E+03  0.25500000920E-02 0. -1.
        2   -1    0    0  501    0  0.00000000000E+00  0.00000000000E+00 -0.19678829260E+04  0.19678829260E+04  0.25500000920E-02 0.  1.
    10030    2    1    2    0    0  0.00000000000E+00  0.00000000000E+00 -0.15129834173E+04  0.24227824348E+04  0.18922885365E+04 0.  0.
        1    1    3    3  502    0  0.26019806877E+03  0.29346984707E+02 -0.19205674688E+04  0.19383352864E+04  0.50400001928E-02 0.  1.
       -1    1    3    3    0  502 -0.26019806877E+03 -0.29346984707E+02  0.40758405151E+03  0.48444714838E+03  0.50400001928E-02 0. -1.
</event>
<event>
 5   0  0.1758946E-04  0.1878434E+04  0.7818609E-02  0.8665666E-01
        1   -1    0    0  501    0  0.00000000000E+00  0.00000000000E+00  0.13246692737E+04  0.13246692737E+04  0.50400001928E-02 0. -1.
       -1   -1    0    0    0  501  0.00000000000E+00  0.00000000000E+00 -0.66592337422E+03  0.66592337424E+03  0.50400001928E-02 0.  1.
    10030    2    1    2    0    0  0.00000000000E+00  0.00000000000E+00  0.65874589950E+03  0.19905926480E+04  0.18784336374E+04 0.  0.
        2    1    3    3  502    0 -0.90628257445E+03  0.17049390528E+03  0.14066158545E+03  0.93284615994E+03  0.25500000920E-02 0. -1.
       -2    1    3    3    0  502  0.90628257445E+03 -0.17049390528E+03  0.51808431405E+03  0.10577464880E+04  0.25500000920E-02 0.  1.
</event>
<event>
 5   0  0.3623359E-04  0.1881021E+04  0.7818609E-02  0.8664361E-01
       -2   -1    0    0    0  501  0.00000000000E+00  0.00000000000E+00  0.39311394154E+03  0.39311394155E+03  0.25500000920E-02 0.  1.
        2   -1    0    0  501    0  0.00000000000E+00  0.00000000000E+00 -0.22501374316E+04  0.22501374316E+04  0.25500000920E-02 0. -1.
    10030    2    1    2    0    0  0.00000000000E+00  0.00000000000E+00 -0.18570234900E+04  0.26432513731E+04  0.18810214191E+04 0.  0.
        5    1    3    3  502    0 -0.47822050091E+00 -0.24474318552E+03  0.34756449105E+03  0.42511483272E+03  0.46999998093E+01 0.  1.
       -5    1    3    3    0  502  0.47822050091E+00  0.24474318552E+03 -0.22045879811E+04  0.22181365404E+04  0.46999998093E+01 0. -1.
</event>
<event>
 5   0  0.1711979E-04  0.1865651E+04  0.7818609E-02  0.8672146E-01
       -1   -1    0    0    0  501  0.00000000000E+00  0.00000000000E+00  0.16720232672E+04  0.16720232672E+04  0.50400001928E-02 0.  1.
        1   -1    0    0  501    0  0.00000000000E+00  0.00000000000E+00 -0.52042533276E+03  0.52042533278E+03  0.50400001928E-02 0. -1.
    10030    2    1    2    0    0  0.00000000000E+00  0.00000000000E+00  0.11515979345E+04  0.21924486000E+04  0.18656508411E+04 0.  0.
        4    1    3    3  502    0 -0.62746862278E+03 -0.62312476082E+03  0.92472679927E+03  0.12795009208E+04  0.12699999809E+01 0.  1.
       -4    1    3    3    0  502  0.62746862278E+03  0.62312476082E+03  0.22687113520E+03  0.91294767922E+03  0.12699999809E+01 0. -1.
</event>
<event>
 5   0  0.1694830E-04  0.1903294E+04  0.7818609E-02  0.8653219E-01
       -1   -1    0    0    0  501  0.00000000000E+00  0.00000000000E+00  0.81561312539E+03  0.81561312541E+03  0.50400001928E-02 0. -1.
        1   -1    0    0  501    0  0.00000000000E+00  0.00000000000E+00 -0.11103694769E+04  0.11103694769E+04  0.50400001928E-02 0.  1.
    10030    2    1    2    0    0  0.00000000000E+00  0.00000000000E+00 -0.29475635154E+03  0.19259826024E+04  0.19032939021E+04 0.  0.
        1    1    3    3  502    0  0.79764084720E+03 -0.17172273537E+03 -0.64302549449E+03  0.10388461896E+04  0.50400001928E-02 0.  1.
       -1    1    3    3    0  502 -0.79764084720E+03  0.17172273537E+03  0.34826914295E+03  0.88713641280E+03  0.50400001928E-02 0. -1.
</event>
<event>
 5   0  0.1694830E-04  0.1692817E+04  0.7818609E-02  0.8765472E-01
        1   -1    0    0  501    0  0.00000000000E+00  0.00000000000E+00  0.12984400401E+04  0.12984400401E+04  0.50400001928E-02 0.  1.
       -1   -1    0    0    0  501  0.00000000000E+00  0.00000000000E+00 -0.55174444332E+03  0.55174444334E+03  0.50400001928E-02 0. -1.
    10030    2    1    2    0    0  0.00000000000E+00  0.00000000000E+00  0.74669559680E+03  0.18501844835E+04  0.16928166790E+04 0.  0.
        1    1    3    3  502    0  0.24879327804E+03 -0.75659518286E+03  0.68646324673E+03  0.10514590601E+04  0.50400001928E-02 0. -1.
       -1    1    3    3    0  502 -0.24879327804E+03  0.75659518286E+03  0.60232350065E+02  0.79872542337E+03  0.50400001928E-02 0.  1.
</event>
<event>
 5   0  0.1758946E-04  0.1900187E+04  0.7818609E-02  0.8654763E-01
        1   -1    0    0  501    0  0.00000000000E+00  0.00000000000E+00  0.15919978751E+04  0.15919978751E+04  0.50400001928E-02 0. -1.
       -1   -1    0    0    0  501  0.00000000000E+00  0.00000000000E+00 -0.56700912691E+03  0.56700912693E+03  0.50400001928E-02 0.  1.
    10030    2    1    2    0    0  0.00000000000E+00  0.00000000000E+00  0.10249887482E+04  0.21590070021E+04  0.19001866490E+04 0.  0.
        2    1    3    3  502    0 -0.84043457855E+03 -0.23001946446E+03  0.94281289240E+03  0.12837972523E+04  0.25500000920E-02 0. -1.
       -2    1    3    3    0  502  0.84043457855E+03  0.23001946446E+03  0.82175855818E+02  0.87520974980E+03  0.25500000920E-02 0.  1.
</event>
<event>
 5   0  0.1694830E-04  0.1918231E+04  0.7818609E-02  0.8645834E-01
        1   -1    0    0  501    0  0.00000000000E+00  0.00000000000E+00  0.90458657313E+03  0.90458657314E+03  0.50400001928E-02 0. -1.
       -1   -1    0    0    0  501  0.00000000000E+00  0.00000000000E+00 -0.10169317652E+04  0.10169317652E+04  0.50400001928E-02 0.  1.
    10030    2    1    2    0    0  0.00000000000E+00  0.00000000000E+00 -0.11234519209E+03  0.19215183384E+04  0.19182312902E+04 0.  0.
        1    1    3    3  502    0  0.23448032171E+02 -0.53067873979E+03  0.74377776185E+03  0.91398856345E+03  0.50400001928E-02 0. -1.
       -1    1    3    3    0  502 -0.23448032171E+02  0.53067873979E+03 -0.85612295394E+03  0.10075297749E+04  0.50400001928E-02 0.  1.
</event>
<event>
 5   0  0.3459485E-04  0.1923910E+04  0.7818609E-02  0.8643046E-01
       -2   -1    0    0    0  501  0.00000000000E+00  0.00000000000E+00  0.42992778038E+03  0.42992778039E+03  0.25500000920E-02 0.  1.
        2   -1    0    0  501    0  0.00000000000E+00  0.00000000000E+00 -0.21523547360E+04  0.21523547360E+04  0.25500000920E-02 0. -1.
    10030    2    1    2    0    0  0.00000000000E+00  0.00000000000E+00 -0.17224269556E+04  0.25822825164E+04  0.19239096593E+04 0.  0.
        3    1    3    3  502    0  0.18536685626E+02  0.85489962807E+03 -0.14526376554E+04  0.16856313805E+04  0.10100000352E+00 0. -1.
       -3    1    3    3    0  502 -0.18536685626E+02 -0.85489962807E+03 -0.26978930019E+03  0.89665113589E+03  0.10100000352E+00 0.  1.
</event>
<event>
 5   0  0.1782613E-04  0.1914443E+04  0.7818609E-02  0.8647701E-01
       -1   -1    0    0    0  501  0.00000000000E+00  0.00000000000E+00  0.69282836978E+03  0.69282836980E+03  0.50400001928E-02 0.  1.
        1   -1    0    0  501    0  0.00000000000E+00  0.00000000000E+00 -0.13225104898E+04  0.13225104898E+04  0.50400001928E-02 0. -1.
    10030    2    1    2    0    0  0.00000000000E+00  0.00000000000E+00 -0.62968212003E+03  0.20153388596E+04  0.19144427771E+04 0.  0.
        3    1    3    3  502    0  0.62373311429E+03  0.69418637661E+03 -0.90699312313E+02  0.93763750927E+03  0.10100000352E+00 0.  1.
       -3    1    3    3    0  502 -0.62373311429E+03 -0.69418637661E+03 -0.53898280771E+03  0.10777013503E+04  0.10100000352E+00 0. -1.
</event>
<event>
 5   0  0.3516539E-04  0.1881679E+04  0.7818609E-02  0.8664030E-01
       -2   -1    0    0    0  501  0.00000000000E+00  0.00000000000E+00  0.79666241630E+03  0.79666241630E+03  0.25500000920E-02 0.  1.
        2   -1    0    0  501    0  0.00000000000E+00  0.00000000000E+00 -0.11111089916E+04  0.11111089916E+04  0.25500000920E-02 0. -1.
    10030    2    1    2    0    0  0.00000000000E+00  0.00000000000E+00 -0.31444657531E+03  0.19077714079E+04  0.18816787973E+04 0.  0.
        4    1    3    3  502    0  0.61957795710E+03  0.67327071121E+03 -0.37936623016E+03  0.99050019939E+03  0.12699999809E+01 0. -1.
       -4    1    3    3    0  502 -0.61957795710E+03 -0.67327071121E+03  0.64919654851E+02  0.91727120852E+03  0.12699999809E+01 0.  1.
</event>
<event>
 5   0  0.3459485E-04  0.1924148E+04  0.7818609E-02  0.8642929E-01
        2   -1    0    0  501    0  0.00000000000E+00  0.00000000000E+00  0.97849846719E+03  0.97849846719E+03  0.25500000920E-02 0.  1.
       -2   -1    0    0    0  501  0.00000000000E+00  0.00000000000E+00 -0.94592477221E+03  0.94592477222E+03  0.25500000920E-02 0. -1.
    10030    2    1    2    0    0  0.00000000000E+00  0.00000000000E+00  0.32573694976E+02  0.19244232394E+04  0.19241475408E+04 0.  0.
        3    1    3    3  502    0  0.60532432404E+03  0.64356291043E+03  0.39712372378E+03  0.96865784421E+03  0.10100000352E+00 0.  1.
       -3    1    3    3    0  502 -0.60532432404E+03 -0.64356291043E+03 -0.36455002880E+03  0.95576539520E+03  0.10100000352E+00 0. -1.
</event>
<event>
 5   0  0.3535876E-04  0.1873305E+04  0.7818609E-02  0.8668260E-01
        2   -1    0    0  501    0  0.00000000000E+00  0.00000000000E+00  0.16282176142E+04  0.16282176142E+04  0.25500000920E-02 0.  1.
       -2   -1    0    0    0  501  0.00000000000E+00  0.00000000000E+00 -0.53882091665E+03  0.53882091665E+03  0.25500000920E-02 0. -1.
    10030    2    1    2    0    0  0.00000000000E+00  0.00000000000E+00  0.10893966976E+04  0.21670385309E+04  0.18733047882E+04 0.  0.
        2    1    3    3  502    0 -0.87575826994E+03  0.28870108722E+03  0.35455747571E+03  0.98793312968E+03  0.25500000920E-02 0. -1.
       -2    1    3    3    0  502  0.87575826994E+03 -0.28870108722E+03  0.73483922188E+03  0.11791054012E+04  0.25500000920E-02 0.  1.
</event>
<event>
 5   0  0.1813834E-04  0.1886913E+04  0.7818609E-02  0.8661398E-01
       -1   -1    0    0    0  501  0.00000000000E+00  0.00000000000E+00  0.53977302188E+03  0.53977302190E+03  0.50400001928E-02 0. -1.
        1   -1    0    0  501    0  0.00000000000E+00  0.00000000000E+00 -0.16490456190E+04  0.16490456190E+04  0.50400001928E-02 0.  1.
    10030    2    1    2    0    0  0.00000000000E+00  0.00000000000E+00 -0.11092725971E+04  0.21888186409E+04  0.18869131798E+04 0.  0.
        5    1    3    3  502    0 -0.58920443553E+03 -0.23136300523E+03  0.25686412663E+03  0.68314857578E+03  0.46999998093E+01 0. -1.
       -5    1    3    3    0  502  0.58920443553E+03  0.23136300523E+03 -0.13661367238E+04  0.15056700651E+04  0.46999998093E+01 0.  1.
</event>
<event>
 5   0  0.1694830E-04  0.1883179E+04  0.7818609E-02  0.8663275E-01
        1   -1    0    0  501    0  0.00000000000E+00  0.00000000000E+00  0.15502617628E+04  0.15502617629E+04  0.50400001928E-02 0.  1.
       -1   -1    0    0    0  501  0.00000000000E+00  0.00000000000E+00 -0.57189732845E+03  0.57189732847E+03  0.50400001928E-02 0. -1.
    10030    2    1    2    0    0  0.00000000000E+00  0.00000000000E+00  0.97836443440E+03  0.21221590913E+04  0.18831787601E+04 0.  0.
        1    1    3    3  502    0  0.70813732062E+03 -0.61969765848E+03  0.45168991458E+03  0.10437947268E+04  0.50400001928E-02 0. -1.
       -1    1    3    3    0  502 -0.70813732062E+03  0.61969765848E+03  0.52667451982E+03  0.10783643645E+04  0.50400001928E-02 0.  1.
</event>
<event>
 5   0  0.3516539E-04  0.1864866E+04  0.7818609E-02  0.8672545E-01
       -2   -1    0    0    0  501  0.00000000000E+00  0.00000000000E+00  0.16669524736E+04  0.16669524736E+04  0.25500000920E-02 0. -1.
        2   -1    0    0  501    0  0.00000000000E+00  0.00000000000E+00 -0.52156937965E+03  0.52156937966E+03  0.25500000920E-02 0.  1.
    10030    2    1    2    0    0  0.00000000000E+00  0.00000000000E+00  0.11453830940E+04  0.21885218533E+04  0.18648660730E+04 0.  0.
        4    1    3    3  502    0 -0.37901756404E+03  0.76508549494E+03  0.13293010711E+03  0.86410772170E+03  0.12699999809E+01 0.  1.
       -4    1    3    3    0  502  0.37901756404E+03 -0.76508549494E+03  0.10124529868E+04  0.13244141316E+04  0.12699999809E+01 0. -1.
</event>
<event>
 5   0  0.3516539E-04  0.1878318E+04  0.7818609E-02  0.8665725E-01
       -2   -1    0    0    0  501  0.00000000000E+00  0.00000000000E+00  0.12659020032E+04  0.12659020032E+04  0.25500000920E-02 0. -1.
        2   -1    0    0  501    0  0.00000000000E+00  0.00000000000E+00 -0.69675213795E+03  0.69675213796E+03  0.25500000920E-02 0.  1.
    10030    2    1    2    0    0  0.00000000000E+00  0.00000000000E+00  0.56914986522E+03  0.19626541411E+04  0.18783183193E+04 0.  0.
        4    1    3    3  502    0 -0.40702055697E+03  0.14521221504E+03  0.11558395443E+04  0.12339850025E+04  0.12699999809E+01 0. -1.
       -4    1    3    3    0  502  0.40702055697E+03 -0.14521221504E+03 -0.58668967909E+03  0.72866913867E+03  0.12699999809E+01 0.  1.
</event>
<event>
 5   0  0.3623359E-04  0.1820991E+04  0.7818609E-02  0.8695216E-01
       -2   -1    0    0    0  501  0.00000000000E+00  0.00000000000E+00  0.61953267083E+03  0.61953267084E+03  0.25500000920E-02 0.  1.
        2   -1    0    0  501    0  0.00000000000E+00  0.00000000000E+00 -0.13381091243E+04  0.13381091243E+04  0.25500000920E-02 0. -1.
    10030    2    1    2    0    0  0.00000000000E+00  0.00000000000E+00 -0.71857645349E+03  0.19576417952E+04  0.18209912901E+04 0.  0.
        5    1    3    3  502    0 -0.32222875654E+03  0.31461634574E+03  0.49139897212E+03  0.66656571795E+03  0.46999998093E+01 0.  1.
       -5    1    3    3    0  502  0.32222875654E+03 -0.31461634574E+03 -0.12099754256E+04  0.12910760772E+04  0.46999998093E+01 0. -1.
</event>
<event>
 5   0  0.3459485E-04  0.1862822E+04  0.7818609E-02  0.8673587E-01
       -2   -1    0    0    0  501  0.00000000000E+00  0.00000000000E+00  0.74402165253E+03  0.74402165254E+03  0.25500000920E-02 0. -1.
        2   -1    0    0  501    0  0.00000000000E+00  0.00000000000E+00 -0.11659962693E+04  0.11659962693E+04  0.25500000920E-02 0.  1.
    10030    2    1    2    0    0  0.00000000000E+00  0.00000000000E+00 -0.42197461672E+03  0.19100179218E+04  0.18628220217E+04 0.  0.
        3    1    3    3  502    0  0.51288672116E+03  0.74875235062E+03 -0.42568092442E+03  0.10024405872E+04  0.10100000352E+00 0.  1.
       -3    1    3    3    0  502 -0.51288672116E+03 -0.74875235062E+03  0.37063077064E+01  0.90757733457E+03  0.10100000352E+00 0. -1.
</event>
<event>
 5   0  0.3516539E-04  0.1979848E+04  0.7818609E-02  0.8616101E-01
       -2   -1    0    0    0  501  0.00000000000E+00  0.00000000000E+00  0.13442524656E+04  0.13442524656E+04  0.25500000920E-02 0. -1.
        2   -1    0    0  501    0  0.00000000000E+00  0.00000000000E+00 -0.72899229878E+03  0.72899229879E+03  0.25500000920E-02 0.  1.
    10030    2    1    2    0    0  0.00000000000E+00  0.00000000000E+00  0.61526016682E+03  0.20732447644E+04  0.19798481710E+04 0.  0.
        4    1    3    3  502    0 -0.49661573239E+02 -0.72437773452E+03 -0.39698526102E+03  0.82751935596E+03  0.12699999809E+01 0.  1.
       -4    1    3    3    0  502  0.49661573239E+02  0.72437773452E+03  0.10122454278E+04  0.12457254084E+04  0.12699999809E+01 0. -1.
</event>
<event>
 5   0  0.1813834E-04  0.1882672E+04  0.7818609E-02  0.8663530E-01
        1   -1    0    0  501    0  0.00000000000E+00  0.00000000000E+00  0.14561173481E+04  0.14561173481E+04  0.50400001928E-02 0.  1.
       -1   -1    0    0    0  501  0.00000000000E+00  0.00000000000E+00 -0.60854504839E+03  0.60854504841E+03  0.50400001928E-02 0. -1.
    10030    2    1    2    0    0  0.00000000000E+00  0.00000000000E+00  0.84757229967E+03  0.20646623965E+04  0.18826715083E+04 0.  0.
        5    1    3    3  502    0 -0.57919557319E+03  0.36360722180E+03  0.11331632757E+04  0.13235402612E+04  0.46999998093E+01 0.  1.
       -5    1    3    3    0  502  0.57919557319E+03 -0.36360722180E+03 -0.28559097603E+03  0.74112213523E+03  0.46999998093E+01 0. -1.
</event>
<event>
 5   0  0.1758946E-04  0.1913018E+04  0.7818609E-02  0.8648403E-01
        1   -1    0    0  501    0  0.00000000000E+00  0.00000000000E+00  0.89183586334E+03  0.89183586335E+03  0.50400001928E-02 0. -1.
       -1   -1    0    0    0  501  0.00000000000E+00  0.00000000000E+00 -0.10258725558E+04  0.10258725558E+04  0.50400001928E-02 0.  1.
    10030    2    1    2    0    0  0.00000000000E+00  0.00000000000E+00 -0.13403669244E+03  0.19177084191E+04  0.19130184907E+04 0.  0.
        2    1    3    3  502    0 -0.39914237824E+03 -0.91104647446E+02 -0.93360005004E+03  0.10194232430E+04  0.25500000920E-02 0.  1.
       -2    1    3    3    0  502  0.39914237824E+03  0.91104647446E+02  0.79956335760E+03  0.89828517616E+03  0.25500000920E-02 0. -1.
</event>
<event>
 5   0  0.3516539E-04  0.1876460E+04  0.7818609E-02  0.8666663E-01
       -2   -1    0    0    0  501  0.00000000000E+00  0.00000000000E+00  0.11368149016E+04  0.11368149016E+04  0.25500000920E-02 0.  1.
        2   -1    0    0  501    0  0.00000000000E+00  0.00000000000E+00 -0.77433527461E+03  0.77433527462E+03  0.25500000920E-02 0. -1.
    10030    2    1    2    0    0  0.00000000000E+00  0.00000000000E+00  0.36247962694E+03  0.19111501762E+04  0.18764603689E+04 0.  0.
        4    1    3    3  502    0  0.74090107114E+03 -0.45087459976E+03 -0.18321907012E+03  0.88644974053E+03  0.12699999809E+01 0.  1.
       -4    1    3    3    0  502 -0.74090107114E+03  0.45087459976E+03  0.54569869707E+03  0.10247004356E+04  0.12699999809E+01 0. -1.
</event>
<event>
 5   0  0.3459485E-04  0.1886775E+04  0.7818609E-02  0.8661467E-01
       -2   -1    0    0    0  501  0.00000000000E+00  0.00000000000E+00  0.72664922405E+03  0.72664922405E+03  0.25500000920E-02 0.  1.
        2   -1    0    0  501    0  0.00000000000E+00  0.00000000000E+00 -0.12247725409E+04  0.12247725409E+04  0.25500000920E-02 0. -1.
    10030    2    1    2    0    0  0.00000000000E+00  0.00000000000E+00 -0.49812331688E+03  0.19514217650E+04  0.18867750438E+04 0.  0.
        3    1    3    3  502    0  0.69678536651E+03  0.59954181894E+03 -0.46851017082E+03  0.10317276918E+04  0.10100000352E+00 0.  1.
       -3    1    3    3    0  502 -0.69678536651E+03 -0.59954181894E+03 -0.29613146062E+02  0.91969407319E+03  0.10100000352E+00 0. -1.
</event>
<event>
 5   0  0.1287000E-04  0.1885895E+04  0.7818609E-02  0.8661909E-01
       -3   -1    0    0    0  501  0.00000000000E+00  0.00000000000E+00  0.53354138983E+03  0.53354139939E+03  0.10100000352E+00 0. -1.
        3   -1    0    0  501    0  0.00000000000E+00  0.00000000000E+00 -0.16665056576E+04  0.16665056606E+04  0.10100000352E+00 0.  1.
    10030    2    1    2    0    0  0.00000000000E+00  0.00000000000E+00 -0.11329642677E+04  0.22000470600E+04  0.18858947570E+04 0.  0.
        4    1    3    3  502    0  0.71379067903E+03 -0.21110473148E+01  0.15231154567E+03  0.72986437769E+03  0.12699999809E+01 0. -1.
       -4    1    3    3    0  502 -0.71379067903E+03  0.21110473148E+01 -0.12852758134E+04  0.14701826823E+04  0.12699999809E+01 0.  1.
</event>
<event>
 5   0  0.3535876E-04  0.1875493E+04  0.7818609E-02  0.8667152E-01
        2   -1    0    0  501    0  0.00000000000E+00  0.00000000000E+00  0.20325102845E+04  0.20325102845E+04  0.25500000920E-02 0.  1.
       -2   -1    0    0    0  501  0.00000000000E+00  0.00000000000E+00 -0.43265139188E+03  0.43265139189E+03  0.25500000920E-02 0. -1.
    10030    2    1    2    0    0  0.00000000000E+00  0.00000000000E+00  0.15998588926E+04  0.24651616763E+04  0.18754928990E+04 0.  0.
        2    1    3    3  502    0 -0.66499168593E+03  0.15117566337E+03 -0.46104227574E+02  0.68351563506E+03  0.25500000920E-02 0. -1.
       -2    1    3    3    0  502  0.66499168593E+03 -0.15117566337E+03  0.16459631201E+04  0.17816460413E+04  0.25500000920E-02 0.  1.
</event>
<event>
 5   0  0.3516539E-04  0.1971977E+04  0.7818609E-02  0.8619836E-01
       -2   -1    0    0    0  501  0.00000000000E+00  0.00000000000E+00  0.13449731273E+04  0.13449731273E+04  0.25500000920E-02 0. -1.
        2   -1    0    0  501    0  0.00000000000E+00  0.00000000000E+00 -0.72281979170E+03  0.72281979171E+03  0.25500000920E-02 0.  1.
    10030    2    1    2    0    0  0.00000000000E+00  0.00000000000E+00  0.62215333558E+03  0.20677929190E+04  0.19719768718E+04 0.  0.
        4    1    3    3  502    0 -0.52074351012E+03  0.23356958400E+03 -0.53200637637E+03  0.78023134473E+03  0.12699999809E+01 0.  1.
       -4    1    3    3    0  502  0.52074351012E+03 -0.23356958400E+03  0.11541597120E+04  0.12875615743E+04  0.12699999809E+01 0. -1.
</event>
<event>
 5   0  0.1694830E-04  0.1810298E+04  0.7818609E-02  0.8700842E-01
       -1   -1    0    0    0  501  0.00000000000E+00  0.00000000000E+00  0.73128118067E+03  0.73128118069E+03  0.50400001928E-02 0. -1.
        1   -1    0    0  501    0  0.00000000000E+00  0.00000000000E+00 -0.11203556094E+04  0.11203556094E+04  0.50400001928E-02 0.  1.
    10030    2    1    2    0    0  0.00000000000E+00  0.00000000000E+00 -0.38907442872E+03  0.18516367901E+04  0.18102982879E+04 0.  0.
        1    1    3    3  502    0 -0.89255354256E+03 -0.15029457962E+03 -0.20210106496E+03  0.92740774608E+03  0.50400001928E-02 0. -1.
       -1    1    3    3    0  502  0.89255354256E+03  0.15029457962E+03 -0.18697336376E+03  0.92422904401E+03  0.50400001928E-02 0.  1.
</event>
<event>
 5   0  0.3535876E-04  0.1889128E+04  0.7818609E-02  0.8660287E-01
       -2   -1    0    0    0  501  0.00000000000E+00  0.00000000000E+00  0.60528338615E+03  0.60528338615E+03  0.25500000920E-02 0. -1.
        2   -1    0    0  501    0  0.00000000000E+00  0.00000000000E+00 -0.14740219700E+04  0.14740219700E+04  0.25500000920E-02 0.  1.
    10030    2    1    2    0    0  0.00000000000E+00  0.00000000000E+00 -0.86873858381E+03  0.20793053561E+04  0.18891278509E+04 0.  0.
        2    1    3    3  502    0  0.86053141638E+03  0.51343646097E+01 -0.86300951111E+03  0.12187395524E+04  0.25500000920E-02 0.  1.
       -2    1    3    3    0  502 -0.86053141638E+03 -0.51343646097E+01 -0.57290727028E+01  0.86056580373E+03  0.25500000920E-02 0. -1.
</event>
<event>
 5   0  0.1813834E-04  0.1858520E+04  0.7818609E-02  0.8675784E-01
        1   -1    0    0  501    0  0.00000000000E+00  0.00000000000E+00  0.10206293900E+04  0.10206293900E+04  0.50400001928E-02 0.  1.
       -1   -1    0    0    0  501  0.00000000000E+00  0.00000000000E+00 -0.84607044058E+03  0.84607044059E+03  0.50400001928E-02 0. -1.
    10030    2    1    2    0    0  0.00000000000E+00  0.00000000000E+00  0.17455894944E+03  0.18666998306E+04  0.18585202261E+04 0.  0.
        5    1    3    3  502    0  0.79606395620E+03 -0.44831984128E+03  0.25771354904E+03  0.94928755696E+03  0.46999998093E+01 0.  1.
       -5    1    3    3    0  502 -0.79606395620E+03  0.44831984128E+03 -0.83154599601E+02  0.91741227367E+03  0.46999998093E+01 0. -1.
</event>
<event>
 5   0  0.1782613E-04  0.1898507E+04  0.7818609E-02  0.8655600E-01
       -1   -1    0    0    0  501  0.00000000000E+00  0.00000000000E+00  0.12158522670E+04  0.12158522670E+04  0.50400001928E-02 0.  1.
        1   -1    0    0  501    0  0.00000000000E+00  0.00000000000E+00 -0.74111156691E+03  0.74111156692E+03  0.50400001928E-02 0. -1.
    10030    2    1    2    0    0  0.00000000000E+00  0.00000000000E+00  0.47474070006E+03  0.19569638339E+04  0.18985069699E+04 0.  0.
        3    1    3    3  502    0  0.63170456096E+03  0.33602706153E+03 -0.40562952788E+03  0.82249629939E+03  0.10100000352E+00 0. -1.
       -3    1    3    3    0  502 -0.63170456096E+03 -0.33602706153E+03  0.88037022794E+03  0.11344675345E+04  0.10100000352E+00 0.  1.
</event>
<event>
 5   0  0.3623359E-04  0.1900092E+04  0.7818609E-02  0.8654810E-01
        2   -1    0    0  501    0  0.00000000000E+00  0.00000000000E+00  0.19230714411E+04  0.19230714411E+04  0.25500000920E-02 0.  1.
       -2   -1    0    0    0  501  0.00000000000E+00  0.00000000000E+00 -0.46934687587E+03  0.46934687587E+03  0.25500000920E-02 0. -1.
    10030    2    1    2    0    0  0.00000000000E+00  0.00000000000E+00  0.14537245652E+04  0.23924183170E+04  0.19000921798E+04 0.  0.
        5    1    3    3  502    0 -0.81309446397E+03  0.49122166041E+03  0.74197973972E+03  0.12053951017E+04  0.46999998093E+01 0. -1.
       -5    1    3    3    0  502  0.81309446397E+03 -0.49122166041E+03  0.71174482549E+03  0.11870232153E+04  0.46999998093E+01 0.  1.
</event>
<event>
 5   0  0.1813834E-04  0.1903654E+04  0.7818609E-02  0.8653040E-01
        1   -1    0    0  501    0  0.00000000000E+00  0.00000000000E+00  0.92934379666E+03  0.92934379668E+03  0.50400001928E-02 0. -1.
       -1   -1    0    0    0  501  0.00000000000E+00  0.00000000000E+00 -0.97485446595E+03  0.97485446597E+03  0.50400001928E-02 0.  1.
    10030    2    1    2    0    0  0.00000000000E+00  0.00000000000E+00 -0.45510669293E+02  0.19041982626E+04  0.19036543285E+04 0.  0.
        5    1    3    3  502    0  0.76244006607E+02 -0.76694866414E+03 -0.58142137110E+03  0.96545134665E+03  0.46999998093E+01 0.  1.
       -5    1    3    3    0  502 -0.76244006607E+02  0.76694866414E+03  0.53591070181E+03  0.93874691599E+03  0.46999998093E+01 0. -1.
</event>
<event>
 5   0  0.3459485E-04  0.1956918E+04  0.7818609E-02  0.8627032E-01
        2   -1    0    0  501    0  0.00000000000E+00  0.00000000000E+00  0.12770813053E+04  0.12770813053E+04  0.25500000920E-02 0.  1.
       -2   -1    0    0    0  501  0.00000000000E+00  0.00000000000E+00 -0.74966443311E+03  0.74966443312E+03  0.25500000920E-02 0. -1.
    10030    2    1    2    0    0  0.00000000000E+00  0.00000000000E+00  0.52741687215E+03  0.20267457384E+04  0.19569184273E+04 0.  0.
        3    1    3    3  502    0  0.29444658959E+03  0.27822978525E+03  0.11861472267E+04  0.12534176723E+04  0.10100000352E+00 0.  1.
       -3    1    3    3    0  502 -0.29444658959E+03 -0.27822978525E+03 -0.65873035460E+03  0.77332806608E+03  0.10100000352E+00 0. -1.
</event>
<event>
 5   0  0.1694830E-04  0.1887509E+04  0.7818609E-02  0.8661099E-01
       -1   -1    0    0    0  501  0.00000000000E+00  0.00000000000E+00  0.75451861969E+03  0.75451861971E+03  0.50400001928E-02 0.  1.
        1   -1    0    0  501    0  0.00000000000E+00  0.00000000000E+00 -0.11804516485E+04  0.11804516485E+04  0.50400001928E-02 0. -1.
    10030    2    1    2    0    0  0.00000000000E+00  0.00000000000E+00 -0.42593302876E+03  0.19349702682E+04  0.18875092036E+04 0.  0.
        1    1    3    3  502    0  0.20359102464E+02 -0.60383977011E+03 -0.95620412987E+03  0.11310894302E+04  0.50400001928E-02 0. -1.
       -1    1    3    3    0  502 -0.20359102464E+02  0.60383977011E+03  0.53027110111E+03  0.80388083801E+03  0.50400001928E-02 0.  1.
</event>
<event>
 5   0  0.1813834E-04  0.1885299E+04  0.7818609E-02  0.8662209E-01
        1   -1    0    0  501    0  0.00000000000E+00  0.00000000000E+00  0.17810347397E+04  0.17810347397E+04  0.50400001928E-02 0. -1.
       -1   -1    0    0    0  501  0.00000000000E+00  0.00000000000E+00 -0.49891663588E+03  0.49891663590E+03  0.50400001928E-02 0.  1.
    10030    2    1    2    0    0  0.00000000000E+00  0.00000000000E+00  0.12821181038E+04  0.22799513756E+04  0.18852987676E+04 0.  0.
        5    1    3    3  502    0  0.53169807119E+03 -0.29755433966E+03  0.15108739868E+04  0.16291113277E+04  0.46999998093E+01 0. -1.
       -5    1    3    3    0  502 -0.53169807119E+03  0.29755433966E+03 -0.22875588301E+03  0.65084004791E+03  0.46999998093E+01 0.  1.
</event>
<event>
 5   0  0.3459485E-04  0.1933970E+04  0.7818609E-02  0.8638130E-01
        2   -1    0    0  501    0  0.00000000000E+00  0.00000000000E+00  0.14043665430E+04  0.14043665430E+04  0.25500000920E-02 0.  1.
       -2   -1    0    0    0  501  0.00000000000E+00  0.00000000000E+00 -0.66582351574E+03  0.66582351574E+03  0.25500000920E-02 0. -1.
    10030    2    1    2    0    0  0.00000000000E+00  0.00000000000E+00  0.73854302725E+03  0.20701900587E+04  0.19339702883E+04 0.  0.
        3    1    3    3  502    0  0.66628442583E+03 -0.42428094544E+03 -0.22778866404E+03  0.82209302542E+03  0.10100000352E+00 0. -1.
       -3    1    3    3    0  502 -0.66628442583E+03  0.42428094544E+03  0.96633169128E+03  0.12480970333E+04  0.10100000352E+00 0.  1.
</event>
<event>
 5   0  0.3623359E-04  0.1877794E+04  0.7818609E-02  0.8665989E-01
       -2   -1    0    0    0  501  0.00000000000E+00  0.00000000000E+00  0.96675294097E+03  0.96675294098E+03  0.25500000920E-02 0.  1.
        2   -1    0    0  501    0  0.00000000000E+00  0.00000000000E+00 -0.91184382091E+03  0.91184382092E+03  0.25500000920E-02 0. -1.
    10030    2    1    2    0    0  0.00000000000E+00  0.00000000000E+00  0.54909120059E+02  0.18785967619E+04  0.18777941267E+04 0.  0.
        5    1    3    3  502    0 -0.90334697757E+03 -0.25587073347E+03  0.27347512724E+02  0.93929525208E+03  0.46999998093E+01 0. -1.
       -5    1    3    3    0  502  0.90334697757E+03  0.25587073347E+03  0.27561607335E+02  0.93930150981E+03  0.46999998093E+01 0.  1.
</event>
<event>
 5   0  0.3623359E-04  0.1737796E+04  0.7818609E-02  0.8740097E-01
        2   -1    0    0  501    0  0.00000000000E+00  0.00000000000E+00  0.16566336890E+04  0.16566336890E+04  0.25500000920E-02 0.  1.
       -2   -1    0    0    0  501  0.00000000000E+00  0.00000000000E+00 -0.45573380432E+03  0.45573380433E+03  0.25500000920E-02 0. -1.
    10030    2    1    2    0    0  0.00000000000E+00  0.00000000000E+00  0.12008998847E+04  0.21123674933E+04  0.17377962751E+04 0.  0.
        5    1    3    3  502    0  0.28911383935E+03 -0.81397237475E+02  0.15915092469E+04  0.16196098590E+04  0.46999998093E+01 0.  1.
       -5    1    3    3    0  502 -0.28911383935E+03  0.81397237475E+02 -0.39060936220E+03  0.49275763435E+03  0.46999998093E+01 0. -1.
</event>
<event>
 5   0  0.1711979E-04  0.1879063E+04  0.7818609E-02  0.8665349E-01
       -1   -1    0    0    0  501  0.00000000000E+00  0.00000000000E+00  0.80270217574E+03  0.80270217576E+03  0.50400001928E-02 0. -1.
        1   -1    0    0  501    0  0.00000000000E+00  0.00000000000E+00 -0.10996843191E+04  0.10996843191E+04  0.50400001928E-02 0.  1.
    10030    2    1    2    0    0  0.00000000000E+00  0.00000000000E+00 -0.29698214336E+03  0.19023864949E+04  0.18790625275E+04 0.  0.
        4    1    3    3  502    0  0.78879742351E+03  0.48504780900E+03 -0.30934883666E+03  0.97630480282E+03  0.12699999809E+01 0.  1.
       -4    1    3    3    0  502 -0.78879742351E+03 -0.48504780900E+03  0.12366693304E+02  0.92608169206E+03  0.12699999809E+01 0. -1.
</event>
<event>
 5   0  0.1287000E-04  0.1874086E+04  0.7818609E-02  0.8667864E-01
        3   -1    0    0  501    0  0.00000000000E+00  0.00000000000E+00  0.74969943099E+03  0.74969943779E+03  0.10100000352E+00 0.  1.
       -3   -1    0    0    0  501  0.00000000000E+00  0.00000000000E+00 -0.11712027209E+04  0.11712027252E+04  0.10100000352E+00 0. -1.
    10030    2    1    2    0    0  0.00000000000E+00  0.00000000000E+00 -0.42150328988E+03  0.19209021630E+04  0.18740864699E+04 0.  0.
        2    1    3    3  502    0 -0.17354317060E+02  0.50480082880E+03 -0.10197236485E+04  0.11379636938E+04  0.25500000920E-02 0. -1.
       -2    1    3    3    0  502  0.17354317060E+02 -0.50480082880E+03  0.59822035863E+03  0.78293846921E+03  0.25500000920E-02 0.  1.
</event>
<event>
 5   0  0.1711979E-04  0.1934979E+04  0.7818609E-02  0.8637638E-01
       -1   -1    0    0    0  501  0.00000000000E+00  0.00000000000E+00  0.13876332453E+04  0.13876332453E+04  0.50400001928E-02 0. -1.
        1   -1    0    0  501    0  0.00000000000E+00  0.00000000000E+00 -0.67455562641E+03  0.67455562643E+03  0.50400001928E-02 0.  1.
    10030    2    1    2    0    0  0.00000000000E+00  0.00000000000E+00  0.71307761891E+03  0.20621888718E+04  0.19349788764E+04 0.  0.
        4    1    3    3  502    0 -0.50040895288E+03 -0.34517733277E+03 -0.44558907758E+03  0.75372922866E+03  0.12699999809E+01 0.  1.
       -4    1    3    3    0  502  0.50040895288E+03  0.34517733277E+03  0.11586666965E+04  0.13084596431E+04  0.12699999809E+01 0. -1.
</event>
<event>
 5   0  0.1782613E-04  0.1915663E+04  0.7818609E-02  0.8647099E-01
        1   -1    0    0  501    0  0.00000000000E+00  0.00000000000E+00  0.16219303320E+04  0.16219303320E+04  0.50400001928E-02 0. -1.
       -1   -1    0    0    0  501  0.00000000000E+00  0.00000000000E+00 -0.56564787064E+03  0.56564787066E+03  0.50400001928E-02 0.  1.
    10030    2    1    2    0    0  0.00000000000E+00  0.00000000000E+00  0.10562824613E+04  0.21875782026E+04  0.19156632675E+04 0.  0.
        3    1    3    3  502    0 -0.65586546334E+03 -0.94833437996E+01  0.13252075987E+04  0.14786563596E+04  0.10100000352E+00 0. -1.
       -3    1    3    3    0  502  0.65586546334E+03  0.94833437996E+01 -0.26892513742E+03  0.70892184304E+03  0.10100000352E+00 0.  1.
</event>
<event>
 5   0  0.1711979E-04  0.1533041E+04  0.7818609E-02  0.8862774E-01
        1   -1    0    0  501    0  0.00000000000E+00  0.00000000000E+00  0.57466527706E+03  0.57466527708E+03  0.50400001928E-02 0. -1.
       -1   -1    0    0    0  501  0.00000000000E+00  0.00000000000E+00 -0.10224272578E+04  0.10224272578E+04  0.50400001928E-02 0.  1.
    10030    2    1    2    0    0  0.00000000000E+00  0.00000000000E+00 -0.44776198077E+03  0.15970925349E+04  0.15330406954E+04 0.  0.
        4    1    3    3  502    0 -0.13090145313E+03  0.14500313659E+03  0.54829636219E+03  0.58205808451E+03  0.12699999809E+01 0. -1.
       -4    1    3    3    0  502  0.13090145313E+03 -0.14500313659E+03 -0.99605834296E+03  0.10150344504E+04  0.12699999809E+01 0.  1.
</event>
<event>
 5   0  0.3459485E-04  0.1938838E+04  0.7818609E-02  0.8635762E-01
       -2   -1    0    0    0  501  0.00000000000E+00  0.00000000000E+00  0.11102111642E+04  0.11102111642E+04  0.25500000920E-02 0.  1.
        2   -1    0    0  501    0  0.00000000000E+00  0.00000000000E+00 -0.84648136926E+03  0.84648136926E+03  0.25500000920E-02 0. -1.
    10030    2    1    2    0    0  0.00000000000E+00  0.00000000000E+00  0.26372979496E+03  0.19566925335E+04  0.19388378648E+04 0.  0.
        3    1    3    3  502    0  0.73870643241E+02 -0.13171649865E+03 -0.83453736061E+03  0.84809122411E+03  0.10100000352E+00 0. -1.
       -3    1    3    3    0  502 -0.73870643241E+02  0.13171649865E+03  0.10982671556E+04  0.11086013094E+04  0.10100000352E+00 0.  1.
</event>
<event>
 5   0  0.3623359E-04  0.1906542E+04  0.7818609E-02  0.8651607E-01
        2   -1    0    0  501    0  0.00000000000E+00  0.00000000000E+00  0.20064729277E+04  0.20064729278E+04  0.25500000920E-02 0.  1.
       -2   -1    0    0    0  501  0.00000000000E+00  0.00000000000E+00 -0.45289698649E+03  0.45289698650E+03  0.25500000920E-02 0. -1.
    10030    2    1    2    0    0  0.00000000000E+00  0.00000000000E+00  0.15535759413E+04  0.24593699142E+04  0.19065419402E+04 0.  0.
        5    1    3    3  502    0  0.62566939577E+03 -0.71912593677E+03  0.78963245523E+03  0.12377987761E+04  0.46999998093E+01 0.  1.
       -5    1    3    3    0  502 -0.62566939577E+03  0.71912593677E+03  0.76394348603E+03  0.12215711382E+04  0.46999998093E+01 0. -1.
</event>
<event>
 5   0  0.3623359E-04  0.1841470E+04  0.7818609E-02  0.8684552E-01
        2   -1    0    0  501    0  0.00000000000E+00  0.00000000000E+00  0.10872881190E+04  0.10872881190E+04  0.25500000920E-02 0.  1.
       -2   -1    0    0    0  501  0.00000000000E+00  0.00000000000E+00 -0.77969452878E+03  0.77969452878E+03  0.25500000920E-02 0. -1.
    10030    2    1    2    0    0  0.00000000000E+00  0.00000000000E+00  0.30759359023E+03  0.18669826478E+04  0.18414696279E+04 0.  0.
        5    1    3    3  502    0 -0.11426273654E+03 -0.15048027139E+03  0.10674088428E+04  0.10840129210E+04  0.46999998093E+01 0.  1.
       -5    1    3    3    0  502  0.11426273654E+03  0.15048027139E+03 -0.75981525261E+03  0.78296972683E+03  0.46999998093E+01 0. -1.
</event>
<event>
 5   0  0.1694830E-04  0.1894252E+04  0.7818609E-02  0.8657723E-01
       -1   -1    0    0    0  501  0.00000000000E+00  0.00000000000E+00  0.46494278598E+03  0.46494278601E+03  0.50400001928E-02 0.  1.
        1   -1    0    0  501    0  0.00000000000E+00  0.00000000000E+00 -0.19293723407E+04  0.19293723407E+04  0.50400001928E-02 0. -1.
    10030    2    1    2    0    0  0.00000000000E+00  0.00000000000E+00 -0.14644295548E+04  0.23943151267E+04  0.18942520966E+04 0.  0.
        1    1    3    3  502    0 -0.84741413889E+03 -0.34795971438E+03 -0.10362589940E+04  0.13831194411E+04  0.50400001928E-02 0. -1.
       -1    1    3    3    0  502  0.84741413889E+03  0.34795971438E+03 -0.42817056079E+03  0.10111956857E+04  0.50400001928E-02 0.  1.
</event>
<event>
 5   0  0.3720978E-04  0.1897371E+04  0.7818609E-02  0.8656166E-01
       -2   -1    0    0    0  501  0.00000000000E+00  0.00000000000E+00  0.68214314944E+03  0.68214314944E+03  0.25500000920E-02 0. -1.
        2   -1    0    0  501    0  0.00000000000E+00  0.00000000000E+00 -0.13193776546E+04  0.13193776546E+04  0.25500000920E-02 0.  1.
    10030    2    1    2    0    0  0.00000000000E+00  0.00000000000E+00 -0.63723450520E+03  0.20015208041E+04  0.18973712643E+04 0.  0.
        1    1    3    3  502    0  0.20553609606E+03 -0.60676182539E+03 -0.10567394076E+04  0.12357601609E+04  0.50400001928E-02 0.  1.
       -1    1    3    3    0  502 -0.20553609606E+03  0.60676182539E+03  0.41950490241E+03  0.76576064322E+03  0.50400001928E-02 0. -1.
</event>
<event>
 5   0  0.3720978E-04  0.1892041E+04  0.7818609E-02  0.8658828E-01
        2   -1    0    0  501    0  0.00000000000E+00  0.00000000000E+00  0.17292429693E+04  0.17292429693E+04  0.25500000920E-02 0.  1.
       -2   -1    0    0    0  501  0.00000000000E+00  0.00000000000E+00 -0.51754135820E+03  0.51754135820E+03  0.25500000920E-02 0. -1.
    10030    2    1    2    0    0  0.00000000000E+00  0.00000000000E+00  0.12117016111E+04  0.22467843275E+04  0.18920409668E+04 0.  0.
        1    1    3    3  502    0  0.49051862964E+03  0.77707163042E+03  0.87272215464E+03  0.12673171679E+04  0.50400001928E-02 0.  1.
       -1    1    3    3    0  502 -0.49051862964E+03 -0.77707163042E+03  0.33897945647E+03  0.97946715962E+03  0.50400001928E-02 0. -1.
</event>
<event>
 5   0  0.1782613E-04  0.1853069E+04  0.7818609E-02  0.8678576E-01
       -1   -1    0    0    0  501  0.00000000000E+00  0.00000000000E+00  0.62167914403E+03  0.62167914405E+03  0.50400001928E-02 0.  1.
        1   -1    0    0  501    0  0.00000000000E+00  0.00000000000E+00 -0.13808824728E+04  0.13808824728E+04  0.50400001928E-02 0. -1.
    10030    2    1    2    0    0  0.00000000000E+00  0.00000000000E+00 -0.75920332872E+03  0.20025616168E+04  0.18530686266E+04 0.  0.
        3    1    3    3  502    0  0.78688098639E+03  0.19149196843E+03  0.10683930086E+03  0.81686321200E+03  0.10100000352E+00 0.  1.
       -3    1    3    3    0  502 -0.78688098639E+03 -0.19149196843E+03 -0.86604262958E+03  0.11856984048E+04  0.10100000352E+00 0. -1.
</event>
<event>
 5   0  0.3516539E-04  0.1631089E+04  0.7818609E-02  0.8801673E-01
        2   -1    0    0  501    0  0.00000000000E+00  0.00000000000E+00  0.19191843203E+03  0.19191843204E+03  0.25500000920E-02 0.  1.
       -2   -1    0    0    0  501  0.00000000000E+00  0.00000000000E+00 -0.34656018514E+04  0.34656018514E+04  0.25500000920E-02 0. -1.
    10030    2    1    2    0    0  0.00000000000E+00  0.00000000000E+00 -0.32736834194E+04  0.36575202834E+04  0.16310890514E+04 0.  0.
        4    1    3    3  502    0 -0.75966439656E+03  0.29356180865E+03 -0.17331003835E+04  0.19149169911E+04  0.12699999809E+01 0. -1.
       -4    1    3    3    0  502  0.75966439656E+03 -0.29356180865E+03 -0.15405830359E+04  0.17426032923E+04  0.12699999809E+01 0.  1.
</event>
<event>
 5   0  0.1758946E-04  0.1901147E+04  0.7818609E-02  0.8654286E-01
        1   -1    0    0  501    0  0.00000000000E+00  0.00000000000E+00  0.14675130293E+04  0.14675130293E+04  0.50400001928E-02 0.  1.
       -1   -1    0    0    0  501  0.00000000000E+00  0.00000000000E+00 -0.61572869404E+03  0.61572869407E+03  0.50400001928E-02 0. -1.
    10030    2    1    2    0    0  0.00000000000E+00  0.00000000000E+00  0.85178433521E+03  0.20832417233E+04  0.19011468970E+04 0.  0.
        2    1    3    3  502    0 -0.68844402391E+03  0.54457078301E+03  0.82563077346E+03  0.12050637684E+04  0.25500000920E-02 0.  1.
       -2    1    3    3    0  502  0.68844402391E+03 -0.54457078301E+03  0.26153561748E+02  0.87817795495E+03  0.25500000920E-02 0. -1.
</event>
<event>
 5   0  0.3535876E-04  0.1909252E+04  0.7818609E-02  0.8650265E-01
       -2   -1    0    0    0  501  0.00000000000E+00  0.00000000000E+00  0.10017013168E+04  0.10017013168E+04  0.25500000920E-02 0. -1.
        2   -1    0    0  501    0  0.00000000000E+00  0.00000000000E+00 -0.90976328010E+03  0.90976328010E+03  0.25500000920E-02 0.  1.
    10030    2    1    2    0    0  0.00000000000E+00  0.00000000000E+00  0.91938036692E+02  0.19114645969E+04  0.19092522889E+04 0.  0.
        2    1    3    3  502    0 -0.48357328154E+03 -0.22520563509E+03  0.83856203463E+03  0.99385460839E+03  0.25500000920E-02 0. -1.
       -2    1    3    3    0  502  0.48357328154E+03  0.22520563509E+03 -0.74662399793E+03  0.91760998850E+03  0.25500000920E-02 0.  1.
</event>
<event>
 5   0  0.1694830E-04  0.1817102E+04  0.7818609E-02  0.8697257E-01
        1   -1    0    0  501    0  0.00000000000E+00  0.00000000000E+00  0.47226518675E+03  0.47226518677E+03  0.50400001928E-02 0.  1.
       -1   -1    0    0    0  501  0.00000000000E+00  0.00000000000E+00 -0.17478852822E+04  0.17478852822E+04  0.50400001928E-02 0. -1.
    10030    2    1    2    0    0  0.00000000000E+00  0.00000000000E+00 -0.12756200954E+04  0.22201504689E+04  0.18171024949E+04 0.  0.
        1    1    3    3  502    0  0.34617780757E+03 -0.15792488437E+03  0.37022678730E+03  0.53089284947E+03  0.50400001928E-02 0.  1.
       -1    1    3    3    0  502 -0.34617780757E+03  0.15792488437E+03 -0.16458468827E+04  0.16892576195E+04  0.50400001928E-02 0. -1.
</event>
<event>
 5   0  0.3535876E-04  0.1897206E+04  0.7818609E-02  0.8656248E-01
       -2   -1    0    0    0  501  0.00000000000E+00  0.00000000000E+00  0.48375789860E+03  0.48375789860E+03  0.25500000920E-02 0. -1.
        2   -1    0    0  501    0  0.00000000000E+00  0.00000000000E+00 -0.18601200990E+04  0.18601200990E+04  0.25500000920E-02 0.  1.
    10030    2    1    2    0    0  0.00000000000E+00  0.00000000000E+00 -0.13763622004E+04  0.23438779976E+04  0.18972061461E+04 0.  0.
        2    1    3    3  502    0 -0.81602169951E+03 -0.48211324412E+03 -0.63996430129E+03  0.11436253325E+04  0.25500000920E-02 0. -1.
       -2    1    3    3    0  502  0.81602169951E+03  0.48211324412E+03 -0.73639789909E+03  0.12002526651E+04  0.25500000920E-02 0.  1.
</event>
<event>
 5   0  0.3623359E-04  0.1861788E+04  0.7818609E-02  0.8674114E-01
       -2   -1    0    0    0  501  0.00000000000E+00  0.00000000000E+00  0.84802829623E+03  0.84802829624E+03  0.25500000920E-02 0.  1.
        2   -1    0    0  501    0  0.00000000000E+00  0.00000000000E+00 -0.10218567838E+04  0.10218567838E+04  0.25500000920E-02 0. -1.
    10030    2    1    2    0    0  0.00000000000E+00  0.00000000000E+00 -0.17382848756E+03  0.18698850800E+04  0.18617878154E+04 0.  0.
        5    1    3    3  502    0 -0.16704759477E+03  0.45316070866E+03  0.71233687611E+03  0.86064245878E+03  0.46999998093E+01 0.  1.
       -5    1    3    3    0  502  0.16704759477E+03 -0.45316070866E+03 -0.88616536367E+03  0.10092426213E+04  0.46999998093E+01 0. -1.
</event>
<event>
 5   0  0.3623359E-04  0.1893666E+04  0.7818609E-02  0.8658016E-01
        2   -1    0    0  501    0  0.00000000000E+00  0.00000000000E+00  0.85672286452E+03  0.85672286452E+03  0.25500000920E-02 0. -1.
       -2   -1    0    0    0  501  0.00000000000E+00  0.00000000000E+00 -0.10464206522E+04  0.10464206522E+04  0.25500000920E-02 0.  1.
    10030    2    1    2    0    0  0.00000000000E+00  0.00000000000E+00 -0.18969778771E+03  0.19031435168E+04  0.18936657558E+04 0.  0.
        5    1    3    3  502    0 -0.69192091444E+03  0.34280049451E+03  0.45580183501E+03  0.89668508055E+03  0.46999998093E+01 0. -1.
       -5    1    3    3    0  502  0.69192091444E+03 -0.34280049451E+03 -0.64549962272E+03  0.10064584362E+04  0.46999998093E+01 0.  1.
</event>
<event>
 5   0  0.3623359E-04  0.1914607E+04  0.7818609E-02  0.8647620E-01
       -2   -1    0    0    0  501  0.00000000000E+00  0.00000000000E+00  0.61742467381E+03  0.61742467382E+03  0.25500000920E-02 0. -1.
        2   -1    0    0  501    0  0.00000000000E+00  0.00000000000E+00 -0.14842776778E+04  0.14842776778E+04  0.25500000920E-02 0.  1.
    10030    2    1    2    0    0  0.00000000000E+00  0.00000000000E+00 -0.86685300403E+03  0.21017023517E+04  0.19146066553E+04 0.  0.
        5    1    3    3  502    0 -0.13031381439E+03  0.94116763404E+03 -0.30527329904E+03  0.99799402939E+03  0.46999998093E+01 0. -1.
       -5    1    3    3    0  502  0.13031381439E+03 -0.94116763404E+03 -0.56157970499E+03  0.11037083223E+04  0.46999998093E+01 0.  1.
</event>
<event>
 5   0  0.1694830E-04  0.2111987E+04  0.7818609E-02  0.8555981E-01
        1   -1    0    0  501    0  0.00000000000E+00  0.00000000000E+00  0.11597819095E+04  0.11597819095E+04  0.50400001928E-02 0.  1.
       -1   -1    0    0    0  501  0.00000000000E+00  0.00000000000E+00 -0.96149319109E+03  0.96149319111E+03  0.50400001928E-02 0. -1.
    10030    2    1    2    0    0  0.00000000000E+00  0.00000000000E+00  0.19828871836E+03  0.21212751006E+04  0.21119871298E+04 0.  0.
        1    1    3    3  502    0 -0.89919706279E+03  0.47318748474E+03  0.38791640509E+03  0.10876308615E+04  0.50400001928E-02 0. -1.
       -1    1    3    3    0  502  0.89919706279E+03 -0.47318748474E+03 -0.18962768673E+03  0.10336442391E+04  0.50400001928E-02 0.  1.
</event>
<event>
 5   0  0.1782613E-04  0.1872602E+04  0.7818609E-02  0.8668616E-01
       -1   -1    0    0    0  501  0.00000000000E+00  0.00000000000E+00  0.67587969421E+03  0.67587969423E+03  0.50400001928E-02 0.  1.
        1   -1    0    0  501    0  0.00000000000E+00  0.00000000000E+00 -0.12970646616E+04  0.12970646616E+04  0.50400001928E-02 0. -1.
    10030    2    1    2    0    0  0.00000000000E+00  0.00000000000E+00 -0.62118496735E+03  0.19729443558E+04  0.18726021113E+04 0.  0.
        3    1    3    3  502    0 -0.14517651387E+03 -0.57274309264E+03 -0.10758377330E+04  0.12274109777E+04  0.10100000352E+00 0. -1.
       -3    1    3    3    0  502  0.14517651387E+03  0.57274309264E+03  0.45465276562E+03  0.74553337808E+03  0.10100000352E+00 0.  1.
</event>
<event>
 5   0  0.1782613E-04  0.1887395E+04  0.7818609E-02  0.8661156E-01
       -1   -1    0    0    0  501  0.00000000000E+00  0.00000000000E+00  0.82472162213E+03  0.82472162214E+03  0.50400001928E-02 0. -1.
        1   -1    0    0  501    0  0.00000000000E+00  0.00000000000E+00 -0.10798367097E+04  0.10798367097E+04  0.50400001928E-02 0.  1.
    10030    2    1    2    0    0  0.00000000000E+00  0.00000000000E+00 -0.25511508752E+03  0.19045583318E+04  0.18873946941E+04 0.  0.
        3    1    3    3  502    0 -0.24817604368E+03  0.47524330933E+03  0.65611093258E+03  0.84730697965E+03  0.10100000352E+00 0. -1.
       -3    1    3    3    0  502  0.24817604368E+03 -0.47524330933E+03 -0.91122602010E+03  0.10572513522E+04  0.10100000352E+00 0.  1.
</event>
<event>
 5   0  0.3720978E-04  0.1931175E+04  0.7818609E-02  0.8639492E-01
        2   -1    0    0  501    0  0.00000000000E+00  0.00000000000E+00  0.22807606346E+04  0.22807606346E+04  0.25500000920E-02 0. -1.
       -2   -1    0    0    0  501  0.00000000000E+00  0.00000000000E+00 -0.40879303362E+03  0.40879303363E+03  0.25500000920E-02 0.  1.
    10030    2    1    2    0    0  0.00000000000E+00  0.00000000000E+00  0.18719676010E+04  0.26895536682E+04  0.19311748329E+04 0.  0.
        1    1    3    3  502    0 -0.47252378801E+03 -0.67208717808E+03  0.16425377134E+04  0.18365484053E+04  0.50400001928E-02 0. -1.
       -1    1    3    3    0  502  0.47252378801E+03  0.67208717808E+03  0.22942988758E+03  0.85300526289E+03  0.50400001928E-02 0.  1.
</event>
<event>
 5   0  0.1813834E-04  0.1962585E+04  0.7818609E-02  0.8624316E-01
        1   -1    0    0  501    0  0.00000000000E+00  0.00000000000E+00  0.18756172041E+04  0.18756172041E+04  0.50400001928E-02 0.  1.
       -1   -1    0    0    0  501  0.00000000000E+00  0.00000000000E+00 -0.51339620676E+03  0.51339620679E+03  0.50400001928E-02 0. -1.
    10030    2    1    2    0    0  0.00000000000E+00  0.00000000000E+00  0.13622209974E+04  0.23890134109E+04  0.19625847834E+04 0.  0.
        5    1    3    3  502    0  0.15225770510E+03 -0.31137296067E+03  0.17986079301E+04  0.18317063372E+04  0.46999998093E+01 0.  1.
       -5    1    3    3    0  502 -0.15225770510E+03  0.31137296067E+03 -0.43638693274E+03  0.55730707375E+03  0.46999998093E+01 0. -1.
</event>
<event>
 5   0  0.3720978E-04  0.1902057E+04  0.7818609E-02  0.8653833E-01
       -2   -1    0    0    0  501  0.00000000000E+00  0.00000000000E+00  0.18541430816E+04  0.18541430816E+04  0.25500000920E-02 0.  1.
        2   -1    0    0  501    0  0.00000000000E+00  0.00000000000E+00 -0.48780220457E+03  0.48780220458E+03  0.25500000920E-02 0. -1.
    10030    2    1    2    0    0  0.00000000000E+00  0.00000000000E+00  0.13663408770E+04  0.23419452862E+04  0.19020568685E+04 0.  0.
        1    1    3    3  502    0 -0.42675480898E+02  0.24763280884E+02 -0.48622525716E+03  0.48872222936E+03  0.50400001928E-02 0. -1.
       -1    1    3    3    0  502  0.42675480898E+02 -0.24763280884E+02  0.18525661342E+04  0.18532230568E+04  0.50400001928E-02 0.  1.
</event>
<event>
 5   0  0.3459485E-04  0.1932002E+04  0.7818609E-02  0.8639089E-01
        2   -1    0    0  501    0  0.00000000000E+00  0.00000000000E+00  0.15625279805E+04  0.15625279805E+04  0.25500000920E-02 0.  1.
       -2   -1    0    0    0  501  0.00000000000E+00  0.00000000000E+00 -0.59721014770E+03  0.59721014770E+03  0.25500000920E-02 0. -1.
    10030    2    1    2    0    0  0.00000000000E+00  0.00000000000E+00  0.96531783284E+03  0.21597381283E+04  0.19320016212E+04 0.  0.
        3    1    3    3  502    0 -0.43108524601E+03 -0.62212063828E+03 -0.18833579479E+03  0.77996087062E+03  0.10100000352E+00 0. -1.
       -3    1    3    3    0  502  0.43108524601E+03  0.62212063828E+03  0.11536536276E+04  0.13797772576E+04  0.10100000352E+00 0.  1.
</event>
<event>
 5   0  0.3535876E-04  0.1882977E+04  0.7818609E-02  0.8663376E-01
       -2   -1    0    0    0  501  0.00000000000E+00  0.00000000000E+00  0.24234029456E+04  0.24234029456E+04  0.25500000920E-02 0.  1.
        2   -1    0    0  501    0  0.00000000000E+00  0.00000000000E+00 -0.36576704378E+03  0.36576704379E+03  0.25500000920E-02 0. -1.
    10030    2    1    2    0    0  0.00000000000E+00  0.00000000000E+00  0.20576359018E+04  0.27891699894E+04  0.18829773565E+04 0.  0.
        2    1    3    3  502    0 -0.44761586748E+03  0.65377509819E+03  0.17821044324E+04  0.19503020412E+04  0.25500000920E-02 0.  1.
       -2    1    3    3    0  502  0.44761586748E+03 -0.65377509819E+03  0.27553146937E+03  0.83886794816E+03  0.25500000920E-02 0. -1.
</event>
<event>
 5   0  0.1758946E-04  0.1921881E+04  0.7818609E-02  0.8644041E-01
        1   -1    0    0  501    0  0.00000000000E+00  0.00000000000E+00  0.12102431447E+04  0.12102431447E+04  0.50400001928E-02 0.  1.
       -1   -1    0    0    0  501  0.00000000000E+00  0.00000000000E+00 -0.76299300652E+03  0.76299300653E+03  0.50400001928E-02 0. -1.
    10030    2    1    2    0    0  0.00000000000E+00  0.00000000000E+00  0.44725013814E+03  0.19732361512E+04  0.19218814278E+04 0.  0.
        2    1    3    3  502    0 -0.17303344746E+02  0.19977188508E+03 -0.74127362681E+03  0.76791588187E+03  0.25500000920E-02 0. -1.
       -2    1    3    3    0  502  0.17303344746E+02 -0.19977188508E+03  0.11885237650E+04  0.12053202693E+04  0.25500000920E-02 0.  1.
</event>
<event>
 5   0  0.3623359E-04  0.1915259E+04  0.7818609E-02  0.8647298E-01
       -2   -1    0    0    0  501  0.00000000000E+00  0.00000000000E+00  0.73471769378E+03  0.73471769379E+03  0.25500000920E-02 0. -1.
        2   -1    0    0  501    0  0.00000000000E+00  0.00000000000E+00 -0.12481719357E+04  0.12481719357E+04  0.25500000920E-02 0.  1.
    10030    2    1    2    0    0  0.00000000000E+00  0.00000000000E+00 -0.51345424196E+03  0.19828896295E+04  0.19152587356E+04 0.  0.
        5    1    3    3  502    0 -0.72915349881E+03 -0.62049250212E+03 -0.23718889336E+03  0.98638553880E+03  0.46999998093E+01 0. -1.
       -5    1    3    3    0  502  0.72915349881E+03  0.62049250212E+03 -0.27626534860E+03  0.99650409073E+03  0.46999998093E+01 0.  1.
</event>
<event>
 5   0  0.1287000E-04  0.1901225E+04  0.7818609E-02  0.8654247E-01
        3   -1    0    0  501    0  0.00000000000E+00  0.00000000000E+00  0.11337188942E+04  0.11337188987E+04  0.10100000352E+00 0. -1.
       -3   -1    0    0    0  501  0.00000000000E+00  0.00000000000E+00 -0.79707946871E+03  0.79707947510E+03  0.10100000352E+00 0.  1.
    10030    2    1    2    0    0  0.00000000000E+00  0.00000000000E+00  0.33663942553E+03  0.19307983738E+04  0.19012249361E+04 0.  0.
        3    1    3    3  502    0  0.30625383705E+02 -0.18574956722E+03 -0.77795911991E+03  0.80041315475E+03  0.10100000352E+00 0.  1.
       -3    1    3    3    0  502 -0.30625383705E+02  0.18574956722E+03  0.11145985454E+04  0.11303852191E+04  0.10100000352E+00 0. -1.
</event>
<event>
 5   0  0.3623359E-04  0.1859127E+04  0.7818609E-02  0.8675474E-01
        2   -1    0    0  501    0  0.00000000000E+00  0.00000000000E+00  0.13197099647E+04  0.13197099647E+04  0.25500000920E-02 0.  1.
       -2   -1    0    0    0  501  0.00000000000E+00  0.00000000000E+00 -0.65475590625E+03  0.65475590626E+03  0.25500000920E-02 0. -1.
    10030    2    1    2    0    0  0.00000000000E+00  0.00000000000E+00  0.66495405843E+03  0.19744658709E+04  0.18591265626E+04 0.  0.
        5    1    3    3  502    0 -0.33823548962E+02  0.76717923377E+03 -0.22381050371E+03  0.79988826767E+03  0.46999998093E+01 0. -1.
       -5    1    3    3    0  502  0.33823548962E+02 -0.76717923377E+03  0.88876456214E+03  0.11745776033E+04  0.46999998093E+01 0.  1.
</event>
<event>
 5   0  0.3720978E-04  0.1334722E+04  0.7818609E-02  0.9002474E-01
        2   -1    0    0  501    0  0.00000000000E+00  0.00000000000E+00  0.65874847392E+03  0.65874847393E+03  0.25500000920E-02 0. -1.
       -2   -1    0    0    0  501  0.00000000000E+00  0.00000000000E+00 -0.67608652850E+03  0.67608652850E+03  0.25500000920E-02 0.  1.
    10030    2    1    2    0    0  0.00000000000E+00  0.00000000000E+00 -0.17338054573E+02  0.13348350024E+04  0.13347223964E+04 0.  0.
        1    1    3    3  502    0  0.99391108599E+02 -0.65773986916E+03  0.44913855410E+02  0.66672151786E+03  0.50400001928E-02 0.  1.
       -1    1    3    3    0  502 -0.99391108599E+02  0.65773986916E+03 -0.62251909983E+02  0.66811348457E+03  0.50400001928E-02 0. -1.
</event>
<event>
 5   0  0.3516539E-04  0.1495336E+04  0.7818609E-02  0.8887560E-01
       -2   -1    0    0    0  501  0.00000000000E+00  0.00000000000E+00  0.48408634127E+03  0.48408634128E+03  0.25500000920E-02 0.  1.
        2   -1    0    0  501    0  0.00000000000E+00  0.00000000000E+00 -0.11547684141E+04  0.11547684141E+04  0.25500000920E-02 0. -1.
    10030    2    1    2    0    0  0.00000000000E+00  0.00000000000E+00 -0.67068207285E+03  0.16388547554E+04  0.14953362386E+04 0.  0.
        4    1    3    3  502    0  0.14520644084E+03 -0.67707973676E+02 -0.11357323222E+04  0.11469781169E+04  0.12699999809E+01 0. -1.
       -4    1    3    3    0  502 -0.14520644084E+03  0.67707973676E+02  0.46505024934E+03  0.49187663847E+03  0.12699999809E+01 0.  1.
</event>
<event>
 5   0  0.1758946E-04  0.1893774E+04  0.7818609E-02  0.8657962E-01
       -1   -1    0    0    0  501  0.00000000000E+00  0.00000000000E+00  0.13286811881E+04  0.13286811881E+04  0.50400001928E-02 0. -1.
        1   -1    0    0  501    0  0.00000000000E+00  0.00000000000E+00 -0.67480041236E+03  0.67480041238E+03  0.50400001928E-02 0.  1.
    10030    2    1    2    0    0  0.00000000000E+00  0.00000000000E+00  0.65388077572E+03  0.20034816005E+04  0.18937736017E+04 0.  0.
        2    1    3    3  502    0 -0.11401099679E+02 -0.84234877561E+03 -0.13043969627E+03  0.85246463811E+03  0.25500000920E-02 0.  1.
       -2    1    3    3    0  502  0.11401099679E+02  0.84234877561E+03  0.78432047199E+03  0.11510169624E+04  0.25500000920E-02 0. -1.
</event>
<event>
 5   0  0.1758946E-04  0.1907516E+04  0.7818609E-02  0.8651124E-01
       -1   -1    0    0    0  501  0.00000000000E+00  0.00000000000E+00  0.14048967043E+04  0.14048967043E+04  0.50400001928E-02 0. -1.
        1   -1    0    0  501    0  0.00000000000E+00  0.00000000000E+00 -0.64748849032E+03  0.64748849034E+03  0.50400001928E-02 0.  1.
    10030    2    1    2    0    0  0.00000000000E+00  0.00000000000E+00  0.75740821400E+03  0.20523851947E+04  0.19075161296E+04 0.  0.
        2    1    3    3  502    0  0.58439705819E+03  0.19530846967E+02 -0.43201498399E+03  0.72700641125E+03  0.25500000920E-02 0.  1.
       -2    1    3    3    0  502 -0.58439705819E+03 -0.19530846967E+02  0.11894231980E+04  0.13253787834E+04  0.25500000920E-02 0. -1.
</event>
<event>
 5   0  0.3623359E-04  0.2036130E+04  0.7818609E-02  0.8589913E-01
       -2   -1    0    0    0  501  0.00000000000E+00  0.00000000000E+00  0.93701375371E+03  0.93701375372E+03  0.25500000920E-02 0. -1.
        2   -1    0    0  501    0  0.00000000000E+00  0.00000000000E+00 -0.11061266666E+04  0.11061266666E+04  0.25500000920E-02 0.  1.
    10030    2    1    2    0    0  0.00000000000E+00  0.00000000000E+00 -0.16911291288E+03  0.20431404203E+04  0.20361295636E+04 0.  0.
        5    1    3    3  502    0 -0.23479949019E+03  0.69837963605E+03 -0.78952006164E+03  0.10799208000E+04  0.46999998093E+01 0.  1.
       -5    1    3    3    0  502  0.23479949019E+03 -0.69837963605E+03  0.62040714876E+03  0.96321962027E+03  0.46999998093E+01 0. -1.
</event>
<event>
 5   0  0.3459485E-04  0.1901418E+04  0.7818609E-02  0.8654151E-01
       -2   -1    0    0    0  501  0.00000000000E+00  0.00000000000E+00  0.86067351683E+03  0.86067351683E+03  0.25500000920E-02 0.  1.
        2   -1    0    0  501    0  0.00000000000E+00  0.00000000000E+00 -0.10501631860E+04  0.10501631860E+04  0.25500000920E-02 0. -1.
    10030    2    1    2    0    0  0.00000000000E+00  0.00000000000E+00 -0.18948966922E+03  0.19108367029E+04  0.19014180420E+04 0.  0.
        3    1    3    3  502    0  0.71665918752E+02  0.94449473829E+03 -0.12846872429E+02  0.94729687369E+03  0.10100000352E+00 0.  1.
       -3    1    3    3    0  502 -0.71665918752E+02 -0.94449473829E+03 -0.17664279679E+03  0.96353982919E+03  0.10100000352E+00 0. -1.
</event>
<event>
 5   0  0.1758946E-04  0.1904042E+04  0.7818609E-02  0.8652847E-01
       -1   -1    0    0    0  501  0.00000000000E+00  0.00000000000E+00  0.61571783236E+03  0.61571783238E+03  0.50400001928E-02 0. -1.
        1   -1    0    0  501    0  0.00000000000E+00  0.00000000000E+00 -0.14720112538E+04  0.14720112538E+04  0.50400001928E-02 0.  1.
    10030    2    1    2    0    0  0.00000000000E+00  0.00000000000E+00 -0.85629342142E+03  0.20877290862E+04  0.19040415735E+04 0.  0.
        2    1    3    3  502    0  0.70624623152E+03  0.38003744823E+03 -0.99059685718E+03  0.12745565249E+04  0.25500000920E-02 0.  1.
       -2    1    3    3    0  502 -0.70624623152E+03 -0.38003744823E+03  0.13430343576E+03  0.81317256130E+03  0.25500000920E-02 0. -1.
</event>
<event>
 5   0  0.3516539E-04  0.1761745E+04  0.7818609E-02  0.8726912E-01
       -2   -1    0    0    0  501  0.00000000000E+00  0.00000000000E+00  0.13286923738E+04  0.13286923738E+04  0.25500000920E-02 0.  1.
        2   -1    0    0  501    0  0.00000000000E+00  0.00000000000E+00 -0.58398514554E+03  0.58398514554E+03  0.25500000920E-02 0. -1.
    10030    2    1    2    0    0  0.00000000000E+00  0.00000000000E+00  0.74470722828E+03  0.19126775194E+04  0.17617452816E+04 0.  0.
        4    1    3    3  502    0 -0.84265443483E+03 -0.22873751842E+03  0.24598751444E+03  0.90713770676E+03  0.12699999809E+01 0. -1.
       -4    1    3    3    0  502  0.84265443483E+03  0.22873751842E+03  0.49871971384E+03  0.10055398126E+04  0.12699999809E+01 0.  1.
</event>
<event>
 5   0  0.1711979E-04  0.1899141E+04  0.7818609E-02  0.8655284E-01
        1   -1    0    0  501    0  0.00000000000E+00  0.00000000000E+00  0.18288055346E+04  0.18288055346E+04  0.50400001928E-02 0.  1.
       -1   -1    0    0    0  501  0.00000000000E+00  0.00000000000E+00 -0.49304557915E+03  0.49304557918E+03  0.50400001928E-02 0. -1.
    10030    2    1    2    0    0  0.00000000000E+00  0.00000000000E+00  0.13357599554E+04  0.23218511138E+04  0.18991413681E+04 0.  0.
        4    1    3    3  502    0  0.69548147898E+03  0.63524922598E+03  0.52093221786E+03  0.10763865733E+04  0.12699999809E+01 0. -1.
       -4    1    3    3    0  502 -0.69548147898E+03 -0.63524922598E+03  0.81482773757E+03  0.12454645405E+04  0.12699999809E+01 0.  1.
</event>
<event>
 5   0  0.1782613E-04  0.1754778E+04  0.7818609E-02  0.8730724E-01
        1   -1    0    0  501    0  0.00000000000E+00  0.00000000000E+00  0.22675624912E+04  0.22675624912E+04  0.50400001928E-02 0. -1.
       -1   -1    0    0    0  501  0.00000000000E+00  0.00000000000E+00 -0.33948865048E+03  0.33948865052E+03  0.50400001928E-02 0.  1.
    10030    2    1    2    0    0  0.00000000000E+00  0.00000000000E+00  0.19280738407E+04  0.26070511417E+04  0.17547783109E+04 0.  0.
        3    1    3    3  502    0 -0.36796628751E+03  0.86754602057E+02  0.21403465092E+04  0.21734784884E+04  0.10100000352E+00 0. -1.
       -3    1    3    3    0  502  0.36796628751E+03 -0.86754602057E+02 -0.21227266851E+03  0.43357265333E+03  0.10100000352E+00 0.  1.
</event>
<event>
 5   0  0.3720978E-04  0.1873570E+04  0.7818609E-02  0.8668125E-01
       -2   -1    0    0    0  501  0.00000000000E+00  0.00000000000E+00  0.54927443023E+03  0.54927443024E+03  0.25500000920E-02 0.  1.
        2   -1    0    0  501    0  0.00000000000E+00  0.00000000000E+00 -0.15976829111E+04  0.15976829111E+04  0.25500000920E-02 0. -1.
    10030    2    1    2    0    0  0.00000000000E+00  0.00000000000E+00 -0.10484084809E+04  0.21469573414E+04  0.18735702503E+04 0.  0.
        1    1    3    3  502    0  0.48186592028E+02  0.14188854627E+03  0.53545187834E+03  0.55602429916E+03  0.50400001928E-02 0.  1.
       -1    1    3    3    0  502 -0.48186592028E+02 -0.14188854627E+03 -0.15838603593E+04  0.15909330422E+04  0.50400001928E-02 0. -1.
</event>
<event>
 5   0  0.1758946E-04  0.1690304E+04  0.7818609E-02  0.8766914E-01
       -1   -1    0    0    0  501  0.00000000000E+00  0.00000000000E+00  0.75183592328E+03  0.75183592330E+03  0.50400001928E-02 0. -1.
        1   -1    0    0  501    0  0.00000000000E+00  0.00000000000E+00 -0.95004979798E+03  0.95004979800E+03  0.50400001928E-02 0.  1.
    10030    2    1    2    0    0  0.00000000000E+00  0.00000000000E+00 -0.19821387470E+03  0.17018857213E+04  0.16903036024E+04 0.  0.
        2    1    3    3  502    0 -0.23571331207E+02  0.20120471448E+03  0.72702893226E+03  0.75472512423E+03  0.25500000920E-02 0. -1.
       -2    1    3    3    0  502  0.23571331207E+02 -0.20120471448E+03 -0.92524280697E+03  0.94716059707E+03  0.25500000920E-02 0.  1.
</event>
<event>
 5   0  0.3720978E-04  0.1770408E+04  0.7818609E-02  0.8722196E-01
        2   -1    0    0  501    0  0.00000000000E+00  0.00000000000E+00  0.14588030175E+04  0.14588030175E+04  0.25500000920E-02 0. -1.
       -2   -1    0    0    0  501  0.00000000000E+00  0.00000000000E+00 -0.53714331351E+03  0.53714331352E+03  0.25500000920E-02 0.  1.
    10030    2    1    2    0    0  0.00000000000E+00  0.00000000000E+00  0.92165970402E+03  0.19959463311E+04  0.17704081864E+04 0.  0.
        1    1    3    3  502    0 -0.64199824053E+03  0.59401599115E+03  0.61445988246E+03  0.10689142556E+04  0.50400001928E-02 0. -1.
       -1    1    3    3    0  502  0.64199824053E+03 -0.59401599115E+03  0.30719982156E+03  0.92703207548E+03  0.50400001928E-02 0.  1.
</event>
<event>
 5   0  0.3459485E-04  0.1317343E+04  0.7818609E-02  0.9015924E-01
        2   -1    0    0  501    0  0.00000000000E+00  0.00000000000E+00  0.14623798146E+04  0.14623798146E+04  0.25500000920E-02 0. -1.
       -2   -1    0    0    0  501  0.00000000000E+00  0.00000000000E+00 -0.29667249615E+03  0.29667249616E+03  0.25500000920E-02 0.  1.
    10030    2    1    2    0    0  0.00000000000E+00  0.00000000000E+00  0.11657073184E+04  0.17590523107E+04  0.13173425825E+04 0.  0.
        3    1    3    3  502    0 -0.37058989821E+03  0.38616359974E+03  0.70214165194E+02  0.53980481437E+03  0.10100000352E+00 0.  1.
       -3    1    3    3    0  502  0.37058989821E+03 -0.38616359974E+03  0.10954931532E+04  0.12192474964E+04  0.10100000352E+00 0. -1.
</event>
<event>
 5   0  0.1694830E-04  0.1929714E+04  0.7818609E-02  0.8640206E-01
       -1   -1    0    0    0  501  0.00000000000E+00  0.00000000000E+00  0.61179831397E+03  0.61179831399E+03  0.50400001928E-02 0.  1.
        1   -1    0    0  501    0  0.00000000000E+00  0.00000000000E+00 -0.15216600062E+04  0.15216600062E+04  0.50400001928E-02 0. -1.
    10030    2    1    2    0    0  0.00000000000E+00  0.00000000000E+00 -0.90986169225E+03  0.21334583202E+04  0.19297139957E+04 0.  0.
        1    1    3    3  502    0 -0.27496031905E+01 -0.85690967965E+03 -0.94520068153E+03  0.12758158518E+04  0.50400001928E-02 0. -1.
       -1    1    3    3    0  502  0.27496031905E+01  0.85690967965E+03  0.35338989279E+02  0.85764246839E+03  0.50400001928E-02 0.  1.
</event>
<event>
 5   0  0.1694830E-04  0.1891038E+04  0.7818609E-02  0.8659330E-01
        1   -1    0    0  501    0  0.00000000000E+00  0.00000000000E+00  0.25180201833E+04  0.25180201833E+04  0.50400001928E-02 0.  1.
       -1   -1    0    0    0  501  0.00000000000E+00  0.00000000000E+00 -0.35504317196E+03  0.35504317199E+03  0.50400001928E-02 0. -1.
    10030    2    1    2    0    0  0.00000000000E+00  0.00000000000E+00  0.21629770114E+04  0.28730633553E+04  0.18910376760E+04 0.  0.
        1    1    3    3  502    0 -0.60352456078E+02 -0.52256441861E+03  0.22751731326E+04  0.23351935196E+04  0.50400001928E-02 0.  1.
       -1    1    3    3    0  502  0.60352456078E+02  0.52256441861E+03 -0.11219612124E+03  0.53786983574E+03  0.50400001928E-02 0. -1.
</event>
<event>
 5   0  0.3720978E-04  0.1840946E+04  0.7818609E-02  0.8684823E-01
        2   -1    0    0  501    0  0.00000000000E+00  0.00000000000E+00  0.97015456156E+03  0.97015456156E+03  0.25500000920E-02 0.  1.
       -2   -1    0    0    0  501  0.00000000000E+00  0.00000000000E+00 -0.87333583317E+03  0.87333583317E+03  0.25500000920E-02 0. -1.
    10030    2    1    2    0    0  0.00000000000E+00  0.00000000000E+00  0.96818728393E+02  0.18434903947E+04  0.18409462158E+04 0.  0.
        1    1    3    3  502    0  0.41890820378E+02 -0.87048979431E+03 -0.24824896512E+03  0.90616492513E+03  0.50400001928E-02 0. -1.
       -1    1    3    3    0  502 -0.41890820378E+02  0.87048979431E+03  0.34506769351E+03  0.93732546960E+03  0.50400001928E-02 0.  1.
</event>
<event>
 5   0  0.1758946E-04  0.1841279E+04  0.7818609E-02  0.8684650E-01
        1   -1    0    0  501    0  0.00000000000E+00  0.00000000000E+00  0.84379637362E+03  0.84379637364E+03  0.50400001928E-02 0. -1.
       -1   -1    0    0    0  501  0.00000000000E+00  0.00000000000E+00 -0.10044809645E+04  0.10044809645E+04  0.50400001928E-02 0.  1.
    10030    2    1    2    0    0  0.00000000000E+00  0.00000000000E+00 -0.16068459085E+03  0.18482773381E+04  0.18412793327E+04 0.  0.
        2    1    3    3  502    0 -0.91110779320E+03  0.81230936517E+02  0.24272413249E+02  0.91504372897E+03  0.25500000920E-02 0.  1.
       -2    1    3    3    0  502  0.91110779320E+03 -0.81230936517E+02 -0.18495700410E+03  0.93323360915E+03  0.25500000920E-02 0. -1.
</event>
<event>
 5   0  0.1694830E-04  0.1767385E+04  0.7818609E-02  0.8723839E-01
       -1   -1    0    0    0  501  0.00000000000E+00  0.00000000000E+00  0.46224474189E+03  0.46224474191E+03  0.50400001928E-02 0.  1.
        1   -1    0    0  501    0  0.00000000000E+00  0.00000000000E+00 -0.16893914213E+04  0.16893914213E+04  0.50400001928E-02 0. -1.
    10030    2    1    2    0    0  0.00000000000E+00  0.00000000000E+00 -0.12271466794E+04  0.21516361632E+04  0.17673848495E+04 0.  0.
        1    1    3    3  502    0 -0.93684561774E+02  0.53197258016E+03 -0.14650144157E+04  0.15614220638E+04  0.50400001928E-02 0. -1.
       -1    1    3    3    0  502  0.93684561774E+02 -0.53197258016E+03  0.23786773628E+03  0.59021409941E+03  0.50400001928E-02 0.  1.
</event>
<event>
 5   0  0.3459485E-04  0.1802407E+04  0.7818609E-02  0.8705021E-01
        2   -1    0    0  501    0  0.00000000000E+00  0.00000000000E+00  0.73885638130E+03  0.73885638130E+03  0.25500000920E-02 0.  1.
       -2   -1    0    0    0  501  0.00000000000E+00  0.00000000000E+00 -0.10992225928E+04  0.10992225928E+04  0.25500000920E-02 0. -1.
    10030    2    1    2    0    0  0.00000000000E+00  0.00000000000E+00 -0.36036621149E+03  0.18380789741E+04  0.18024068654E+04 0.  0.
        3    1    3    3  502    0 -0.77228555919E+03  0.17174177311E+03 -0.62028824316E+03  0.10053246920E+04  0.10100000352E+00 0. -1.
       -3    1    3    3    0  502  0.77228555919E+03 -0.17174177311E+03  0.25992203167E+03  0.83275428208E+03  0.10100000352E+00 0.  1.
</event>
<event>
 5   0  0.1711979E-04  0.1950687E+04  0.7818609E-02  0.8630030E-01
       -1   -1    0    0    0  501  0.00000000000E+00  0.00000000000E+00  0.76630512401E+03  0.76630512402E+03  0.50400001928E-02 0.  1.
        1   -1    0    0  501    0  0.00000000000E+00  0.00000000000E+00 -0.12414048020E+04  0.12414048020E+04  0.50400001928E-02 0. -1.
    10030    2    1    2    0    0  0.00000000000E+00  0.00000000000E+00 -0.47509967799E+03  0.20077099260E+04  0.19506869157E+04 0.  0.
        4    1    3    3  502    0 -0.24948003372E+03  0.23425839770E+03  0.70248128057E+03  0.78140824578E+03  0.12699999809E+01 0.  1.
       -4    1    3    3    0  502  0.24948003372E+03 -0.23425839770E+03 -0.11775809586E+04  0.12263016802E+04  0.12699999809E+01 0. -1.
</event>
<event>
 5   0  0.1694830E-04  0.1918067E+04  0.7818609E-02  0.8645915E-01
        1   -1    0    0  501    0  0.00000000000E+00  0.00000000000E+00  0.18603993884E+04  0.18603993884E+04  0.50400001928E-02 0.  1.
       -1   -1    0    0    0  501  0.00000000000E+00  0.00000000000E+00 -0.49438066653E+03  0.49438066655E+03  0.50400001928E-02 0. -1.
    10030    2    1    2    0    0  0.00000000000E+00  0.00000000000E+00  0.13660187219E+04  0.23547800550E+04  0.19180672456E+04 0.  0.
        1    1    3    3  502    0 -0.52355088614E+02 -0.45896948733E+03 -0.34879400027E+03  0.57883616011E+03  0.50400001928E-02 0. -1.
       -1    1    3    3    0  502  0.52355088614E+02  0.45896948733E+03  0.17148127222E+04  0.17759438949E+04  0.50400001928E-02 0.  1.
</event>
<event>
 5   0  0.1711979E-04  0.1871806E+04  0.7818609E-02  0.8669019E-01
       -1   -1    0    0    0  501  0.00000000000E+00  0.00000000000E+00  0.61939649283E+03  0.61939649285E+03  0.50400001928E-02 0.  1.
        1   -1    0    0  501    0  0.00000000000E+00  0.00000000000E+00 -0.14141421198E+04  0.14141421198E+04  0.50400001928E-02 0. -1.
    10030    2    1    2    0    0  0.00000000000E+00  0.00000000000E+00 -0.79474562694E+03  0.20335386126E+04  0.18718062607E+04 0.  0.
        4    1    3    3  502    0 -0.41941760286E+03 -0.44071591179E+03 -0.11699976563E+04  0.13187258127E+04  0.12699999809E+01 0. -1.
       -4    1    3    3    0  502  0.41941760286E+03  0.44071591179E+03  0.37525202935E+03  0.71481279992E+03  0.12699999809E+01 0.  1.
</event>
<event>
 5   0  0.3535876E-04  0.1707275E+04  0.7818609E-02  0.8757226E-01
        2   -1    0    0  501    0  0.00000000000E+00  0.00000000000E+00  0.12835279803E+04  0.12835279803E+04  0.25500000920E-02 0. -1.
       -2   -1    0    0    0  501  0.00000000000E+00  0.00000000000E+00 -0.56772993167E+03  0.56772993167E+03  0.25500000920E-02 0.  1.
    10030    2    1    2    0    0  0.00000000000E+00  0.00000000000E+00  0.71579804860E+03  0.18512579119E+04  0.17072753176E+04 0.  0.
        2    1    3    3  502    0 -0.46265948136E+03  0.43073189161E+03  0.97996466025E+03  0.11661537178E+04  0.25500000920E-02 0. -1.
       -2    1    3    3    0  502  0.46265948136E+03 -0.43073189161E+03 -0.26416661165E+03  0.68510419416E+03  0.25500000920E-02 0.  1.
</event>
<event>
 5   0  0.3516539E-04  0.1898065E+04  0.7818609E-02  0.8655820E-01
       -2   -1    0    0    0  501  0.00000000000E+00  0.00000000000E+00  0.62592185131E+03  0.62592185131E+03  0.25500000920E-02 0.  1.
        2   -1    0    0  501    0  0.00000000000E+00  0.00000000000E+00 -0.14389372817E+04  0.14389372817E+04  0.25500000920E-02 0. -1.
    10030    2    1    2    0    0  0.00000000000E+00  0.00000000000E+00 -0.81301543042E+03  0.20648591330E+04  0.18980645798E+04 0.  0.
        4    1    3    3  502    0  0.40012593362E+03 -0.78730006238E+03 -0.78448560972E+03  0.11812541791E+04  0.12699999809E+01 0. -1.
       -4    1    3    3    0  502 -0.40012593362E+03  0.78730006238E+03 -0.28529820695E+02  0.88360495390E+03  0.12699999809E+01 0.  1.
</event>
<event>
 5   0  0.3459485E-04  0.1807180E+04  0.7818609E-02  0.8702490E-01
       -2   -1    0    0    0  501  0.00000000000E+00  0.00000000000E+00  0.60664145139E+03  0.60664145140E+03  0.25500000920E-02 0.  1.
        2   -1    0    0  501    0  0.00000000000E+00  0.00000000000E+00 -0.13458941476E+04  0.13458941476E+04  0.25500000920E-02 0. -1.
    10030    2    1    2    0    0  0.00000000000E+00  0.00000000000E+00 -0.73925269618E+03  0.19525355990E+04  0.18071803221E+04 0.  0.
        3    1    3    3  502    0  0.36593584445E+03 -0.81247673937E+02 -0.12579261352E+04  0.13125884345E+04  0.10100000352E+00 0. -1.
       -3    1    3    3    0  502 -0.36593584445E+03  0.81247673937E+02  0.51867343897E+03  0.63994716444E+03  0.10100000352E+00 0.  1.
</event>
<event>
 5   0  0.1782613E-04  0.1893298E+04  0.7818609E-02  0.8658200E-01
        1   -1    0    0  501    0  0.00000000000E+00  0.00000000000E+00  0.98756541707E+03  0.98756541708E+03  0.50400001928E-02 0.  1.
       -1   -1    0    0    0  501  0.00000000000E+00  0.00000000000E+00 -0.90742798759E+03  0.90742798760E+03  0.50400001928E-02 0. -1.
    10030    2    1    2    0    0  0.00000000000E+00  0.00000000000E+00  0.80137429485E+02  0.18949934047E+04  0.18932981794E+04 0.  0.
        3    1    3    3  502    0 -0.27667343819E+03  0.74511451014E+03  0.55472817053E+03  0.96926115057E+03  0.10100000352E+00 0.  1.
       -3    1    3    3    0  502  0.27667343819E+03 -0.74511451014E+03 -0.47459074104E+03  0.92573225411E+03  0.10100000352E+00 0. -1.
</event>
<event>
 5   0  0.3623359E-04  0.1900364E+04  0.7818609E-02  0.8654675E-01
        2   -1    0    0  501    0  0.00000000000E+00  0.00000000000E+00  0.18242358378E+04  0.18242358378E+04  0.25500000920E-02 0.  1.
       -2   -1    0    0    0  501  0.00000000000E+00  0.00000000000E+00 -0.49491709754E+03  0.49491709755E+03  0.25500000920E-02 0. -1.
    10030    2    1    2    0    0  0.00000000000E+00  0.00000000000E+00  0.13293187403E+04  0.23191529354E+04  0.19003636558E+04 0.  0.
        5    1    3    3  502    0 -0.22505683758E+03  0.69814625851E+03  0.14017129116E+04  0.15820492897E+04  0.46999998093E+01 0.  1.
       -5    1    3    3    0  502  0.22505683758E+03 -0.69814625851E+03 -0.72394171355E+02  0.73710364567E+03  0.46999998093E+01 0. -1.
</event>
<event>
 5   0  0.3535876E-04  0.1844503E+04  0.7818609E-02  0.8682985E-01
        2   -1    0    0  501    0  0.00000000000E+00  0.00000000000E+00  0.25761964329E+04  0.25761964329E+04  0.25500000920E-02 0. -1.
       -2   -1    0    0    0  501  0.00000000000E+00  0.00000000000E+00 -0.33015648407E+03  0.33015648408E+03  0.25500000920E-02 0.  1.
    10030    2    1    2    0    0  0.00000000000E+00  0.00000000000E+00  0.22460399488E+04  0.29063529170E+04  0.18445031381E+04 0.  0.
        2    1    3    3  502    0  0.41980070890E+03  0.21197697842E+03 -0.12702544560E+03  0.48713687851E+03  0.25500000920E-02 0.  1.
       -2    1    3    3    0  502 -0.41980070890E+03 -0.21197697842E+03  0.23730653944E+04  0.24192160385E+04  0.25500000920E-02 0. -1.
</event>
<event>
 5   0  0.1782613E-04  0.1895650E+04  0.7818609E-02  0.8657025E-01
       -1   -1    0    0    0  501  0.00000000000E+00  0.00000000000E+00  0.92354389467E+03  0.92354389468E+03  0.50400001928E-02 0.  1.
        1   -1    0    0  501    0  0.00000000000E+00  0.00000000000E+00 -0.97274461293E+03  0.97274461294E+03  0.50400001928E-02 0. -1.
    10030    2    1    2    0    0  0.00000000000E+00  0.00000000000E+00 -0.49200718262E+02  0.18962885076E+04  0.18956501242E+04 0.  0.
        3    1    3    3  502    0 -0.26802672256E+03  0.29730885398E+03  0.83484056355E+03  0.92584537338E+03  0.10100000352E+00 0.  1.
       -3    1    3    3    0  502  0.26802672256E+03 -0.29730885398E+03 -0.88404128181E+03  0.97044313425E+03  0.10100000352E+00 0. -1.
</event>
<event>
 5   0  0.3623359E-04  0.1929962E+04  0.7818609E-02  0.8640084E-01
       -2   -1    0    0    0  501  0.00000000000E+00  0.00000000000E+00  0.84976598559E+03  0.84976598559E+03  0.25500000920E-02 0. -1.
        2   -1    0    0  501    0  0.00000000000E+00  0.00000000000E+00 -0.10958178831E+04  0.10958178831E+04  0.25500000920E-02 0.  1.
    10030    2    1    2    0    0  0.00000000000E+00  0.00000000000E+00 -0.24605189748E+03  0.19455838687E+04  0.19299624488E+04 0.  0.
        5    1    3    3  502    0  0.89109850732E+03 -0.28173072368E+03 -0.36525803873E+03  0.10034262680E+04  0.46999998093E+01 0. -1.
       -5    1    3    3    0  502 -0.89109850732E+03  0.28173072368E+03  0.11920614125E+03  0.94215760069E+03  0.46999998093E+01 0.  1.
</event>
<event>
 5   0  0.1287000E-04  0.1910372E+04  0.7818609E-02  0.8649711E-01
       -3   -1    0    0    0  501  0.00000000000E+00  0.00000000000E+00  0.94545853146E+03  0.94545853685E+03  0.10100000352E+00 0.  1.
        3   -1    0    0  501    0  0.00000000000E+00  0.00000000000E+00 -0.96501333509E+03  0.96501334037E+03  0.10100000352E+00 0. -1.
    10030    2    1    2    0    0  0.00000000000E+00  0.00000000000E+00 -0.19554803629E+02  0.19104718772E+04  0.19103717971E+04 0.  0.
        2    1    3    3  502    0 -0.36948120886E+03  0.82303185063E+03 -0.32361275480E+03  0.95844822808E+03  0.25500000920E-02 0. -1.
       -2    1    3    3    0  502  0.36948120886E+03 -0.82303185063E+03  0.30405795117E+03  0.95202364914E+03  0.25500000920E-02 0.  1.
</event>
<event>
 5   0  0.3623359E-04  0.1897398E+04  0.7818609E-02  0.8656153E-01
       -2   -1    0    0    0  501  0.00000000000E+00  0.00000000000E+00  0.91013813454E+03  0.91013813455E+03  0.25500000920E-02 0. -1.
        2   -1    0    0  501    0  0.00000000000E+00  0.00000000000E+00 -0.98889366491E+03  0.98889366491E+03  0.25500000920E-02 0.  1.
    10030    2    1    2    0    0  0.00000000000E+00  0.00000000000E+00 -0.78755530364E+02  0.18990317995E+04  0.18973980452E+04 0.  0.
        5    1    3    3  502    0 -0.12870815555E+03  0.27103134210E+03 -0.94014379552E+03  0.98687193899E+03  0.46999998093E+01 0.  1.
       -5    1    3    3    0  502  0.12870815555E+03 -0.27103134210E+03  0.86138826516E+03  0.91215986047E+03  0.46999998093E+01 0. -1.
</event>
<event>
 5   0  0.3720978E-04  0.1899765E+04  0.7818609E-02  0.8654973E-01
        2   -1    0    0  501    0  0.00000000000E+00  0.00000000000E+00  0.13015652334E+04  0.13015652334E+04  0.25500000920E-02 0. -1.
       -2   -1    0    0    0  501  0.00000000000E+00  0.00000000000E+00 -0.69322440224E+03  0.69322440224E+03  0.25500000920E-02 0.  1.
    10030    2    1    2    0    0  0.00000000000E+00  0.00000000000E+00  0.60834083116E+03  0.19947896356E+04  0.18997650180E+04 0.  0.
        1    1    3    3  502    0  0.87208499850E+03  0.36541793675E+03  0.20900445299E+03  0.96837253911E+03  0.50400001928E-02 0.  1.
       -1    1    3    3    0  502 -0.87208499850E+03 -0.36541793675E+03  0.39933637817E+03  0.10264170965E+04  0.50400001928E-02 0. -1.
</event>
<event>
 5   0  0.3516539E-04  0.1940538E+04  0.7818609E-02  0.8634937E-01
       -2   -1    0    0    0  501  0.00000000000E+00  0.00000000000E+00  0.71610285873E+03  0.71610285873E+03  0.25500000920E-02 0.  1.
        2   -1    0    0  501    0  0.00000000000E+00  0.00000000000E+00 -0.13146465774E+04  0.13146465774E+04  0.25500000920E-02 0. -1.
    10030    2    1    2    0    0  0.00000000000E+00  0.00000000000E+00 -0.59854371868E+03  0.20307494361E+04  0.19405382473E+04 0.  0.
        4    1    3    3  502    0  0.42970778107E+03 -0.91818298183E+02  0.60601029081E+03  0.74855157635E+03  0.12699999809E+01 0.  1.
       -4    1    3    3    0  502 -0.42970778107E+03  0.91818298183E+02 -0.12045540095E+04  0.12821978598E+04  0.12699999809E+01 0. -1.
</event>
<event>
 5   0  0.1782613E-04  0.1914371E+04  0.7818609E-02  0.8647736E-01
       -1   -1    0    0    0  501  0.00000000000E+00  0.00000000000E+00  0.10353097301E+04  0.10353097301E+04  0.50400001928E-02 0. -1.
        1   -1    0    0  501    0  0.00000000000E+00  0.00000000000E+00 -0.88495629851E+03  0.88495629852E+03  0.50400001928E-02 0.  1.
    10030    2    1    2    0    0  0.00000000000E+00  0.00000000000E+00  0.15035343156E+03  0.19202660286E+04  0.19143707755E+04 0.  0.
        3    1    3    3  502    0 -0.28319707604E+03  0.49213541140E+03 -0.69778438259E+03  0.89961152828E+03  0.10100000352E+00 0.  1.
       -3    1    3    3    0  502  0.28319707604E+03 -0.49213541140E+03  0.84813781414E+03  0.10206545003E+04  0.10100000352E+00 0. -1.
</event>
<event>
 5   0  0.1711979E-04  0.1897638E+04  0.7818609E-02  0.8656033E-01
        1   -1    0    0  501    0  0.00000000000E+00  0.00000000000E+00  0.88831117195E+03  0.88831117197E+03  0.50400001928E-02 0.  1.
       -1   -1    0    0    0  501  0.00000000000E+00  0.00000000000E+00 -0.10134483813E+04  0.10134483813E+04  0.50400001928E-02 0. -1.
    10030    2    1    2    0    0  0.00000000000E+00  0.00000000000E+00 -0.12513720938E+03  0.19017595533E+04  0.18976380259E+04 0.  0.
        4    1    3    3  502    0 -0.24178812481E+03  0.73908998955E+03  0.48224840475E+03  0.91503040755E+03  0.12699999809E+01 0.  1.
       -4    1    3    3    0  502  0.24178812481E+03 -0.73908998955E+03 -0.60738561414E+03  0.98672914577E+03  0.12699999809E+01 0. -1.
</event>
<event>
 5   0  0.3720978E-04  0.1918052E+04  0.7818609E-02  0.8645923E-01
       -2   -1    0    0    0  501  0.00000000000E+00  0.00000000000E+00  0.53758116287E+03  0.53758116287E+03  0.25500000920E-02 0.  1.
        2   -1    0    0  501    0  0.00000000000E+00  0.00000000000E+00 -0.17108679932E+04  0.17108679932E+04  0.25500000920E-02 0. -1.
    10030    2    1    2    0    0  0.00000000000E+00  0.00000000000E+00 -0.11732868304E+04  0.22484491561E+04  0.19180515169E+04 0.  0.
        1    1    3    3  502    0 -0.31678214093E+03  0.91487800346E+02 -0.16423318516E+04  0.16751044305E+04  0.50400001928E-02 0. -1.
       -1    1    3    3    0  502  0.31678214093E+03 -0.91487800346E+02  0.46904502120E+03  0.57334472559E+03  0.50400001928E-02 0.  1.
</event>
<event>
 5   0  0.1694830E-04  0.1900858E+04  0.7818609E-02  0.8654429E-01
       -1   -1    0    0    0  501  0.00000000000E+00  0.00000000000E+00  0.74929343415E+03  0.74929343416E+03  0.50400001928E-02 0. -1.
        1   -1    0    0  501    0  0.00000000000E+00  0.00000000000E+00 -0.12055563673E+04  0.12055563673E+04  0.50400001928E-02 0.  1.
    10030    2    1    2    0    0  0.00000000000E+00  0.00000000000E+00 -0.45626293315E+03  0.19548498015E+04  0.19008581962E+04 0.  0.
        1    1    3    3  502    0  0.48324176518E+03  0.61291395971E+03  0.32960989504E+03  0.84724778462E+03  0.50400001928E-02 0. -1.
       -1    1    3    3    0  502 -0.48324176518E+03 -0.61291395971E+03 -0.78587282819E+03  0.11076020168E+04  0.50400001928E-02 0.  1.
</event>
<event>
 5   0  0.3516539E-04  0.1924163E+04  0.7818609E-02  0.8642921E-01
       -2   -1    0    0    0  501  0.00000000000E+00  0.00000000000E+00  0.10551028797E+04  0.10551028797E+04  0.25500000920E-02 0.  1.
        2   -1    0    0  501    0  0.00000000000E+00  0.00000000000E+00 -0.87726148743E+03  0.87726148743E+03  0.25500000920E-02 0. -1.
    10030    2    1    2    0    0  0.00000000000E+00  0.00000000000E+00  0.17784139227E+03  0.19323643671E+04  0.19241633212E+04 0.  0.
        4    1    3    3  502    0  0.57164385488E+03  0.75524809566E+03 -0.80389459242E+02  0.95060005306E+03  0.12699999809E+01 0. -1.
       -4    1    3    3    0  502 -0.57164385488E+03 -0.75524809566E+03  0.25823085152E+03  0.98176431408E+03  0.12699999809E+01 0.  1.
</event>
<event>
 5   0  0.3623359E-04  0.1863020E+04  0.7818609E-02  0.8673486E-01
        2   -1    0    0  501    0  0.00000000000E+00  0.00000000000E+00  0.16034083810E+04  0.16034083810E+04  0.25500000920E-02 0.  1.
       -2   -1    0    0    0  501  0.00000000000E+00  0.00000000000E+00 -0.54116669882E+03  0.54116669883E+03  0.25500000920E-02 0. -1.
    10030    2    1    2    0    0  0.00000000000E+00  0.00000000000E+00  0.10622416822E+04  0.21445750799E+04  0.18630203654E+04 0.  0.
        5    1    3    3  502    0 -0.51696492180E+03 -0.39787009832E+03 -0.23430212014E+03  0.69316153890E+03  0.46999998093E+01 0. -1.
       -5    1    3    3    0  502  0.51696492180E+03  0.39787009832E+03  0.12965438023E+04  0.14514135410E+04  0.46999998093E+01 0.  1.
</event>
<event>
 5   0  0.3623359E-04  0.1857507E+04  0.7818609E-02  0.8676302E-01
       -2   -1    0    0    0  501  0.00000000000E+00  0.00000000000E+00  0.89300130668E+03  0.89300130668E+03  0.25500000920E-02 0.  1.
        2   -1    0    0  501    0  0.00000000000E+00  0.00000000000E+00 -0.96593701511E+03  0.96593701512E+03  0.25500000920E-02 0. -1.
    10030    2    1    2    0    0  0.00000000000E+00  0.00000000000E+00 -0.72935708436E+02  0.18589383218E+04  0.18575069493E+04 0.  0.
        5    1    3    3  502    0  0.34320861415E+03  0.33603135875E+03 -0.83197138633E+03  0.96068085469E+03  0.46999998093E+01 0. -1.
       -5    1    3    3    0  502 -0.34320861415E+03 -0.33603135875E+03  0.75903567790E+03  0.89825746711E+03  0.46999998093E+01 0.  1.
</event>
<event>
 5   0  0.1711979E-04  0.1822854E+04  0.7818609E-02  0.8694240E-01
        1   -1    0    0  501    0  0.00000000000E+00  0.00000000000E+00  0.67238156745E+03  0.67238156747E+03  0.50400001928E-02 0.  1.
       -1   -1    0    0    0  501  0.00000000000E+00  0.00000000000E+00 -0.12354573463E+04  0.12354573463E+04  0.50400001928E-02 0. -1.
    10030    2    1    2    0    0  0.00000000000E+00  0.00000000000E+00 -0.56307577887E+03  0.19078389138E+04  0.18228535290E+04 0.  0.
        4    1    3    3  502    0 -0.53952233792E+03 -0.32870961503E+03 -0.96909996730E+03  0.11568451598E+04  0.12699999809E+01 0. -1.
       -4    1    3    3    0  502  0.53952233792E+03  0.32870961503E+03  0.40602418843E+03  0.75099375404E+03  0.12699999809E+01 0.  1.
</event>
<event>
 5   0  0.1711979E-04  0.1900086E+04  0.7818609E-02  0.8654814E-01
        1   -1    0    0  501    0  0.00000000000E+00  0.00000000000E+00  0.24002534404E+04  0.24002534404E+04  0.50400001928E-02 0.  1.
       -1   -1    0    0    0  501  0.00000000000E+00  0.00000000000E+00 -0.37603584964E+03  0.37603584967E+03  0.50400001928E-02 0. -1.
    10030    2    1    2    0    0  0.00000000000E+00  0.00000000000E+00  0.20242175908E+04  0.27762892901E+04  0.19000856211E+04 0.  0.
        4    1    3    3  502    0  0.33980909499E+01 -0.68673067481E+03  0.52896705248E+02  0.68877444862E+03  0.12699999809E+01 0. -1.
       -4    1    3    3    0  502 -0.33980909499E+01  0.68673067481E+03  0.19713208855E+04  0.20875148415E+04  0.12699999809E+01 0.  1.
</event>
<event>
 5   0  0.1694830E-04  0.1756384E+04  0.7818609E-02  0.8729844E-01
        1   -1    0    0  501    0  0.00000000000E+00  0.00000000000E+00  0.12385406342E+04  0.12385406342E+04  0.50400001928E-02 0.  1.
       -1   -1    0    0    0  501  0.00000000000E+00  0.00000000000E+00 -0.62268570725E+03  0.62268570727E+03  0.50400001928E-02 0. -1.
    10030    2    1    2    0    0  0.00000000000E+00  0.00000000000E+00  0.61585492693E+03  0.18612263415E+04  0.17563844121E+04 0.  0.
        1    1    3    3  502    0  0.25413515615E+03 -0.11155886203E+02  0.11986440026E+04  0.12253393719E+04  0.50400001928E-02 0.  1.
       -1    1    3    3    0  502 -0.25413515615E+03  0.11155886203E+02 -0.58278907563E+03  0.63588696958E+03  0.50400001928E-02 0. -1.
</event>
<event>
 5   0  0.3623359E-04  0.1888965E+04  0.7818609E-02  0.8660369E-01
        2   -1    0    0  501    0  0.00000000000E+00  0.00000000000E+00  0.15867785321E+04  0.15867785321E+04  0.25500000920E-02 0. -1.
       -2   -1    0    0    0  501  0.00000000000E+00  0.00000000000E+00 -0.56217525543E+03  0.56217525543E+03  0.25500000920E-02 0.  1.
    10030    2    1    2    0    0  0.00000000000E+00  0.00000000000E+00  0.10246032767E+04  0.21489537875E+04  0.18889654593E+04 0.  0.
        5    1    3    3  502    0  0.20841236358E+03  0.91985615267E+03  0.45594008448E+03  0.10476041741E+04  0.46999998093E+01 0.  1.
       -5    1    3    3    0  502 -0.20841236358E+03 -0.91985615267E+03  0.56866319217E+03  0.11013496134E+04  0.46999998093E+01 0. -1.
</event>
<event>
 5   0  0.3516539E-04  0.1874349E+04  0.7818609E-02  0.8667731E-01
       -2   -1    0    0    0  501  0.00000000000E+00  0.00000000000E+00  0.14392222271E+04  0.14392222271E+04  0.25500000920E-02 0. -1.
        2   -1    0    0  501    0  0.00000000000E+00  0.00000000000E+00 -0.61025711603E+03  0.61025711603E+03  0.25500000920E-02 0.  1.
    10030    2    1    2    0    0  0.00000000000E+00  0.00000000000E+00  0.82896511104E+03  0.20494793431E+04  0.18743485328E+04 0.  0.
        4    1    3    3  502    0 -0.47435900589E+03 -0.43827623231E+03  0.11570464488E+04  0.13250889102E+04  0.12699999809E+01 0. -1.
       -4    1    3    3    0  502  0.47435900589E+03  0.43827623231E+03 -0.32808133774E+03  0.72439043295E+03  0.12699999809E+01 0.  1.
</event>
<event>
 5   0  0.3720978E-04  0.1901250E+04  0.7818609E-02  0.8654235E-01
        2   -1    0    0  501    0  0.00000000000E+00  0.00000000000E+00  0.21228764053E+04  0.21228764053E+04  0.25500000920E-02 0. -1.
       -2   -1    0    0    0  501  0.00000000000E+00  0.00000000000E+00 -0.42569008012E+03  0.42569008013E+03  0.25500000920E-02 0.  1.
    10030    2    1    2    0    0  0.00000000000E+00  0.00000000000E+00  0.16971863252E+04  0.25485664854E+04  0.19012495124E+04 0.  0.
        1    1    3    3  502    0 -0.73404601820E+03 -0.24867633855E+03  0.15864894558E+04  0.17656761514E+04  0.50400001928E-02 0. -1.
       -1    1    3    3    0  502  0.73404601820E+03  0.24867633855E+03  0.11069686936E+03  0.78289033402E+03  0.50400001928E-02 0.  1.
</event>
<event>
 5   0  0.3720978E-04  0.1915682E+04  0.7818609E-02  0.8647090E-01
       -2   -1    0    0    0  501  0.00000000000E+00  0.00000000000E+00  0.50413140732E+03  0.50413140733E+03  0.25500000920E-02 0.  1.
        2   -1    0    0  501    0  0.00000000000E+00  0.00000000000E+00 -0.18198816537E+04  0.18198816537E+04  0.25500000920E-02 0. -1.
    10030    2    1    2    0    0  0.00000000000E+00  0.00000000000E+00 -0.13157502464E+04  0.23240130610E+04  0.19156821232E+04 0.  0.
        1    1    3    3  502    0  0.34208218841E+03 -0.56487079180E+03  0.18381113439E+03  0.68548214287E+03  0.50400001928E-02 0.  1.
       -1    1    3    3    0  502 -0.34208218841E+03  0.56487079180E+03 -0.14995613807E+04  0.16385309181E+04  0.50400001928E-02 0. -1.
</event>
<event>
 5   0  0.1758946E-04  0.1891487E+04  0.7818609E-02  0.8659105E-01
        1   -1    0    0  501    0  0.00000000000E+00  0.00000000000E+00  0.10437865968E+04  0.10437865969E+04  0.50400001928E-02 0. -1.
       -1   -1    0    0    0  501  0.00000000000E+00  0.00000000000E+00 -0.85690966268E+03  0.85690966269E+03  0.50400001928E-02 0.  1.
    10030    2    1    2    0    0  0.00000000000E+00  0.00000000000E+00  0.18687693417E+03  0.19006962595E+04  0.18914870559E+04 0.  0.
        2    1    3    3  502    0 -0.62729959837E+03  0.67900292619E+03  0.29411320154E+03  0.97007852013E+03  0.25500000920E-02 0. -1.
       -2    1    3    3    0  502  0.62729959837E+03 -0.67900292619E+03 -0.10723626737E+03  0.93061773942E+03  0.25500000920E-02 0.  1.
</event>
<event>
 5   0  0.1813834E-04  0.2055049E+04  0.7818609E-02  0.8581307E-01
        1   -1    0    0  501    0  0.00000000000E+00  0.00000000000E+00  0.70870476929E+03  0.70870476931E+03  0.50400001928E-02 0. -1.
       -1   -1    0    0    0  501  0.00000000000E+00  0.00000000000E+00 -0.14897695138E+04  0.14897695138E+04  0.50400001928E-02 0.  1.
    10030    2    1    2    0    0  0.00000000000E+00  0.00000000000E+00 -0.78106474446E+03  0.21984742831E+04  0.20550491571E+04 0.  0.
        5    1    3    3  502    0 -0.88319239462E+03  0.42191592039E+03 -0.56074357974E+02  0.98041229767E+03  0.46999998093E+01 0. -1.
       -5    1    3    3    0  502  0.88319239462E+03 -0.42191592039E+03 -0.72499038649E+03  0.12180619854E+04  0.46999998093E+01 0.  1.
</event>
<event>
 5   0  0.3623359E-04  0.1876606E+04  0.7818609E-02  0.8666589E-01
        2   -1    0    0  501    0  0.00000000000E+00  0.00000000000E+00  0.23400367757E+04  0.23400367757E+04  0.25500000920E-02 0. -1.
       -2   -1    0    0    0  501  0.00000000000E+00  0.00000000000E+00 -0.37623874643E+03  0.37623874644E+03  0.25500000920E-02 0.  1.
    10030    2    1    2    0    0  0.00000000000E+00  0.00000000000E+00  0.19637980293E+04  0.27162755222E+04  0.18766059822E+04 0.  0.
        5    1    3    3  502    0 -0.71971247379E+03  0.91041626722E+02  0.12056148589E+03  0.73541266279E+03  0.46999998093E+01 0.  1.
       -5    1    3    3    0  502  0.71971247379E+03 -0.91041626722E+02  0.18432365434E+04  0.19808628594E+04  0.46999998093E+01 0. -1.
</event>
<event>
 5   0  0.1711979E-04  0.1927022E+04  0.7818609E-02  0.8641521E-01
        1   -1    0    0  501    0  0.00000000000E+00  0.00000000000E+00  0.20634536766E+04  0.20634536766E+04  0.50400001928E-02 0. -1.
       -1   -1    0    0    0  501  0.00000000000E+00  0.00000000000E+00 -0.44990281672E+03  0.44990281675E+03  0.50400001928E-02 0.  1.
    10030    2    1    2    0    0  0.00000000000E+00  0.00000000000E+00  0.16135508599E+04  0.25133564934E+04  0.19270221808E+04 0.  0.
        4    1    3    3  502    0 -0.52163863112E+03 -0.44178253799E+03  0.16924055601E+04  0.18252443303E+04  0.12699999809E+01 0. -1.
       -4    1    3    3    0  502  0.52163863112E+03  0.44178253799E+03 -0.78854700233E+02  0.68811216310E+03  0.12699999809E+01 0.  1.
</event>
<event>
 5   0  0.3535876E-04  0.1899809E+04  0.7818609E-02  0.8654951E-01
       -2   -1    0    0    0  501  0.00000000000E+00  0.00000000000E+00  0.66236329830E+03  0.66236329831E+03  0.25500000920E-02 0. -1.
        2   -1    0    0  501    0  0.00000000000E+00  0.00000000000E+00 -0.13622713677E+04  0.13622713677E+04  0.25500000920E-02 0.  1.
    10030    2    1    2    0    0  0.00000000000E+00  0.00000000000E+00 -0.69990806936E+03  0.20246346660E+04  0.18998089970E+04 0.  0.
        2    1    3    3  502    0 -0.23667894522E+03 -0.12569181039E+03  0.62124308147E+03  0.67657839205E+03  0.25500000920E-02 0. -1.
       -2    1    3    3    0  502  0.23667894522E+03  0.12569181039E+03 -0.13211511508E+04  0.13480562739E+04  0.25500000920E-02 0.  1.
</event>
<event>
 5   0  0.1694830E-04  0.2142106E+04  0.7818609E-02  0.8542919E-01
        1   -1    0    0  501    0  0.00000000000E+00  0.00000000000E+00  0.88824732441E+03  0.88824732442E+03  0.50400001928E-02 0.  1.
       -1   -1    0    0    0  501  0.00000000000E+00  0.00000000000E+00 -0.12914813429E+04  0.12914813429E+04  0.50400001928E-02 0. -1.
    10030    2    1    2    0    0  0.00000000000E+00  0.00000000000E+00 -0.40323401845E+03  0.21797286673E+04  0.21421062974E+04 0.  0.
        1    1    3    3  502    0  0.38601044031E+03  0.27715969134E+03  0.77510236044E+03  0.90917832339E+03  0.50400001928E-02 0.  1.
       -1    1    3    3    0  502 -0.38601044031E+03 -0.27715969134E+03 -0.11783363789E+04  0.12705503439E+04  0.50400001928E-02 0. -1.
</event>
<event>
 5   0  0.3459485E-04  0.1891283E+04  0.7818609E-02  0.8659208E-01
       -2   -1    0    0    0  501  0.00000000000E+00  0.00000000000E+00  0.54378362606E+03  0.54378362607E+03  0.25500000920E-02 0. -1.
        2   -1    0    0  501    0  0.00000000000E+00  0.00000000000E+00 -0.16444735362E+04  0.16444735362E+04  0.25500000920E-02 0.  1.
    10030    2    1    2    0    0  0.00000000000E+00  0.00000000000E+00 -0.11006899102E+04  0.21882571623E+04  0.18912829323E+04 0.  0.
        3    1    3    3  502    0  0.43265719579E+03  0.84014661379E+03 -0.51027803511E+03  0.10739749834E+04  0.10100000352E+00 0. -1.
       -3    1    3    3    0  502 -0.43265719579E+03 -0.84014661379E+03 -0.59041187506E+03  0.11142821789E+04  0.10100000352E+00 0.  1.
</event>
<event>
 5   0  0.3623359E-04  0.1906142E+04  0.7818609E-02  0.8651805E-01
        2   -1    0    0  501    0  0.00000000000E+00  0.00000000000E+00  0.99096227811E+03  0.99096227811E+03  0.25500000920E-02 0.  1.
       -2   -1    0    0    0  501  0.00000000000E+00  0.00000000000E+00 -0.91662856370E+03  0.91662856371E+03  0.25500000920E-02 0. -1.
    10030    2    1    2    0    0  0.00000000000E+00  0.00000000000E+00  0.74333714410E+02  0.19075908418E+04  0.19061419986E+04 0.  0.
        5    1    3    3  502    0 -0.37592103635E+03 -0.31945277182E+03  0.85323473404E+03  0.98559540399E+03  0.46999998093E+01 0.  1.
       -5    1    3    3    0  502  0.37592103635E+03  0.31945277182E+03 -0.77890101963E+03  0.92199543783E+03  0.46999998093E+01 0. -1.
</event>
<event>
 5   0  0.1694830E-04  0.1936828E+04  0.7818609E-02  0.8636739E-01
        1   -1    0    0  501    0  0.00000000000E+00  0.00000000000E+00  0.10303157846E+04  0.10303157846E+04  0.50400001928E-02 0. -1.
       -1   -1    0    0    0  501  0.00000000000E+00  0.00000000000E+00 -0.91023159216E+03  0.91023159218E+03  0.50400001928E-02 0.  1.
    10030    2    1    2    0    0  0.00000000000E+00  0.00000000000E+00  0.12008419242E+03  0.19405473768E+04  0.19368283115E+04 0.  0.
        1    1    3    3  502    0  0.91565310610E+03  0.13227201170E+03  0.34678997446E+03  0.98801810823E+03  0.50400001928E-02 0. -1.
       -1    1    3    3    0  502 -0.91565310610E+03 -0.13227201170E+03 -0.22670578204E+03  0.95252926854E+03  0.50400001928E-02 0.  1.
</event>
<event>
 5   0  0.1711979E-04  0.1896810E+04  0.7818609E-02  0.8656446E-01
       -1   -1    0    0    0  501  0.00000000000E+00  0.00000000000E+00  0.66355351274E+03  0.66355351276E+03  0.50400001928E-02 0. -1.
        1   -1    0    0  501    0  0.00000000000E+00  0.00000000000E+00 -0.13555381600E+04  0.13555381600E+04  0.50400001928E-02 0.  1.
    10030    2    1    2    0    0  0.00000000000E+00  0.00000000000E+00 -0.69198464727E+03  0.20190916728E+04  0.18968100672E+04 0.  0.
        4    1    3    3  502    0 -0.26157869246E+03 -0.43167787318E+03  0.50870326695E+03  0.71662390781E+03  0.12699999809E+01 0. -1.
       -4    1    3    3    0  502  0.26157869246E+03  0.43167787318E+03 -0.12006879142E+04  0.13024677650E+04  0.12699999809E+01 0.  1.
</event>
<event>
 5   0  0.1287000E-04  0.1922960E+04  0.7818609E-02  0.8643512E-01
       -3   -1    0    0    0  501  0.00000000000E+00  0.00000000000E+00  0.14402646389E+04  0.14402646424E+04  0.10100000352E+00 0.  1.
        3   -1    0    0  501    0  0.00000000000E+00  0.00000000000E+00 -0.64185661452E+03  0.64185662247E+03  0.10100000352E+00 0. -1.
    10030    2    1    2    0    0  0.00000000000E+00  0.00000000000E+00  0.79840802439E+03  0.20821212649E+04  0.19229595909E+04 0.  0.
        2    1    3    3  502    0 -0.44505107926E+03  0.25024533110E+03  0.12813453964E+04  0.13793256373E+04  0.25500000920E-02 0.  1.
       -2    1    3    3    0  502  0.44505107926E+03 -0.25024533110E+03 -0.48293737201E+03  0.70279562760E+03  0.25500000920E-02 0. -1.
</event>
<event>
 5   0  0.1813834E-04  0.1778295E+04  0.7818609E-02  0.8717928E-01
       -1   -1    0    0    0  501  0.00000000000E+00  0.00000000000E+00  0.54302854946E+03  0.54302854949E+03  0.50400001928E-02 0.  1.
        1   -1    0    0  501    0  0.00000000000E+00  0.00000000000E+00 -0.14558775952E+04  0.14558775952E+04  0.50400001928E-02 0. -1.
    10030    2    1    2    0    0  0.00000000000E+00  0.00000000000E+00 -0.91284904574E+03  0.19989061447E+04  0.17782947998E+04 0.  0.
        5    1    3    3  502    0  0.54761037660E+03 -0.44697350679E+03  0.14983620492E+03  0.72258938453E+03  0.46999998093E+01 0.  1.
       -5    1    3    3    0  502 -0.54761037660E+03  0.44697350679E+03 -0.10626852507E+04  0.12763167602E+04  0.46999998093E+01 0. -1.
</event>
<event>
 5   0  0.3623359E-04  0.1896735E+04  0.7818609E-02  0.8656483E-01
        2   -1    0    0  501    0  0.00000000000E+00  0.00000000000E+00  0.12431333961E+04  0.12431333961E+04  0.25500000920E-02 0.  1.
       -2   -1    0    0    0  501  0.00000000000E+00  0.00000000000E+00 -0.72349480980E+03  0.72349480980E+03  0.25500000920E-02 0. -1.
    10030    2    1    2    0    0  0.00000000000E+00  0.00000000000E+00  0.51963858626E+03  0.19666282059E+04  0.18967346255E+04 0.  0.
        5    1    3    3  502    0 -0.19023727447E+02 -0.58392096918E+03 -0.51473767256E+03  0.77865432767E+03  0.46999998093E+01 0. -1.
       -5    1    3    3    0  502  0.19023727447E+02  0.58392096918E+03  0.10343762588E+04  0.11879738782E+04  0.46999998093E+01 0.  1.
</event>
<event>
 5   0  0.3623359E-04  0.1810639E+04  0.7818609E-02  0.8700662E-01
       -2   -1    0    0    0  501  0.00000000000E+00  0.00000000000E+00  0.64880889953E+03  0.64880889953E+03  0.25500000920E-02 0. -1.
        2   -1    0    0  501    0  0.00000000000E+00  0.00000000000E+00 -0.12632437398E+04  0.12632437398E+04  0.25500000920E-02 0.  1.
    10030    2    1    2    0    0  0.00000000000E+00  0.00000000000E+00 -0.61443484030E+03  0.19120526394E+04  0.18106394237E+04 0.  0.
        5    1    3    3  502    0 -0.41521118225E+03 -0.72356602939E+03 -0.67852692798E+03  0.10753459940E+04  0.46999998093E+01 0. -1.
       -5    1    3    3    0  502  0.41521118225E+03  0.72356602939E+03  0.64092087678E+02  0.83670664540E+03  0.46999998093E+01 0.  1.
</event>
<event>
 5   0  0.3459485E-04  0.1922732E+04  0.7818609E-02  0.8643623E-01
       -2   -1    0    0    0  501  0.00000000000E+00  0.00000000000E+00  0.49165234741E+03  0.49165234742E+03  0.25500000920E-02 0. -1.
        2   -1    0    0  501    0  0.00000000000E+00  0.00000000000E+00 -0.18798339588E+04  0.18798339588E+04  0.25500000920E-02 0.  1.
    10030    2    1    2    0    0  0.00000000000E+00  0.00000000000E+00 -0.13881816114E+04  0.23714863063E+04  0.19227322004E+04 0.  0.
        3    1    3    3  502    0 -0.13790711031E+03  0.94991042300E+03 -0.76024242412E+03  0.12244658984E+04  0.10100000352E+00 0.  1.
       -3    1    3    3    0  502  0.13790711031E+03 -0.94991042300E+03 -0.62793918732E+03  0.11470204078E+04  0.10100000352E+00 0. -1.
</event>
<event>
 5   0  0.3623359E-04  0.1906190E+04  0.7818609E-02  0.8651781E-01
        2   -1    0    0  501    0  0.00000000000E+00  0.00000000000E+00  0.18919846617E+04  0.18919846617E+04  0.25500000920E-02 0. -1.
       -2   -1    0    0    0  501  0.00000000000E+00  0.00000000000E+00 -0.48012564017E+03  0.48012564017E+03  0.25500000920E-02 0.  1.
    10030    2    1    2    0    0  0.00000000000E+00  0.00000000000E+00  0.14118590216E+04  0.23721103019E+04  0.19061902811E+04 0.  0.
        5    1    3    3  502    0 -0.91877327100E+02 -0.94488669617E+03  0.81090427859E+03  0.12485352021E+04  0.46999998093E+01 0.  1.
       -5    1    3    3    0  502  0.91877327100E+02  0.94488669617E+03  0.60095474297E+03  0.11235750998E+04  0.46999998093E+01 0. -1.
</event>
<event>
 5   0  0.1758946E-04  0.1904162E+04  0.7818609E-02  0.8652788E-01
       -1   -1    0    0    0  501  0.00000000000E+00  0.00000000000E+00  0.48978976429E+03  0.48978976432E+03  0.50400001928E-02 0. -1.
        1   -1    0    0  501    0  0.00000000000E+00  0.00000000000E+00 -0.18507080217E+04  0.18507080217E+04  0.50400001928E-02 0.  1.
    10030    2    1    2    0    0  0.00000000000E+00  0.00000000000E+00 -0.13609182574E+04  0.23404977860E+04  0.19041615958E+04 0.  0.
        2    1    3    3  502    0 -0.21525505528E+03  0.54732054841E+03  0.23981406706E+03  0.63514195917E+03  0.25500000920E-02 0. -1.
       -2    1    3    3    0  502  0.21525505528E+03 -0.54732054841E+03 -0.16007323244E+04  0.17053558268E+04  0.25500000920E-02 0.  1.
</event>
<event>
 5   0  0.3459485E-04  0.1952841E+04  0.7818609E-02  0.8628992E-01
       -2   -1    0    0    0  501  0.00000000000E+00  0.00000000000E+00  0.80994409069E+03  0.80994409069E+03  0.25500000920E-02 0.  1.
        2   -1    0    0  501    0  0.00000000000E+00  0.00000000000E+00 -0.11771144440E+04  0.11771144440E+04  0.25500000920E-02 0. -1.
    10030    2    1    2    0    0  0.00000000000E+00  0.00000000000E+00 -0.36717035327E+03  0.19870585347E+04  0.19528408926E+04 0.  0.
        3    1    3    3  502    0  0.47686140069E+03 -0.56416645681E+03 -0.83330008560E+03  0.11135841366E+04  0.10100000352E+00 0.  1.
       -3    1    3    3    0  502 -0.47686140069E+03  0.56416645681E+03  0.46612973233E+03  0.87347439803E+03  0.10100000352E+00 0. -1.
</event>
<event>
 5   0  0.3535876E-04  0.1882447E+04  0.7818609E-02  0.8663643E-01
       -2   -1    0    0    0  501  0.00000000000E+00  0.00000000000E+00  0.94587498024E+03  0.94587498025E+03  0.25500000920E-02 0. -1.
        2   -1    0    0  501    0  0.00000000000E+00  0.00000000000E+00 -0.93659489176E+03  0.93659489177E+03  0.25500000920E-02 0.  1.
    10030    2    1    2    0    0  0.00000000000E+00  0.00000000000E+00  0.92800884803E+01  0.18824698720E+04  0.18824469977E+04 0.  0.
        2    1    3    3  502    0 -0.48805893080E+03  0.71201107584E+03  0.37979841493E+03  0.94308436952E+03  0.25500000920E-02 0. -1.
       -2    1    3    3    0  502  0.48805893080E+03 -0.71201107584E+03 -0.37051832645E+03  0.93938550249E+03  0.25500000920E-02 0.  1.
</event>
<event>
 5   0  0.3459485E-04  0.1897720E+04  0.7818609E-02  0.8655992E-01
        2   -1    0    0  501    0  0.00000000000E+00  0.00000000000E+00  0.95518910208E+03  0.95518910209E+03  0.25500000920E-02 0.  1.
       -2   -1    0    0    0  501  0.00000000000E+00  0.00000000000E+00 -0.94257252604E+03  0.94257252604E+03  0.25500000920E-02 0. -1.
    10030    2    1    2    0    0  0.00000000000E+00  0.00000000000E+00  0.12616576041E+02  0.18977616281E+04  0.18977196893E+04 0.  0.
        3    1    3    3  502    0  0.49342615154E+03  0.63157858825E+03  0.51423103491E+03  0.95225755320E+03  0.10100000352E+00 0.  1.
       -3    1    3    3    0  502 -0.49342615154E+03 -0.63157858825E+03 -0.50161445887E+03  0.94550407493E+03  0.10100000352E+00 0. -1.
</event>
<event>
 5   0  0.1758946E-04  0.1872325E+04  0.7818609E-02  0.8668756E-01
        1   -1    0    0  501    0  0.00000000000E+00  0.00000000000E+00  0.69009218951E+03  0.69009218953E+03  0.50400001928E-02 0. -1.
       -1   -1    0    0    0  501  0.00000000000E+00  0.00000000000E+00 -0.12699760122E+04  0.12699760122E+04  0.50400001928E-02 0.  1.
    10030    2    1    2    0    0  0.00000000000E+00  0.00000000000E+00 -0.57988382268E+03  0.19600682017E+04  0.18723253210E+04 0.  0.
        2    1    3    3  502    0  0.16773042998E+03  0.67938624642E+03 -0.94093701343E+03  0.11726302197E+04  0.25500000920E-02 0.  1.
       -2    1    3    3    0  502 -0.16773042998E+03 -0.67938624642E+03  0.36105319074E+03  0.78743798201E+03  0.25500000920E-02 0. -1.
</event>
<event>
 5   0  0.3535876E-04  0.1887081E+04  0.7818609E-02  0.8661314E-01
        2   -1    0    0  501    0  0.00000000000E+00  0.00000000000E+00  0.69399478869E+03  0.69399478869E+03  0.25500000920E-02 0.  1.
       -2   -1    0    0    0  501  0.00000000000E+00  0.00000000000E+00 -0.12828172231E+04  0.12828172231E+04  0.25500000920E-02 0. -1.
    10030    2    1    2    0    0  0.00000000000E+00  0.00000000000E+00 -0.58882243437E+03  0.19768120117E+04  0.18870807801E+04 0.  0.
        2    1    3    3  502    0  0.38933462545E+03  0.80428677466E+03 -0.61182033889E+03  0.10829509654E+04  0.25500000920E-02 0. -1.
       -2    1    3    3    0  502 -0.38933462545E+03 -0.80428677466E+03  0.22997904526E+02  0.89386104630E+03  0.25500000920E-02 0.  1.
</event>
<event>
 5   0  0.1711979E-04  0.1888433E+04  0.7818609E-02  0.8660636E-01
       -1   -1    0    0    0  501  0.00000000000E+00  0.00000000000E+00  0.11494736426E+04  0.11494736426E+04  0.50400001928E-02 0. -1.
        1   -1    0    0  501    0  0.00000000000E+00  0.00000000000E+00 -0.77561111362E+03  0.77561111364E+03  0.50400001928E-02 0.  1.
    10030    2    1    2    0    0  0.00000000000E+00  0.00000000000E+00  0.37386252896E+03  0.19250847562E+04  0.18884327174E+04 0.  0.
        4    1    3    3  502    0 -0.79969092636E+03 -0.11853230913E+02 -0.32470309303E+03  0.86318004397E+03  0.12699999809E+01 0.  1.
       -4    1    3    3    0  502  0.79969092636E+03  0.11853230913E+02  0.69856562199E+03  0.10619047123E+04  0.12699999809E+01 0. -1.
</event>
<event>
 5   0  0.1711979E-04  0.1886362E+04  0.7818609E-02  0.8661675E-01
       -1   -1    0    0    0  501  0.00000000000E+00  0.00000000000E+00  0.62066690940E+03  0.62066690942E+03  0.50400001928E-02 0. -1.
        1   -1    0    0  501    0  0.00000000000E+00  0.00000000000E+00 -0.14332822177E+04  0.14332822177E+04  0.50400001928E-02 0.  1.
    10030    2    1    2    0    0  0.00000000000E+00  0.00000000000E+00 -0.81261530832E+03  0.20539491272E+04  0.18863624725E+04 0.  0.
        4    1    3    3  502    0 -0.25213860247E+03  0.37369957532E+03  0.49576554075E+03  0.67008233206E+03  0.12699999809E+01 0. -1.
       -4    1    3    3    0  502  0.25213860247E+03 -0.37369957532E+03 -0.13083808491E+04  0.13838667951E+04  0.12699999809E+01 0.  1.
</event>
<event>
 5   0  0.3516539E-04  0.1798314E+04  0.7818609E-02  0.8707197E-01
       -2   -1    0    0    0  501  0.00000000000E+00  0.00000000000E+00  0.76779122300E+03  0.76779122300E+03  0.25500000920E-02 0.  1.
        2   -1    0    0  501    0  0.00000000000E+00  0.00000000000E+00 -0.10529985824E+04  0.10529985824E+04  0.25500000920E-02 0. -1.
    10030    2    1    2    0    0  0.00000000000E+00  0.00000000000E+00 -0.28520735937E+03  0.18207898054E+04  0.17983137317E+04 0.  0.
        4    1    3    3  502    0  0.13435647613E+03  0.32227189720E+03 -0.98155538176E+03  0.10418077648E+04  0.12699999809E+01 0. -1.
       -4    1    3    3    0  502 -0.13435647613E+03 -0.32227189720E+03  0.69634802238E+03  0.77898204060E+03  0.12699999809E+01 0.  1.
</event>
<event>
 5   0  0.1782613E-04  0.1876077E+04  0.7818609E-02  0.8666857E-01
       -1   -1    0    0    0  501  0.00000000000E+00  0.00000000000E+00  0.97398033005E+03  0.97398033007E+03  0.50400001928E-02 0. -1.
        1   -1    0    0  501    0  0.00000000000E+00  0.00000000000E+00 -0.90342273214E+03  0.90342273215E+03  0.50400001928E-02 0.  1.
    10030    2    1    2    0    0  0.00000000000E+00  0.00000000000E+00  0.70557597915E+02  0.18774030622E+04  0.18760767264E+04 0.  0.
        3    1    3    3  502    0 -0.80203519766E-01 -0.45580571634E+03  0.85571029099E+03  0.96953544019E+03  0.10100000352E+00 0. -1.
       -3    1    3    3    0  502  0.80203519766E-01  0.45580571634E+03 -0.78515269308E+03  0.90786762203E+03  0.10100000352E+00 0.  1.
</event>
<event>
 5   0  0.1758946E-04  0.1907171E+04  0.7818609E-02  0.8651295E-01
       -1   -1    0    0    0  501  0.00000000000E+00  0.00000000000E+00  0.46365700868E+03  0.46365700871E+03  0.50400001928E-02 0. -1.
        1   -1    0    0  501    0  0.00000000000E+00  0.00000000000E+00 -0.19612019465E+04  0.19612019465E+04  0.50400001928E-02 0.  1.
    10030    2    1    2    0    0  0.00000000000E+00  0.00000000000E+00 -0.14975449378E+04  0.24248589552E+04  0.19071707086E+04 0.  0.
        2    1    3    3  502    0  0.77682495935E+02  0.58200624919E+03 -0.17040985901E+04  0.18024199979E+04  0.25500000920E-02 0.  1.
       -2    1    3    3    0  502 -0.77682495935E+02 -0.58200624919E+03  0.20655365225E+03  0.62243895728E+03  0.25500000920E-02 0. -1.
</event>
<event>
 5   0  0.3459485E-04  0.1903133E+04  0.7818609E-02  0.8653299E-01
        2   -1    0    0  501    0  0.00000000000E+00  0.00000000000E+00  0.84829583293E+03  0.84829583293E+03  0.25500000920E-02 0. -1.
       -2   -1    0    0    0  501  0.00000000000E+00  0.00000000000E+00 -0.10674087550E+04  0.10674087550E+04  0.25500000920E-02 0.  1.
    10030    2    1    2    0    0  0.00000000000E+00  0.00000000000E+00 -0.21911292206E+03  0.19157045879E+04  0.19031325744E+04 0.  0.
        3    1    3    3  502    0 -0.21999072196E+01 -0.32087033547E+03  0.79219381950E+03  0.85471262400E+03  0.10100000352E+00 0. -1.
       -3    1    3    3    0  502  0.21999072196E+01  0.32087033547E+03 -0.10113067416E+04  0.10609919639E+04  0.10100000352E+00 0.  1.
</event>
<event>
 5   0  0.3459485E-04  0.1795895E+04  0.7818609E-02  0.8708485E-01
        2   -1    0    0  501    0  0.00000000000E+00  0.00000000000E+00  0.96877010248E+03  0.96877010248E+03  0.25500000920E-02 0.  1.
       -2   -1    0    0    0  501  0.00000000000E+00  0.00000000000E+00 -0.83230267383E+03  0.83230267383E+03  0.25500000920E-02 0. -1.
    10030    2    1    2    0    0  0.00000000000E+00  0.00000000000E+00  0.13646742865E+03  0.18010727763E+04  0.17958952604E+04 0.  0.
        3    1    3    3  502    0  0.68912671135E+03 -0.10376174416E+03 -0.49965651716E+03  0.85750729979E+03  0.10100000352E+00 0. -1.
       -3    1    3    3    0  502 -0.68912671135E+03  0.10376174416E+03  0.63612394581E+03  0.94356547652E+03  0.10100000352E+00 0.  1.
</event>
<event>
 5   0  0.3535876E-04  0.1918896E+04  0.7818609E-02  0.8645507E-01
       -2   -1    0    0    0  501  0.00000000000E+00  0.00000000000E+00  0.48906101966E+03  0.48906101967E+03  0.25500000920E-02 0.  1.
        2   -1    0    0  501    0  0.00000000000E+00  0.00000000000E+00 -0.18822610377E+04  0.18822610377E+04  0.25500000920E-02 0. -1.
    10030    2    1    2    0    0  0.00000000000E+00  0.00000000000E+00 -0.13932000181E+04  0.23713220574E+04  0.19188960393E+04 0.  0.
        2    1    3    3  502    0  0.35943043866E+03  0.55775056684E+03 -0.15530053516E+04  0.16888166144E+04  0.25500000920E-02 0. -1.
       -2    1    3    3    0  502 -0.35943043866E+03 -0.55775056684E+03  0.15980533354E+03  0.68250544297E+03  0.25500000920E-02 0.  1.
</event>
<event>
 5   0  0.1694830E-04  0.1889152E+04  0.7818609E-02  0.8660275E-01
        1   -1    0    0  501    0  0.00000000000E+00  0.00000000000E+00  0.21835164704E+04  0.21835164704E+04  0.50400001928E-02 0.  1.
       -1   -1    0    0    0  501  0.00000000000E+00  0.00000000000E+00 -0.40861783418E+03  0.40861783421E+03  0.50400001928E-02 0. -1.
    10030    2    1    2    0    0  0.00000000000E+00  0.00000000000E+00  0.17748986362E+04  0.25921343046E+04  0.18891519484E+04 0.  0.
        1    1    3    3  502    0  0.24562840562E+03  0.49014944339E+03 -0.16795978133E+03  0.57340237065E+03  0.50400001928E-02 0. -1.
       -1    1    3    3    0  502 -0.24562840562E+03 -0.49014944339E+03  0.19428584175E+04  0.20187319339E+04  0.50400001928E-02 0.  1.
</event>
<event>
 5   0  0.3516539E-04  0.1867751E+04  0.7818609E-02  0.8671077E-01
        2   -1    0    0  501    0  0.00000000000E+00  0.00000000000E+00  0.16331023307E+04  0.16331023307E+04  0.25500000920E-02 0. -1.
       -2   -1    0    0    0  501  0.00000000000E+00  0.00000000000E+00 -0.53402873868E+03  0.53402873868E+03  0.25500000920E-02 0.  1.
    10030    2    1    2    0    0  0.00000000000E+00  0.00000000000E+00  0.10990735920E+04  0.21671310694E+04  0.18677511374E+04 0.  0.
        4    1    3    3  502    0 -0.68391104194E+03 -0.55191069789E+03  0.91605266130E+03  0.12694462663E+04  0.12699999809E+01 0. -1.
       -4    1    3    3    0  502  0.68391104194E+03  0.55191069789E+03  0.18302093069E+03  0.89768480309E+03  0.12699999809E+01 0.  1.
</event>
<event>
 5   0  0.1782613E-04  0.1950865E+04  0.7818609E-02  0.8629944E-01
        1   -1    0    0  501    0  0.00000000000E+00  0.00000000000E+00  0.97849174240E+03  0.97849174242E+03  0.50400001928E-02 0. -1.
       -1   -1    0    0    0  501  0.00000000000E+00  0.00000000000E+00 -0.97238318138E+03  0.97238318140E+03  0.50400001928E-02 0.  1.
    10030    2    1    2    0    0  0.00000000000E+00  0.00000000000E+00  0.61085610186E+01  0.19508749238E+04  0.19508653603E+04 0.  0.
        3    1    3    3  502    0 -0.21535523897E+03  0.50174649030E+03 -0.80524510056E+03  0.97290652257E+03  0.10100000352E+00 0.  1.
       -3    1    3    3    0  502  0.21535523897E+03 -0.50174649030E+03  0.81135366158E+03  0.97796840125E+03  0.10100000352E+00 0. -1.
</event>
<event>
 5   0  0.3459485E-04  0.1906111E+04  0.7818609E-02  0.8651821E-01
       -2   -1    0    0    0  501  0.00000000000E+00  0.00000000000E+00  0.63049396168E+03  0.63049396169E+03  0.25500000920E-02 0.  1.
        2   -1    0    0  501    0  0.00000000000E+00  0.00000000000E+00 -0.14406399121E+04  0.14406399121E+04  0.25500000920E-02 0. -1.
    10030    2    1    2    0    0  0.00000000000E+00  0.00000000000E+00 -0.81014595039E+03  0.20711338738E+04  0.19061109784E+04 0.  0.
        3    1    3    3  502    0 -0.82607193496E+03 -0.20694870851E+03  0.59864813858E+02  0.85370159647E+03  0.10100000352E+00 0.  1.
       -3    1    3    3    0  502  0.82607193496E+03  0.20694870851E+03 -0.87001076424E+03  0.12174322773E+04  0.10100000352E+00 0. -1.
</event>
<event>
 5   0  0.3459485E-04  0.1849371E+04  0.7818609E-02  0.8680476E-01
        2   -1    0    0  501    0  0.00000000000E+00  0.00000000000E+00  0.92032889236E+03  0.92032889237E+03  0.25500000920E-02 0. -1.
       -2   -1    0    0    0  501  0.00000000000E+00  0.00000000000E+00 -0.92906303676E+03  0.92906303676E+03  0.25500000920E-02 0.  1.
    10030    2    1    2    0    0  0.00000000000E+00  0.00000000000E+00 -0.87341443974E+01  0.18493919291E+04  0.18493713046E+04 0.  0.
        3    1    3    3  502    0  0.57788463033E+03 -0.52262050788E+03  0.49359500947E+03  0.92234423335E+03  0.10100000352E+00 0. -1.
       -3    1    3    3    0  502 -0.57788463033E+03  0.52262050788E+03 -0.50232915386E+03  0.92704769578E+03  0.10100000352E+00 0.  1.
</event>
<event>
 5   0  0.1711979E-04  0.1554955E+04  0.7818609E-02  0.8848709E-01
       -1   -1    0    0    0  501  0.00000000000E+00  0.00000000000E+00  0.37273783734E+03  0.37273783738E+03  0.50400001928E-02 0.  1.
        1   -1    0    0  501    0  0.00000000000E+00  0.00000000000E+00 -0.16217054262E+04  0.16217054262E+04  0.50400001928E-02 0. -1.
    10030    2    1    2    0    0  0.00000000000E+00  0.00000000000E+00 -0.12489675889E+04  0.19944432636E+04  0.15549546275E+04 0.  0.
        4    1    3    3  502    0 -0.28646009713E+03  0.30455677612E+03 -0.14652281741E+04  0.15237156664E+04  0.12699999809E+01 0. -1.
       -4    1    3    3    0  502  0.28646009713E+03 -0.30455677612E+03  0.21626058520E+03  0.47072759717E+03  0.12699999809E+01 0.  1.
</event>
<event>
 5   0  0.1694830E-04  0.1804038E+04  0.7818609E-02  0.8704155E-01
       -1   -1    0    0    0  501  0.00000000000E+00  0.00000000000E+00  0.60473323972E+03  0.60473323974E+03  0.50400001928E-02 0.  1.
        1   -1    0    0  501    0  0.00000000000E+00  0.00000000000E+00 -0.13454495367E+04  0.13454495367E+04  0.50400001928E-02 0. -1.
    10030    2    1    2    0    0  0.00000000000E+00  0.00000000000E+00 -0.74071629698E+03  0.19501827764E+04  0.18040377571E+04 0.  0.
        1    1    3    3  502    0 -0.38785929215E+03 -0.81284541112E+03 -0.42425236924E+03  0.99556143242E+03  0.50400001928E-02 0. -1.
       -1    1    3    3    0  502  0.38785929215E+03  0.81284541112E+03 -0.31646392774E+03  0.95462134403E+03  0.50400001928E-02 0.  1.
</event>
<event>
 5   0  0.3720978E-04  0.1921330E+04  0.7818609E-02  0.8644312E-01
       -2   -1    0    0    0  501  0.00000000000E+00  0.00000000000E+00  0.14282664874E+04  0.14282664874E+04  0.25500000920E-02 0. -1.
        2   -1    0    0  501    0  0.00000000000E+00  0.00000000000E+00 -0.64615175759E+03  0.64615175760E+03  0.25500000920E-02 0.  1.
    10030    2    1    2    0    0  0.00000000000E+00  0.00000000000E+00  0.78211472985E+03  0.20744182450E+04  0.19213296450E+04 0.  0.
        1    1    3    3  502    0  0.29405990820E+03 -0.91120483080E+03  0.30665282926E+03  0.10053862099E+04  0.50400001928E-02 0. -1.
       -1    1    3    3    0  502 -0.29405990820E+03  0.91120483080E+03  0.47546190059E+03  0.10690320352E+04  0.50400001928E-02 0.  1.
</event>
<event>
 5   0  0.1711979E-04  0.1837640E+04  0.7818609E-02  0.8686535E-01
        1   -1    0    0  501    0  0.00000000000E+00  0.00000000000E+00  0.14939686318E+04  0.14939686318E+04  0.50400001928E-02 0.  1.
       -1   -1    0    0    0  501  0.00000000000E+00  0.00000000000E+00 -0.56509222960E+03  0.56509222962E+03  0.50400001928E-02 0. -1.
    10030    2    1    2    0    0  0.00000000000E+00  0.00000000000E+00  0.92887640220E+03  0.20590608614E+04  0.18376398615E+04 0.  0.
        4    1    3    3  502    0  0.49425749789E+02 -0.83428071740E+03  0.36649020898E+02  0.83654765782E+03  0.12699999809E+01 0. -1.
       -4    1    3    3    0  502 -0.49425749789E+02  0.83428071740E+03  0.89222738130E+03  0.12225132036E+04  0.12699999809E+01 0.  1.
</event>
<event>
 5   0  0.3623359E-04  0.1920015E+04  0.7818609E-02  0.8644957E-01
       -2   -1    0    0    0  501  0.00000000000E+00  0.00000000000E+00  0.99616733376E+03  0.99616733376E+03  0.25500000920E-02 0. -1.
        2   -1    0    0  501    0  0.00000000000E+00  0.00000000000E+00 -0.92516033507E+03  0.92516033507E+03  0.25500000920E-02 0.  1.
    10030    2    1    2    0    0  0.00000000000E+00  0.00000000000E+00  0.71006998686E+02  0.19213276688E+04  0.19200151086E+04 0.  0.
        5    1    3    3  502    0 -0.57629710151E+03 -0.75988926711E+03 -0.74309237780E+02  0.95660545697E+03  0.46999998093E+01 0.  1.
       -5    1    3    3    0  502  0.57629710151E+03  0.75988926711E+03  0.14531623647E+03  0.96472221186E+03  0.46999998093E+01 0. -1.
</event>
<event>
 5   0  0.1758946E-04  0.1943831E+04  0.7818609E-02  0.8633341E-01
        1   -1    0    0  501    0  0.00000000000E+00  0.00000000000E+00  0.12892034272E+04  0.12892034273E+04  0.50400001928E-02 0.  1.
       -1   -1    0    0    0  501  0.00000000000E+00  0.00000000000E+00 -0.73271560030E+03  0.73271560032E+03  0.50400001928E-02 0. -1.
    10030    2    1    2    0    0  0.00000000000E+00  0.00000000000E+00  0.55648782694E+03  0.20219190276E+04  0.19438307160E+04 0.  0.
        2    1    3    3  502    0 -0.58231958964E+03  0.40219290738E+03 -0.41467347854E+03  0.82024955534E+03  0.25500000920E-02 0. -1.
       -2    1    3    3    0  502  0.58231958964E+03 -0.40219290738E+03  0.97116130548E+03  0.12016694722E+04  0.25500000920E-02 0.  1.
</event>
<event>
 5   0  0.1813834E-04  0.2001828E+04  0.7818609E-02  0.8605767E-01
        1   -1    0    0  501    0  0.00000000000E+00  0.00000000000E+00  0.74051856459E+03  0.74051856461E+03  0.50400001928E-02 0.  1.
       -1   -1    0    0    0  501  0.00000000000E+00  0.00000000000E+00 -0.13528742175E+04  0.13528742176E+04  0.50400001928E-02 0. -1.
    10030    2    1    2    0    0  0.00000000000E+00  0.00000000000E+00 -0.61235565296E+03  0.20933927822E+04  0.20018276386E+04 0.  0.
        5    1    3    3  502    0 -0.82298172472E+03 -0.29221118168E+03  0.20518843822E+03  0.89711241163E+03  0.46999998093E+01 0.  1.
       -5    1    3    3    0  502  0.82298172472E+03  0.29221118168E+03 -0.81754409118E+03  0.11962803705E+04  0.46999998093E+01 0. -1.
</event>
<event>
 5   0  0.1694830E-04  0.1912951E+04  0.7818609E-02  0.8648436E-01
       -1   -1    0    0    0  501  0.00000000000E+00  0.00000000000E+00  0.60476885119E+03  0.60476885121E+03  0.50400001928E-02 0. -1.
        1   -1    0    0  501    0  0.00000000000E+00  0.00000000000E+00 -0.15127197655E+04  0.15127197655E+04  0.50400001928E-02 0.  1.
    10030    2    1    2    0    0  0.00000000000E+00  0.00000000000E+00 -0.90795091426E+03  0.21174886167E+04  0.19129514314E+04 0.  0.
        1    1    3    3  502    0  0.78958367318E+03 -0.18774162293E+03 -0.10142099337E+04  0.12989653897E+04  0.50400001928E-02 0.  1.
       -1    1    3    3    0  502 -0.78958367318E+03  0.18774162293E+03  0.10625901942E+03  0.81852322702E+03  0.50400001928E-02 0. -1.
</event>
<event>
 5   0  0.3623359E-04  0.1981139E+04  0.7818609E-02  0.8615490E-01
       -2   -1    0    0    0  501  0.00000000000E+00  0.00000000000E+00  0.67513709216E+03  0.67513709217E+03  0.25500000920E-02 0.  1.
        2   -1    0    0  501    0  0.00000000000E+00  0.00000000000E+00 -0.14533760467E+04  0.14533760467E+04  0.25500000920E-02 0. -1.
    10030    2    1    2    0    0  0.00000000000E+00  0.00000000000E+00 -0.77823895451E+03  0.21285131388E+04  0.19811391450E+04 0.  0.
        5    1    3    3  502    0 -0.91608496120E+02  0.24956147508E+03 -0.14143208696E+04  0.14390964730E+04  0.46999998093E+01 0. -1.
       -5    1    3    3    0  502  0.91608496120E+02 -0.24956147508E+03  0.63608191511E+03  0.68941666583E+03  0.46999998093E+01 0.  1.
</event>
<event>
 5   0  0.1758946E-04  0.1876528E+04  0.7818609E-02  0.8666629E-01
        1   -1    0    0  501    0  0.00000000000E+00  0.00000000000E+00  0.87283492501E+03  0.87283492503E+03  0.50400001928E-02 0. -1.
       -1   -1    0    0    0  501  0.00000000000E+00  0.00000000000E+00 -0.10085982517E+04  0.10085982517E+04  0.50400001928E-02 0.  1.
    10030    2    1    2    0    0  0.00000000000E+00  0.00000000000E+00 -0.13576332670E+03  0.18814331767E+04  0.18765284751E+04 0.  0.
        2    1    3    3  502    0 -0.54342637098E+03  0.48158084710E+03  0.52789992397E+03  0.89772527129E+03  0.25500000920E-02 0. -1.
       -2    1    3    3    0  502  0.54342637098E+03 -0.48158084710E+03 -0.66366325066E+03  0.98370790546E+03  0.25500000920E-02 0.  1.
</event>
<event>
 5   0  0.1782613E-04  0.1934364E+04  0.7818609E-02  0.8637938E-01
       -1   -1    0    0    0  501  0.00000000000E+00  0.00000000000E+00  0.45193449801E+03  0.45193449804E+03  0.50400001928E-02 0. -1.
        1   -1    0    0  501    0  0.00000000000E+00  0.00000000000E+00 -0.20698594719E+04  0.20698594719E+04  0.50400001928E-02 0.  1.
    10030    2    1    2    0    0  0.00000000000E+00  0.00000000000E+00 -0.16179249739E+04  0.25217939699E+04  0.19343638762E+04 0.  0.
        3    1    3    3  502    0 -0.12865742311E+03  0.19638804308E+02 -0.20583915226E+04  0.20625018995E+04  0.10100000352E+00 0.  1.
       -3    1    3    3    0  502  0.12865742311E+03 -0.19638804308E+02  0.44046654873E+03  0.45929207037E+03  0.10100000352E+00 0. -1.
</event>
<event>
 5   0  0.3459485E-04  0.1895127E+04  0.7818609E-02  0.8657286E-01
        2   -1    0    0  501    0  0.00000000000E+00  0.00000000000E+00  0.79435653535E+03  0.79435653536E+03  0.25500000920E-02 0.  1.
       -2   -1    0    0    0  501  0.00000000000E+00  0.00000000000E+00 -0.11303193008E+04  0.11303193008E+04  0.25500000920E-02 0. -1.
    10030    2    1    2    0    0  0.00000000000E+00  0.00000000000E+00 -0.33596276547E+03  0.19246758362E+04  0.18951269336E+04 0.  0.
        3    1    3    3  502    0  0.82033934930E+03  0.37490399685E+03 -0.46296998033E+03  0.10138298022E+04  0.10100000352E+00 0. -1.
       -3    1    3    3    0  502 -0.82033934930E+03 -0.37490399685E+03  0.12700721486E+03  0.91084603402E+03  0.10100000352E+00 0.  1.
</event>
<event>
 5   0  0.3623359E-04  0.1901670E+04  0.7818609E-02  0.8654026E-01
        2   -1    0    0  501    0  0.00000000000E+00  0.00000000000E+00  0.16958595988E+04  0.16958595988E+04  0.25500000920E-02 0.  1.
       -2   -1    0    0    0  501  0.00000000000E+00  0.00000000000E+00 -0.53311426892E+03  0.53311426892E+03  0.25500000920E-02 0. -1.
    10030    2    1    2    0    0  0.00000000000E+00  0.00000000000E+00  0.11627453299E+04  0.22289738677E+04  0.19016697402E+04 0.  0.
        5    1    3    3  502    0  0.11814490960E+03 -0.92516480256E+03  0.36468453274E+03  0.10014514616E+04  0.46999998093E+01 0.  1.
       -5    1    3    3    0  502 -0.11814490960E+03  0.92516480256E+03  0.79806079717E+03  0.12275224061E+04  0.46999998093E+01 0. -1.
</event>
<event>
 5   0  0.3720978E-04  0.1898813E+04  0.7818609E-02  0.8655447E-01
       -2   -1    0    0    0  501  0.00000000000E+00  0.00000000000E+00  0.94319267853E+03  0.94319267854E+03  0.25500000920E-02 0. -1.
        2   -1    0    0  501    0  0.00000000000E+00  0.00000000000E+00 -0.95566136505E+03  0.95566136506E+03  0.25500000920E-02 0.  1.
    10030    2    1    2    0    0  0.00000000000E+00  0.00000000000E+00 -0.12468686520E+02  0.18988540436E+04  0.18988131058E+04 0.  0.
        1    1    3    3  502    0  0.61712445548E+03 -0.14178342030E+03  0.70119003375E+03  0.94478177125E+03  0.50400001928E-02 0. -1.
       -1    1    3    3    0  502 -0.61712445548E+03  0.14178342030E+03 -0.71365872027E+03  0.95407227235E+03  0.50400001928E-02 0.  1.
</event>
<event>
 5   0  0.1711979E-04  0.2020088E+04  0.7818609E-02  0.8597286E-01
       -1   -1    0    0    0  501  0.00000000000E+00  0.00000000000E+00  0.54833320726E+03  0.54833320729E+03  0.50400001928E-02 0. -1.
        1   -1    0    0  501    0  0.00000000000E+00  0.00000000000E+00 -0.18605276557E+04  0.18605276557E+04  0.50400001928E-02 0.  1.
    10030    2    1    2    0    0  0.00000000000E+00  0.00000000000E+00 -0.13121944485E+04  0.24088608630E+04  0.20200882126E+04 0.  0.
        4    1    3    3  502    0 -0.68070724901E+03  0.13401995409E+03 -0.15314454917E+04  0.16812645877E+04  0.12699999809E+01 0.  1.
       -4    1    3    3    0  502  0.68070724901E+03 -0.13401995409E+03  0.21925104326E+03  0.72759627529E+03  0.12699999809E+01 0. -1.
</event>
<event>
 5   0  0.1782613E-04  0.1721885E+04  0.7818609E-02  0.8748980E-01
        1   -1    0    0  501    0  0.00000000000E+00  0.00000000000E+00  0.90367618195E+03  0.90367618197E+03  0.50400001928E-02 0.  1.
       -1   -1    0    0    0  501  0.00000000000E+00  0.00000000000E+00 -0.82022998648E+03  0.82022998650E+03  0.50400001928E-02 0. -1.
    10030    2    1    2    0    0  0.00000000000E+00  0.00000000000E+00  0.83446195470E+02  0.17239061685E+04  0.17218853650E+04 0.  0.
        3    1    3    3  502    0 -0.44931923459E+03  0.65297095817E+03  0.37821789529E+03  0.87824121590E+03  0.10100000352E+00 0.  1.
       -3    1    3    3    0  502  0.44931923459E+03 -0.65297095817E+03 -0.29477169982E+03  0.84566495257E+03  0.10100000352E+00 0. -1.
</event>
<event>
 5   0  0.1694830E-04  0.1873370E+04  0.7818609E-02  0.8668227E-01
        1   -1    0    0  501    0  0.00000000000E+00  0.00000000000E+00  0.23121387065E+04  0.23121387065E+04  0.50400001928E-02 0. -1.
       -1   -1    0    0    0  501  0.00000000000E+00  0.00000000000E+00 -0.37946613828E+03  0.37946613831E+03  0.50400001928E-02 0.  1.
    10030    2    1    2    0    0  0.00000000000E+00  0.00000000000E+00  0.19326725682E+04  0.26916048448E+04  0.18733695270E+04 0.  0.
        1    1    3    3  502    0  0.11522884385E+02  0.33788982632E+03 -0.28874472113E+03  0.44460749611E+03  0.50400001928E-02 0.  1.
       -1    1    3    3    0  502 -0.11522884385E+02 -0.33788982632E+03  0.22214172893E+04  0.22469973487E+04  0.50400001928E-02 0. -1.
</event>
<event>
 5   0  0.3535876E-04  0.1882602E+04  0.7818609E-02  0.8663565E-01
        2   -1    0    0  501    0  0.00000000000E+00  0.00000000000E+00  0.74923324147E+03  0.74923324148E+03  0.25500000920E-02 0. -1.
       -2   -1    0    0    0  501  0.00000000000E+00  0.00000000000E+00 -0.11826056136E+04  0.11826056136E+04  0.25500000920E-02 0.  1.
    10030    2    1    2    0    0  0.00000000000E+00  0.00000000000E+00 -0.43337237208E+03  0.19318388550E+04  0.18826018562E+04 0.  0.
        2    1    3    3  502    0  0.71735186518E+03  0.21008258515E+03 -0.80376722305E+03  0.10976202166E+04  0.25500000920E-02 0.  1.
       -2    1    3    3    0  502 -0.71735186518E+03 -0.21008258515E+03  0.37039485097E+03  0.83421863842E+03  0.25500000920E-02 0. -1.
</event>
<event>
 5   0  0.1694830E-04  0.1922835E+04  0.7818609E-02  0.8643573E-01
        1   -1    0    0  501    0  0.00000000000E+00  0.00000000000E+00  0.12114648642E+04  0.12114648642E+04  0.50400001928E-02 0.  1.
       -1   -1    0    0    0  501  0.00000000000E+00  0.00000000000E+00 -0.76298034041E+03  0.76298034043E+03  0.50400001928E-02 0. -1.
    10030    2    1    2    0    0  0.00000000000E+00  0.00000000000E+00  0.44848452379E+03  0.19744452046E+04  0.19228352758E+04 0.  0.
        1    1    3    3  502    0 -0.20918471785E+03 -0.27321537639E+03  0.11460677208E+04  0.11966102576E+04  0.50400001928E-02 0.  1.
       -1    1    3    3    0  502  0.20918471785E+03  0.27321537639E+03 -0.69758319696E+03  0.77783494701E+03  0.50400001928E-02 0. -1.
</event>
<event>
 5   0  0.1287000E-04  0.1896269E+04  0.7818609E-02  0.8656716E-01
       -4   -1    0    0    0  501  0.00000000000E+00  0.00000000000E+00  0.96131863525E+03  0.96131947415E+03  0.12699999809E+01 0.  1.
        4   -1    0    0  501    0  0.00000000000E+00  0.00000000000E+00 -0.93512983010E+03  0.93513069249E+03  0.12699999809E+01 0. -1.
    10030    2    1    2    0    0  0.00000000000E+00  0.00000000000E+00  0.26188805155E+02  0.18964501666E+04  0.18962693324E+04 0.  0.
        5    1    3    3  502    0 -0.20113944445E+03 -0.88545594796E+03  0.28597192682E+03  0.95199335334E+03  0.46999998093E+01 0. -1.
       -5    1    3    3    0  502  0.20113944445E+03  0.88545594796E+03 -0.25978312167E+03  0.94445681330E+03  0.46999998093E+01 0.  1.
</event>
<event>
 5   0  0.1711979E-04  0.1871602E+04  0.7818609E-02  0.8669123E-01
       -1   -1    0    0    0  501  0.00000000000E+00  0.00000000000E+00  0.68579576638E+03  0.68579576640E+03  0.50400001928E-02 0.  1.
        1   -1    0    0  501    0  0.00000000000E+00  0.00000000000E+00 -0.12769447736E+04  0.12769447736E+04  0.50400001928E-02 0. -1.
    10030    2    1    2    0    0  0.00000000000E+00  0.00000000000E+00 -0.59114900726E+03  0.19627405400E+04  0.18716017949E+04 0.  0.
        4    1    3    3  502    0  0.70468738385E+03  0.19623831230E+03  0.31647924582E+03  0.79702855038E+03  0.12699999809E+01 0.  1.
       -4    1    3    3    0  502 -0.70468738385E+03 -0.19623831230E+03 -0.90762825308E+03  0.11657119897E+04  0.12699999809E+01 0. -1.
</event>
<event>
 5   0  0.3720978E-04  0.1879690E+04  0.7818609E-02  0.8665032E-01
       -2   -1    0    0    0  501  0.00000000000E+00  0.00000000000E+00  0.55551045026E+03  0.55551045026E+03  0.25500000920E-02 0.  1.
        2   -1    0    0  501    0  0.00000000000E+00  0.00000000000E+00 -0.15900847158E+04  0.15900847159E+04  0.25500000920E-02 0. -1.
    10030    2    1    2    0    0  0.00000000000E+00  0.00000000000E+00 -0.10345742656E+04  0.21455951661E+04  0.18796900558E+04 0.  0.
        1    1    3    3  502    0 -0.99415956613E+02  0.93171266245E+03 -0.43390053594E+03  0.10325897990E+04  0.50400001928E-02 0.  1.
       -1    1    3    3    0  502  0.99415956613E+02 -0.93171266245E+03 -0.60067372965E+03  0.11130053672E+04  0.50400001928E-02 0. -1.
</event>
<event>
 5   0  0.3459485E-04  0.1892716E+04  0.7818609E-02  0.8658490E-01
        2   -1    0    0  501    0  0.00000000000E+00  0.00000000000E+00  0.12352919444E+04  0.12352919444E+04  0.25500000920E-02 0.  1.
       -2   -1    0    0    0  501  0.00000000000E+00  0.00000000000E+00 -0.72500573001E+03  0.72500573002E+03  0.25500000920E-02 0. -1.
    10030    2    1    2    0    0  0.00000000000E+00  0.00000000000E+00  0.51028621439E+03  0.19602976744E+04  0.18927162893E+04 0.  0.
        3    1    3    3  502    0  0.46215926183E+03 -0.10492817700E+03  0.11035327878E+04  0.12009936426E+04  0.10100000352E+00 0.  1.
       -3    1    3    3    0  502 -0.46215926183E+03  0.10492817700E+03 -0.59324657343E+03  0.75930403180E+03  0.10100000352E+00 0. -1.
</event>
<event>
 5   0  0.1758946E-04  0.1861391E+04  0.7818609E-02  0.8674317E-01
       -1   -1    0    0    0  501  0.00000000000E+00  0.00000000000E+00  0.44976875157E+03  0.44976875160E+03  0.50400001928E-02 0. -1.
        1   -1    0    0  501    0  0.00000000000E+00  0.00000000000E+00 -0.19258644965E+04  0.19258644965E+04  0.50400001928E-02 0.  1.
    10030    2    1    2    0    0  0.00000000000E+00  0.00000000000E+00 -0.14760957449E+04  0.23756332481E+04  0.18613905236E+04 0.  0.
        2    1    3    3  502    0  0.74234187875E+03 -0.53955979195E+03 -0.54033983739E+03  0.10649710672E+04  0.25500000920E-02 0. -1.
       -2    1    3    3    0  502 -0.74234187875E+03  0.53955979195E+03 -0.93575590749E+03  0.13106621809E+04  0.25500000920E-02 0.  1.
</event>
<event>
 5   0  0.1813834E-04  0.2050802E+04  0.7818609E-02  0.8583231E-01
        1   -1    0    0  501    0  0.00000000000E+00  0.00000000000E+00  0.16609695438E+04  0.16609695438E+04  0.50400001928E-02 0.  1.
       -1   -1    0    0    0  501  0.00000000000E+00  0.00000000000E+00 -0.63303206946E+03  0.63303206948E+03  0.50400001928E-02 0. -1.
    10030    2    1    2    0    0  0.00000000000E+00  0.00000000000E+00  0.10279374743E+04  0.22940016133E+04  0.20508017824E+04 0.  0.
        5    1    3    3  502    0 -0.38593574698E+03  0.15618385112E+03  0.15621546943E+04  0.16166908100E+04  0.46999998093E+01 0.  1.
       -5    1    3    3    0  502  0.38593574698E+03 -0.15618385112E+03 -0.53421721998E+03  0.67731080330E+03  0.46999998093E+01 0. -1.
</event>
<event>
 5   0  0.3623359E-04  0.1857518E+04  0.7818609E-02  0.8676296E-01
       -2   -1    0    0    0  501  0.00000000000E+00  0.00000000000E+00  0.53652080615E+03  0.53652080615E+03  0.25500000920E-02 0.  1.
        2   -1    0    0  501    0  0.00000000000E+00  0.00000000000E+00 -0.16077540106E+04  0.16077540106E+04  0.25500000920E-02 0. -1.
    10030    2    1    2    0    0  0.00000000000E+00  0.00000000000E+00 -0.10712332045E+04  0.21442748168E+04  0.18575182130E+04 0.  0.
        5    1    3    3  502    0  0.76148800625E+03  0.46086872762E+03 -0.84170575933E+03  0.12250529144E+04  0.46999998093E+01 0. -1.
       -5    1    3    3    0  502 -0.76148800625E+03 -0.46086872762E+03 -0.22952744514E+03  0.91922190239E+03  0.46999998093E+01 0.  1.
</event>
<event>
 5   0  0.3720978E-04  0.1809356E+04  0.7818609E-02  0.8701340E-01
        2   -1    0    0  501    0  0.00000000000E+00  0.00000000000E+00  0.55308071781E+03  0.55308071781E+03  0.25500000920E-02 0.  1.
       -2   -1    0    0    0  501  0.00000000000E+00  0.00000000000E+00 -0.14797874787E+04  0.14797874787E+04  0.25500000920E-02 0. -1.
    10030    2    1    2    0    0  0.00000000000E+00  0.00000000000E+00 -0.92670676091E+03  0.20328681965E+04  0.18093555990E+04 0.  0.
        1    1    3    3  502    0 -0.41492962187E+02  0.73420931350E+03 -0.10553777154E+04  0.12863153206E+04  0.50400001928E-02 0. -1.
       -1    1    3    3    0  502  0.41492962187E+02 -0.73420931350E+03  0.12867095448E+03  0.74655287589E+03  0.50400001928E-02 0.  1.
</event>
<event>
 5   0  0.1287000E-04  0.1648440E+04  0.7818609E-02  0.8791330E-01
       -3   -1    0    0    0  501  0.00000000000E+00  0.00000000000E+00  0.20854665073E+04  0.20854665097E+04  0.10100000352E+00 0. -1.
        3   -1    0    0  501    0  0.00000000000E+00  0.00000000000E+00 -0.32574904221E+03  0.32574905787E+03  0.10100000352E+00 0.  1.
    10030    2    1    2    0    0  0.00000000000E+00  0.00000000000E+00  0.17597174651E+04  0.24112155676E+04  0.16484401586E+04 0.  0.
        2    1    3    3  502    0 -0.25616594258E+03  0.24015240011E+03 -0.21087226694E+03  0.40958671656E+03  0.25500000920E-02 0.  1.
       -2    1    3    3    0  502  0.25616594258E+03 -0.24015240011E+03  0.19705897320E+04  0.20016288510E+04  0.25500000920E-02 0. -1.
</event>
<event>
 5   0  0.1711979E-04  0.1885991E+04  0.7818609E-02  0.8661861E-01
       -1   -1    0    0    0  501  0.00000000000E+00  0.00000000000E+00  0.57132040857E+03  0.57132040860E+03  0.50400001928E-02 0. -1.
        1   -1    0    0  501    0  0.00000000000E+00  0.00000000000E+00 -0.15564659752E+04  0.15564659752E+04  0.50400001928E-02 0.  1.
    10030    2    1    2    0    0  0.00000000000E+00  0.00000000000E+00 -0.98514556663E+03  0.21277863838E+04  0.18859912798E+04 0.  0.
        4    1    3    3  502    0 -0.21666877739E+03  0.72386638209E+03  0.14395058142E+03  0.76918871612E+03  0.12699999809E+01 0. -1.
       -4    1    3    3    0  502  0.21666877739E+03 -0.72386638209E+03 -0.11290961480E+04  0.13585976677E+04  0.12699999809E+01 0.  1.
</event>
<event>
 5   0  0.3516539E-04  0.1875370E+04  0.7818609E-02  0.8667214E-01
       -2   -1    0    0    0  501  0.00000000000E+00  0.00000000000E+00  0.87536413885E+03  0.87536413885E+03  0.25500000920E-02 0.  1.
        2   -1    0    0  501    0  0.00000000000E+00  0.00000000000E+00 -0.10044429969E+04  0.10044429969E+04  0.25500000920E-02 0. -1.
    10030    2    1    2    0    0  0.00000000000E+00  0.00000000000E+00 -0.12907885804E+03  0.18798071357E+04  0.18753702344E+04 0.  0.
        4    1    3    3  502    0  0.60285574823E+03 -0.57156776794E+03 -0.50045566162E+03  0.96983619682E+03  0.12699999809E+01 0.  1.
       -4    1    3    3    0  502 -0.60285574823E+03  0.57156776794E+03  0.37137680358E+03  0.90997093891E+03  0.12699999809E+01 0. -1.
</event>
<event>
 5   0  0.3459485E-04  0.1332594E+04  0.7818609E-02  0.9004110E-01
        2   -1    0    0  501    0  0.00000000000E+00  0.00000000000E+00  0.79996536940E+03  0.79996536940E+03  0.25500000920E-02 0.  1.
       -2   -1    0    0    0  501  0.00000000000E+00  0.00000000000E+00 -0.55496370933E+03  0.55496370933E+03  0.25500000920E-02 0. -1.
    10030    2    1    2    0    0  0.00000000000E+00  0.00000000000E+00  0.24500166007E+03  0.13549290787E+04  0.13325940848E+04 0.  0.
        3    1    3    3  502    0 -0.14510053207E+03  0.72414656204E+02 -0.53459217582E+03  0.55864734090E+03  0.10100000352E+00 0. -1.
       -3    1    3    3    0  502  0.14510053207E+03 -0.72414656204E+02  0.77959383589E+03  0.79628173783E+03  0.10100000352E+00 0.  1.
</event>
<event>
 5   0  0.3623359E-04  0.1909106E+04  0.7818609E-02  0.8650337E-01
        2   -1    0    0  501    0  0.00000000000E+00  0.00000000000E+00  0.13635387949E+04  0.13635387949E+04  0.25500000920E-02 0.  1.
       -2   -1    0    0    0  501  0.00000000000E+00  0.00000000000E+00 -0.66824002716E+03  0.66824002717E+03  0.25500000920E-02 0. -1.
    10030    2    1    2    0    0  0.00000000000E+00  0.00000000000E+00  0.69529876777E+03  0.20317788221E+04  0.19091057607E+04 0.  0.
        5    1    3    3  502    0  0.30390304323E+03 -0.20053747810E+03 -0.59141887728E+03  0.69452913417E+03  0.46999998093E+01 0. -1.
       -5    1    3    3    0  502 -0.30390304323E+03  0.20053747810E+03  0.12867176451E+04  0.13372496879E+04  0.46999998093E+01 0.  1.
</event>
<event>
 5   0  0.3623359E-04  0.1900637E+04  0.7818609E-02  0.8654540E-01
        2   -1    0    0  501    0  0.00000000000E+00  0.00000000000E+00  0.24540988152E+04  0.24540988152E+04  0.25500000920E-02 0.  1.
       -2   -1    0    0    0  501  0.00000000000E+00  0.00000000000E+00 -0.36799856801E+03  0.36799856801E+03  0.25500000920E-02 0. -1.
    10030    2    1    2    0    0  0.00000000000E+00  0.00000000000E+00  0.20861002472E+04  0.28220973832E+04  0.19006365773E+04 0.  0.
        5    1    3    3  502    0 -0.13901280657E+03  0.81122893488E+03  0.17484019581E+04  0.19324462327E+04  0.46999998093E+01 0.  1.
       -5    1    3    3    0  502  0.13901280657E+03 -0.81122893488E+03  0.33769828911E+03  0.88965115053E+03  0.46999998093E+01 0. -1.
</event>
<event>
 5   0  0.3623359E-04  0.1687593E+04  0.7818609E-02  0.8768472E-01
       -2   -1    0    0    0  501  0.00000000000E+00  0.00000000000E+00  0.36657764919E+03  0.36657764920E+03  0.25500000920E-02 0. -1.
        2   -1    0    0  501    0  0.00000000000E+00  0.00000000000E+00 -0.19422704265E+04  0.19422704265E+04  0.25500000920E-02 0.  1.
    10030    2    1    2    0    0  0.00000000000E+00  0.00000000000E+00 -0.15756927773E+04  0.23088480757E+04  0.16875934665E+04 0.  0.
        5    1    3    3  502    0  0.32863943389E+03 -0.42010140956E+03  0.10666591518E+03  0.54395659687E+03  0.46999998093E+01 0. -1.
       -5    1    3    3    0  502 -0.32863943389E+03  0.42010140956E+03 -0.16823586924E+04  0.17648914788E+04  0.46999998093E+01 0.  1.
</event>
<event>
 5   0  0.1813834E-04  0.1638511E+04  0.7818609E-02  0.8797232E-01
        1   -1    0    0  501    0  0.00000000000E+00  0.00000000000E+00  0.10805410500E+04  0.10805410500E+04  0.50400001928E-02 0. -1.
       -1   -1    0    0    0  501  0.00000000000E+00  0.00000000000E+00 -0.62115150248E+03  0.62115150250E+03  0.50400001928E-02 0.  1.
    10030    2    1    2    0    0  0.00000000000E+00  0.00000000000E+00  0.45938954747E+03  0.17016925525E+04  0.16385111494E+04 0.  0.
        5    1    3    3  502    0 -0.34724708889E+03  0.73321666742E+03  0.34797390439E+03  0.88277695385E+03  0.46999998093E+01 0.  1.
       -5    1    3    3    0  502  0.34724708889E+03 -0.73321666742E+03  0.11141564309E+03  0.81891559861E+03  0.46999998093E+01 0. -1.
</event>
<event>
 5   0  0.3720978E-04  0.1481934E+04  0.7818609E-02  0.8896556E-01
        2   -1    0    0  501    0  0.00000000000E+00  0.00000000000E+00  0.12812067312E+04  0.12812067312E+04  0.25500000920E-02 0.  1.
       -2   -1    0    0    0  501  0.00000000000E+00  0.00000000000E+00 -0.42852736402E+03  0.42852736403E+03  0.25500000920E-02 0. -1.
    10030    2    1    2    0    0  0.00000000000E+00  0.00000000000E+00  0.85267936715E+03  0.17097340952E+04  0.14819340650E+04 0.  0.
        1    1    3    3  502    0 -0.13769789508E+03  0.63471117075E+03  0.14843590587E+02  0.64964552857E+03  0.50400001928E-02 0. -1.
       -1    1    3    3    0  502  0.13769789508E+03 -0.63471117075E+03  0.83783577656E+03  0.10600885666E+04  0.50400001928E-02 0.  1.
</event>
<event>
 5   0  0.1758946E-04  0.1910355E+04  0.7818609E-02  0.8649719E-01
       -1   -1    0    0    0  501  0.00000000000E+00  0.00000000000E+00  0.17605209012E+04  0.17605209012E+04  0.50400001928E-02 0.  1.
        1   -1    0    0  501    0  0.00000000000E+00  0.00000000000E+00 -0.51823505146E+03  0.51823505148E+03  0.50400001928E-02 0. -1.
    10030    2    1    2    0    0  0.00000000000E+00  0.00000000000E+00  0.12422858497E+04  0.22787559527E+04  0.19103545638E+04 0.  0.
        2    1    3    3  502    0  0.44746959351E+03  0.82234199614E+03  0.39516816112E+03  0.10161856481E+04  0.25500000920E-02 0. -1.
       -2    1    3    3    0  502 -0.44746959351E+03 -0.82234199614E+03  0.84711768858E+03  0.12625703046E+04  0.25500000920E-02 0.  1.
</event>
<event>
 5   0  0.1758946E-04  0.1849735E+04  0.7818609E-02  0.8680289E-01
       -1   -1    0    0    0  501  0.00000000000E+00  0.00000000000E+00  0.43748872538E+03  0.43748872541E+03  0.50400001928E-02 0.  1.
        1   -1    0    0  501    0  0.00000000000E+00  0.00000000000E+00 -0.19552039836E+04  0.19552039836E+04  0.50400001928E-02 0. -1.
    10030    2    1    2    0    0  0.00000000000E+00  0.00000000000E+00 -0.15177152582E+04  0.23926927090E+04  0.18497347904E+04 0.  0.
        2    1    3    3  502    0  0.36802488074E+03  0.68621109223E+03 -0.14043962592E+04  0.16058196751E+04  0.25500000920E-02 0.  1.
       -2    1    3    3    0  502 -0.36802488074E+03 -0.68621109223E+03 -0.11331899895E+03  0.78687303390E+03  0.25500000920E-02 0. -1.
</event>
<event>
 5   0  0.1782613E-04  0.1939180E+04  0.7818609E-02  0.8635596E-01
        1   -1    0    0  501    0  0.00000000000E+00  0.00000000000E+00  0.88017994200E+03  0.88017994201E+03  0.50400001928E-02 0. -1.
       -1   -1    0    0    0  501  0.00000000000E+00  0.00000000000E+00 -0.10680827410E+04  0.10680827410E+04  0.50400001928E-02 0.  1.
    10030    2    1    2    0    0  0.00000000000E+00  0.00000000000E+00 -0.18790279900E+03  0.19482626830E+04  0.19391802444E+04 0.  0.
        3    1    3    3  502    0 -0.76890945638E+03  0.71544048817E+02  0.49510919058E+03  0.91731860541E+03  0.10100000352E+00 0. -1.
       -3    1    3    3    0  502  0.76890945638E+03 -0.71544048817E+02 -0.68301198959E+03  0.10309440776E+04  0.10100000352E+00 0.  1.
</event>
<event>
 5   0  0.3720978E-04  0.1978767E+04  0.7818609E-02  0.8616613E-01
        2   -1    0    0  501    0  0.00000000000E+00  0.00000000000E+00  0.26959839526E+04  0.26959839526E+04  0.25500000920E-02 0. -1.
       -2   -1    0    0    0  501  0.00000000000E+00  0.00000000000E+00 -0.36308810563E+03  0.36308810563E+03  0.25500000920E-02 0.  1.
    10030    2    1    2    0    0  0.00000000000E+00  0.00000000000E+00  0.23328958469E+04  0.30590720582E+04  0.19787669960E+04 0.  0.
        1    1    3    3  502    0 -0.95540236368E+03  0.11470519461E+03  0.15221127021E+04  0.18007715114E+04  0.50400001928E-02 0. -1.
       -1    1    3    3    0  502  0.95540236368E+03 -0.11470519461E+03  0.81078314482E+03  0.12583005468E+04  0.50400001928E-02 0.  1.
</event>
<event>
 5   0  0.1711979E-04  0.1880146E+04  0.7818609E-02  0.8664803E-01
       -1   -1    0    0    0  501  0.00000000000E+00  0.00000000000E+00  0.10686050051E+04  0.10686050051E+04  0.50400001928E-02 0.  1.
        1   -1    0    0  501    0  0.00000000000E+00  0.00000000000E+00 -0.82700090270E+03  0.82700090271E+03  0.50400001928E-02 0. -1.
    10030    2    1    2    0    0  0.00000000000E+00  0.00000000000E+00  0.24160410237E+03  0.18956059078E+04  0.18801460622E+04 0.  0.
        4    1    3    3  502    0  0.91246338857E+03  0.16223805308E+03 -0.38053246012E+02  0.92755608120E+03  0.12699999809E+01 0.  1.
       -4    1    3    3    0  502 -0.91246338857E+03 -0.16223805308E+03  0.27965734838E+03  0.96804982658E+03  0.12699999809E+01 0. -1.
</event>
<event>
 5   0  0.1711979E-04  0.1903676E+04  0.7818609E-02  0.8653029E-01
        1   -1    0    0  501    0  0.00000000000E+00  0.00000000000E+00  0.67948685741E+03  0.67948685743E+03  0.50400001928E-02 0. -1.
       -1   -1    0    0    0  501  0.00000000000E+00  0.00000000000E+00 -0.13333530001E+04  0.13333530001E+04  0.50400001928E-02 0.  1.
    10030    2    1    2    0    0  0.00000000000E+00  0.00000000000E+00 -0.65386614268E+03  0.20128398575E+04  0.19036762749E+04 0.  0.
        4    1    3    3  502    0  0.35810993845E+03  0.34679202578E+02 -0.12586854650E+04  0.13090974326E+04  0.12699999809E+01 0.  1.
       -4    1    3    3    0  502 -0.35810993845E+03 -0.34679202578E+02  0.60481932237E+03  0.70374242498E+03  0.12699999809E+01 0. -1.
</event>
<event>
 5   0  0.1813834E-04  0.1890230E+04  0.7818609E-02  0.8659735E-01
        1   -1    0    0  501    0  0.00000000000E+00  0.00000000000E+00  0.16178202483E+04  0.16178202484E+04  0.50400001928E-02 0. -1.
       -1   -1    0    0    0  501  0.00000000000E+00  0.00000000000E+00 -0.55212690924E+03  0.55212690927E+03  0.50400001928E-02 0.  1.
    10030    2    1    2    0    0  0.00000000000E+00  0.00000000000E+00  0.10656933391E+04  0.21699471576E+04  0.18902297146E+04 0.  0.
        5    1    3    3  502    0  0.13308422188E+03 -0.16196400937E+03 -0.52508851839E+03  0.56540586536E+03  0.46999998093E+01 0.  1.
       -5    1    3    3    0  502 -0.13308422188E+03  0.16196400937E+03  0.15907818575E+04  0.16045412923E+04  0.46999998093E+01 0. -1.
</event>
<event>
 5   0  0.3535876E-04  0.1954033E+04  0.7818609E-02  0.8628418E-01
       -2   -1    0    0    0  501  0.00000000000E+00  0.00000000000E+00  0.67347094962E+03  0.67347094962E+03  0.25500000920E-02 0.  1.
        2   -1    0    0  501    0  0.00000000000E+00  0.00000000000E+00 -0.14173760989E+04  0.14173760989E+04  0.25500000920E-02 0. -1.
    10030    2    1    2    0    0  0.00000000000E+00  0.00000000000E+00 -0.74390514931E+03  0.20908470486E+04  0.19540333951E+04 0.  0.
        2    1    3    3  502    0 -0.55712078828E+03  0.12588036645E+03 -0.12201265376E+04  0.13471964249E+04  0.25500000920E-02 0. -1.
       -2    1    3    3    0  502  0.55712078828E+03 -0.12588036645E+03  0.47622138831E+03  0.74365062367E+03  0.25500000920E-02 0.  1.
</event>
<event>
 5   0  0.3516539E-04  0.1930096E+04  0.7818609E-02  0.8640019E-01
       -2   -1    0    0    0  501  0.00000000000E+00  0.00000000000E+00  0.37100067763E+03  0.37100067764E+03  0.25500000920E-02 0. -1.
        2   -1    0    0  501    0  0.00000000000E+00  0.00000000000E+00 -0.25102861506E+04  0.25102861506E+04  0.25500000920E-02 0.  1.
    10030    2    1    2    0    0  0.00000000000E+00  0.00000000000E+00 -0.21392854730E+04  0.28812868283E+04  0.19300962286E+04 0.  0.
        4    1    3    3  502    0  0.28578601720E+03 -0.90990336093E+02 -0.24389450114E+04  0.24573170879E+04  0.12699999809E+01 0.  1.
       -4    1    3    3    0  502 -0.28578601720E+03  0.90990336093E+02  0.29965953842E+03  0.42396974037E+03  0.12699999809E+01 0. -1.
</event>
<event>
 5   0  0.3623359E-04  0.1761172E+04  0.7818609E-02  0.8727225E-01
       -2   -1    0    0    0  501  0.00000000000E+00  0.00000000000E+00  0.83527554557E+03  0.83527554558E+03  0.25500000920E-02 0. -1.
        2   -1    0    0  501    0  0.00000000000E+00  0.00000000000E+00 -0.92835448586E+03  0.92835448586E+03  0.25500000920E-02 0.  1.
    10030    2    1    2    0    0  0.00000000000E+00  0.00000000000E+00 -0.93078940286E+02  0.17636300314E+04  0.17611721093E+04 0.  0.
        5    1    3    3  502    0  0.65956480167E+03 -0.43137816690E+03  0.34681512615E+03  0.86105497630E+03  0.46999998093E+01 0. -1.
       -5    1    3    3    0  502 -0.65956480167E+03  0.43137816690E+03 -0.43989406643E+03  0.90257505514E+03  0.46999998093E+01 0.  1.
</event>
<event>
 5   0  0.3459485E-04  0.2099177E+04  0.7818609E-02  0.8561606E-01
       -2   -1    0    0    0  501  0.00000000000E+00  0.00000000000E+00  0.12256471341E+04  0.12256471341E+04  0.25500000920E-02 0.  1.
        2   -1    0    0  501    0  0.00000000000E+00  0.00000000000E+00 -0.89882022948E+03  0.89882022948E+03  0.25500000920E-02 0. -1.
    10030    2    1    2    0    0  0.00000000000E+00  0.00000000000E+00  0.32682690458E+03  0.21244673636E+04  0.20991773992E+04 0.  0.
        3    1    3    3  502    0  0.64059122041E+03  0.83026727475E+03  0.11888831775E+03  0.10553839593E+04  0.10100000352E+00 0.  1.
       -3    1    3    3    0  502 -0.64059122041E+03 -0.83026727475E+03  0.20793858684E+03  0.10690834043E+04  0.10100000352E+00 0. -1.
</event>
<event>
 5   0  0.3623359E-04  0.1826155E+04  0.7818609E-02  0.8692513E-01
       -2   -1    0    0    0  501  0.00000000000E+00  0.00000000000E+00  0.97440947288E+03  0.97440947288E+03  0.25500000920E-02 0. -1.
        2   -1    0    0  501    0  0.00000000000E+00  0.00000000000E+00 -0.85560597358E+03  0.85560597358E+03  0.25500000920E-02 0.  1.
    10030    2    1    2    0    0  0.00000000000E+00  0.00000000000E+00  0.11880349930E+03  0.18300154465E+04  0.18261550490E+04 0.  0.
        5    1    3    3  502    0 -0.86548094827E+03 -0.76195073262E+02 -0.22195057947E+03  0.89674249968E+03  0.46999998093E+01 0. -1.
       -5    1    3    3    0  502  0.86548094827E+03  0.76195073262E+02  0.34075407877E+03  0.93327294678E+03  0.46999998093E+01 0.  1.
</event>
<event>
 5   0  0.3535876E-04  0.1477666E+04  0.7818609E-02  0.8899442E-01
        2   -1    0    0  501    0  0.00000000000E+00  0.00000000000E+00  0.67161903732E+03  0.67161903732E+03  0.25500000920E-02 0. -1.
       -2   -1    0    0    0  501  0.00000000000E+00  0.00000000000E+00 -0.81277411747E+03  0.81277411747E+03  0.25500000920E-02 0.  1.
    10030    2    1    2    0    0  0.00000000000E+00  0.00000000000E+00 -0.14115508015E+03  0.14843931548E+04  0.14776664987E+04 0.  0.
        2    1    3    3  502    0 -0.37406733838E+03  0.25768071026E+03  0.51478327477E+03  0.68653298688E+03  0.25500000920E-02 0. -1.
       -2    1    3    3    0  502  0.37406733838E+03 -0.25768071026E+03 -0.65593835492E+03  0.79786016791E+03  0.25500000920E-02 0.  1.
</event>
<event>
 5   0  0.1694830E-04  0.1906799E+04  0.7818609E-02  0.8651479E-01
        1   -1    0    0  501    0  0.00000000000E+00  0.00000000000E+00  0.17935007554E+04  0.17935007554E+04  0.50400001928E-02 0.  1.
       -1   -1    0    0    0  501  0.00000000000E+00  0.00000000000E+00 -0.50681360534E+03  0.50681360537E+03  0.50400001928E-02 0. -1.
    10030    2    1    2    0    0  0.00000000000E+00  0.00000000000E+00  0.12866871501E+04  0.23003143608E+04  0.19067989764E+04 0.  0.
        1    1    3    3  502    0 -0.72269609254E+03  0.59739539200E+03  0.85159507376E+03  0.12666432277E+04  0.50400001928E-02 0. -1.
       -1    1    3    3    0  502  0.72269609254E+03 -0.59739539200E+03  0.43509207633E+03  0.10336711331E+04  0.50400001928E-02 0.  1.
</event>
<event>
 5   0  0.1711979E-04  0.1895750E+04  0.7818609E-02  0.8656975E-01
        1   -1    0    0  501    0  0.00000000000E+00  0.00000000000E+00  0.17941318874E+04  0.17941318874E+04  0.50400001928E-02 0.  1.
       -1   -1    0    0    0  501  0.00000000000E+00  0.00000000000E+00 -0.50078079312E+03  0.50078079314E+03  0.50400001928E-02 0. -1.
    10030    2    1    2    0    0  0.00000000000E+00  0.00000000000E+00  0.12933510943E+04  0.22949126805E+04  0.18957497615E+04 0.  0.
        4    1    3    3  502    0  0.57182219439E+03 -0.62755725135E+03  0.11569168920E+04  0.14350146458E+04  0.12699999809E+01 0.  1.
       -4    1    3    3    0  502 -0.57182219439E+03  0.62755725135E+03  0.13643420226E+03  0.85989803474E+03  0.12699999809E+01 0. -1.
</event>
<event>
 5   0  0.3516539E-04  0.1981719E+04  0.7818609E-02  0.8615215E-01
        2   -1    0    0  501    0  0.00000000000E+00  0.00000000000E+00  0.84622735505E+03  0.84622735505E+03  0.25500000920E-02 0. -1.
       -2   -1    0    0    0  501  0.00000000000E+00  0.00000000000E+00 -0.11602116124E+04  0.11602116124E+04  0.25500000920E-02 0.  1.
    10030    2    1    2    0    0  0.00000000000E+00  0.00000000000E+00 -0.31398425731E+03  0.20064389674E+04  0.19817192576E+04 0.  0.
        4    1    3    3  502    0  0.65482005198E+02 -0.20583525405E+03 -0.11360837545E+04  0.11564358845E+04  0.12699999809E+01 0.  1.
       -4    1    3    3    0  502 -0.65482005198E+02  0.20583525405E+03  0.82209949718E+03  0.85000308292E+03  0.12699999809E+01 0. -1.
</event>
<event>
 5   0  0.3516539E-04  0.1245617E+04  0.7818609E-02  0.9073840E-01
       -2   -1    0    0    0  501  0.00000000000E+00  0.00000000000E+00  0.76699447606E+03  0.76699447607E+03  0.25500000920E-02 0. -1.
        2   -1    0    0  501    0  0.00000000000E+00  0.00000000000E+00 -0.50572739837E+03  0.50572739837E+03  0.25500000920E-02 0.  1.
    10030    2    1    2    0    0  0.00000000000E+00  0.00000000000E+00  0.26126707770E+03  0.12727218744E+04  0.12456165075E+04 0.  0.
        4    1    3    3  502    0 -0.99931758339E+01  0.30925567308E+03  0.68290395721E+03  0.74973219389E+03  0.12699999809E+01 0. -1.
       -4    1    3    3    0  502  0.99931758339E+01 -0.30925567308E+03 -0.42163687951E+03  0.52298968054E+03  0.12699999809E+01 0.  1.
</event>
<event>
 5   0  0.1758946E-04  0.1864787E+04  0.7818609E-02  0.8672585E-01
       -1   -1    0    0    0  501  0.00000000000E+00  0.00000000000E+00  0.54050751236E+03  0.54050751238E+03  0.50400001928E-02 0.  1.
        1   -1    0    0  501    0  0.00000000000E+00  0.00000000000E+00 -0.16084096819E+04  0.16084096819E+04  0.50400001928E-02 0. -1.
    10030    2    1    2    0    0  0.00000000000E+00  0.00000000000E+00 -0.10679021695E+04  0.21489171942E+04  0.18647868683E+04 0.  0.
        2    1    3    3  502    0  0.60108347672E+03 -0.25886319403E+03 -0.12992523489E+04  0.14547742661E+04  0.25500000920E-02 0. -1.
       -2    1    3    3    0  502 -0.60108347672E+03  0.25886319403E+03  0.23135017937E+03  0.69414292816E+03  0.25500000920E-02 0.  1.
</event>
<event>
 5   0  0.1758946E-04  0.1820730E+04  0.7818609E-02  0.8695353E-01
        1   -1    0    0  501    0  0.00000000000E+00  0.00000000000E+00  0.19387277329E+04  0.19387277329E+04  0.50400001928E-02 0. -1.
       -1   -1    0    0    0  501  0.00000000000E+00  0.00000000000E+00 -0.42747847763E+03  0.42747847766E+03  0.50400001928E-02 0.  1.
    10030    2    1    2    0    0  0.00000000000E+00  0.00000000000E+00  0.15112492552E+04  0.23662062105E+04  0.18207299414E+04 0.  0.
        2    1    3    3  502    0 -0.24805385904E+03  0.85102897967E+03  0.10250615619E+04  0.13551871630E+04  0.25500000920E-02 0.  1.
       -2    1    3    3    0  502  0.24805385904E+03 -0.85102897967E+03  0.48618769336E+03  0.10110190475E+04  0.25500000920E-02 0. -1.
</event>
<event>
 5   0  0.3535876E-04  0.1885188E+04  0.7818609E-02  0.8662265E-01
       -2   -1    0    0    0  501  0.00000000000E+00  0.00000000000E+00  0.31560004215E+03  0.31560004216E+03  0.25500000920E-02 0. -1.
        2   -1    0    0  501    0  0.00000000000E+00  0.00000000000E+00 -0.28152197288E+04  0.28152197288E+04  0.25500000920E-02 0.  1.
    10030    2    1    2    0    0  0.00000000000E+00  0.00000000000E+00 -0.24996196866E+04  0.31308197709E+04  0.18851880172E+04 0.  0.
        2    1    3    3  502    0  0.14080694199E+03  0.92981817455E+03 -0.11435346092E+04  0.14805606489E+04  0.25500000920E-02 0.  1.
       -2    1    3    3    0  502 -0.14080694199E+03 -0.92981817455E+03 -0.13560850774E+04  0.16502591220E+04  0.25500000920E-02 0. -1.
</event>
<event>
 5   0  0.3459485E-04  0.2225036E+04  0.7818609E-02  0.8508079E-01
        2   -1    0    0  501    0  0.00000000000E+00  0.00000000000E+00  0.74475415220E+03  0.74475415220E+03  0.25500000920E-02 0.  1.
       -2   -1    0    0    0  501  0.00000000000E+00  0.00000000000E+00 -0.16618856743E+04  0.16618856743E+04  0.25500000920E-02 0. -1.
    10030    2    1    2    0    0  0.00000000000E+00  0.00000000000E+00 -0.91713152213E+03  0.24066398265E+04  0.22250359606E+04 0.  0.
        3    1    3    3  502    0  0.12463010507E+03 -0.56843230383E+03 -0.14841363952E+04  0.15941482983E+04  0.10100000352E+00 0. -1.
       -3    1    3    3    0  502 -0.12463010507E+03  0.56843230383E+03  0.56700487310E+03  0.81249152823E+03  0.10100000352E+00 0.  1.
</event>
<event>
 5   0  0.3535876E-04  0.1885419E+04  0.7818609E-02  0.8662148E-01
        2   -1    0    0  501    0  0.00000000000E+00  0.00000000000E+00  0.17262252060E+04  0.17262252060E+04  0.25500000920E-02 0.  1.
       -2   -1    0    0    0  501  0.00000000000E+00  0.00000000000E+00 -0.51482344647E+03  0.51482344647E+03  0.25500000920E-02 0. -1.
    10030    2    1    2    0    0  0.00000000000E+00  0.00000000000E+00  0.12114017596E+04  0.22410486525E+04  0.18854190091E+04 0.  0.
        2    1    3    3  502    0 -0.86841936125E+03  0.29138162167E+03  0.34086029115E+03  0.97736440212E+03  0.25500000920E-02 0.  1.
       -2    1    3    3    0  502  0.86841936125E+03 -0.29138162167E+03  0.87054146842E+03  0.12636842504E+04  0.25500000920E-02 0. -1.
</event>
<event>
 5   0  0.3720978E-04  0.1982644E+04  0.7818609E-02  0.8614779E-01
        2   -1    0    0  501    0  0.00000000000E+00  0.00000000000E+00  0.80029398609E+03  0.80029398610E+03  0.25500000920E-02 0. -1.
       -2   -1    0    0    0  501  0.00000000000E+00  0.00000000000E+00 -0.12279475028E+04  0.12279475028E+04  0.25500000920E-02 0.  1.
    10030    2    1    2    0    0  0.00000000000E+00  0.00000000000E+00 -0.42765351672E+03  0.20282414889E+04  0.19826436914E+04 0.  0.
        1    1    3    3  502    0 -0.15150830003E+03  0.74970570975E+03  0.43131601221E+03  0.87809277336E+03  0.50400001928E-02 0. -1.
       -1    1    3    3    0  502  0.15150830003E+03 -0.74970570975E+03 -0.85896952893E+03  0.11501487155E+04  0.50400001928E-02 0.  1.
</event>
<event>
 5   0  0.1813834E-04  0.1884912E+04  0.7818609E-02  0.8662403E-01
       -1   -1    0    0    0  501  0.00000000000E+00  0.00000000000E+00  0.13974192800E+04  0.13974192800E+04  0.50400001928E-02 0. -1.
        1   -1    0    0  501    0  0.00000000000E+00  0.00000000000E+00 -0.63561702265E+03  0.63561702267E+03  0.50400001928E-02 0.  1.
    10030    2    1    2    0    0  0.00000000000E+00  0.00000000000E+00  0.76180225730E+03  0.20330363026E+04  0.18849121806E+04 0.  0.
        5    1    3    3  502    0  0.14979344251E+03  0.29411390538E+03 -0.57122678149E+03  0.65974479206E+03  0.46999998093E+01 0.  1.
       -5    1    3    3    0  502 -0.14979344251E+03 -0.29411390538E+03  0.13330290388E+04  0.13732915106E+04  0.46999998093E+01 0. -1.
</event>
<event>
 5   0  0.3623359E-04  0.1963219E+04  0.7818609E-02  0.8624013E-01
       -2   -1    0    0    0  501  0.00000000000E+00  0.00000000000E+00  0.97549916711E+03  0.97549916711E+03  0.25500000920E-02 0.  1.
        2   -1    0    0  501    0  0.00000000000E+00  0.00000000000E+00 -0.98775818900E+03  0.98775818901E+03  0.25500000920E-02 0. -1.
    10030    2    1    2    0    0  0.00000000000E+00  0.00000000000E+00 -0.12259021895E+02  0.19632573561E+04  0.19632190817E+04 0.  0.
        5    1    3    3  502    0 -0.18405093276E+03 -0.33208501871E+03  0.89908424522E+03  0.97597631913E+03  0.46999998093E+01 0.  1.
       -5    1    3    3    0  502  0.18405093276E+03  0.33208501871E+03 -0.91134326711E+03  0.98728103699E+03  0.46999998093E+01 0. -1.
</event>
<event>
 5   0  0.3516539E-04  0.1896654E+04  0.7818609E-02  0.8656524E-01
       -2   -1    0    0    0  501  0.00000000000E+00  0.00000000000E+00  0.84420692867E+03  0.84420692867E+03  0.25500000920E-02 0. -1.
        2   -1    0    0  501    0  0.00000000000E+00  0.00000000000E+00 -0.10652887826E+04  0.10652887826E+04  0.25500000920E-02 0.  1.
    10030    2    1    2    0    0  0.00000000000E+00  0.00000000000E+00 -0.22108185397E+03  0.19094957113E+04  0.18966540764E+04 0.  0.
        4    1    3    3  502    0 -0.51167876691E+03 -0.69148185263E+03  0.29136143031E+03  0.90821550801E+03  0.12699999809E+01 0. -1.
       -4    1    3    3    0  502  0.51167876691E+03  0.69148185263E+03 -0.51244328428E+03  0.10012802033E+04  0.12699999809E+01 0.  1.
</event>
<event>
 5   0  0.3535876E-04  0.1861611E+04  0.7818609E-02  0.8674204E-01
       -2   -1    0    0    0  501  0.00000000000E+00  0.00000000000E+00  0.67409079158E+03  0.67409079159E+03  0.25500000920E-02 0. -1.
        2   -1    0    0  501    0  0.00000000000E+00  0.00000000000E+00 -0.12852856256E+04  0.12852856256E+04  0.25500000920E-02 0.  1.
    10030    2    1    2    0    0  0.00000000000E+00  0.00000000000E+00 -0.61119483397E+03  0.19593764171E+04  0.18616113501E+04 0.  0.
        2    1    3    3  502    0  0.15241426270E+02  0.10444185940E+03  0.66777186085E+03  0.67606187677E+03  0.25500000920E-02 0. -1.
       -2    1    3    3    0  502 -0.15241426270E+02 -0.10444185940E+03 -0.12789666948E+04  0.12833145404E+04  0.25500000920E-02 0.  1.
</event>
<event>
 5   0  0.1782613E-04  0.1977971E+04  0.7818609E-02  0.8616990E-01
       -1   -1    0    0    0  501  0.00000000000E+00  0.00000000000E+00  0.10201598079E+04  0.10201598079E+04  0.50400001928E-02 0.  1.
        1   -1    0    0  501    0  0.00000000000E+00  0.00000000000E+00 -0.95876350777E+03  0.95876350778E+03  0.50400001928E-02 0. -1.
    10030    2    1    2    0    0  0.00000000000E+00  0.00000000000E+00  0.61396300086E+02  0.19789233156E+04  0.19779706731E+04 0.  0.
        3    1    3    3  502    0  0.33475359439E+01 -0.32385987361E+03  0.96559754158E+03  0.10184670079E+04  0.10100000352E+00 0.  1.
       -3    1    3    3    0  502 -0.33475359439E+01  0.32385987361E+03 -0.90420124149E+03  0.96045630772E+03  0.10100000352E+00 0. -1.
</event>
<event>
 5   0  0.1813834E-04  0.1961650E+04  0.7818609E-02  0.8624763E-01
       -1   -1    0    0    0  501  0.00000000000E+00  0.00000000000E+00  0.98302922150E+03  0.98302922151E+03  0.50400001928E-02 0.  1.
        1   -1    0    0  501    0  0.00000000000E+00  0.00000000000E+00 -0.97862620888E+03  0.97862620889E+03  0.50400001928E-02 0. -1.
    10030    2    1    2    0    0  0.00000000000E+00  0.00000000000E+00  0.44030126147E+01  0.19616554304E+04  0.19616504890E+04 0.  0.
        5    1    3    3  502    0  0.47376019849E+03 -0.92404320985E+02 -0.85162075787E+03  0.97891127761E+03  0.46999998093E+01 0. -1.
       -5    1    3    3    0  502 -0.47376019849E+03  0.92404320985E+02  0.85602377048E+03  0.98274415279E+03  0.46999998093E+01 0.  1.
</event>
<event>
 5   0  0.3720978E-04  0.1912164E+04  0.7818609E-02  0.8648825E-01
        2   -1    0    0  501    0  0.00000000000E+00  0.00000000000E+00  0.16071252279E+04  0.16071252279E+04  0.25500000920E-02 0. -1.
       -2   -1    0    0    0  501  0.00000000000E+00  0.00000000000E+00 -0.56877492346E+03  0.56877492347E+03  0.25500000920E-02 0.  1.
    10030    2    1    2    0    0  0.00000000000E+00  0.00000000000E+00  0.10383503045E+04  0.21759001514E+04  0.19121637257E+04 0.  0.
        1    1    3    3  502    0 -0.15082785154E+03 -0.70621572530E+03  0.12321769156E+04  0.14281980405E+04  0.50400001928E-02 0. -1.
       -1    1    3    3    0  502  0.15082785154E+03  0.70621572530E+03 -0.19382661114E+03  0.74770211092E+03  0.50400001928E-02 0.  1.
</event>
<event>
 5   0  0.3623359E-04  0.1921123E+04  0.7818609E-02  0.8644413E-01
        2   -1    0    0  501    0  0.00000000000E+00  0.00000000000E+00  0.26016585915E+04  0.26016585915E+04  0.25500000920E-02 0.  1.
       -2   -1    0    0    0  501  0.00000000000E+00  0.00000000000E+00 -0.35465024212E+03  0.35465024213E+03  0.25500000920E-02 0. -1.
    10030    2    1    2    0    0  0.00000000000E+00  0.00000000000E+00  0.22470083494E+04  0.29563088337E+04  0.19211234728E+04 0.  0.
        5    1    3    3  502    0 -0.63702557644E+03 -0.69810826128E+03  0.85919894833E+03  0.12772633449E+04  0.46999998093E+01 0. -1.
       -5    1    3    3    0  502  0.63702557644E+03  0.69810826128E+03  0.13878094011E+04  0.16790454887E+04  0.46999998093E+01 0.  1.
</event>
<event>
 5   0  0.3623359E-04  0.1874711E+04  0.7818609E-02  0.8667548E-01
        2   -1    0    0  501    0  0.00000000000E+00  0.00000000000E+00  0.16822455119E+04  0.16822455119E+04  0.25500000920E-02 0. -1.
       -2   -1    0    0    0  501  0.00000000000E+00  0.00000000000E+00 -0.52229883885E+03  0.52229883886E+03  0.25500000920E-02 0.  1.
    10030    2    1    2    0    0  0.00000000000E+00  0.00000000000E+00  0.11599466730E+04  0.22045443507E+04  0.18747105137E+04 0.  0.
        5    1    3    3  502    0 -0.21521083226E+03  0.85074321882E+03  0.19256795356E+03  0.89843432338E+03  0.46999998093E+01 0. -1.
       -5    1    3    3    0  502  0.21521083226E+03 -0.85074321882E+03  0.96737871944E+03  0.13061100273E+04  0.46999998093E+01 0.  1.
</event>
<event>
 5   0  0.1711979E-04  0.1916565E+04  0.7818609E-02  0.8646655E-01
       -1   -1    0    0    0  501  0.00000000000E+00  0.00000000000E+00  0.63950544007E+03  0.63950544009E+03  0.50400001928E-02 0. -1.
        1   -1    0    0  501    0  0.00000000000E+00  0.00000000000E+00 -0.14359614484E+04  0.14359614484E+04  0.50400001928E-02 0.  1.
    10030    2    1    2    0    0  0.00000000000E+00  0.00000000000E+00 -0.79645600830E+03  0.20754668885E+04  0.19165647998E+04 0.  0.
        4    1    3    3  502    0 -0.79917030053E+02 -0.71778986008E+03  0.28382858321E+03  0.77599567813E+03  0.12699999809E+01 0. -1.
       -4    1    3    3    0  502  0.79917030053E+02  0.71778986008E+03 -0.10802845915E+04  0.12994712103E+04  0.12699999809E+01 0.  1.
</event>
<event>
 5   0  0.1711979E-04  0.1930452E+04  0.7818609E-02  0.8639845E-01
       -1   -1    0    0    0  501  0.00000000000E+00  0.00000000000E+00  0.57749807623E+03  0.57749807625E+03  0.50400001928E-02 0. -1.
        1   -1    0    0  501    0  0.00000000000E+00  0.00000000000E+00 -0.16132708118E+04  0.16132708118E+04  0.50400001928E-02 0.  1.
    10030    2    1    2    0    0  0.00000000000E+00  0.00000000000E+00 -0.10357727355E+04  0.21907688880E+04  0.19304515433E+04 0.  0.
        4    1    3    3  502    0 -0.89398018087E+03 -0.35088927919E+03 -0.40823793342E+03  0.10435438051E+04  0.12699999809E+01 0. -1.
       -4    1    3    3    0  502  0.89398018087E+03  0.35088927919E+03 -0.62753480212E+03  0.11472250829E+04  0.12699999809E+01 0.  1.
</event>
<event>
 5   0  0.1758946E-04  0.1704113E+04  0.7818609E-02  0.8759022E-01
       -1   -1    0    0    0  501  0.00000000000E+00  0.00000000000E+00  0.50438247689E+03  0.50438247691E+03  0.50400001928E-02 0. -1.
        1   -1    0    0  501    0  0.00000000000E+00  0.00000000000E+00 -0.14393848463E+04  0.14393848463E+04  0.50400001928E-02 0.  1.
    10030    2    1    2    0    0  0.00000000000E+00  0.00000000000E+00 -0.93500236941E+03  0.19437673232E+04  0.17041132521E+04 0.  0.
        2    1    3    3  502    0 -0.45296720529E+03  0.41613245961E+03  0.20504180656E+03  0.64837308354E+03  0.25500000920E-02 0. -1.
       -2    1    3    3    0  502  0.45296720529E+03 -0.41613245961E+03 -0.11400441760E+04  0.12953942397E+04  0.25500000920E-02 0.  1.
</event>
<event>
 5   0  0.3720978E-04  0.1871060E+04  0.7818609E-02  0.8669397E-01
        2   -1    0    0  501    0  0.00000000000E+00  0.00000000000E+00  0.16646002357E+04  0.16646002357E+04  0.25500000920E-02 0.  1.
       -2   -1    0    0    0  501  0.00000000000E+00  0.00000000000E+00 -0.52578188558E+03  0.52578188559E+03  0.25500000920E-02 0. -1.
    10030    2    1    2    0    0  0.00000000000E+00  0.00000000000E+00  0.11388183501E+04  0.21903821213E+04  0.18710602884E+04 0.  0.
        1    1    3    3  502    0  0.83636598769E+03  0.34848333164E+03  0.29669744148E+03  0.95340341389E+03  0.50400001928E-02 0. -1.
       -1    1    3    3    0  502 -0.83636598769E+03 -0.34848333164E+03  0.84212090865E+03  0.12369787074E+04  0.50400001928E-02 0.  1.
</event>
<event>
 5   0  0.3623359E-04  0.1792776E+04  0.7818609E-02  0.8710151E-01
       -2   -1    0    0    0  501  0.00000000000E+00  0.00000000000E+00  0.79796129097E+03  0.79796129098E+03  0.25500000920E-02 0. -1.
        2   -1    0    0  501    0  0.00000000000E+00  0.00000000000E+00 -0.10069553883E+04  0.10069553883E+04  0.25500000920E-02 0.  1.
    10030    2    1    2    0    0  0.00000000000E+00  0.00000000000E+00 -0.20899409731E+03  0.18049166793E+04  0.17927759722E+04 0.  0.
        5    1    3    3  502    0 -0.36624841002E+03  0.47348347469E+03 -0.77622212248E+03  0.98023842614E+03  0.46999998093E+01 0.  1.
       -5    1    3    3    0  502  0.36624841002E+03 -0.47348347469E+03  0.56722802517E+03  0.82467825313E+03  0.46999998093E+01 0. -1.
</event>
<event>
 5   0  0.3459485E-04  0.1890346E+04  0.7818609E-02  0.8659677E-01
       -2   -1    0    0    0  501  0.00000000000E+00  0.00000000000E+00  0.45665246012E+03  0.45665246012E+03  0.25500000920E-02 0. -1.
        2   -1    0    0  501    0  0.00000000000E+00  0.00000000000E+00 -0.19563055478E+04  0.19563055478E+04  0.25500000920E-02 0.  1.
    10030    2    1    2    0    0  0.00000000000E+00  0.00000000000E+00 -0.14996530877E+04  0.24129580079E+04  0.18903457262E+04 0.  0.
        3    1    3    3  502    0 -0.42742254029E+03  0.58605574869E+03 -0.15233261108E+04  0.16872088841E+04  0.10100000352E+00 0.  1.
       -3    1    3    3    0  502  0.42742254029E+03 -0.58605574869E+03  0.23673023119E+02  0.72574912383E+03  0.10100000352E+00 0. -1.
</event>
<event>
 5   0  0.1711979E-04  0.1947619E+04  0.7818609E-02  0.8631510E-01
        1   -1    0    0  501    0  0.00000000000E+00  0.00000000000E+00  0.24990707487E+04  0.24990707487E+04  0.50400001928E-02 0. -1.
       -1   -1    0    0    0  501  0.00000000000E+00  0.00000000000E+00 -0.37946317502E+03  0.37946317505E+03  0.50400001928E-02 0.  1.
    10030    2    1    2    0    0  0.00000000000E+00  0.00000000000E+00  0.21196075737E+04  0.28785339238E+04  0.19476193889E+04 0.  0.
        4    1    3    3  502    0  0.87756587986E+03  0.28836076022E+03  0.15154181574E+04  0.17747584642E+04  0.12699999809E+01 0. -1.
       -4    1    3    3    0  502 -0.87756587986E+03 -0.28836076022E+03  0.60418941633E+03  0.11037754596E+04  0.12699999809E+01 0.  1.
</event>
<event>
 5   0  0.3720978E-04  0.1914751E+04  0.7818609E-02  0.8647548E-01
        2   -1    0    0  501    0  0.00000000000E+00  0.00000000000E+00  0.18109509783E+04  0.18109509783E+04  0.25500000920E-02 0. -1.
       -2   -1    0    0    0  501  0.00000000000E+00  0.00000000000E+00 -0.50612536682E+03  0.50612536682E+03  0.25500000920E-02 0.  1.
    10030    2    1    2    0    0  0.00000000000E+00  0.00000000000E+00  0.13048256115E+04  0.23170763451E+04  0.19147513971E+04 0.  0.
        1    1    3    3  502    0  0.46586725759E+03  0.58636812527E+03 -0.69317558972E+02  0.75210690998E+03  0.50400001928E-02 0.  1.
       -1    1    3    3    0  502 -0.46586725759E+03 -0.58636812527E+03  0.13741431705E+04  0.15649694352E+04  0.50400001928E-02 0. -1.
</event>
<event>
 5   0  0.1711979E-04  0.1921631E+04  0.7818609E-02  0.8644164E-01
       -1   -1    0    0    0  501  0.00000000000E+00  0.00000000000E+00  0.99922783810E+03  0.99922783811E+03  0.50400001928E-02 0. -1.
        1   -1    0    0  501    0  0.00000000000E+00  0.00000000000E+00 -0.92387965310E+03  0.92387965312E+03  0.50400001928E-02 0.  1.
    10030    2    1    2    0    0  0.00000000000E+00  0.00000000000E+00  0.75348184994E+02  0.19231074912E+04  0.19216308370E+04 0.  0.
        4    1    3    3  502    0  0.22151672761E+03 -0.11090698398E+03  0.96671640384E+03  0.99795402602E+03  0.12699999809E+01 0. -1.
       -4    1    3    3    0  502 -0.22151672761E+03  0.11090698398E+03 -0.89136821884E+03  0.92515346520E+03  0.12699999809E+01 0.  1.
</event>
<event>
 5   0  0.3459485E-04  0.1255709E+04  0.7818609E-02  0.9065445E-01
        2   -1    0    0  501    0  0.00000000000E+00  0.00000000000E+00  0.11594392871E+04  0.11594392871E+04  0.25500000920E-02 0. -1.
       -2   -1    0    0    0  501  0.00000000000E+00  0.00000000000E+00 -0.33999307771E+03  0.33999307772E+03  0.25500000920E-02 0.  1.
    10030    2    1    2    0    0  0.00000000000E+00  0.00000000000E+00  0.81944620937E+03  0.14994323648E+04  0.12557090931E+04 0.  0.
        3    1    3    3  502    0 -0.42551207089E+03 -0.21207011407E+03 -0.79952326839E+02  0.48210646182E+03  0.10100000352E+00 0.  1.
       -3    1    3    3    0  502  0.42551207089E+03  0.21207011407E+03  0.89939853621E+03  0.10173259030E+04  0.10100000352E+00 0. -1.
</event>
<event>
 5   0  0.3516539E-04  0.1982401E+04  0.7818609E-02  0.8614893E-01
       -2   -1    0    0    0  501  0.00000000000E+00  0.00000000000E+00  0.13679762096E+04  0.13679762096E+04  0.25500000920E-02 0. -1.
        2   -1    0    0  501    0  0.00000000000E+00  0.00000000000E+00 -0.71819834888E+03  0.71819834888E+03  0.25500000920E-02 0.  1.
    10030    2    1    2    0    0  0.00000000000E+00  0.00000000000E+00  0.64977786072E+03  0.20861745585E+04  0.19824008223E+04 0.  0.
        4    1    3    3  502    0 -0.22671998979E+03 -0.33711125375E+03  0.12763360273E+04  0.13394331707E+04  0.12699999809E+01 0. -1.
       -4    1    3    3    0  502  0.22671998979E+03  0.33711125375E+03 -0.62655816662E+03  0.74674138779E+03  0.12699999809E+01 0.  1.
</event>
<event>
 5   0  0.1694830E-04  0.1901981E+04  0.7818609E-02  0.8653871E-01
       -1   -1    0    0    0  501  0.00000000000E+00  0.00000000000E+00  0.48695094171E+03  0.48695094173E+03  0.50400001928E-02 0.  1.
        1   -1    0    0  501    0  0.00000000000E+00  0.00000000000E+00 -0.18572365325E+04  0.18572365325E+04  0.50400001928E-02 0. -1.
    10030    2    1    2    0    0  0.00000000000E+00  0.00000000000E+00 -0.13702855908E+04  0.23441874743E+04  0.19019811550E+04 0.  0.
        1    1    3    3  502    0 -0.75090192624E+03  0.56287522918E+03 -0.49539876954E+03  0.10611796113E+04  0.50400001928E-02 0.  1.
       -1    1    3    3    0  502  0.75090192624E+03 -0.56287522918E+03 -0.87488682127E+03  0.12830078630E+04  0.50400001928E-02 0. -1.
</event>
<event>
 5   0  0.3720978E-04  0.1906173E+04  0.7818609E-02  0.8651790E-01
        2   -1    0    0  501    0  0.00000000000E+00  0.00000000000E+00  0.24720809477E+04  0.24720809477E+04  0.25500000920E-02 0. -1.
       -2   -1    0    0    0  501  0.00000000000E+00  0.00000000000E+00 -0.36745309767E+03  0.36745309768E+03  0.25500000920E-02 0.  1.
    10030    2    1    2    0    0  0.00000000000E+00  0.00000000000E+00  0.21046278500E+04  0.28395340454E+04  0.19061729218E+04 0.  0.
        1    1    3    3  502    0 -0.46867383579E+03  0.50683728747E+03  0.20312255891E+04  0.21453243564E+04  0.50400001928E-02 0. -1.
       -1    1    3    3    0  502  0.46867383579E+03 -0.50683728747E+03  0.73402260927E+02  0.69420968897E+03  0.50400001928E-02 0.  1.
</event>
<event>
 5   0  0.1813834E-04  0.2003865E+04  0.7818609E-02  0.8604816E-01
        1   -1    0    0  501    0  0.00000000000E+00  0.00000000000E+00  0.11140269145E+04  0.11140269145E+04  0.50400001928E-02 0.  1.
       -1   -1    0    0    0  501  0.00000000000E+00  0.00000000000E+00 -0.90111746084E+03  0.90111746085E+03  0.50400001928E-02 0. -1.
    10030    2    1    2    0    0  0.00000000000E+00  0.00000000000E+00  0.21290945369E+03  0.20151443754E+04  0.20038653693E+04 0.  0.
        5    1    3    3  502    0  0.91825130987E+02  0.30846129998E+03 -0.84770974312E+03  0.90676023669E+03  0.46999998093E+01 0. -1.
       -5    1    3    3    0  502 -0.91825130987E+02 -0.30846129998E+03  0.10606191968E+04  0.11083841387E+04  0.46999998093E+01 0.  1.
</event>
<event>
 5   0  0.1813834E-04  0.1883051E+04  0.7818609E-02  0.8663339E-01
        1   -1    0    0  501    0  0.00000000000E+00  0.00000000000E+00  0.91746408645E+03  0.91746408647E+03  0.50400001928E-02 0.  1.
       -1   -1    0    0    0  501  0.00000000000E+00  0.00000000000E+00 -0.96621761394E+03  0.96621761395E+03  0.50400001928E-02 0. -1.
    10030    2    1    2    0    0  0.00000000000E+00  0.00000000000E+00 -0.48753527486E+02  0.18836817004E+04  0.18830506743E+04 0.  0.
        5    1    3    3  502    0  0.90748503776E+03  0.22127015500E+03 -0.14256158476E+03  0.94489971462E+03  0.46999998093E+01 0. -1.
       -5    1    3    3    0  502 -0.90748503776E+03 -0.22127015500E+03  0.93808057270E+02  0.93878198580E+03  0.46999998093E+01 0.  1.
</event>
<event>
 5   0  0.1711979E-04  0.1901278E+04  0.7818609E-02  0.8654221E-01
        1   -1    0    0  501    0  0.00000000000E+00  0.00000000000E+00  0.26355019175E+04  0.26355019175E+04  0.50400001928E-02 0.  1.
       -1   -1    0    0    0  501  0.00000000000E+00  0.00000000000E+00 -0.34290024038E+03  0.34290024041E+03  0.50400001928E-02 0. -1.
    10030    2    1    2    0    0  0.00000000000E+00  0.00000000000E+00  0.22926016771E+04  0.29784021579E+04  0.19012777189E+04 0.  0.
        4    1    3    3  502    0  0.44586729030E+03  0.39819169182E+03  0.23042155646E+04  0.23804968483E+04  0.12699999809E+01 0.  1.
       -4    1    3    3    0  502 -0.44586729030E+03 -0.39819169182E+03 -0.11613887416E+02  0.59790530962E+03  0.12699999809E+01 0. -1.
</event>
<event>
 5   0  0.1782613E-04  0.1941816E+04  0.7818609E-02  0.8634317E-01
       -1   -1    0    0    0  501  0.00000000000E+00  0.00000000000E+00  0.67399217243E+03  0.67399217245E+03  0.50400001928E-02 0.  1.
        1   -1    0    0  501    0  0.00000000000E+00  0.00000000000E+00 -0.13986249360E+04  0.13986249360E+04  0.50400001928E-02 0. -1.
    10030    2    1    2    0    0  0.00000000000E+00  0.00000000000E+00 -0.72463276353E+03  0.20726171084E+04  0.19418159120E+04 0.  0.
        3    1    3    3  502    0  0.44051610415E+03  0.82545829335E+03 -0.85570603244E+02  0.93955211161E+03  0.10100000352E+00 0.  1.
       -3    1    3    3    0  502 -0.44051610415E+03 -0.82545829335E+03 -0.63906216028E+03  0.11330649968E+04  0.10100000352E+00 0. -1.
</event>
<event>
 5   0  0.1782613E-04  0.1866888E+04  0.7818609E-02  0.8671516E-01
       -1   -1    0    0    0  501  0.00000000000E+00  0.00000000000E+00  0.13871729872E+04  0.13871729872E+04  0.50400001928E-02 0. -1.
        1   -1    0    0  501    0  0.00000000000E+00  0.00000000000E+00 -0.62812468410E+03  0.62812468412E+03  0.50400001928E-02 0.  1.
    10030    2    1    2    0    0  0.00000000000E+00  0.00000000000E+00  0.75904830307E+03  0.20152976713E+04  0.18668878856E+04 0.  0.
        3    1    3    3  502    0 -0.10732723837E+03  0.33159053628E+03  0.13142990735E+04  0.13597255181E+04  0.10100000352E+00 0. -1.
       -3    1    3    3    0  502  0.10732723837E+03 -0.33159053628E+03 -0.55525077039E+03  0.65557215321E+03  0.10100000352E+00 0.  1.
</event>
<event>
 5   0  0.1711979E-04  0.1893790E+04  0.7818609E-02  0.8657954E-01
        1   -1    0    0  501    0  0.00000000000E+00  0.00000000000E+00  0.78974974427E+03  0.78974974429E+03  0.50400001928E-02 0.  1.
       -1   -1    0    0    0  501  0.00000000000E+00  0.00000000000E+00 -0.11353087419E+04  0.11353087419E+04  0.50400001928E-02 0. -1.
    10030    2    1    2    0    0  0.00000000000E+00  0.00000000000E+00 -0.34555899763E+03  0.19250584862E+04  0.18937896278E+04 0.  0.
        4    1    3    3  502    0 -0.79206090529E+03  0.51583216946E+03 -0.22996556197E+03  0.97279446818E+03  0.12699999809E+01 0.  1.
       -4    1    3    3    0  502  0.79206090529E+03 -0.51583216946E+03 -0.11559343566E+03  0.95226401801E+03  0.12699999809E+01 0. -1.
</event>
<event>
 5   0  0.1782613E-04  0.1836479E+04  0.7818609E-02  0.8687137E-01
        1   -1    0    0  501    0  0.00000000000E+00  0.00000000000E+00  0.10826904314E+04  0.10826904314E+04  0.50400001928E-02 0. -1.
       -1   -1    0    0    0  501  0.00000000000E+00  0.00000000000E+00 -0.77876716318E+03  0.77876716320E+03  0.50400001928E-02 0.  1.
    10030    2    1    2    0    0  0.00000000000E+00  0.00000000000E+00  0.30392326820E+03  0.18614575946E+04  0.18364789744E+04 0.  0.
        3    1    3    3  502    0  0.57736531862E+03 -0.18707308926E+03 -0.54648009110E+03  0.81669305864E+03  0.10100000352E+00 0.  1.
       -3    1    3    3    0  502 -0.57736531862E+03  0.18707308926E+03  0.85040335929E+03  0.10447645359E+04  0.10100000352E+00 0. -1.
</event>
<event>
 5   0  0.1694830E-04  0.1903718E+04  0.7818609E-02  0.8653008E-01
       -1   -1    0    0    0  501  0.00000000000E+00  0.00000000000E+00  0.78984926200E+03  0.78984926202E+03  0.50400001928E-02 0.  1.
        1   -1    0    0  501    0  0.00000000000E+00  0.00000000000E+00 -0.11470990725E+04  0.11470990725E+04  0.50400001928E-02 0. -1.
    10030    2    1    2    0    0  0.00000000000E+00  0.00000000000E+00 -0.35724981052E+03  0.19369483345E+04  0.19037177899E+04 0.  0.
        1    1    3    3  502    0 -0.45155222436E+03 -0.64280436835E+03 -0.72553780464E+03  0.10693465169E+04  0.50400001928E-02 0. -1.
       -1    1    3    3    0  502  0.45155222436E+03  0.64280436835E+03  0.36828799412E+03  0.86760181761E+03  0.50400001928E-02 0.  1.
</event>
<event>
 5   0  0.1813834E-04  0.1897894E+04  0.7818609E-02  0.8655905E-01
       -1   -1    0    0    0  501  0.00000000000E+00  0.00000000000E+00  0.74627308199E+03  0.74627308200E+03  0.50400001928E-02 0. -1.
        1   -1    0    0  501    0  0.00000000000E+00  0.00000000000E+00 -0.12066637945E+04  0.12066637945E+04  0.50400001928E-02 0.  1.
    10030    2    1    2    0    0  0.00000000000E+00  0.00000000000E+00 -0.46039071250E+03  0.19529368765E+04  0.18978943162E+04 0.  0.
        5    1    3    3  502    0  0.14075356397E+03 -0.21612849695E+03 -0.11698918930E+04  0.11979950853E+04  0.46999998093E+01 0.  1.
       -5    1    3    3    0  502 -0.14075356397E+03  0.21612849695E+03  0.70950118053E+03  0.75494179122E+03  0.46999998093E+01 0. -1.
</event>
<event>
 5   0  0.3459485E-04  0.1925132E+04  0.7818609E-02  0.8642447E-01
       -2   -1    0    0    0  501  0.00000000000E+00  0.00000000000E+00  0.66953702786E+03  0.66953702787E+03  0.25500000920E-02 0.  1.
        2   -1    0    0  501    0  0.00000000000E+00  0.00000000000E+00 -0.13838419611E+04  0.13838419611E+04  0.25500000920E-02 0. -1.
    10030    2    1    2    0    0  0.00000000000E+00  0.00000000000E+00 -0.71430493322E+03  0.20533789889E+04  0.19251321343E+04 0.  0.
        3    1    3    3  502    0  0.75493099654E+00  0.95077854089E+03 -0.19697149621E+03  0.97096765356E+03  0.10100000352E+00 0.  1.
       -3    1    3    3    0  502 -0.75493099654E+00 -0.95077854089E+03 -0.51733343701E+03  0.10824113354E+04  0.10100000352E+00 0. -1.
</event>
<event>
 5   0  0.3535876E-04  0.1908981E+04  0.7818609E-02  0.8650399E-01
        2   -1    0    0  501    0  0.00000000000E+00  0.00000000000E+00  0.96954793012E+03  0.96954793012E+03  0.25500000920E-02 0.  1.
       -2   -1    0    0    0  501  0.00000000000E+00  0.00000000000E+00 -0.93966723589E+03  0.93966723590E+03  0.25500000920E-02 0. -1.
    10030    2    1    2    0    0  0.00000000000E+00  0.00000000000E+00  0.29880694223E+02  0.19092151660E+04  0.19089813237E+04 0.  0.
        2    1    3    3  502    0  0.86682750809E+03  0.16710653327E+03 -0.34806127545E+03  0.94892632681E+03  0.25500000920E-02 0. -1.
       -2    1    3    3    0  502 -0.86682750809E+03 -0.16710653327E+03  0.37794196967E+03  0.96028883920E+03  0.25500000920E-02 0.  1.
</event>
<event>
 5   0  0.1813834E-04  0.1958284E+04  0.7818609E-02  0.8626376E-01
       -1   -1    0    0    0  501  0.00000000000E+00  0.00000000000E+00  0.95418496286E+03  0.95418496287E+03  0.50400001928E-02 0. -1.
        1   -1    0    0  501    0  0.00000000000E+00  0.00000000000E+00 -0.10047522374E+04  0.10047522374E+04  0.50400001928E-02 0.  1.
    10030    2    1    2    0    0  0.00000000000E+00  0.00000000000E+00 -0.50567274537E+02  0.19589372003E+04  0.19582844291E+04 0.  0.
        5    1    3    3  502    0  0.49080446615E+03  0.19578064952E+03 -0.84986314670E+03  0.10007539882E+04  0.46999998093E+01 0.  1.
       -5    1    3    3    0  502 -0.49080446615E+03 -0.19578064952E+03  0.79929587216E+03  0.95818321211E+03  0.46999998093E+01 0. -1.
</event>
<event>
 5   0  0.3459485E-04  0.1904402E+04  0.7818609E-02  0.8652668E-01
       -2   -1    0    0    0  501  0.00000000000E+00  0.00000000000E+00  0.39195178573E+03  0.39195178574E+03  0.25500000920E-02 0.  1.
        2   -1    0    0  501    0  0.00000000000E+00  0.00000000000E+00 -0.23132604136E+04  0.23132604136E+04  0.25500000920E-02 0. -1.
    10030    2    1    2    0    0  0.00000000000E+00  0.00000000000E+00 -0.19213086279E+04  0.27052121994E+04  0.19044017958E+04 0.  0.
        3    1    3    3  502    0 -0.47302846321E+03 -0.26001642634E+03  0.15362482875E+03  0.56121748653E+03  0.10100000352E+00 0.  1.
       -3    1    3    3    0  502  0.47302846321E+03  0.26001642634E+03 -0.20749334566E+04  0.21439947128E+04  0.10100000352E+00 0. -1.
</event>
<event>
 5   0  0.3720978E-04  0.1942571E+04  0.7818609E-02  0.8633951E-01
       -2   -1    0    0    0  501  0.00000000000E+00  0.00000000000E+00  0.49617975264E+03  0.49617975264E+03  0.25500000920E-02 0.  1.
        2   -1    0    0  501    0  0.00000000000E+00  0.00000000000E+00 -0.19013182715E+04  0.19013182715E+04  0.25500000920E-02 0. -1.
    10030    2    1    2    0    0  0.00000000000E+00  0.00000000000E+00 -0.14051385189E+04  0.23974980242E+04  0.19425711103E+04 0.  0.
        1    1    3    3  502    0  0.53211373403E+03  0.35882668196E+03  0.19719869568E+03  0.67140817632E+03  0.50400001928E-02 0.  1.
       -1    1    3    3    0  502 -0.53211373403E+03 -0.35882668196E+03 -0.16023372146E+04  0.17260898478E+04  0.50400001928E-02 0. -1.
</event>
<event>
 5   0  0.3516539E-04  0.1892774E+04  0.7818609E-02  0.8658461E-01
        2   -1    0    0  501    0  0.00000000000E+00  0.00000000000E+00  0.23815478846E+04  0.23815478846E+04  0.25500000920E-02 0.  1.
       -2   -1    0    0    0  501  0.00000000000E+00  0.00000000000E+00 -0.37607835031E+03  0.37607835032E+03  0.25500000920E-02 0. -1.
    10030    2    1    2    0    0  0.00000000000E+00  0.00000000000E+00  0.20054695343E+04  0.27576262349E+04  0.18927742598E+04 0.  0.
        4    1    3    3  502    0  0.84692589282E+03  0.42209851440E+03  0.10231505651E+04  0.13936604018E+04  0.12699999809E+01 0. -1.
       -4    1    3    3    0  502 -0.84692589282E+03 -0.42209851440E+03  0.98231896921E+03  0.13639658331E+04  0.12699999809E+01 0.  1.
</event>
<event>
 5   0  0.3535876E-04  0.1871389E+04  0.7818609E-02  0.8669230E-01
        2   -1    0    0  501    0  0.00000000000E+00  0.00000000000E+00  0.10129634731E+04  0.10129634731E+04  0.25500000920E-02 0. -1.
       -2   -1    0    0    0  501  0.00000000000E+00  0.00000000000E+00 -0.86431982800E+03  0.86431982800E+03  0.25500000920E-02 0.  1.
    10030    2    1    2    0    0  0.00000000000E+00  0.00000000000E+00  0.14864364507E+03  0.18772833011E+04  0.18713892324E+04 0.  0.
        2    1    3    3  502    0  0.47492997962E+03 -0.47911597064E+03 -0.57611359363E+03  0.88714005187E+03  0.25500000920E-02 0.  1.
       -2    1    3    3    0  502 -0.47492997962E+03  0.47911597064E+03  0.72475723870E+03  0.99014324919E+03  0.25500000920E-02 0. -1.
</event>
<event>
 5   0  0.1813834E-04  0.1361581E+04  0.7818609E-02  0.8982107E-01
       -1   -1    0    0    0  501  0.00000000000E+00  0.00000000000E+00  0.33412371784E+03  0.33412371788E+03  0.50400001928E-02 0. -1.
        1   -1    0    0  501    0  0.00000000000E+00  0.00000000000E+00 -0.13871379062E+04  0.13871379062E+04  0.50400001928E-02 0.  1.
    10030    2    1    2    0    0  0.00000000000E+00  0.00000000000E+00 -0.10530141883E+04  0.17212616241E+04  0.13615809552E+04 0.  0.
        5    1    3    3  502    0  0.52494741467E+03  0.65109575148E+02 -0.10682489956E+04  0.11920516144E+04  0.46999998093E+01 0.  1.
       -5    1    3    3    0  502 -0.52494741467E+03 -0.65109575148E+02  0.15234807230E+02  0.52921000963E+03  0.46999998093E+01 0. -1.
</event>
<event>
 5   0  0.3535876E-04  0.1946321E+04  0.7818609E-02  0.8632137E-01
        2   -1    0    0  501    0  0.00000000000E+00  0.00000000000E+00  0.71109901691E+03  0.71109901692E+03  0.25500000920E-02 0.  1.
       -2   -1    0    0    0  501  0.00000000000E+00  0.00000000000E+00 -0.13317992805E+04  0.13317992805E+04  0.25500000920E-02 0. -1.
    10030    2    1    2    0    0  0.00000000000E+00  0.00000000000E+00 -0.62070026356E+03  0.20428982974E+04  0.19463207948E+04 0.  0.
        2    1    3    3  502    0  0.35570097970E+03  0.39219943920E+03  0.54668132060E+03  0.76105456662E+03  0.25500000920E-02 0.  1.
       -2    1    3    3    0  502 -0.35570097970E+03 -0.39219943920E+03 -0.11673815842E+04  0.12818437308E+04  0.25500000920E-02 0. -1.
</event>
<event>
 5   0  0.1813834E-04  0.1865680E+04  0.7818609E-02  0.8672131E-01
        1   -1    0    0  501    0  0.00000000000E+00  0.00000000000E+00  0.11385957101E+04  0.11385957101E+04  0.50400001928E-02 0.  1.
       -1   -1    0    0    0  501  0.00000000000E+00  0.00000000000E+00 -0.76426648981E+03  0.76426648983E+03  0.50400001928E-02 0. -1.
    10030    2    1    2    0    0  0.00000000000E+00  0.00000000000E+00  0.37432922025E+03  0.19028621999E+04  0.18656800869E+04 0.  0.
        5    1    3    3  502    0 -0.62827885167E+03 -0.15182316897E+03 -0.49883476001E+03  0.81648196421E+03  0.46999998093E+01 0. -1.
       -5    1    3    3    0  502  0.62827885167E+03  0.15182316897E+03  0.87316398026E+03  0.10863802357E+04  0.46999998093E+01 0.  1.
</event>
<event>
 5   0  0.1711979E-04  0.1798759E+04  0.7818609E-02  0.8706960E-01
       -1   -1    0    0    0  501  0.00000000000E+00  0.00000000000E+00  0.58957844128E+03  0.58957844130E+03  0.50400001928E-02 0. -1.
        1   -1    0    0  501    0  0.00000000000E+00  0.00000000000E+00 -0.13719697283E+04  0.13719697283E+04  0.50400001928E-02 0.  1.
    10030    2    1    2    0    0  0.00000000000E+00  0.00000000000E+00 -0.78239128699E+03  0.19615481696E+04  0.17987593212E+04 0.  0.
        4    1    3    3  502    0  0.11405862061E+03 -0.13837608168E+03 -0.13522756012E+04  0.13641144466E+04  0.12699999809E+01 0.  1.
       -4    1    3    3    0  502 -0.11405862061E+03  0.13837608168E+03  0.56988431419E+03  0.59743372300E+03  0.12699999809E+01 0. -1.
</event>
<event>
 5   0  0.1758946E-04  0.2229904E+04  0.7818609E-02  0.8506084E-01
       -1   -1    0    0    0  501  0.00000000000E+00  0.00000000000E+00  0.14826051129E+04  0.14826051129E+04  0.50400001928E-02 0.  1.
        1   -1    0    0  501    0  0.00000000000E+00  0.00000000000E+00 -0.83846836839E+03  0.83846836840E+03  0.50400001928E-02 0. -1.
    10030    2    1    2    0    0  0.00000000000E+00  0.00000000000E+00  0.64413674449E+03  0.23210734813E+04  0.22299035764E+04 0.  0.
        2    1    3    3  502    0  0.10368277596E+04 -0.16712998623E+03  0.71177283935E+03  0.12686862537E+04  0.25500000920E-02 0.  1.
       -2    1    3    3    0  502 -0.10368277596E+04  0.16712998623E+03 -0.67636094862E+02  0.10523872276E+04  0.25500000920E-02 0. -1.
</event>
<event>
 5   0  0.1711979E-04  0.1888078E+04  0.7818609E-02  0.8660813E-01
       -1   -1    0    0    0  501  0.00000000000E+00  0.00000000000E+00  0.73088979789E+03  0.73088979790E+03  0.50400001928E-02 0.  1.
        1   -1    0    0  501    0  0.00000000000E+00  0.00000000000E+00 -0.12193492843E+04  0.12193492843E+04  0.50400001928E-02 0. -1.
    10030    2    1    2    0    0  0.00000000000E+00  0.00000000000E+00 -0.48845948644E+03  0.19502390822E+04  0.18880783374E+04 0.  0.
        4    1    3    3  502    0 -0.47882455250E+02  0.44297056655E+03  0.61545287746E+03  0.75980228324E+03  0.12699999809E+01 0.  1.
       -4    1    3    3    0  502  0.47882455250E+02 -0.44297056655E+03 -0.11039123639E+04  0.11904367990E+04  0.12699999809E+01 0. -1.
</event>
<event>
 5   0  0.3720978E-04  0.1896487E+04  0.7818609E-02  0.8656607E-01
       -2   -1    0    0    0  501  0.00000000000E+00  0.00000000000E+00  0.16321721510E+04  0.16321721510E+04  0.25500000920E-02 0. -1.
        2   -1    0    0  501    0  0.00000000000E+00  0.00000000000E+00 -0.55090143092E+03  0.55090143092E+03  0.25500000920E-02 0.  1.
    10030    2    1    2    0    0  0.00000000000E+00  0.00000000000E+00  0.10812707201E+04  0.21830735819E+04  0.18964872512E+04 0.  0.
        1    1    3    3  502    0  0.55411332763E+03  0.62974841202E+03  0.10496587398E+04  0.13436547594E+04  0.50400001928E-02 0. -1.
       -1    1    3    3    0  502 -0.55411332763E+03 -0.62974841202E+03  0.31611980262E+02  0.83941882253E+03  0.50400001928E-02 0.  1.
</event>
<event>
 5   0  0.3516539E-04  0.1913200E+04  0.7818609E-02  0.8648314E-01
       -2   -1    0    0    0  501  0.00000000000E+00  0.00000000000E+00  0.50274281393E+03  0.50274281393E+03  0.25500000920E-02 0.  1.
        2   -1    0    0  501    0  0.00000000000E+00  0.00000000000E+00 -0.18201818905E+04  0.18201818905E+04  0.25500000920E-02 0. -1.
    10030    2    1    2    0    0  0.00000000000E+00  0.00000000000E+00 -0.13174390765E+04  0.23229247044E+04  0.19131997967E+04 0.  0.
        4    1    3    3  502    0 -0.33229478512E+03  0.27173828931E+03  0.37923919456E+03  0.57278748388E+03  0.12699999809E+01 0.  1.
       -4    1    3    3    0  502  0.33229478512E+03 -0.27173828931E+03 -0.16966782711E+04  0.17501372205E+04  0.12699999809E+01 0. -1.
</event>
<event>
 5   0  0.1782613E-04  0.1893617E+04  0.7818609E-02  0.8658040E-01
        1   -1    0    0  501    0  0.00000000000E+00  0.00000000000E+00  0.90489368595E+03  0.90489368597E+03  0.50400001928E-02 0. -1.
       -1   -1    0    0    0  501  0.00000000000E+00  0.00000000000E+00 -0.99066446953E+03  0.99066446954E+03  0.50400001928E-02 0.  1.
    10030    2    1    2    0    0  0.00000000000E+00  0.00000000000E+00 -0.85770783575E+02  0.18955581555E+04  0.18936166702E+04 0.  0.
        3    1    3    3  502    0 -0.15467249638E+02  0.53891689505E+03 -0.82199910099E+03  0.98303264839E+03  0.10100000352E+00 0.  1.
       -3    1    3    3    0  502  0.15467249638E+02 -0.53891689505E+03  0.73622831741E+03  0.91252550712E+03  0.10100000352E+00 0. -1.
</event>
<event>
 5   0  0.3459485E-04  0.1863444E+04  0.7818609E-02  0.8673270E-01
        2   -1    0    0  501    0  0.00000000000E+00  0.00000000000E+00  0.11597192061E+04  0.11597192061E+04  0.25500000920E-02 0. -1.
       -2   -1    0    0    0  501  0.00000000000E+00  0.00000000000E+00 -0.74854795562E+03  0.74854795563E+03  0.25500000920E-02 0.  1.
    10030    2    1    2    0    0  0.00000000000E+00  0.00000000000E+00  0.41117125044E+03  0.19082671617E+04  0.18634435229E+04 0.  0.
        3    1    3    3  502    0 -0.63348066021E+03 -0.42982779801E+03 -0.33827850845E+03  0.83694805232E+03  0.10100000352E+00 0.  1.
       -3    1    3    3    0  502  0.63348066021E+03  0.42982779801E+03  0.74944975889E+03  0.10713191094E+04  0.10100000352E+00 0. -1.
</event>
<event>
 5   0  0.1782613E-04  0.1791296E+04  0.7818609E-02  0.8710942E-01
       -1   -1    0    0    0  501  0.00000000000E+00  0.00000000000E+00  0.31977259344E+03  0.31977259348E+03  0.50400001928E-02 0.  1.
        1   -1    0    0  501    0  0.00000000000E+00  0.00000000000E+00 -0.25086108059E+04  0.25086108059E+04  0.50400001928E-02 0. -1.
    10030    2    1    2    0    0  0.00000000000E+00  0.00000000000E+00 -0.21888382125E+04  0.28283833994E+04  0.17912956020E+04 0.  0.
        3    1    3    3  502    0  0.25467978939E+03 -0.40932011101E+03 -0.22862776282E+04  0.23365509093E+04  0.10100000352E+00 0. -1.
       -3    1    3    3    0  502 -0.25467978939E+03  0.40932011101E+03  0.97439415700E+02  0.49183249011E+03  0.10100000352E+00 0.  1.
</event>
<event>
 5   0  0.1758946E-04  0.1797873E+04  0.7818609E-02  0.8707431E-01
       -1   -1    0    0    0  501  0.00000000000E+00  0.00000000000E+00  0.46214644681E+03  0.46214644684E+03  0.50400001928E-02 0.  1.
        1   -1    0    0  501    0  0.00000000000E+00  0.00000000000E+00 -0.17485518663E+04  0.17485518663E+04  0.50400001928E-02 0. -1.
    10030    2    1    2    0    0  0.00000000000E+00  0.00000000000E+00 -0.12864054195E+04  0.22106983132E+04  0.17978732237E+04 0.  0.
        2    1    3    3  502    0  0.32287485734E+03  0.52132234814E+03 -0.14514483766E+04  0.15756673361E+04  0.25500000920E-02 0.  1.
       -2    1    3    3    0  502 -0.32287485734E+03 -0.52132234814E+03  0.16504295705E+03  0.63503097708E+03  0.25500000920E-02 0. -1.
</event>
<event>
 5   0  0.3535876E-04  0.1961293E+04  0.7818609E-02  0.8624934E-01
       -2   -1    0    0    0  501  0.00000000000E+00  0.00000000000E+00  0.76462927821E+03  0.76462927822E+03  0.25500000920E-02 0. -1.
        2   -1    0    0  501    0  0.00000000000E+00  0.00000000000E+00 -0.12576914571E+04  0.12576914571E+04  0.25500000920E-02 0.  1.
    10030    2    1    2    0    0  0.00000000000E+00  0.00000000000E+00 -0.49306217886E+03  0.20223207353E+04  0.19612931561E+04 0.  0.
        2    1    3    3  502    0 -0.14603175621E+03  0.94140321971E+03 -0.66942744548E+01  0.95268573476E+03  0.25500000920E-02 0. -1.
       -2    1    3    3    0  502  0.14603175621E+03 -0.94140321971E+03 -0.48636790440E+03  0.10696350005E+04  0.25500000920E-02 0.  1.
</event>
<event>
 5   0  0.1813834E-04  0.1866377E+04  0.7818609E-02  0.8671776E-01
        1   -1    0    0  501    0  0.00000000000E+00  0.00000000000E+00  0.75224921166E+03  0.75224921168E+03  0.50400001928E-02 0.  1.
       -1   -1    0    0    0  501  0.00000000000E+00  0.00000000000E+00 -0.11576491864E+04  0.11576491864E+04  0.50400001928E-02 0. -1.
    10030    2    1    2    0    0  0.00000000000E+00  0.00000000000E+00 -0.40539997470E+03  0.19098983980E+04  0.18663769050E+04 0.  0.
        5    1    3    3  502    0 -0.81739799022E+03  0.32908491786E+03 -0.51708081540E+03  0.10216804869E+04  0.46999998093E+01 0.  1.
       -5    1    3    3    0  502  0.81739799022E+03 -0.32908491786E+03  0.11168084070E+03  0.88821791119E+03  0.46999998093E+01 0. -1.
</event>
<event>
 5   0  0.1694830E-04  0.1902987E+04  0.7818609E-02  0.8653371E-01
       -1   -1    0    0    0  501  0.00000000000E+00  0.00000000000E+00  0.48036802161E+03  0.48036802164E+03  0.50400001928E-02 0. -1.
        1   -1    0    0  501    0  0.00000000000E+00  0.00000000000E+00 -0.18846807174E+04  0.18846807174E+04  0.50400001928E-02 0.  1.
    10030    2    1    2    0    0  0.00000000000E+00  0.00000000000E+00 -0.14043126957E+04  0.23650487390E+04  0.19029874909E+04 0.  0.
        1    1    3    3  502    0 -0.63678109661E+03 -0.39342013557E+03  0.27903147816E+02  0.74903147714E+03  0.50400001928E-02 0. -1.
       -1    1    3    3    0  502  0.63678109661E+03  0.39342013557E+03 -0.14322158436E+04  0.16160172619E+04  0.50400001928E-02 0.  1.
</event>
<event>
 5   0  0.3516539E-04  0.1939340E+04  0.7818609E-02  0.8635518E-01
       -2   -1    0    0    0  501  0.00000000000E+00  0.00000000000E+00  0.50420064307E+03  0.50420064308E+03  0.25500000920E-02 0. -1.
        2   -1    0    0  501    0  0.00000000000E+00  0.00000000000E+00 -0.18648533624E+04  0.18648533624E+04  0.25500000920E-02 0.  1.
    10030    2    1    2    0    0  0.00000000000E+00  0.00000000000E+00 -0.13606527194E+04  0.23690540055E+04  0.19393403668E+04 0.  0.
        4    1    3    3  502    0  0.59528447156E+01  0.69972671482E+03  0.13968389520E+03  0.71355876792E+03  0.12699999809E+01 0. -1.
       -4    1    3    3    0  502 -0.59528447156E+01 -0.69972671482E+03 -0.15003366146E+04  0.16554952376E+04  0.12699999809E+01 0.  1.
</event>
<event>
 5   0  0.1694830E-04  0.1914068E+04  0.7818609E-02  0.8647885E-01
       -1   -1    0    0    0  501  0.00000000000E+00  0.00000000000E+00  0.78073613691E+03  0.78073613693E+03  0.50400001928E-02 0. -1.
        1   -1    0    0  501    0  0.00000000000E+00  0.00000000000E+00 -0.11731416676E+04  0.11731416676E+04  0.50400001928E-02 0.  1.
    10030    2    1    2    0    0  0.00000000000E+00  0.00000000000E+00 -0.39240553067E+03  0.19538778045E+04  0.19140680172E+04 0.  0.
        1    1    3    3  502    0 -0.78949539749E+03  0.94439196583E+02  0.34750288287E+03  0.86774420087E+03  0.50400001928E-02 0. -1.
       -1    1    3    3    0  502  0.78949539749E+03 -0.94439196583E+02 -0.73990841354E+03  0.10861336036E+04  0.50400001928E-02 0.  1.
</event>
<event>
 5   0  0.3516539E-04  0.1889108E+04  0.7818609E-02  0.8660297E-01
       -2   -1    0    0    0  501  0.00000000000E+00  0.00000000000E+00  0.66120481620E+03  0.66120481621E+03  0.25500000920E-02 0.  1.
        2   -1    0    0  501    0  0.00000000000E+00  0.00000000000E+00 -0.13493286619E+04  0.13493286619E+04  0.25500000920E-02 0. -1.
    10030    2    1    2    0    0  0.00000000000E+00  0.00000000000E+00 -0.68812384566E+03  0.20105334781E+04  0.18891083716E+04 0.  0.
        4    1    3    3  502    0 -0.10335126461E+03  0.19033149021E+03 -0.13225443876E+04  0.13401614940E+04  0.12699999809E+01 0. -1.
       -4    1    3    3    0  502  0.10335126461E+03 -0.19033149021E+03  0.63442054193E+03  0.67037198404E+03  0.12699999809E+01 0.  1.
</event>
<event>
 5   0  0.3623359E-04  0.1868541E+04  0.7818609E-02  0.8670676E-01
        2   -1    0    0  501    0  0.00000000000E+00  0.00000000000E+00  0.93275573090E+03  0.93275573090E+03  0.25500000920E-02 0. -1.
       -2   -1    0    0    0  501  0.00000000000E+00  0.00000000000E+00 -0.93578767691E+03  0.93578767691E+03  0.25500000920E-02 0.  1.
    10030    2    1    2    0    0  0.00000000000E+00  0.00000000000E+00 -0.30319460054E+01  0.18685434078E+04  0.18685409480E+04 0.  0.
        5    1    3    3  502    0 -0.38448725777E+03 -0.84159919589E+03  0.12778837595E+03  0.93406189139E+03  0.46999998093E+01 0.  1.
       -5    1    3    3    0  502  0.38448725777E+03  0.84159919589E+03 -0.13082032196E+03  0.93448151643E+03  0.46999998093E+01 0. -1.
</event>
<event>
 5   0  0.1711979E-04  0.1870067E+04  0.7818609E-02  0.8669901E-01
        1   -1    0    0  501    0  0.00000000000E+00  0.00000000000E+00  0.99911952182E+03  0.99911952184E+03  0.50400001928E-02 0.  1.
       -1   -1    0    0    0  501  0.00000000000E+00  0.00000000000E+00 -0.87505856536E+03  0.87505856537E+03  0.50400001928E-02 0. -1.
    10030    2    1    2    0    0  0.00000000000E+00  0.00000000000E+00  0.12406095646E+03  0.18741780872E+04  0.18700674805E+04 0.  0.
        4    1    3    3  502    0 -0.72104214298E+03 -0.27147264420E+03  0.59299434817E+03  0.97223612274E+03  0.12699999809E+01 0.  1.
       -4    1    3    3    0  502  0.72104214298E+03  0.27147264420E+03 -0.46893339171E+03  0.90194196447E+03  0.12699999809E+01 0. -1.
</event>
<event>
 5   0  0.3623359E-04  0.1807199E+04  0.7818609E-02  0.8702481E-01
       -2   -1    0    0    0  501  0.00000000000E+00  0.00000000000E+00  0.12192988064E+04  0.12192988064E+04  0.25500000920E-02 0.  1.
        2   -1    0    0  501    0  0.00000000000E+00  0.00000000000E+00 -0.66964046327E+03  0.66964046327E+03  0.25500000920E-02 0. -1.
    10030    2    1    2    0    0  0.00000000000E+00  0.00000000000E+00  0.54965834310E+03  0.18889392696E+04  0.18071987357E+04 0.  0.
        5    1    3    3  502    0 -0.51184237649E+03  0.39942468471E+03 -0.38204397455E+03  0.75332754205E+03  0.46999998093E+01 0. -1.
       -5    1    3    3    0  502  0.51184237649E+03 -0.39942468471E+03  0.93170231765E+03  0.11356117276E+04  0.46999998093E+01 0.  1.
</event>
<event>
 5   0  0.1758946E-04  0.1903928E+04  0.7818609E-02  0.8652904E-01
        1   -1    0    0  501    0  0.00000000000E+00  0.00000000000E+00  0.18522134583E+04  0.18522134583E+04  0.50400001928E-02 0.  1.
       -1   -1    0    0    0  501  0.00000000000E+00  0.00000000000E+00 -0.48927159440E+03  0.48927159443E+03  0.50400001928E-02 0. -1.
    10030    2    1    2    0    0  0.00000000000E+00  0.00000000000E+00  0.13629418639E+04  0.23414850528E+04  0.19039279734E+04 0.  0.
        2    1    3    3  502    0  0.44734509516E+03  0.18553281761E+03  0.16893932292E+04  0.17574383470E+04  0.25500000920E-02 0.  1.
       -2    1    3    3    0  502 -0.44734509516E+03 -0.18553281761E+03 -0.32645136530E+03  0.58404670575E+03  0.25500000920E-02 0. -1.
</event>
<event>
 5   0  0.3535876E-04  0.1879697E+04  0.7818609E-02  0.8665029E-01
        2   -1    0    0  501    0  0.00000000000E+00  0.00000000000E+00  0.97412417105E+03  0.97412417105E+03  0.25500000920E-02 0. -1.
       -2   -1    0    0    0  501  0.00000000000E+00  0.00000000000E+00 -0.90677858733E+03  0.90677858733E+03  0.25500000920E-02 0.  1.
    10030    2    1    2    0    0  0.00000000000E+00  0.00000000000E+00  0.67345583719E+02  0.18809027584E+04  0.18796967199E+04 0.  0.
        2    1    3    3  502    0 -0.88428099997E+03 -0.30655658808E+03  0.11966459906E+03  0.94353030947E+03  0.25500000920E-02 0. -1.
       -2    1    3    3    0  502  0.88428099997E+03  0.30655658808E+03 -0.52319015337E+02  0.93737244891E+03  0.25500000920E-02 0.  1.
</event>
<event>
 5   0  0.1813834E-04  0.1890781E+04  0.7818609E-02  0.8659459E-01
       -1   -1    0    0    0  501  0.00000000000E+00  0.00000000000E+00  0.94391578693E+03  0.94391578694E+03  0.50400001928E-02 0.  1.
        1   -1    0    0  501    0  0.00000000000E+00  0.00000000000E+00 -0.94686710991E+03  0.94686710992E+03  0.50400001928E-02 0. -1.
    10030    2    1    2    0    0  0.00000000000E+00  0.00000000000E+00 -0.29513229807E+01  0.18907828969E+04  0.18907805935E+04 0.  0.
        5    1    3    3  502    0  0.17464537080E+03  0.70772910467E+03  0.60048788800E+03  0.94445184354E+03  0.46999998093E+01 0.  1.
       -5    1    3    3    0  502 -0.17464537080E+03 -0.70772910467E+03 -0.60343921098E+03  0.94633105332E+03  0.46999998093E+01 0. -1.
</event>
</LesHouchesEvents>
