<LesHouchesEvents version="3.0">
<header>
<!--
#*********************************************************************
#                                                                    *
#                        MadGraph5_aMC@NLO                           *
#                                                                    *
#                           Going Beyond                             *
#                                                                    *
#                   http://madgraph.hep.uiuc.edu                     *
#                   http://madgraph.phys.ucl.ac.be                   *
#                   http://amcatnlo.cern.ch                          *
#                                                                    *
#                     The MadGraph5_aMC@NLO team                     *
#                                                                    *
#....................................................................*
#                                                                    *
# This file contains all the information necessary to reproduce      *
# the events generated:                                              *
#                                                                    *
# 1. software version                                                *
# 2. proc_card          : code generation info including model       *
# 3. param_card         : model primary parameters in the LH format  *
# 4. run_card           : running parameters (collider and cuts)     *
# 5. pythia_card        : present only if pythia has been run        *
# 6. pgs_card           : present only if pgs has been run           *
# 7. delphes_cards      : present only if delphes has been run       *
#                                                                    *
#                                                                    *
#*********************************************************************
-->
<MGVersion>
#5.2.2.3
</MGVersion>
<MG5ProcCard>
#************************************************************
#*                     MadGraph5_aMC@NLO                    *
#*                                                          *
#*                *                       *                 *
#*                  *        * *        *                   *
#*                    * * * * 5 * * * *                     *
#*                  *        * *        *                   *
#*                *                       *                 *
#*                                                          *
#*                                                          *
#*         VERSION 2.2.3                 2015-02-10         *
#*                                                          *
#*    The MadGraph5_aMC@NLO Development Team - Find us at   *
#*    https://server06.fynu.ucl.ac.be/projects/madgraph     *
#*                                                          *
#************************************************************
#*                                                          *
#*               Command File for MadGraph5_aMC@NLO         *
#*                                                          *
#*     run as ./bin/mg5_aMC  filename                       *
#*                                                          *
#************************************************************
set group_subprocesses Auto
set ignore_six_quark_processes False
set loop_optimized_output True
set gauge unitary
set complex_mass_scheme False
import model sm
define p = g u c d s u~ c~ d~ s~
define j = g u c d s u~ c~ d~ s~
define l+ = e+ mu+
define l- = e- mu-
define vl = ve vm vt
define vl~ = ve~ vm~ vt~
import model Zprime_UFO
generate p p > zph, zph > j j
add process p p > zph, zph > b b~
output Dijet_signal
</MG5ProcCard>
<MGProcCard>
#*********************************************************************
#                        MadGraph/MadEvent                           *
#                   http://madgraph.hep.uiuc.edu                     *
#                                                                    *
#                          proc_card.dat                             *
#*********************************************************************
#                                                                    *
#            This Files is generated by MADGRAPH 5                   *
#                                                                    *
# WARNING: This Files is generated for MADEVENT (compatibility issue)*
#          This files is NOT a valid MG4 proc_card.dat               *
#          Running this in MG4 will NEVER reproduce the result of MG5*
#                                                                    *
#*********************************************************************
#*********************************************************************
# Process(es) requested : mg2 input                                  *
#*********************************************************************
# Begin PROCESS # This is TAG. Do not modify this line
p p > zph , zph > j j           #Process
# Be carefull the coupling are here in MG5 convention
          
end_coup           # End the couplings input

done               # this tells MG there are no more procs
# End PROCESS  # This is TAG. Do not modify this line
#*********************************************************************
# Model information                                                  *
#*********************************************************************
# Begin MODEL  # This is TAG. Do not modify this line
Zprime_UFO
# End   MODEL  # This is TAG. Do not modify this line
#*********************************************************************
# Start multiparticle definitions                                    *
#*********************************************************************
# Begin MULTIPARTICLES # This is TAG. Do not modify this line

# End  MULTIPARTICLES # This is TAG. Do not modify this line
</MGProcCard>
<MGRunCard>
#*********************************************************************
#                       MadGraph5_aMC@NLO                            *
#                                                                    *
#                     run_card.dat MadEvent                          *
#                                                                    *
#  This file is used to set the parameters of the run.               *
#                                                                    *
#  Some notation/conventions:                                        *
#                                                                    *
#   Lines starting with a '# ' are info or comments                  *
#                                                                    *
#   mind the format:   value    = variable     ! comment             *
#*********************************************************************
#
#*******************                                                 
# Running parameters
#*******************                                                 
#                                                                    
#*********************************************************************
# Tag name for the run (one word)                                    *
#*********************************************************************
  tag_1     = run_tag ! name of the run 
#*********************************************************************
# Run to generate the grid pack                                      *
#*********************************************************************
  .false.     = gridpack  !True = setting up the grid pack
#*********************************************************************
# Number of events and rnd seed                                      *
# Warning: Do not generate more than 1M events in a single run       *
# If you want to run Pythia, avoid more than 50k events in a run.    *
#*********************************************************************
  2000 = nevents ! Number of unweighted events requested 
 2028 = iseed   ! rnd seed (0=assigned automatically=default))
#*********************************************************************
# Collider type and energy                                           *
# lpp: 0=No PDF, 1=proton, -1=antiproton, 2=photon from proton,      *
#                                         3=photon from electron     *
#*********************************************************************
        1     = lpp1    ! beam 1 type 
        1     = lpp2    ! beam 2 type
     4000     = ebeam1  ! beam 1 total energy in GeV
     4000     = ebeam2  ! beam 2 total energy in GeV
#*********************************************************************
# Beam polarization from -100 (left-handed) to 100 (right-handed)    *
#*********************************************************************
        0     = polbeam1 ! beam polarization for beam 1
        0     = polbeam2 ! beam polarization for beam 2
#*********************************************************************
# PDF CHOICE: this automatically fixes also alpha_s and its evol.    *
#*********************************************************************
 'nn23lo1'    = pdlabel     ! PDF set                                     
 230000    = lhaid     ! if pdlabel=lhapdf, this is the lhapdf number
#*********************************************************************
# Renormalization and factorization scales                           *
#*********************************************************************
 F        = fixed_ren_scale  ! if .true. use fixed ren scale
 F        = fixed_fac_scale  ! if .true. use fixed fac scale
 91.1880  = scale            ! fixed ren scale
 91.1880  = dsqrt_q2fact1    ! fixed fact scale for pdf1
 91.1880  = dsqrt_q2fact2    ! fixed fact scale for pdf2
 1        = scalefact        ! scale factor for event-by-event scales
#*********************************************************************
# Matching - Warning! ickkw > 1 is still beta
#*********************************************************************
 0        = ickkw            ! 0 no matching, 1 MLM, 2 CKKW matching
 1        = highestmult      ! for ickkw=2, highest mult group
 1        = ktscheme         ! for ickkw=1, 1 Durham kT, 2 Pythia pTE
 1        = alpsfact         ! scale factor for QCD emission vx
 F        = chcluster        ! cluster only according to channel diag
 T        = pdfwgt           ! for ickkw=1, perform pdf reweighting
 5        = asrwgtflavor     ! highest quark flavor for a_s reweight
 T        = clusinfo         ! include clustering tag in output
 3.0      = lhe_version       ! Change the way clustering information pass to shower.        
#*********************************************************************
#**********************************************************
#
#**********************************************************
# Automatic ptj and mjj cuts if xqcut > 0
# (turn off for VBF and single top processes)
#**********************************************************
   T  = auto_ptj_mjj  ! Automatic setting of ptj and mjj
#**********************************************************
#                                                                    
#**********************************
# BW cutoff (M+/-bwcutoff*Gamma)
#**********************************
  15  = bwcutoff      ! (M+/-bwcutoff*Gamma)
#**********************************************************
# Apply pt/E/eta/dr/mij cuts on decay products or not
# (note that etmiss/ptll/ptheavy/ht/sorted cuts always apply)
#**********************************************************
   T  = cut_decays    ! Cut decay products 
#*************************************************************
# Number of helicities to sum per event (0 = all helicities)
# 0 gives more stable result, but longer run time (needed for
# long decay chains e.g.).
# Use >=2 if most helicities contribute, e.g. pure QCD.
#*************************************************************
   0  = nhel          ! Number of helicities used per event
#*******************                                                 
# Standard Cuts
#*******************                                                 
#                                                                    
#*********************************************************************
# Minimum and maximum pt's (for max, -1 means no cut)                *
#*********************************************************************
 20  = ptj       ! minimum pt for the jets 
  0  = ptb       ! minimum pt for the b 
 10  = pta       ! minimum pt for the photons 
 10  = ptl       ! minimum pt for the charged leptons 
  0  = misset    ! minimum missing Et (sum of neutrino's momenta)
  0  = ptheavy   ! minimum pt for one heavy final state
 1.0 = ptonium   ! minimum pt for the quarkonium states
 -1  = ptjmax    ! maximum pt for the jets
 -1  = ptbmax    ! maximum pt for the b
 -1  = ptamax    ! maximum pt for the photons
 -1  = ptlmax    ! maximum pt for the charged leptons
 -1  = missetmax ! maximum missing Et (sum of neutrino's momenta)
#*********************************************************************
# Minimum and maximum E's (in the center of mass frame)              *
#*********************************************************************
  0  = ej     ! minimum E for the jets 
  0  = eb     ! minimum E for the b 
  0  = ea     ! minimum E for the photons 
  0  = el     ! minimum E for the charged leptons 
 -1   = ejmax ! maximum E for the jets
 -1   = ebmax ! maximum E for the b
 -1   = eamax ! maximum E for the photons
 -1   = elmax ! maximum E for the charged leptons
#*********************************************************************
# Maximum and minimum absolute rapidity (for max, -1 means no cut)   *
#*********************************************************************
   5  = etaj    ! max rap for the jets 
  -1  = etab    ! max rap for the b
 2.5  = etaa    ! max rap for the photons 
 2.5  = etal    ! max rap for the charged leptons 
 0.6  = etaonium ! max rap for the quarkonium states
   0  = etajmin ! min rap for the jets
   0  = etabmin ! min rap for the b
   0  = etaamin ! min rap for the photons
   0  = etalmin ! main rap for the charged leptons
#*********************************************************************
# Minimum and maximum DeltaR distance                                *
#*********************************************************************
 0.4 = drjj    ! min distance between jets 
 0   = drbb    ! min distance between b's 
 0.4 = drll    ! min distance between leptons 
 0.4 = draa    ! min distance between gammas 
 0   = drbj    ! min distance between b and jet 
 0.4 = draj    ! min distance between gamma and jet 
 0.4 = drjl    ! min distance between jet and lepton 
 0   = drab    ! min distance between gamma and b 
 0   = drbl    ! min distance between b and lepton 
 0.4 = dral    ! min distance between gamma and lepton 
 -1  = drjjmax ! max distance between jets
 -1  = drbbmax ! max distance between b's
 -1  = drllmax ! max distance between leptons
 -1  = draamax ! max distance between gammas
 -1  = drbjmax ! max distance between b and jet
 -1  = drajmax ! max distance between gamma and jet
 -1  = drjlmax ! max distance between jet and lepton
 -1  = drabmax ! max distance between gamma and b
 -1  = drblmax ! max distance between b and lepton
 -1  = dralmax ! maxdistance between gamma and lepton
#*********************************************************************
# Minimum and maximum invariant mass for pairs                       *
# WARNING: for four lepton final state mmll cut require to have      *
#          different lepton masses for each flavor!                  *           
#*********************************************************************
 0   = mmjj    ! min invariant mass of a jet pair 
 0   = mmbb    ! min invariant mass of a b pair 
 0   = mmaa    ! min invariant mass of gamma gamma pair
 0   = mmll    ! min invariant mass of l+l- (same flavour) lepton pair
 -1  = mmjjmax ! max invariant mass of a jet pair
 -1  = mmbbmax ! max invariant mass of a b pair
 -1  = mmaamax ! max invariant mass of gamma gamma pair
 -1  = mmllmax ! max invariant mass of l+l- (same flavour) lepton pair
#*********************************************************************
# Minimum and maximum invariant mass for all letpons                 *
#*********************************************************************
 0   = mmnl    ! min invariant mass for all letpons (l+- and vl) 
 -1  = mmnlmax ! max invariant mass for all letpons (l+- and vl) 
#*********************************************************************
# Minimum and maximum pt for 4-momenta sum of leptons                *
#*********************************************************************
 0   = ptllmin  ! Minimum pt for 4-momenta sum of leptons(l and vl)
 -1  = ptllmax  ! Maximum pt for 4-momenta sum of leptons(l and vl)
#*********************************************************************
# Inclusive cuts                                                     *
#*********************************************************************
 0  = xptj ! minimum pt for at least one jet  
 0  = xptb ! minimum pt for at least one b 
 0  = xpta ! minimum pt for at least one photon 
 0  = xptl ! minimum pt for at least one charged lepton 
#*********************************************************************
# Control the pt's of the jets sorted by pt                          *
#*********************************************************************
 0   = ptj1min ! minimum pt for the leading jet in pt
 0   = ptj2min ! minimum pt for the second jet in pt
 0   = ptj3min ! minimum pt for the third jet in pt
 0   = ptj4min ! minimum pt for the fourth jet in pt
 -1  = ptj1max ! maximum pt for the leading jet in pt 
 -1  = ptj2max ! maximum pt for the second jet in pt
 -1  = ptj3max ! maximum pt for the third jet in pt
 -1  = ptj4max ! maximum pt for the fourth jet in pt
 0   = cutuse  ! reject event if fails any (0) / all (1) jet pt cuts
#*********************************************************************
# Control the pt's of leptons sorted by pt                           *
#*********************************************************************
 0   = ptl1min ! minimum pt for the leading lepton in pt
 0   = ptl2min ! minimum pt for the second lepton in pt
 0   = ptl3min ! minimum pt for the third lepton in pt
 0   = ptl4min ! minimum pt for the fourth lepton in pt
 -1  = ptl1max ! maximum pt for the leading lepton in pt 
 -1  = ptl2max ! maximum pt for the second lepton in pt
 -1  = ptl3max ! maximum pt for the third lepton in pt
 -1  = ptl4max ! maximum pt for the fourth lepton in pt
#*********************************************************************
# Control the Ht(k)=Sum of k leading jets                            *
#*********************************************************************
 0   = htjmin ! minimum jet HT=Sum(jet pt)
 -1  = htjmax ! maximum jet HT=Sum(jet pt)
 0   = ihtmin  !inclusive Ht for all partons (including b)
 -1  = ihtmax  !inclusive Ht for all partons (including b)
 0   = ht2min ! minimum Ht for the two leading jets
 0   = ht3min ! minimum Ht for the three leading jets
 0   = ht4min ! minimum Ht for the four leading jets
 -1  = ht2max ! maximum Ht for the two leading jets
 -1  = ht3max ! maximum Ht for the three leading jets
 -1  = ht4max ! maximum Ht for the four leading jets
#***********************************************************************
# Photon-isolation cuts, according to hep-ph/9801442                   *
# When ptgmin=0, all the other parameters are ignored                  *
# When ptgmin>0, pta and draj are not going to be used                 *
#***********************************************************************
   0 = ptgmin ! Min photon transverse momentum
 0.4 = R0gamma ! Radius of isolation code
 1.0 = xn ! n parameter of eq.(3.4) in hep-ph/9801442
 1.0 = epsgamma ! epsilon_gamma parameter of eq.(3.4) in hep-ph/9801442
 .true. = isoEM ! isolate photons from EM energy (photons and leptons)
#*********************************************************************
# WBF cuts                                                           *
#*********************************************************************
 0   = xetamin ! minimum rapidity for two jets in the WBF case  
 0   = deltaeta ! minimum rapidity for two jets in the WBF case 
#*********************************************************************
# KT DURHAM CUT                                                      *
#*********************************************************************
 -1    =  ktdurham        
 0.4  =  dparameter 
#*********************************************************************
# maximal pdg code for quark to be considered as a light jet         *
# (otherwise b cuts are applied)                                     *
#*********************************************************************
 4 = maxjetflavor    ! Maximum jet pdg code
#*********************************************************************
# Jet measure cuts                                                   *
#*********************************************************************
 0   = xqcut   ! minimum kt jet measure between partons
#*********************************************************************
#
#*********************************************************************
# Store info for systematics studies                                 *
# WARNING: If use_syst is T, matched Pythia output is                *
#          meaningful ONLY if plotted taking matchscale              *
#          reweighting into account!                                 *
#*********************************************************************
   F  = use_syst      ! Enable systematics studies
#
#**************************************
# Parameter of the systematics study
#  will be used by SysCalc (if installed)
#**************************************                                  
#
0.5 1 2 = sys_scalefact  # factorization/renormalization scale factor
0.5 1 2 = sys_alpsfact  # \alpha_s emission scale factors
30 50 = sys_matchscale # variation of merging scale
# PDF sets and number of members (0 or none for all members).
CT10nlo.LHgrid = sys_pdf # matching scales
# MSTW2008nlo68cl.LHgrid 1  = sys_pdf
</MGRunCard>
<slha>
######################################################################
## PARAM_CARD AUTOMATICALY GENERATED BY MG5 FOLLOWING UFO MODEL   ####
######################################################################
##                                                                  ##
##  Width set on Auto will be computed following the information    ##
##        present in the decay.py files of the model.               ##
##        See  arXiv:1402.1178 for more details.                    ##
##                                                                  ##
######################################################################

###################################
## INFORMATION FOR CKMBLOCK
###################################
Block ckmblock 
    1 2.277360e-01 # cabi 

###################################
## INFORMATION FOR FRBLOCK
###################################
Block frblock 
    1 1.000000e+00 # gz 

###################################
## INFORMATION FOR MASS
###################################
Block mass 
    1 5.040000e-03 # MD 
    2 2.550000e-03 # MU 
    3 1.010000e-01 # MS 
    4 1.270000e+00 # MC 
    5 4.700000e+00 # MB 
    6 1.720000e+02 # MT 
   11 5.110000e-04 # Me 
   13 1.056600e-01 # MM 
   15 1.777000e+00 # MTA 
   23 9.118760e+01 # MZ 
   25 1.200000e+02 # MH 
  10030 3.100000e+03 # MZph 
  10031 3.000000e+02 # MZpl 
## Dependent parameters, given by model restrictions.
## Those values should be edited following the 
## analytical expression. MG5 ignores those values 
## but they are important for interfacing the output of MG5
## to external program such as Pythia.
  12 0.000000 # ve : 0.0 
  14 0.000000 # vm : 0.0 
  16 0.000000 # vt : 0.0 
  21 0.000000 # g : 0.0 
  22 0.000000 # a : 0.0 
  24 79.824360 # w+ : cmath.sqrt(MZ__exp__2/2. + cmath.sqrt(MZ__exp__4/4. - (aEW*cmath.pi*MZ__exp__2)/(Gf*sqrt__2))) 

###################################
## INFORMATION FOR SMINPUTS
###################################
Block sminputs 
    1 1.279000e+02 # aEWM1 
    2 1.166370e-05 # Gf 
    3 1.184000e-01 # aS 

###################################
## INFORMATION FOR YUKAWA
###################################
Block yukawa 
    1 5.040000e-03 # ymdo 
    2 2.550000e-03 # ymup 
    3 1.010000e-01 # yms 
    4 1.270000e+00 # ymc 
    5 4.700000e+00 # ymb 
    6 1.720000e+02 # ymt 
   11 5.110000e-04 # yme 
   13 1.056600e-01 # ymm 
   15 1.777000e+00 # ymtau 

###################################
## INFORMATION FOR DECAY
###################################
DECAY   6 1.508336e+00 # WT 
DECAY  23 2.495200e+00 # WZ 
DECAY  24 2.085000e+00 # WW 
DECAY  25 5.753088e-03 # WH 
## Dependent parameters, given by model restrictions.
## Those values should be edited following the 
## analytical expression. MG5 ignores those values 
## but they are important for interfacing the output of MG5
## to external program such as Pythia.
DECAY  1 0.000000 # d : 0.0 
DECAY  2 0.000000 # u : 0.0 
DECAY  3 0.000000 # s : 0.0 
DECAY  4 0.000000 # c : 0.0 
DECAY  5 0.000000 # b : 0.0 
DECAY  11 0.000000 # e- : 0.0 
DECAY  12 0.000000 # ve : 0.0 
DECAY  13 0.000000 # mu- : 0.0 
DECAY  14 0.000000 # vm : 0.0 
DECAY  15 0.000000 # ta- : 0.0 
DECAY  16 0.000000 # vt : 0.0 
DECAY  21 0.000000 # g : 0.0 
DECAY  22 0.000000 # a : 0.0 
DECAY  10030 0.308725 # zph : (gz__exp__2*MZph*(5 + cmath.sqrt(1 - (4*MT__exp__2)/MZph__exp__2)))/(144.*cmath.pi) 
DECAY  10031 0.132629 # zpl : (5*gz__exp__2*MZpl)/(144.*cmath.pi) 
#===========================================================
# QUANTUM NUMBERS OF NEW STATE(S) (NON SM PDG CODE)
#===========================================================

Block QNUMBERS 10030  # zph 
        1 0  # 3 times electric charge
        2 3  # number of spin states (2S+1)
        3 1  # colour rep (1: singlet, 3: triplet, 8: octet)
        4 0  # Particle/Antiparticle distinction (0=own anti)
Block QNUMBERS 10031  # zpl 
        1 0  # 3 times electric charge
        2 3  # number of spin states (2S+1)
        3 1  # colour rep (1: singlet, 3: triplet, 8: octet)
        4 0  # Particle/Antiparticle distinction (0=own anti)
</slha>
## END BANNER##
<MGGenerationInfo>
#  Number of Events        :         3893
#  Integrated weight (pb)  :  0.88765E-03
#  Max wgt                 :  0.34460E-06
#  Average wgt             :  0.22801E-06
</MGGenerationInfo>
</header>
<init>
     2212     2212  0.40000000000E+04  0.40000000000E+04 0 0  247000  247000 2   1
  0.88792175865E-03  0.17557373636E-05  0.34459590000E-06   0
</init>
<event>
 5   0  0.3445410E-06  0.3095585E+04  0.7818609E-02  0.8216951E-01
        2   -1    0    0  501    0  0.00000000000E+00  0.00000000000E+00  0.23228065248E+04  0.23228065248E+04  0.25500000920E-02 0.  1.
       -2   -1    0    0    0  501  0.00000000000E+00  0.00000000000E+00 -0.10313652052E+04  0.10313652052E+04  0.25500000920E-02 0. -1.
    10030    2    1    2    0    0  0.00000000000E+00  0.00000000000E+00  0.12914413197E+04  0.33541717300E+04  0.30955851324E+04 0.  0.
        1    1    3    3  502    0  0.92618784387E+03 -0.10166402389E+04  0.14151675392E+04  0.19733424593E+04  0.50400001928E-02 0.  1.
       -1    1    3    3    0  502 -0.92618784387E+03  0.10166402389E+04 -0.12372621954E+03  0.13808292707E+04  0.50400001928E-02 0. -1.
</event>
<event>
 5   0  0.3445410E-06  0.3069785E+04  0.7818609E-02  0.8224079E-01
        2   -1    0    0  501    0  0.00000000000E+00  0.00000000000E+00  0.14206564846E+04  0.14206564846E+04  0.25500000920E-02 0.  1.
       -2   -1    0    0    0  501  0.00000000000E+00  0.00000000000E+00 -0.16583145036E+04  0.16583145036E+04  0.25500000920E-02 0. -1.
    10030    2    1    2    0    0  0.00000000000E+00  0.00000000000E+00 -0.23765801899E+03  0.30789709882E+04  0.30697851737E+04 0.  0.
        1    1    3    3  502    0 -0.14087699719E+04  0.20382402218E+03 -0.69475816467E+03  0.15839400157E+04  0.50400001928E-02 0. -1.
       -1    1    3    3    0  502  0.14087699719E+04 -0.20382402218E+03  0.45710014568E+03  0.14950309726E+04  0.50400001928E-02 0.  1.
</event>
<event>
 5   0  0.3340899E-06  0.3125920E+04  0.7818609E-02  0.8208660E-01
       -2   -1    0    0    0  501  0.00000000000E+00  0.00000000000E+00  0.12051444529E+04  0.12051444529E+04  0.25500000920E-02 0. -1.
        2   -1    0    0  501    0  0.00000000000E+00  0.00000000000E+00 -0.20270137171E+04  0.20270137171E+04  0.25500000920E-02 0.  1.
    10030    2    1    2    0    0  0.00000000000E+00  0.00000000000E+00 -0.82186926416E+03  0.32321581700E+04  0.31259202402E+04 0.  0.
        3    1    3    3  502    0 -0.14780837197E+04 -0.45917135171E+02  0.11223012436E+03  0.14830493845E+04  0.10100000352E+00 0. -1.
       -3    1    3    3    0  502  0.14780837197E+04  0.45917135171E+02 -0.93409938851E+03  0.17491087855E+04  0.10100000352E+00 0.  1.
</event>
<event>
 5   0  0.3445410E-06  0.3099867E+04  0.7818609E-02  0.8215775E-01
       -2   -1    0    0    0  501  0.00000000000E+00  0.00000000000E+00  0.15714979278E+04  0.15714979278E+04  0.25500000920E-02 0. -1.
        2   -1    0    0  501    0  0.00000000000E+00  0.00000000000E+00 -0.15286645801E+04  0.15286645801E+04  0.25500000920E-02 0.  1.
    10030    2    1    2    0    0  0.00000000000E+00  0.00000000000E+00  0.42833347683E+02  0.31001625078E+04  0.30998665906E+04 0.  0.
        1    1    3    3  502    0 -0.60433305690E+03  0.53599418627E+03 -0.13015039957E+04  0.15318031408E+04  0.50400001928E-02 0.  1.
       -1    1    3    3    0  502  0.60433305690E+03 -0.53599418627E+03  0.13443373434E+04  0.15683593670E+04  0.50400001928E-02 0. -1.
</event>
<event>
 5   0  0.3340899E-06  0.3083774E+04  0.7818609E-02  0.8220205E-01
        2   -1    0    0  501    0  0.00000000000E+00  0.00000000000E+00  0.16737847318E+04  0.16737847318E+04  0.25500000920E-02 0.  1.
       -2   -1    0    0    0  501  0.00000000000E+00  0.00000000000E+00 -0.14203829728E+04  0.14203829728E+04  0.25500000920E-02 0. -1.
    10030    2    1    2    0    0  0.00000000000E+00  0.00000000000E+00  0.25340175899E+03  0.30941677046E+04  0.30837738784E+04 0.  0.
        3    1    3    3  502    0  0.92120327909E+03  0.66864855240E+02 -0.11120976181E+04  0.14456304896E+04  0.10100000352E+00 0. -1.
       -3    1    3    3    0  502 -0.92120327909E+03 -0.66864855240E+02  0.13654993771E+04  0.16485372150E+04  0.10100000352E+00 0.  1.
</event>
<event>
 5   0  0.1198763E-06  0.3175796E+04  0.7818609E-02  0.8195239E-01
       -1   -1    0    0    0  501  0.00000000000E+00  0.00000000000E+00  0.14927254989E+04  0.14927254989E+04  0.50400001928E-02 0.  1.
        1   -1    0    0  501    0  0.00000000000E+00  0.00000000000E+00 -0.16891385677E+04  0.16891385677E+04  0.50400001928E-02 0. -1.
    10030    2    1    2    0    0  0.00000000000E+00  0.00000000000E+00 -0.19641306881E+03  0.31818640666E+04  0.31757960962E+04 0.  0.
        1    1    3    3  502    0 -0.15813627074E+04  0.11442150467E+03 -0.18566546496E+03  0.15963307796E+04  0.50400001928E-02 0. -1.
       -1    1    3    3    0  502  0.15813627074E+04 -0.11442150467E+03 -0.10747603847E+02  0.15855332870E+04  0.50400001928E-02 0.  1.
</event>
<event>
 5   0  0.1211008E-06  0.3100021E+04  0.7818609E-02  0.8215732E-01
        1   -1    0    0  501    0  0.00000000000E+00  0.00000000000E+00  0.17290712522E+04  0.17290712522E+04  0.50400001928E-02 0. -1.
       -1   -1    0    0    0  501  0.00000000000E+00  0.00000000000E+00 -0.13894933148E+04  0.13894933148E+04  0.50400001928E-02 0.  1.
    10030    2    1    2    0    0  0.00000000000E+00  0.00000000000E+00  0.33957793744E+03  0.31185645670E+04  0.31000212553E+04 0.  0.
        3    1    3    3  502    0  0.14189106023E+04 -0.57903420523E+03 -0.63861027471E+02  0.15338403271E+04  0.10100000352E+00 0. -1.
       -3    1    3    3    0  502 -0.14189106023E+04  0.57903420523E+03  0.40343896492E+03  0.15847242399E+04  0.10100000352E+00 0.  1.
</event>
<event>
 5   0  0.3445410E-06  0.3107225E+04  0.7818609E-02  0.8213758E-01
        2   -1    0    0  501    0  0.00000000000E+00  0.00000000000E+00  0.22034230743E+04  0.22034230743E+04  0.25500000920E-02 0.  1.
       -2   -1    0    0    0  501  0.00000000000E+00  0.00000000000E+00 -0.10954373528E+04  0.10954373528E+04  0.25500000920E-02 0. -1.
    10030    2    1    2    0    0  0.00000000000E+00  0.00000000000E+00  0.11079857215E+04  0.32988604271E+04  0.31072250897E+04 0.  0.
        1    1    3    3  502    0 -0.67707749817E+03  0.96809002703E+03  0.16252213526E+04  0.20092229055E+04  0.50400001928E-02 0.  1.
       -1    1    3    3    0  502  0.67707749817E+03 -0.96809002703E+03 -0.51723563113E+03  0.12896375216E+04  0.50400001928E-02 0. -1.
</event>
<event>
 5   0  0.1171915E-06  0.3092562E+04  0.7818609E-02  0.8217782E-01
        1   -1    0    0  501    0  0.00000000000E+00  0.00000000000E+00  0.14239470213E+04  0.14239470213E+04  0.50400001928E-02 0. -1.
       -1   -1    0    0    0  501  0.00000000000E+00  0.00000000000E+00 -0.16791252641E+04  0.16791252641E+04  0.50400001928E-02 0.  1.
    10030    2    1    2    0    0  0.00000000000E+00  0.00000000000E+00 -0.25517824285E+03  0.31030722854E+04  0.30925623151E+04 0.  0.
        2    1    3    3  502    0 -0.90128776373E+03 -0.11792965547E+04 -0.56256602699E+03  0.15873060611E+04  0.25500000920E-02 0. -1.
       -2    1    3    3    0  502  0.90128776373E+03  0.11792965547E+04  0.30738778414E+03  0.15157662243E+04  0.25500000920E-02 0.  1.
</event>
<event>
 5   0  0.3445410E-06  0.3071559E+04  0.7818609E-02  0.8223587E-01
       -2   -1    0    0    0  501  0.00000000000E+00  0.00000000000E+00  0.14341671211E+04  0.14341671211E+04  0.25500000920E-02 0.  1.
        2   -1    0    0  501    0  0.00000000000E+00  0.00000000000E+00 -0.16445915966E+04  0.16445915966E+04  0.25500000920E-02 0. -1.
    10030    2    1    2    0    0  0.00000000000E+00  0.00000000000E+00 -0.21042447554E+03  0.30787587176E+04  0.30715593404E+04 0.  0.
        1    1    3    3  502    0  0.65876613539E+03  0.18801300788E+03  0.12725266522E+04  0.14452147912E+04  0.50400001928E-02 0.  1.
       -1    1    3    3    0  502 -0.65876613539E+03 -0.18801300788E+03 -0.14829511277E+04  0.16335439264E+04  0.50400001928E-02 0. -1.
</event>
<event>
 5   0  0.1171915E-06  0.3108147E+04  0.7818609E-02  0.8213506E-01
        1   -1    0    0  501    0  0.00000000000E+00  0.00000000000E+00  0.11755095631E+04  0.11755095631E+04  0.50400001928E-02 0.  1.
       -1   -1    0    0    0  501  0.00000000000E+00  0.00000000000E+00 -0.20545505186E+04  0.20545505186E+04  0.50400001928E-02 0. -1.
    10030    2    1    2    0    0  0.00000000000E+00  0.00000000000E+00 -0.87904095547E+03  0.32300600817E+04  0.31081465748E+04 0.  0.
        2    1    3    3  502    0 -0.77684764492E+03  0.12568155467E+04 -0.94014838504E+03  0.17512728422E+04  0.25500000920E-02 0. -1.
       -2    1    3    3    0  502  0.77684764492E+03 -0.12568155467E+04  0.61107429571E+02  0.14787872396E+04  0.25500000920E-02 0.  1.
</event>
<event>
 5   0  0.3441897E-06  0.3064277E+04  0.7818609E-02  0.8225611E-01
       -2   -1    0    0    0  501  0.00000000000E+00  0.00000000000E+00  0.15916145687E+04  0.15916145688E+04  0.25500000920E-02 0.  1.
        2   -1    0    0  501    0  0.00000000000E+00  0.00000000000E+00 -0.14748850251E+04  0.14748850251E+04  0.25500000920E-02 0. -1.
    10030    2    1    2    0    0  0.00000000000E+00  0.00000000000E+00  0.11672954364E+03  0.30664995939E+04  0.30642770718E+04 0.  0.
        5    1    3    3  502    0 -0.72751460401E+03  0.11393580416E+04 -0.66327694062E+03  0.15057797435E+04  0.46999998093E+01 0. -1.
       -5    1    3    3    0  502  0.72751460401E+03 -0.11393580416E+04  0.78000648427E+03  0.15607198504E+04  0.46999998093E+01 0.  1.
</event>
<event>
 5   0  0.1250276E-06  0.3099983E+04  0.7818609E-02  0.8215743E-01
       -1   -1    0    0    0  501  0.00000000000E+00  0.00000000000E+00  0.14325284583E+04  0.14325284583E+04  0.50400001928E-02 0.  1.
        1   -1    0    0  501    0  0.00000000000E+00  0.00000000000E+00 -0.16770864224E+04  0.16770864224E+04  0.50400001928E-02 0. -1.
    10030    2    1    2    0    0  0.00000000000E+00  0.00000000000E+00 -0.24455796406E+03  0.31096148807E+04  0.30999832433E+04 0.  0.
        5    1    3    3  502    0  0.97341575317E+01  0.15200682328E+04 -0.42612231152E+03  0.15787034239E+04  0.46999998093E+01 0.  1.
       -5    1    3    3    0  502 -0.97341575317E+01 -0.15200682328E+04  0.18156434746E+03  0.15309114568E+04  0.46999998093E+01 0. -1.
</event>
<event>
 5   0  0.1198763E-06  0.3115543E+04  0.7818609E-02  0.8211485E-01
       -1   -1    0    0    0  501  0.00000000000E+00  0.00000000000E+00  0.14479148521E+04  0.14479148521E+04  0.50400001928E-02 0.  1.
        1   -1    0    0  501    0  0.00000000000E+00  0.00000000000E+00 -0.16759632785E+04  0.16759632785E+04  0.50400001928E-02 0. -1.
    10030    2    1    2    0    0  0.00000000000E+00  0.00000000000E+00 -0.22804842640E+03  0.31238781305E+04  0.31155430489E+04 0.  0.
        1    1    3    3  502    0  0.33750109115E+03 -0.32039622340E+03 -0.16046390621E+04  0.16707564891E+04  0.50400001928E-02 0. -1.
       -1    1    3    3    0  502 -0.33750109115E+03  0.32039622340E+03  0.13765906357E+04  0.14531216414E+04  0.50400001928E-02 0.  1.
</event>
<event>
 5   0  0.1211008E-06  0.3103899E+04  0.7818609E-02  0.8214669E-01
       -1   -1    0    0    0  501  0.00000000000E+00  0.00000000000E+00  0.16822972709E+04  0.16822972709E+04  0.50400001928E-02 0.  1.
        1   -1    0    0  501    0  0.00000000000E+00  0.00000000000E+00 -0.14317012812E+04  0.14317012813E+04  0.50400001928E-02 0. -1.
    10030    2    1    2    0    0  0.00000000000E+00  0.00000000000E+00  0.25059598966E+03  0.31139985522E+04  0.31038989405E+04 0.  0.
        3    1    3    3  502    0  0.10512129470E+04  0.65788297842E+03  0.10614410753E+04  0.16323344754E+04  0.10100000352E+00 0.  1.
       -3    1    3    3    0  502 -0.10512129470E+04 -0.65788297842E+03 -0.81084508566E+03  0.14816640767E+04  0.10100000352E+00 0. -1.
</event>
<event>
 5   0  0.1211008E-06  0.2623872E+04  0.7818609E-02  0.8360137E-01
        1   -1    0    0  501    0  0.00000000000E+00  0.00000000000E+00  0.10871048757E+04  0.10871048758E+04  0.50400001928E-02 0. -1.
       -1   -1    0    0    0  501  0.00000000000E+00  0.00000000000E+00 -0.15832663898E+04  0.15832663898E+04  0.50400001928E-02 0.  1.
    10030    2    1    2    0    0  0.00000000000E+00  0.00000000000E+00 -0.49616151406E+03  0.26703712656E+04  0.26238724146E+04 0.  0.
        3    1    3    3  502    0  0.35883451168E+03 -0.98993553642E+02  0.10322333365E+04  0.10973001420E+04  0.10100000352E+00 0. -1.
       -3    1    3    3    0  502 -0.35883451168E+03  0.98993553642E+02 -0.15283948505E+04  0.15730711236E+04  0.10100000352E+00 0.  1.
</event>
<event>
 5   0  0.3445410E-06  0.3079086E+04  0.7818609E-02  0.8221501E-01
       -2   -1    0    0    0  501  0.00000000000E+00  0.00000000000E+00  0.13190914092E+04  0.13190914092E+04  0.25500000920E-02 0. -1.
        2   -1    0    0  501    0  0.00000000000E+00  0.00000000000E+00 -0.17968378624E+04  0.17968378624E+04  0.25500000920E-02 0.  1.
    10030    2    1    2    0    0  0.00000000000E+00  0.00000000000E+00 -0.47774645321E+03  0.31159292715E+04  0.30790864801E+04 0.  0.
        1    1    3    3  502    0 -0.52533153383E+03 -0.94975232440E+03  0.86606644639E+03  0.13885509669E+04  0.50400001928E-02 0. -1.
       -1    1    3    3    0  502  0.52533153383E+03  0.94975232440E+03 -0.13438128996E+04  0.17273783046E+04  0.50400001928E-02 0.  1.
</event>
<event>
 5   0  0.1235960E-06  0.3236330E+04  0.7818609E-02  0.8179288E-01
       -1   -1    0    0    0  501  0.00000000000E+00  0.00000000000E+00  0.12948995055E+04  0.12948995056E+04  0.50400001928E-02 0.  1.
        1   -1    0    0  501    0  0.00000000000E+00  0.00000000000E+00 -0.20221324321E+04  0.20221324321E+04  0.50400001928E-02 0. -1.
    10030    2    1    2    0    0  0.00000000000E+00  0.00000000000E+00 -0.72723292656E+03  0.33170319377E+04  0.32363301973E+04 0.  0.
        4    1    3    3  502    0  0.11898468317E+04 -0.10885520578E+04 -0.22696664397E+03  0.16285565805E+04  0.12699999809E+01 0. -1.
       -4    1    3    3    0  502 -0.11898468317E+04  0.10885520578E+04 -0.50026628259E+03  0.16884753572E+04  0.12699999809E+01 0.  1.
</event>
<event>
 5   0  0.1198763E-06  0.3031812E+04  0.7818609E-02  0.8234705E-01
        1   -1    0    0  501    0  0.00000000000E+00  0.00000000000E+00  0.14973537703E+04  0.14973537703E+04  0.50400001928E-02 0. -1.
       -1   -1    0    0    0  501  0.00000000000E+00  0.00000000000E+00 -0.15346883997E+04  0.15346883997E+04  0.50400001928E-02 0.  1.
    10030    2    1    2    0    0  0.00000000000E+00  0.00000000000E+00 -0.37334629436E+02  0.30320421700E+04  0.30318123039E+04 0.  0.
        1    1    3    3  502    0 -0.42662035847E+03 -0.12473320198E+04 -0.76714196537E+03  0.15252373235E+04  0.50400001928E-02 0. -1.
       -1    1    3    3    0  502  0.42662035847E+03  0.12473320198E+04  0.72980733594E+03  0.15068048465E+04  0.50400001928E-02 0.  1.
</event>
<event>
 5   0  0.3374790E-06  0.3113046E+04  0.7818609E-02  0.8212167E-01
        2   -1    0    0  501    0  0.00000000000E+00  0.00000000000E+00  0.13988360790E+04  0.13988360790E+04  0.25500000920E-02 0. -1.
       -2   -1    0    0    0  501  0.00000000000E+00  0.00000000000E+00 -0.17319858771E+04  0.17319858771E+04  0.25500000920E-02 0.  1.
    10030    2    1    2    0    0  0.00000000000E+00  0.00000000000E+00 -0.33314979814E+03  0.31308219561E+04  0.31130463107E+04 0.  0.
        2    1    3    3  502    0  0.85720646152E+03  0.62062622884E+03 -0.13144881805E+04  0.16875600761E+04  0.25500000920E-02 0.  1.
       -2    1    3    3    0  502 -0.85720646152E+03 -0.62062622884E+03  0.98133838238E+03  0.14432618800E+04  0.25500000920E-02 0. -1.
</event>
<event>
 5   0  0.1211008E-06  0.3074739E+04  0.7818609E-02  0.8222705E-01
       -1   -1    0    0    0  501  0.00000000000E+00  0.00000000000E+00  0.93450966222E+03  0.93450966224E+03  0.50400001928E-02 0.  1.
        1   -1    0    0  501    0  0.00000000000E+00  0.00000000000E+00 -0.25291386641E+04  0.25291386641E+04  0.50400001928E-02 0. -1.
    10030    2    1    2    0    0  0.00000000000E+00  0.00000000000E+00 -0.15946290019E+04  0.34636483263E+04  0.30747387003E+04 0.  0.
        3    1    3    3  502    0 -0.52927601956E+03 -0.52500052522E+03  0.71727263274E+03  0.10345234150E+04  0.10100000352E+00 0.  1.
       -3    1    3    3    0  502  0.52927601956E+03  0.52500052522E+03 -0.23119016346E+04  0.24291249113E+04  0.10100000352E+00 0. -1.
</event>
<event>
 5   0  0.3340899E-06  0.3165710E+04  0.7818609E-02  0.8197932E-01
       -2   -1    0    0    0  501  0.00000000000E+00  0.00000000000E+00  0.13217164289E+04  0.13217164289E+04  0.25500000920E-02 0. -1.
        2   -1    0    0  501    0  0.00000000000E+00  0.00000000000E+00 -0.18955879908E+04  0.18955879908E+04  0.25500000920E-02 0.  1.
    10030    2    1    2    0    0  0.00000000000E+00  0.00000000000E+00 -0.57387156190E+03  0.32173044197E+04  0.31657098982E+04 0.  0.
        3    1    3    3  502    0  0.49639044769E+03 -0.13946354976E+04  0.28257035060E+03  0.15070692290E+04  0.10100000352E+00 0.  1.
       -3    1    3    3    0  502 -0.49639044769E+03  0.13946354976E+04 -0.85644191250E+03  0.17102351907E+04  0.10100000352E+00 0. -1.
</event>
<event>
 5   0  0.1198763E-06  0.3078156E+04  0.7818609E-02  0.8221759E-01
        1   -1    0    0  501    0  0.00000000000E+00  0.00000000000E+00  0.15534637137E+04  0.15534637137E+04  0.50400001928E-02 0.  1.
       -1   -1    0    0    0  501  0.00000000000E+00  0.00000000000E+00 -0.15248252272E+04  0.15248252272E+04  0.50400001928E-02 0. -1.
    10030    2    1    2    0    0  0.00000000000E+00  0.00000000000E+00  0.28638486423E+02  0.30782889409E+04  0.30781557207E+04 0.  0.
        1    1    3    3  502    0  0.66855181783E+03  0.13697138521E+04  0.22806452318E+03  0.15411330236E+04  0.50400001928E-02 0.  1.
       -1    1    3    3    0  502 -0.66855181783E+03 -0.13697138521E+04 -0.19942603676E+03  0.15371559173E+04  0.50400001928E-02 0. -1.
</event>
<event>
 5   0  0.3374790E-06  0.3315145E+04  0.7818609E-02  0.8159052E-01
       -2   -1    0    0    0  501  0.00000000000E+00  0.00000000000E+00  0.22629961974E+04  0.22629961974E+04  0.25500000920E-02 0. -1.
        2   -1    0    0  501    0  0.00000000000E+00  0.00000000000E+00 -0.12141192388E+04  0.12141192389E+04  0.25500000920E-02 0.  1.
    10030    2    1    2    0    0  0.00000000000E+00  0.00000000000E+00  0.10488769585E+04  0.34771154362E+04  0.33151453788E+04 0.  0.
        2    1    3    3  502    0  0.88254806772E+03  0.61284388453E+03 -0.79940036258E+03  0.13392197946E+04  0.25500000920E-02 0.  1.
       -2    1    3    3    0  502 -0.88254806772E+03 -0.61284388453E+03  0.18482773211E+04  0.21378956416E+04  0.25500000920E-02 0. -1.
</event>
<event>
 5   0  0.1171915E-06  0.3102066E+04  0.7818609E-02  0.8215171E-01
        1   -1    0    0  501    0  0.00000000000E+00  0.00000000000E+00  0.23614576290E+04  0.23614576290E+04  0.50400001928E-02 0. -1.
       -1   -1    0    0    0  501  0.00000000000E+00  0.00000000000E+00 -0.10187366155E+04  0.10187366155E+04  0.50400001928E-02 0.  1.
    10030    2    1    2    0    0  0.00000000000E+00  0.00000000000E+00  0.13427210135E+04  0.33801942446E+04  0.31020659907E+04 0.  0.
        2    1    3    3  502    0  0.73581088975E+03 -0.79334040874E+03  0.18822539780E+04  0.21711026478E+04  0.25500000920E-02 0. -1.
       -2    1    3    3    0  502 -0.73581088975E+03  0.79334040874E+03 -0.53953296447E+03  0.12090915968E+04  0.25500000920E-02 0.  1.
</event>
<event>
 5   0  0.3340899E-06  0.3100862E+04  0.7818609E-02  0.8215501E-01
       -2   -1    0    0    0  501  0.00000000000E+00  0.00000000000E+00  0.12861431251E+04  0.12861431251E+04  0.25500000920E-02 0. -1.
        2   -1    0    0  501    0  0.00000000000E+00  0.00000000000E+00 -0.18690275763E+04  0.18690275763E+04  0.25500000920E-02 0.  1.
    10030    2    1    2    0    0  0.00000000000E+00  0.00000000000E+00 -0.58288445121E+03  0.31551707014E+04  0.31008624399E+04 0.  0.
        3    1    3    3  502    0  0.52991516697E+03 -0.11540485585E+04 -0.11965143088E+04  0.17447878555E+04  0.10100000352E+00 0.  1.
       -3    1    3    3    0  502 -0.52991516697E+03  0.11540485585E+04  0.61362985758E+03  0.14103828458E+04  0.10100000352E+00 0. -1.
</event>
<event>
 5   0  0.3441897E-06  0.3079732E+04  0.7818609E-02  0.8221322E-01
        2   -1    0    0  501    0  0.00000000000E+00  0.00000000000E+00  0.17631135335E+04  0.17631135335E+04  0.25500000920E-02 0. -1.
       -2   -1    0    0    0  501  0.00000000000E+00  0.00000000000E+00 -0.13448864947E+04  0.13448864947E+04  0.25500000920E-02 0.  1.
    10030    2    1    2    0    0  0.00000000000E+00  0.00000000000E+00  0.41822703880E+03  0.31080000283E+04  0.30797321831E+04 0.  0.
        5    1    3    3  502    0  0.11872568421E+04  0.91429003353E+03 -0.14862632039E+03  0.15058608660E+04  0.46999998093E+01 0. -1.
       -5    1    3    3    0  502 -0.11872568421E+04 -0.91429003353E+03  0.56685335919E+03  0.16021391623E+04  0.46999998093E+01 0.  1.
</event>
<event>
 5   0  0.1171915E-06  0.3101608E+04  0.7818609E-02  0.8215297E-01
       -1   -1    0    0    0  501  0.00000000000E+00  0.00000000000E+00  0.11995704240E+04  0.11995704241E+04  0.50400001928E-02 0.  1.
        1   -1    0    0  501    0  0.00000000000E+00  0.00000000000E+00 -0.20048780838E+04  0.20048780838E+04  0.50400001928E-02 0. -1.
    10030    2    1    2    0    0  0.00000000000E+00  0.00000000000E+00 -0.80530765978E+03  0.32044485079E+04  0.31016076175E+04 0.  0.
        2    1    3    3  502    0  0.46856922922E+03 -0.35817125887E+03 -0.18844869023E+04  0.19746226622E+04  0.25500000920E-02 0. -1.
       -2    1    3    3    0  502 -0.46856922922E+03  0.35817125887E+03  0.10791792425E+04  0.12298258457E+04  0.25500000920E-02 0.  1.
</event>
<event>
 5   0  0.3340899E-06  0.3002130E+04  0.7818609E-02  0.8243123E-01
       -2   -1    0    0    0  501  0.00000000000E+00  0.00000000000E+00  0.11312059359E+04  0.11312059359E+04  0.25500000920E-02 0. -1.
        2   -1    0    0  501    0  0.00000000000E+00  0.00000000000E+00 -0.19918530800E+04  0.19918530800E+04  0.25500000920E-02 0.  1.
    10030    2    1    2    0    0  0.00000000000E+00  0.00000000000E+00 -0.86064714411E+03  0.31230590159E+04  0.30021299290E+04 0.  0.
        3    1    3    3  502    0  0.89168030731E+01 -0.14453678014E+04 -0.85164181739E+03  0.16776356535E+04  0.10100000352E+00 0.  1.
       -3    1    3    3    0  502 -0.89168030731E+01  0.14453678014E+04 -0.90053267178E+01  0.14454233624E+04  0.10100000352E+00 0. -1.
</event>
<event>
 5   0  0.3445410E-06  0.3105404E+04  0.7818609E-02  0.8214257E-01
        2   -1    0    0  501    0  0.00000000000E+00  0.00000000000E+00  0.14334945182E+04  0.14334945182E+04  0.25500000920E-02 0. -1.
       -2   -1    0    0    0  501  0.00000000000E+00  0.00000000000E+00 -0.16818220802E+04  0.16818220802E+04  0.25500000920E-02 0.  1.
    10030    2    1    2    0    0  0.00000000000E+00  0.00000000000E+00 -0.24832756198E+03  0.31153165984E+04  0.31054035052E+04 0.  0.
        1    1    3    3  502    0  0.14462707305E+04  0.49841487971E+03 -0.39103235726E+03  0.15789308796E+04  0.50400001928E-02 0. -1.
       -1    1    3    3    0  502 -0.14462707305E+04 -0.49841487971E+03  0.14270479528E+03  0.15363857188E+04  0.50400001928E-02 0.  1.
</event>
<event>
 5   0  0.1250276E-06  0.3062657E+04  0.7818609E-02  0.8226062E-01
       -1   -1    0    0    0  501  0.00000000000E+00  0.00000000000E+00  0.81393350622E+03  0.81393350623E+03  0.50400001928E-02 0. -1.
        1   -1    0    0  501    0  0.00000000000E+00  0.00000000000E+00 -0.28810310889E+04  0.28810310889E+04  0.50400001928E-02 0.  1.
    10030    2    1    2    0    0  0.00000000000E+00  0.00000000000E+00 -0.20670975827E+04  0.36949645952E+04  0.30626574969E+04 0.  0.
        5    1    3    3  502    0  0.49291461312E+03 -0.57300015781E+03  0.57319271722E+03  0.94861265949E+03  0.46999998093E+01 0. -1.
       -5    1    3    3    0  502 -0.49291461312E+03  0.57300015781E+03 -0.26402902999E+04  0.27463519357E+04  0.46999998093E+01 0.  1.
</event>
<event>
 5   0  0.3340899E-06  0.3117433E+04  0.7818609E-02  0.8210970E-01
        2   -1    0    0  501    0  0.00000000000E+00  0.00000000000E+00  0.10287592534E+04  0.10287592534E+04  0.25500000920E-02 0. -1.
       -2   -1    0    0    0  501  0.00000000000E+00  0.00000000000E+00 -0.23616771005E+04  0.23616771005E+04  0.25500000920E-02 0.  1.
    10030    2    1    2    0    0  0.00000000000E+00  0.00000000000E+00 -0.13329178471E+04  0.33904363538E+04  0.31174330277E+04 0.  0.
        3    1    3    3  502    0  0.13914719003E+04  0.53300217638E+02  0.95278869490E+02  0.13957481992E+04  0.10100000352E+00 0.  1.
       -3    1    3    3    0  502 -0.13914719003E+04 -0.53300217638E+02 -0.14281967166E+04  0.19946881546E+04  0.10100000352E+00 0. -1.
</event>
<event>
 5   0  0.1235960E-06  0.3086982E+04  0.7818609E-02  0.8219320E-01
        1   -1    0    0  501    0  0.00000000000E+00  0.00000000000E+00  0.12209348592E+04  0.12209348592E+04  0.50400001928E-02 0. -1.
       -1   -1    0    0    0  501  0.00000000000E+00  0.00000000000E+00 -0.19512626702E+04  0.19512626702E+04  0.50400001928E-02 0.  1.
    10030    2    1    2    0    0  0.00000000000E+00  0.00000000000E+00 -0.73032781095E+03  0.31721975294E+04  0.30869820949E+04 0.  0.
        4    1    3    3  502    0  0.61232282393E+03 -0.86372831773E+03 -0.15192867442E+04  0.18518098368E+04  0.12699999809E+01 0.  1.
       -4    1    3    3    0  502 -0.61232282393E+03  0.86372831773E+03  0.78895893326E+03  0.13203876926E+04  0.12699999809E+01 0. -1.
</event>
<event>
 5   0  0.1198763E-06  0.3070378E+04  0.7818609E-02  0.8223915E-01
        1   -1    0    0  501    0  0.00000000000E+00  0.00000000000E+00  0.14276203793E+04  0.14276203794E+04  0.50400001928E-02 0. -1.
       -1   -1    0    0    0  501  0.00000000000E+00  0.00000000000E+00 -0.16508623794E+04  0.16508623794E+04  0.50400001928E-02 0.  1.
    10030    2    1    2    0    0  0.00000000000E+00  0.00000000000E+00 -0.22324200002E+03  0.30784827587E+04  0.30703776812E+04 0.  0.
        1    1    3    3  502    0 -0.45185070707E+03 -0.13722437939E+04 -0.63220512734E+03  0.15769925220E+04  0.50400001928E-02 0.  1.
       -1    1    3    3    0  502  0.45185070707E+03  0.13722437939E+04  0.40896312732E+03  0.15014902367E+04  0.50400001928E-02 0. -1.
</event>
<event>
 5   0  0.1211008E-06  0.3108508E+04  0.7818609E-02  0.8213407E-01
        1   -1    0    0  501    0  0.00000000000E+00  0.00000000000E+00  0.19628494190E+04  0.19628494190E+04  0.50400001928E-02 0. -1.
       -1   -1    0    0    0  501  0.00000000000E+00  0.00000000000E+00 -0.12307139180E+04  0.12307139180E+04  0.50400001928E-02 0.  1.
    10030    2    1    2    0    0  0.00000000000E+00  0.00000000000E+00  0.73213550103E+03  0.31935633370E+04  0.31085083875E+04 0.  0.
        3    1    3    3  502    0 -0.76054392799E+03  0.66662576277E+03  0.15785677929E+04  0.18747515198E+04  0.10100000352E+00 0. -1.
       -3    1    3    3    0  502  0.76054392799E+03 -0.66662576277E+03 -0.84643229192E+03  0.13188118171E+04  0.10100000352E+00 0.  1.
</event>
<event>
 5   0  0.3445959E-06  0.3103453E+04  0.7818609E-02  0.8214791E-01
       -2   -1    0    0    0  501  0.00000000000E+00  0.00000000000E+00  0.16680090335E+04  0.16680090335E+04  0.25500000920E-02 0. -1.
        2   -1    0    0  501    0  0.00000000000E+00  0.00000000000E+00 -0.14435508038E+04  0.14435508038E+04  0.25500000920E-02 0.  1.
    10030    2    1    2    0    0  0.00000000000E+00  0.00000000000E+00  0.22445822973E+03  0.31115598374E+04  0.31034534191E+04 0.  0.
        4    1    3    3  502    0 -0.36148977236E+03  0.36781269579E+03  0.15795727250E+04  0.16616295139E+04  0.12699999809E+01 0. -1.
       -4    1    3    3    0  502  0.36148977236E+03 -0.36781269579E+03 -0.13551144953E+04  0.14499303235E+04  0.12699999809E+01 0.  1.
</event>
<event>
 5   0  0.3445959E-06  0.2983210E+04  0.7818609E-02  0.8248542E-01
       -2   -1    0    0    0  501  0.00000000000E+00  0.00000000000E+00  0.16980518963E+04  0.16980518963E+04  0.25500000920E-02 0.  1.
        2   -1    0    0  501    0  0.00000000000E+00  0.00000000000E+00 -0.13102578297E+04  0.13102578297E+04  0.25500000920E-02 0. -1.
    10030    2    1    2    0    0  0.00000000000E+00  0.00000000000E+00  0.38779406658E+03  0.30083097261E+04  0.29832102122E+04 0.  0.
        4    1    3    3  502    0 -0.39317267153E+03 -0.55730447927E+02 -0.12559736255E+04  0.13172554777E+04  0.12699999809E+01 0. -1.
       -4    1    3    3    0  502  0.39317267153E+03  0.55730447927E+02  0.16437676921E+04  0.16910542484E+04  0.12699999809E+01 0.  1.
</event>
<event>
 5   0  0.1171915E-06  0.3095322E+04  0.7818609E-02  0.8217023E-01
       -1   -1    0    0    0  501  0.00000000000E+00  0.00000000000E+00  0.12069457639E+04  0.12069457639E+04  0.50400001928E-02 0.  1.
        1   -1    0    0  501    0  0.00000000000E+00  0.00000000000E+00 -0.19845586162E+04  0.19845586162E+04  0.50400001928E-02 0. -1.
    10030    2    1    2    0    0  0.00000000000E+00  0.00000000000E+00 -0.77761285231E+03  0.31915043802E+04  0.30953220286E+04 0.  0.
        2    1    3    3  502    0 -0.10318568306E+04 -0.11271503251E+04 -0.13612349240E+03  0.15341857708E+04  0.25500000920E-02 0. -1.
       -2    1    3    3    0  502  0.10318568306E+04  0.11271503251E+04 -0.64148935991E+03  0.16573186094E+04  0.25500000920E-02 0.  1.
</event>
<event>
 5   0  0.1250276E-06  0.3087655E+04  0.7818609E-02  0.8219134E-01
        1   -1    0    0  501    0  0.00000000000E+00  0.00000000000E+00  0.15964923196E+04  0.15964923196E+04  0.50400001928E-02 0. -1.
       -1   -1    0    0    0  501  0.00000000000E+00  0.00000000000E+00 -0.14929001382E+04  0.14929001383E+04  0.50400001928E-02 0.  1.
    10030    2    1    2    0    0  0.00000000000E+00  0.00000000000E+00  0.10359218139E+03  0.30893924579E+04  0.30876551652E+04 0.  0.
        5    1    3    3  502    0  0.54865257523E+03 -0.18997394224E+03 -0.13794883382E+04  0.14967030140E+04  0.46999998093E+01 0.  1.
       -5    1    3    3    0  502 -0.54865257523E+03  0.18997394224E+03  0.14830805196E+04  0.15926894439E+04  0.46999998093E+01 0. -1.
</event>
<event>
 5   0  0.1250276E-06  0.3071926E+04  0.7818609E-02  0.8223485E-01
        1   -1    0    0  501    0  0.00000000000E+00  0.00000000000E+00  0.12137605814E+04  0.12137605814E+04  0.50400001928E-02 0. -1.
       -1   -1    0    0    0  501  0.00000000000E+00  0.00000000000E+00 -0.19436960549E+04  0.19436960549E+04  0.50400001928E-02 0.  1.
    10030    2    1    2    0    0  0.00000000000E+00  0.00000000000E+00 -0.72993547350E+03  0.31574566363E+04  0.30719255548E+04 0.  0.
        5    1    3    3  502    0 -0.44866699850E+03 -0.17746755060E+03 -0.18637736107E+04  0.19252197197E+04  0.46999998093E+01 0.  1.
       -5    1    3    3    0  502  0.44866699850E+03  0.17746755060E+03  0.11338381372E+04  0.12322369166E+04  0.46999998093E+01 0. -1.
</event>
<event>
 5   0  0.3374790E-06  0.3222102E+04  0.7818609E-02  0.8183004E-01
       -2   -1    0    0    0  501  0.00000000000E+00  0.00000000000E+00  0.24818814922E+04  0.24818814922E+04  0.25500000920E-02 0.  1.
        2   -1    0    0  501    0  0.00000000000E+00  0.00000000000E+00 -0.10457734781E+04  0.10457734781E+04  0.25500000920E-02 0. -1.
    10030    2    1    2    0    0  0.00000000000E+00  0.00000000000E+00  0.14361080141E+04  0.35276549703E+04  0.32221023201E+04 0.  0.
        2    1    3    3  502    0  0.97134921898E+03  0.55998371571E+03 -0.54853952906E+03  0.12481973730E+04  0.25500000920E-02 0. -1.
       -2    1    3    3    0  502 -0.97134921898E+03 -0.55998371571E+03  0.19846475432E+04  0.22794575973E+04  0.25500000920E-02 0.  1.
</event>
<event>
 5   0  0.3340899E-06  0.3062912E+04  0.7818609E-02  0.8225991E-01
       -2   -1    0    0    0  501  0.00000000000E+00  0.00000000000E+00  0.11691266964E+04  0.11691266964E+04  0.25500000920E-02 0. -1.
        2   -1    0    0  501    0  0.00000000000E+00  0.00000000000E+00 -0.20060767893E+04  0.20060767893E+04  0.25500000920E-02 0.  1.
    10030    2    1    2    0    0  0.00000000000E+00  0.00000000000E+00 -0.83695009290E+03  0.31752034857E+04  0.30629122935E+04 0.  0.
        3    1    3    3  502    0  0.63750124227E+02  0.61961850641E+03  0.10318759068E+04  0.12053045545E+04  0.10100000352E+00 0. -1.
       -3    1    3    3    0  502 -0.63750124227E+02 -0.61961850641E+03 -0.18688259997E+04  0.19698989312E+04  0.10100000352E+00 0.  1.
</event>
<event>
 5   0  0.3445410E-06  0.3086122E+04  0.7818609E-02  0.8219557E-01
        2   -1    0    0  501    0  0.00000000000E+00  0.00000000000E+00  0.17826869954E+04  0.17826869954E+04  0.25500000920E-02 0. -1.
       -2   -1    0    0    0  501  0.00000000000E+00  0.00000000000E+00 -0.13356453962E+04  0.13356453962E+04  0.25500000920E-02 0.  1.
    10030    2    1    2    0    0  0.00000000000E+00  0.00000000000E+00  0.44704159923E+03  0.31183323916E+04  0.30861222777E+04 0.  0.
        1    1    3    3  502    0  0.64288264567E+03  0.32880426475E+03 -0.11543935958E+04  0.13616295071E+04  0.50400001928E-02 0.  1.
       -1    1    3    3    0  502 -0.64288264567E+03 -0.32880426475E+03  0.16014351950E+04  0.17567028845E+04  0.50400001928E-02 0. -1.
</event>
<event>
 5   0  0.3374790E-06  0.3096911E+04  0.7818609E-02  0.8216586E-01
       -2   -1    0    0    0  501  0.00000000000E+00  0.00000000000E+00  0.13218793095E+04  0.13218793095E+04  0.25500000920E-02 0.  1.
        2   -1    0    0  501    0  0.00000000000E+00  0.00000000000E+00 -0.18138679264E+04  0.18138679264E+04  0.25500000920E-02 0. -1.
    10030    2    1    2    0    0  0.00000000000E+00  0.00000000000E+00 -0.49198861687E+03  0.31357472359E+04  0.30969110301E+04 0.  0.
        2    1    3    3  502    0  0.94354924248E+03 -0.12274708353E+04 -0.27362492828E+03  0.15722087730E+04  0.25500000920E-02 0. -1.
       -2    1    3    3    0  502 -0.94354924248E+03  0.12274708353E+04 -0.21836368859E+03  0.15635384629E+04  0.25500000920E-02 0.  1.
</event>
<event>
 5   0  0.3340899E-06  0.3030896E+04  0.7818609E-02  0.8234963E-01
       -2   -1    0    0    0  501  0.00000000000E+00  0.00000000000E+00  0.13614438840E+04  0.13614438840E+04  0.25500000920E-02 0.  1.
        2   -1    0    0  501    0  0.00000000000E+00  0.00000000000E+00 -0.16868722682E+04  0.16868722682E+04  0.25500000920E-02 0. -1.
    10030    2    1    2    0    0  0.00000000000E+00  0.00000000000E+00 -0.32542838417E+03  0.30483161522E+04  0.30308955328E+04 0.  0.
        3    1    3    3  502    0  0.13316082551E+04 -0.76879980509E+02 -0.88621725774E+03  0.16013969260E+04  0.10100000352E+00 0. -1.
       -3    1    3    3    0  502 -0.13316082551E+04  0.76879980509E+02  0.56078887357E+03  0.14469192262E+04  0.10100000352E+00 0.  1.
</event>
<event>
 5   0  0.1250276E-06  0.3101846E+04  0.7818609E-02  0.8215231E-01
        1   -1    0    0  501    0  0.00000000000E+00  0.00000000000E+00  0.10880897490E+04  0.10880897490E+04  0.50400001928E-02 0.  1.
       -1   -1    0    0    0  501  0.00000000000E+00  0.00000000000E+00 -0.22106285877E+04  0.22106285877E+04  0.50400001928E-02 0. -1.
    10030    2    1    2    0    0  0.00000000000E+00  0.00000000000E+00 -0.11225388388E+04  0.32987183367E+04  0.31018460988E+04 0.  0.
        5    1    3    3  502    0  0.12650586419E+04 -0.67994376603E+03 -0.11837791222E+04  0.18611963874E+04  0.46999998093E+01 0.  1.
       -5    1    3    3    0  502 -0.12650586419E+04  0.67994376603E+03  0.61240283444E+02  0.14375219493E+04  0.46999998093E+01 0. -1.
</event>
<event>
 5   0  0.3441897E-06  0.3048417E+04  0.7818609E-02  0.8230039E-01
        2   -1    0    0  501    0  0.00000000000E+00  0.00000000000E+00  0.79374170620E+03  0.79374170621E+03  0.25500000920E-02 0.  1.
       -2   -1    0    0    0  501  0.00000000000E+00  0.00000000000E+00 -0.29269112842E+04  0.29269112842E+04  0.25500000920E-02 0. -1.
    10030    2    1    2    0    0  0.00000000000E+00  0.00000000000E+00 -0.21331695780E+04  0.37206529904E+04  0.30484170034E+04 0.  0.
        5    1    3    3  502    0 -0.94160052860E+03 -0.40705092945E+03  0.30935154027E+03  0.10714581094E+04  0.46999998093E+01 0.  1.
       -5    1    3    3    0  502  0.94160052860E+03  0.40705092945E+03 -0.24425211182E+04  0.26491948810E+04  0.46999998093E+01 0. -1.
</event>
<event>
 5   0  0.1250276E-06  0.3056161E+04  0.7818609E-02  0.8227873E-01
       -1   -1    0    0    0  501  0.00000000000E+00  0.00000000000E+00  0.10620543289E+04  0.10620543289E+04  0.50400001928E-02 0.  1.
        1   -1    0    0  501    0  0.00000000000E+00  0.00000000000E+00 -0.21985971449E+04  0.21985971449E+04  0.50400001928E-02 0. -1.
    10030    2    1    2    0    0  0.00000000000E+00  0.00000000000E+00 -0.11365428160E+04  0.32606514738E+04  0.30561607387E+04 0.  0.
        5    1    3    3  502    0  0.13202790245E+04 -0.74671414308E+03 -0.37070895816E+03  0.15614627551E+04  0.46999998093E+01 0.  1.
       -5    1    3    3    0  502 -0.13202790245E+04  0.74671414308E+03 -0.76583385783E+03  0.16991887187E+04  0.46999998093E+01 0. -1.
</event>
<event>
 5   0  0.1211008E-06  0.3114215E+04  0.7818609E-02  0.8211848E-01
        1   -1    0    0  501    0  0.00000000000E+00  0.00000000000E+00  0.23307315562E+04  0.23307315562E+04  0.50400001928E-02 0.  1.
       -1   -1    0    0    0  501  0.00000000000E+00  0.00000000000E+00 -0.10402673253E+04  0.10402673253E+04  0.50400001928E-02 0. -1.
    10030    2    1    2    0    0  0.00000000000E+00  0.00000000000E+00  0.12904642309E+04  0.33709988815E+04  0.31142150741E+04 0.  0.
        3    1    3    3  502    0  0.65345755450E+03 -0.13021290251E+04  0.50337345834E+02  0.14577656300E+04  0.10100000352E+00 0. -1.
       -3    1    3    3    0  502 -0.65345755450E+03  0.13021290251E+04  0.12401268850E+04  0.19132332515E+04  0.10100000352E+00 0.  1.
</event>
<event>
 5   0  0.3340899E-06  0.3098891E+04  0.7818609E-02  0.8216042E-01
       -2   -1    0    0    0  501  0.00000000000E+00  0.00000000000E+00  0.11144206003E+04  0.11144206003E+04  0.25500000920E-02 0.  1.
        2   -1    0    0  501    0  0.00000000000E+00  0.00000000000E+00 -0.21542866255E+04  0.21542866255E+04  0.25500000920E-02 0. -1.
    10030    2    1    2    0    0  0.00000000000E+00  0.00000000000E+00 -0.10398660252E+04  0.32687072258E+04  0.30988910239E+04 0.  0.
        3    1    3    3  502    0 -0.78397326080E+03  0.13042376960E+04 -0.82769463407E+03  0.17322610827E+04  0.10100000352E+00 0.  1.
       -3    1    3    3    0  502  0.78397326080E+03 -0.13042376960E+04 -0.21217139111E+03  0.15364461431E+04  0.10100000352E+00 0. -1.
</event>
<event>
 5   0  0.1198763E-06  0.3099814E+04  0.7818609E-02  0.8215789E-01
        1   -1    0    0  501    0  0.00000000000E+00  0.00000000000E+00  0.16365530926E+04  0.16365530927E+04  0.50400001928E-02 0.  1.
       -1   -1    0    0    0  501  0.00000000000E+00  0.00000000000E+00 -0.14678480144E+04  0.14678480144E+04  0.50400001928E-02 0. -1.
    10030    2    1    2    0    0  0.00000000000E+00  0.00000000000E+00  0.16870507824E+03  0.31044011071E+04  0.30998136767E+04 0.  0.
        1    1    3    3  502    0  0.12282591784E+04  0.59909704556E+02  0.10291475487E+04  0.16035443427E+04  0.50400001928E-02 0.  1.
       -1    1    3    3    0  502 -0.12282591784E+04 -0.59909704556E+02 -0.86044247047E+03  0.15008567643E+04  0.50400001928E-02 0. -1.
</event>
<event>
 5   0  0.1211008E-06  0.3081327E+04  0.7818609E-02  0.8220881E-01
        1   -1    0    0  501    0  0.00000000000E+00  0.00000000000E+00  0.10070884097E+04  0.10070884098E+04  0.50400001928E-02 0.  1.
       -1   -1    0    0    0  501  0.00000000000E+00  0.00000000000E+00 -0.23569365694E+04  0.23569365694E+04  0.50400001928E-02 0. -1.
    10030    2    1    2    0    0  0.00000000000E+00  0.00000000000E+00 -0.13498481597E+04  0.33640249792E+04  0.30813266633E+04 0.  0.
        3    1    3    3  502    0  0.50622310360E+03  0.11704379629E+04  0.26895089312E+03  0.13032733592E+04  0.10100000352E+00 0.  1.
       -3    1    3    3    0  502 -0.50622310360E+03 -0.11704379629E+04 -0.16187990528E+04  0.20607516200E+04  0.10100000352E+00 0. -1.
</event>
<event>
 5   0  0.1235960E-06  0.2915066E+04  0.7818609E-02  0.8268409E-01
       -1   -1    0    0    0  501  0.00000000000E+00  0.00000000000E+00  0.18556341835E+04  0.18556341835E+04  0.50400001928E-02 0.  1.
        1   -1    0    0  501    0  0.00000000000E+00  0.00000000000E+00 -0.11448386617E+04  0.11448386617E+04  0.50400001928E-02 0. -1.
    10030    2    1    2    0    0  0.00000000000E+00  0.00000000000E+00  0.71079552184E+03  0.30004728452E+04  0.29150655260E+04 0.  0.
        4    1    3    3  502    0  0.25190561712E+03  0.11882534107E+04 -0.47380913023E+03  0.13038018687E+04  0.12699999809E+01 0. -1.
       -4    1    3    3    0  502 -0.25190561712E+03 -0.11882534107E+04  0.11846046521E+04  0.16966709765E+04  0.12699999809E+01 0.  1.
</event>
<event>
 5   0  0.1250276E-06  0.3073146E+04  0.7818609E-02  0.8223146E-01
        1   -1    0    0  501    0  0.00000000000E+00  0.00000000000E+00  0.13608248978E+04  0.13608248978E+04  0.50400001928E-02 0.  1.
       -1   -1    0    0    0  501  0.00000000000E+00  0.00000000000E+00 -0.17350191714E+04  0.17350191714E+04  0.50400001928E-02 0. -1.
    10030    2    1    2    0    0  0.00000000000E+00  0.00000000000E+00 -0.37419427363E+03  0.30958440691E+04  0.30731464570E+04 0.  0.
        5    1    3    3  502    0  0.60183043118E+03  0.66230038555E+03  0.10712053537E+04  0.13958311747E+04  0.46999998093E+01 0.  1.
       -5    1    3    3    0  502 -0.60183043118E+03 -0.66230038555E+03 -0.14453996273E+04  0.17000128944E+04  0.46999998093E+01 0. -1.
</event>
<event>
 5   0  0.3445959E-06  0.3099744E+04  0.7818609E-02  0.8215808E-01
        2   -1    0    0  501    0  0.00000000000E+00  0.00000000000E+00  0.23427915804E+04  0.23427915804E+04  0.25500000920E-02 0. -1.
       -2   -1    0    0    0  501  0.00000000000E+00  0.00000000000E+00 -0.10253163787E+04  0.10253163787E+04  0.25500000920E-02 0.  1.
    10030    2    1    2    0    0  0.00000000000E+00  0.00000000000E+00  0.13174752016E+04  0.33681079591E+04  0.30997435890E+04 0.  0.
        4    1    3    3  502    0 -0.71212919907E+03  0.49971645850E+03 -0.73498721140E+03  0.11388820610E+04  0.12699999809E+01 0.  1.
       -4    1    3    3    0  502  0.71212919907E+03 -0.49971645850E+03  0.20524624130E+04  0.22292258981E+04  0.12699999809E+01 0. -1.
</event>
<event>
 5   0  0.3445410E-06  0.2989467E+04  0.7818609E-02  0.8246745E-01
        2   -1    0    0  501    0  0.00000000000E+00  0.00000000000E+00  0.22947491241E+04  0.22947491241E+04  0.25500000920E-02 0. -1.
       -2   -1    0    0    0  501  0.00000000000E+00  0.00000000000E+00 -0.97362659394E+03  0.97362659394E+03  0.25500000920E-02 0.  1.
    10030    2    1    2    0    0  0.00000000000E+00  0.00000000000E+00  0.13211225301E+04  0.32683757180E+04  0.29894673597E+04 0.  0.
        1    1    3    3  502    0 -0.99339497984E+03  0.88298447802E+03  0.14082785898E+04  0.19364255113E+04  0.50400001928E-02 0. -1.
       -1    1    3    3    0  502  0.99339497984E+03 -0.88298447802E+03 -0.87156059651E+02  0.13319502067E+04  0.50400001928E-02 0.  1.
</event>
<event>
 5   0  0.1235960E-06  0.3111043E+04  0.7818609E-02  0.8212714E-01
        1   -1    0    0  501    0  0.00000000000E+00  0.00000000000E+00  0.18726851781E+04  0.18726851781E+04  0.50400001928E-02 0. -1.
       -1   -1    0    0    0  501  0.00000000000E+00  0.00000000000E+00 -0.12920740067E+04  0.12920740067E+04  0.50400001928E-02 0.  1.
    10030    2    1    2    0    0  0.00000000000E+00  0.00000000000E+00  0.58061117143E+03  0.31647591848E+04  0.31110434528E+04 0.  0.
        4    1    3    3  502    0 -0.11509688409E+04 -0.82962821414E+03 -0.35838325460E+03  0.14633702253E+04  0.12699999809E+01 0.  1.
       -4    1    3    3    0  502  0.11509688409E+04  0.82962821414E+03  0.93899442603E+03  0.17013889595E+04  0.12699999809E+01 0. -1.
</event>
<event>
 5   0  0.3374790E-06  0.3080802E+04  0.7818609E-02  0.8221027E-01
        2   -1    0    0  501    0  0.00000000000E+00  0.00000000000E+00  0.14131635560E+04  0.14131635560E+04  0.25500000920E-02 0.  1.
       -2   -1    0    0    0  501  0.00000000000E+00  0.00000000000E+00 -0.16790940186E+04  0.16790940186E+04  0.25500000920E-02 0. -1.
    10030    2    1    2    0    0  0.00000000000E+00  0.00000000000E+00 -0.26593046259E+03  0.30922575745E+04  0.30808015023E+04 0.  0.
        2    1    3    3  502    0  0.39299161899E+03  0.12748963071E+04 -0.90591418560E+03  0.16126014753E+04  0.25500000920E-02 0. -1.
       -2    1    3    3    0  502 -0.39299161899E+03 -0.12748963071E+04  0.63998372301E+03  0.14796560993E+04  0.25500000920E-02 0.  1.
</event>
<event>
 5   0  0.1250276E-06  0.3106165E+04  0.7818609E-02  0.8214048E-01
       -1   -1    0    0    0  501  0.00000000000E+00  0.00000000000E+00  0.22434836582E+04  0.22434836582E+04  0.50400001928E-02 0.  1.
        1   -1    0    0  501    0  0.00000000000E+00  0.00000000000E+00 -0.10751425144E+04  0.10751425144E+04  0.50400001928E-02 0. -1.
    10030    2    1    2    0    0  0.00000000000E+00  0.00000000000E+00  0.11683411438E+04  0.33186261726E+04  0.31061646198E+04 0.  0.
        5    1    3    3  502    0 -0.11698664750E+04  0.84773887222E+03 -0.24717876491E+02  0.14449504588E+04  0.46999998093E+01 0. -1.
       -5    1    3    3    0  502  0.11698664750E+04 -0.84773887222E+03  0.11930590203E+04  0.18736757139E+04  0.46999998093E+01 0.  1.
</event>
<event>
 5   0  0.3374790E-06  0.3032738E+04  0.7818609E-02  0.8234444E-01
       -2   -1    0    0    0  501  0.00000000000E+00  0.00000000000E+00  0.13001131383E+04  0.13001131383E+04  0.25500000920E-02 0. -1.
        2   -1    0    0  501    0  0.00000000000E+00  0.00000000000E+00 -0.17685961210E+04  0.17685961210E+04  0.25500000920E-02 0.  1.
    10030    2    1    2    0    0  0.00000000000E+00  0.00000000000E+00 -0.46848298276E+03  0.30687092593E+04  0.30327380719E+04 0.  0.
        2    1    3    3  502    0  0.13802146880E+04  0.13448273699E+03 -0.85494777039E+03  0.16291144470E+04  0.25500000920E-02 0.  1.
       -2    1    3    3    0  502 -0.13802146880E+04 -0.13448273699E+03  0.38646478763E+03  0.14395948123E+04  0.25500000920E-02 0. -1.
</event>
<event>
 5   0  0.1235960E-06  0.3164713E+04  0.7818609E-02  0.8198199E-01
       -1   -1    0    0    0  501  0.00000000000E+00  0.00000000000E+00  0.12723741040E+04  0.12723741040E+04  0.50400001928E-02 0. -1.
        1   -1    0    0  501    0  0.00000000000E+00  0.00000000000E+00 -0.19678586493E+04  0.19678586493E+04  0.50400001928E-02 0.  1.
    10030    2    1    2    0    0  0.00000000000E+00  0.00000000000E+00 -0.69548454528E+03  0.32402327533E+04  0.31647131849E+04 0.  0.
        4    1    3    3  502    0  0.12631110386E+04 -0.87312317651E+03  0.43551854915E+02  0.15361288859E+04  0.12699999809E+01 0. -1.
       -4    1    3    3    0  502 -0.12631110386E+04  0.87312317651E+03 -0.73903640020E+03  0.17041038674E+04  0.12699999809E+01 0.  1.
</event>
<event>
 5   0  0.1235960E-06  0.3162240E+04  0.7818609E-02  0.8198861E-01
       -1   -1    0    0    0  501  0.00000000000E+00  0.00000000000E+00  0.10569442054E+04  0.10569442054E+04  0.50400001928E-02 0.  1.
        1   -1    0    0  501    0  0.00000000000E+00  0.00000000000E+00 -0.23652526141E+04  0.23652526141E+04  0.50400001928E-02 0. -1.
    10030    2    1    2    0    0  0.00000000000E+00  0.00000000000E+00 -0.13083084087E+04  0.34221968195E+04  0.31622397410E+04 0.  0.
        4    1    3    3  502    0 -0.50449203043E+03  0.20151175060E+03  0.95277478584E+03  0.10967682526E+04  0.12699999809E+01 0.  1.
       -4    1    3    3    0  502  0.50449203043E+03 -0.20151175060E+03 -0.22610831946E+04  0.23254285670E+04  0.12699999809E+01 0. -1.
</event>
<event>
 5   0  0.1171915E-06  0.3114771E+04  0.7818609E-02  0.8211696E-01
        1   -1    0    0  501    0  0.00000000000E+00  0.00000000000E+00  0.18601157542E+04  0.18601157542E+04  0.50400001928E-02 0.  1.
       -1   -1    0    0    0  501  0.00000000000E+00  0.00000000000E+00 -0.13039236073E+04  0.13039236073E+04  0.50400001928E-02 0. -1.
    10030    2    1    2    0    0  0.00000000000E+00  0.00000000000E+00  0.55619214689E+03  0.31640393615E+04  0.31147705175E+04 0.  0.
        2    1    3    3  502    0  0.20007612918E+03  0.40315393839E+02 -0.12902795999E+04  0.13063220256E+04  0.25500000920E-02 0. -1.
       -2    1    3    3    0  502 -0.20007612918E+03 -0.40315393839E+02  0.18464717468E+04  0.18577173359E+04  0.25500000920E-02 0.  1.
</event>
<event>
 5   0  0.3374790E-06  0.3124599E+04  0.7818609E-02  0.8209019E-01
        2   -1    0    0  501    0  0.00000000000E+00  0.00000000000E+00  0.15190639635E+04  0.15190639635E+04  0.25500000920E-02 0. -1.
       -2   -1    0    0    0  501  0.00000000000E+00  0.00000000000E+00 -0.16067656320E+04  0.16067656320E+04  0.25500000920E-02 0.  1.
    10030    2    1    2    0    0  0.00000000000E+00  0.00000000000E+00 -0.87701668471E+02  0.31258295956E+04  0.31245990267E+04 0.  0.
        2    1    3    3  502    0 -0.97923815368E+03  0.30174135902E+03 -0.12236475455E+04  0.15960164551E+04  0.25500000920E-02 0.  1.
       -2    1    3    3    0  502  0.97923815368E+03 -0.30174135902E+03  0.11359458770E+04  0.15298131405E+04  0.25500000920E-02 0. -1.
</event>
<event>
 5   0  0.1109562E-06  0.3243166E+04  0.7818609E-02  0.8177509E-01
       -3   -1    0    0    0  501  0.00000000000E+00  0.00000000000E+00  0.15755597853E+04  0.15755597886E+04  0.10100000352E+00 0. -1.
        3   -1    0    0  501    0  0.00000000000E+00  0.00000000000E+00 -0.16689507343E+04  0.16689507373E+04  0.10100000352E+00 0.  1.
    10030    2    1    2    0    0  0.00000000000E+00  0.00000000000E+00 -0.93390948954E+02  0.32445105259E+04  0.32431661511E+04 0.  0.
        1    1    3    3  502    0 -0.13990990471E+03  0.11480392326E+04  0.10904211135E+04  0.15895241633E+04  0.50400001928E-02 0. -1.
       -1    1    3    3    0  502  0.13990990471E+03 -0.11480392326E+04 -0.11838120625E+04  0.16549863626E+04  0.50400001928E-02 0.  1.
</event>
<event>
 5   0  0.3441897E-06  0.3084561E+04  0.7818609E-02  0.8219988E-01
       -2   -1    0    0    0  501  0.00000000000E+00  0.00000000000E+00  0.14910622423E+04  0.14910622423E+04  0.25500000920E-02 0. -1.
        2   -1    0    0  501    0  0.00000000000E+00  0.00000000000E+00 -0.15952578749E+04  0.15952578749E+04  0.25500000920E-02 0.  1.
    10030    2    1    2    0    0  0.00000000000E+00  0.00000000000E+00 -0.10419563257E+03  0.30863201172E+04  0.30845607687E+04 0.  0.
        5    1    3    3  502    0 -0.70134108626E+03 -0.10284951443E+04 -0.96307035951E+03  0.15739149242E+04  0.46999998093E+01 0.  1.
       -5    1    3    3    0  502  0.70134108626E+03  0.10284951443E+04  0.85887472694E+03  0.15124051930E+04  0.46999998093E+01 0. -1.
</event>
<event>
 5   0  0.3441897E-06  0.3052137E+04  0.7818609E-02  0.8228998E-01
       -2   -1    0    0    0  501  0.00000000000E+00  0.00000000000E+00  0.16558534049E+04  0.16558534049E+04  0.25500000920E-02 0. -1.
        2   -1    0    0  501    0  0.00000000000E+00  0.00000000000E+00 -0.14064562485E+04  0.14064562485E+04  0.25500000920E-02 0.  1.
    10030    2    1    2    0    0  0.00000000000E+00  0.00000000000E+00  0.24939715647E+03  0.30623096534E+04  0.30521371974E+04 0.  0.
        5    1    3    3  502    0  0.42819364886E+02 -0.14545455721E+04  0.58593384101E+03  0.15687182269E+04  0.46999998093E+01 0. -1.
       -5    1    3    3    0  502 -0.42819364886E+02  0.14545455721E+04 -0.33653668454E+03  0.14935914265E+04  0.46999998093E+01 0.  1.
</event>
<event>
 5   0  0.3445959E-06  0.3121299E+04  0.7818609E-02  0.8209917E-01
       -2   -1    0    0    0  501  0.00000000000E+00  0.00000000000E+00  0.13037831551E+04  0.13037831551E+04  0.25500000920E-02 0.  1.
        2   -1    0    0  501    0  0.00000000000E+00  0.00000000000E+00 -0.18681223280E+04  0.18681223280E+04  0.25500000920E-02 0. -1.
    10030    2    1    2    0    0  0.00000000000E+00  0.00000000000E+00 -0.56433917288E+03  0.31719054831E+04  0.31212987188E+04 0.  0.
        4    1    3    3  502    0  0.17464268450E+03 -0.20193663521E+03  0.12804038984E+04  0.13079427464E+04  0.12699999809E+01 0.  1.
       -4    1    3    3    0  502 -0.17464268450E+03  0.20193663521E+03 -0.18447430713E+04  0.18639627367E+04  0.12699999809E+01 0. -1.
</event>
<event>
 5   0  0.1235960E-06  0.3145909E+04  0.7818609E-02  0.8203250E-01
       -1   -1    0    0    0  501  0.00000000000E+00  0.00000000000E+00  0.96224596061E+03  0.96224596063E+03  0.50400001928E-02 0. -1.
        1   -1    0    0  501    0  0.00000000000E+00  0.00000000000E+00 -0.25712610347E+04  0.25712610347E+04  0.50400001928E-02 0.  1.
    10030    2    1    2    0    0  0.00000000000E+00  0.00000000000E+00 -0.16090150741E+04  0.35335069954E+04  0.31459087999E+04 0.  0.
        4    1    3    3  502    0  0.15312328876E+04  0.32365997936E+03 -0.98122621762E+03  0.18472239825E+04  0.12699999809E+01 0.  1.
       -4    1    3    3    0  502 -0.15312328876E+04 -0.32365997936E+03 -0.62778885649E+03  0.16862830129E+04  0.12699999809E+01 0. -1.
</event>
<event>
 5   0  0.1171915E-06  0.3039207E+04  0.7818609E-02  0.8232623E-01
        1   -1    0    0  501    0  0.00000000000E+00  0.00000000000E+00  0.10551408420E+04  0.10551408420E+04  0.50400001928E-02 0. -1.
       -1   -1    0    0    0  501  0.00000000000E+00  0.00000000000E+00 -0.21885178237E+04  0.21885178237E+04  0.50400001928E-02 0.  1.
    10030    2    1    2    0    0  0.00000000000E+00  0.00000000000E+00 -0.11333769816E+04  0.32436586657E+04  0.30392068302E+04 0.  0.
        2    1    3    3  502    0 -0.76771328460E+03 -0.42857431748E+03  0.75609744574E+03  0.11596305362E+04  0.25500000920E-02 0. -1.
       -2    1    3    3    0  502  0.76771328460E+03  0.42857431748E+03 -0.18894744274E+04  0.20840281295E+04  0.25500000920E-02 0.  1.
</event>
<event>
 5   0  0.3374790E-06  0.3094447E+04  0.7818609E-02  0.8217263E-01
        2   -1    0    0  501    0  0.00000000000E+00  0.00000000000E+00  0.18044547076E+04  0.18044547076E+04  0.25500000920E-02 0. -1.
       -2   -1    0    0    0  501  0.00000000000E+00  0.00000000000E+00 -0.13266616359E+04  0.13266616359E+04  0.25500000920E-02 0.  1.
    10030    2    1    2    0    0  0.00000000000E+00  0.00000000000E+00  0.47779307174E+03  0.31311163436E+04  0.30944471780E+04 0.  0.
        2    1    3    3  502    0  0.11615079268E+04  0.10148043660E+04  0.36270773870E+03  0.15844511570E+04  0.25500000920E-02 0. -1.
       -2    1    3    3    0  502 -0.11615079268E+04 -0.10148043660E+04  0.11508533303E+03  0.15466651865E+04  0.25500000920E-02 0.  1.
</event>
<event>
 5   0  0.1171915E-06  0.3077523E+04  0.7818609E-02  0.8221934E-01
       -1   -1    0    0    0  501  0.00000000000E+00  0.00000000000E+00  0.82326195947E+03  0.82326195948E+03  0.50400001928E-02 0. -1.
        1   -1    0    0  501    0  0.00000000000E+00  0.00000000000E+00 -0.28761041551E+04  0.28761041551E+04  0.50400001928E-02 0.  1.
    10030    2    1    2    0    0  0.00000000000E+00  0.00000000000E+00 -0.20528421956E+04  0.36993661146E+04  0.30775231225E+04 0.  0.
        2    1    3    3  502    0  0.83430955749E+03 -0.32542450615E+03 -0.25305879694E+04  0.26843712519E+04  0.25500000920E-02 0.  1.
       -2    1    3    3    0  502 -0.83430955749E+03  0.32542450615E+03  0.47774577380E+03  0.10149948627E+04  0.25500000920E-02 0. -1.
</event>
<event>
 5   0  0.3340899E-06  0.2981054E+04  0.7818609E-02  0.8249162E-01
        2   -1    0    0  501    0  0.00000000000E+00  0.00000000000E+00  0.93519117687E+03  0.93519117687E+03  0.25500000920E-02 0. -1.
       -2   -1    0    0    0  501  0.00000000000E+00  0.00000000000E+00 -0.23756320664E+04  0.23756320664E+04  0.25500000920E-02 0.  1.
    10030    2    1    2    0    0  0.00000000000E+00  0.00000000000E+00 -0.14404408895E+04  0.33108232432E+04  0.29810536043E+04 0.  0.
        3    1    3    3  502    0 -0.13560370830E+04 -0.61862984731E+03 -0.70752437179E+03  0.16498879372E+04  0.10100000352E+00 0.  1.
       -3    1    3    3    0  502  0.13560370830E+04  0.61862984731E+03 -0.73291651769E+03  0.16609353060E+04  0.10100000352E+00 0. -1.
</event>
<event>
 5   0  0.3441897E-06  0.3111297E+04  0.7818609E-02  0.8212644E-01
       -2   -1    0    0    0  501  0.00000000000E+00  0.00000000000E+00  0.10514139029E+04  0.10514139029E+04  0.25500000920E-02 0. -1.
        2   -1    0    0  501    0  0.00000000000E+00  0.00000000000E+00 -0.23017022801E+04  0.23017022801E+04  0.25500000920E-02 0.  1.
    10030    2    1    2    0    0  0.00000000000E+00  0.00000000000E+00 -0.12502883772E+04  0.33531161830E+04  0.31112966928E+04 0.  0.
        5    1    3    3  502    0 -0.14834610911E+02 -0.37075609836E+03 -0.22533050142E+04  0.22836562192E+04  0.46999998093E+01 0.  1.
       -5    1    3    3    0  502  0.14834610911E+02  0.37075609836E+03  0.10030166370E+04  0.10694599639E+04  0.46999998093E+01 0. -1.
</event>
<event>
 5   0  0.1250276E-06  0.3114334E+04  0.7818609E-02  0.8211815E-01
        1   -1    0    0  501    0  0.00000000000E+00  0.00000000000E+00  0.13673679198E+04  0.13673679198E+04  0.50400001928E-02 0.  1.
       -1   -1    0    0    0  501  0.00000000000E+00  0.00000000000E+00 -0.17733113135E+04  0.17733113135E+04  0.50400001928E-02 0. -1.
    10030    2    1    2    0    0  0.00000000000E+00  0.00000000000E+00 -0.40594339369E+03  0.31406792333E+04  0.31143339589E+04 0.  0.
        5    1    3    3  502    0 -0.13496156315E+04 -0.15033632868E+02  0.58016602028E+03  0.14691164229E+04  0.46999998093E+01 0. -1.
       -5    1    3    3    0  502  0.13496156315E+04  0.15033632868E+02 -0.98610941398E+03  0.16715628104E+04  0.46999998093E+01 0.  1.
</event>
<event>
 5   0  0.1211008E-06  0.3068990E+04  0.7818609E-02  0.8224300E-01
        1   -1    0    0  501    0  0.00000000000E+00  0.00000000000E+00  0.12459136409E+04  0.12459136409E+04  0.50400001928E-02 0.  1.
       -1   -1    0    0    0  501  0.00000000000E+00  0.00000000000E+00 -0.18899180304E+04  0.18899180304E+04  0.50400001928E-02 0. -1.
    10030    2    1    2    0    0  0.00000000000E+00  0.00000000000E+00 -0.64400438950E+03  0.31358316713E+04  0.30689898366E+04 0.  0.
        3    1    3    3  502    0  0.32622759087E+03 -0.15694545191E+03 -0.18456599075E+04  0.18808287589E+04  0.10100000352E+00 0. -1.
       -3    1    3    3    0  502 -0.32622759087E+03  0.15694545191E+03  0.12016555180E+04  0.12550029124E+04  0.10100000352E+00 0.  1.
</event>
<event>
 5   0  0.3340899E-06  0.3097266E+04  0.7818609E-02  0.8216489E-01
       -2   -1    0    0    0  501  0.00000000000E+00  0.00000000000E+00  0.15482534363E+04  0.15482534363E+04  0.25500000920E-02 0.  1.
        2   -1    0    0  501    0  0.00000000000E+00  0.00000000000E+00 -0.15490127502E+04  0.15490127502E+04  0.25500000920E-02 0. -1.
    10030    2    1    2    0    0  0.00000000000E+00  0.00000000000E+00 -0.75931382174E+00  0.30972661865E+04  0.30972660934E+04 0.  0.
        3    1    3    3  502    0  0.99377402671E+03  0.49836536481E+03  0.10777249391E+04  0.15483687893E+04  0.10100000352E+00 0.  1.
       -3    1    3    3    0  502 -0.99377402671E+03 -0.49836536481E+03 -0.10784842529E+04  0.15488973972E+04  0.10100000352E+00 0. -1.
</event>
<event>
 5   0  0.3445410E-06  0.3089888E+04  0.7818609E-02  0.8218519E-01
       -2   -1    0    0    0  501  0.00000000000E+00  0.00000000000E+00  0.13405115144E+04  0.13405115144E+04  0.25500000920E-02 0. -1.
        2   -1    0    0  501    0  0.00000000000E+00  0.00000000000E+00 -0.17805528604E+04  0.17805528604E+04  0.25500000920E-02 0.  1.
    10030    2    1    2    0    0  0.00000000000E+00  0.00000000000E+00 -0.44004134592E+03  0.31210643748E+04  0.30898877723E+04 0.  0.
        1    1    3    3  502    0  0.35328086793E+02  0.11034654112E+04  0.87160922779E+03  0.14066224204E+04  0.50400001928E-02 0. -1.
       -1    1    3    3    0  502 -0.35328086793E+02 -0.11034654112E+04 -0.13116505737E+04  0.17144419544E+04  0.50400001928E-02 0.  1.
</event>
<event>
 5   0  0.3445410E-06  0.3098629E+04  0.7818609E-02  0.8216114E-01
        2   -1    0    0  501    0  0.00000000000E+00  0.00000000000E+00  0.23140796421E+04  0.23140796421E+04  0.25500000920E-02 0. -1.
       -2   -1    0    0    0  501  0.00000000000E+00  0.00000000000E+00 -0.10372917857E+04  0.10372917857E+04  0.25500000920E-02 0.  1.
    10030    2    1    2    0    0  0.00000000000E+00  0.00000000000E+00  0.12767878563E+04  0.33513714278E+04  0.30986292481E+04 0.  0.
        1    1    3    3  502    0  0.14418520055E+04  0.28410768673E+03  0.11690465521E+04  0.18778509590E+04  0.50400001928E-02 0. -1.
       -1    1    3    3    0  502 -0.14418520055E+04 -0.28410768673E+03  0.10774130428E+03  0.14735204688E+04  0.50400001928E-02 0.  1.
</event>
<event>
 5   0  0.3374790E-06  0.3131291E+04  0.7818609E-02  0.8207203E-01
       -2   -1    0    0    0  501  0.00000000000E+00  0.00000000000E+00  0.16037532335E+04  0.16037532335E+04  0.25500000920E-02 0.  1.
        2   -1    0    0  501    0  0.00000000000E+00  0.00000000000E+00 -0.15284427955E+04  0.15284427955E+04  0.25500000920E-02 0. -1.
    10030    2    1    2    0    0  0.00000000000E+00  0.00000000000E+00  0.75310437931E+02  0.31321960290E+04  0.31312905170E+04 0.  0.
        2    1    3    3  502    0  0.88206008410E+03 -0.11486037040E+04  0.63274289431E+03  0.15804062867E+04  0.25500000920E-02 0. -1.
       -2    1    3    3    0  502 -0.88206008410E+03  0.11486037040E+04 -0.55743245638E+03  0.15517897423E+04  0.25500000920E-02 0.  1.
</event>
<event>
 5   0  0.1198763E-06  0.2816052E+04  0.7818609E-02  0.8298302E-01
       -1   -1    0    0    0  501  0.00000000000E+00  0.00000000000E+00  0.85851495009E+03  0.85851495010E+03  0.50400001928E-02 0.  1.
        1   -1    0    0  501    0  0.00000000000E+00  0.00000000000E+00 -0.23092630939E+04  0.23092630939E+04  0.50400001928E-02 0. -1.
    10030    2    1    2    0    0  0.00000000000E+00  0.00000000000E+00 -0.14507481438E+04  0.31677780440E+04  0.28160517678E+04 0.  0.
        1    1    3    3  502    0 -0.93920642612E+03  0.67180330747E+03 -0.16316756924E+04  0.19989482135E+04  0.50400001928E-02 0. -1.
       -1    1    3    3    0  502  0.93920642612E+03 -0.67180330747E+03  0.18092754866E+03  0.11688298305E+04  0.50400001928E-02 0.  1.
</event>
<event>
 5   0  0.3445410E-06  0.3102888E+04  0.7818609E-02  0.8214946E-01
       -2   -1    0    0    0  501  0.00000000000E+00  0.00000000000E+00  0.89624049399E+03  0.89624049400E+03  0.25500000920E-02 0.  1.
        2   -1    0    0  501    0  0.00000000000E+00  0.00000000000E+00 -0.26856394020E+04  0.26856394020E+04  0.25500000920E-02 0. -1.
    10030    2    1    2    0    0  0.00000000000E+00  0.00000000000E+00 -0.17893989080E+04  0.35818798960E+04  0.31028881929E+04 0.  0.
        1    1    3    3  502    0  0.79583524703E+03  0.48603559568E+03 -0.23260221117E+04  0.25059854758E+04  0.50400001928E-02 0. -1.
       -1    1    3    3    0  502 -0.79583524703E+03 -0.48603559568E+03  0.53662320370E+03  0.10758944202E+04  0.50400001928E-02 0.  1.
</event>
<event>
 5   0  0.3445959E-06  0.2847927E+04  0.7818609E-02  0.8288542E-01
       -2   -1    0    0    0  501  0.00000000000E+00  0.00000000000E+00  0.10603197232E+04  0.10603197232E+04  0.25500000920E-02 0.  1.
        2   -1    0    0  501    0  0.00000000000E+00  0.00000000000E+00 -0.19123209416E+04  0.19123209416E+04  0.25500000920E-02 0. -1.
    10030    2    1    2    0    0  0.00000000000E+00  0.00000000000E+00 -0.85200121847E+03  0.29726406648E+04  0.28479266925E+04 0.  0.
        4    1    3    3  502    0 -0.73497162784E+03  0.15973383460E+03 -0.16880696321E+04  0.18480473174E+04  0.12699999809E+01 0. -1.
       -4    1    3    3    0  502  0.73497162784E+03 -0.15973383460E+03  0.83606841367E+03  0.11245933473E+04  0.12699999809E+01 0.  1.
</event>
<event>
 5   0  0.3340899E-06  0.3048899E+04  0.7818609E-02  0.8229904E-01
       -2   -1    0    0    0  501  0.00000000000E+00  0.00000000000E+00  0.13097940837E+04  0.13097940837E+04  0.25500000920E-02 0.  1.
        2   -1    0    0  501    0  0.00000000000E+00  0.00000000000E+00 -0.17742832839E+04  0.17742832839E+04  0.25500000920E-02 0. -1.
    10030    2    1    2    0    0  0.00000000000E+00  0.00000000000E+00 -0.46448920027E+03  0.30840773676E+04  0.30488986523E+04 0.  0.
        3    1    3    3  502    0  0.10508652251E+04 -0.68222963579E+03  0.64621718599E+03  0.14097346058E+04  0.10100000352E+00 0.  1.
       -3    1    3    3    0  502 -0.10508652251E+04  0.68222963579E+03 -0.11107063863E+04  0.16743427618E+04  0.10100000352E+00 0. -1.
</event>
<event>
 5   0  0.1250276E-06  0.3096079E+04  0.7818609E-02  0.8216815E-01
        1   -1    0    0  501    0  0.00000000000E+00  0.00000000000E+00  0.10747267339E+04  0.10747267339E+04  0.50400001928E-02 0. -1.
       -1   -1    0    0    0  501  0.00000000000E+00  0.00000000000E+00 -0.22298002906E+04  0.22298002906E+04  0.50400001928E-02 0.  1.
    10030    2    1    2    0    0  0.00000000000E+00  0.00000000000E+00 -0.11550735567E+04  0.33045270245E+04  0.30960787997E+04 0.  0.
        5    1    3    3  502    0 -0.12554792615E+03 -0.93708711335E+03 -0.18858324196E+04  0.21095688054E+04  0.46999998093E+01 0.  1.
       -5    1    3    3    0  502  0.12554792615E+03  0.93708711335E+03  0.73075886289E+03  0.11949582191E+04  0.46999998093E+01 0. -1.
</event>
<event>
 5   0  0.1171915E-06  0.3081543E+04  0.7818609E-02  0.8220822E-01
       -1   -1    0    0    0  501  0.00000000000E+00  0.00000000000E+00  0.23079042239E+04  0.23079042239E+04  0.50400001928E-02 0. -1.
        1   -1    0    0  501    0  0.00000000000E+00  0.00000000000E+00 -0.10286287178E+04  0.10286287178E+04  0.50400001928E-02 0.  1.
    10030    2    1    2    0    0  0.00000000000E+00  0.00000000000E+00  0.12792755061E+04  0.33365329418E+04  0.30815428362E+04 0.  0.
        2    1    3    3  502    0  0.10068524841E+04  0.96569271796E+03 -0.68434615486E+02  0.13967811736E+04  0.25500000920E-02 0.  1.
       -2    1    3    3    0  502 -0.10068524841E+04 -0.96569271796E+03  0.13477101216E+04  0.19397517682E+04  0.25500000920E-02 0. -1.
</event>
<event>
 5   0  0.3445410E-06  0.3127316E+04  0.7818609E-02  0.8208281E-01
        2   -1    0    0  501    0  0.00000000000E+00  0.00000000000E+00  0.70902994075E+03  0.70902994076E+03  0.25500000920E-02 0.  1.
       -2   -1    0    0    0  501  0.00000000000E+00  0.00000000000E+00 -0.34484097439E+04  0.34484097439E+04  0.25500000920E-02 0. -1.
    10030    2    1    2    0    0  0.00000000000E+00  0.00000000000E+00 -0.27393798032E+04  0.41574396847E+04  0.31273156262E+04 0.  0.
        1    1    3    3  502    0  0.12185053498E+03 -0.76484728875E+03 -0.31755097213E+04  0.32685931099E+04  0.50400001928E-02 0. -1.
       -1    1    3    3    0  502 -0.12185053498E+03  0.76484728875E+03  0.43612991813E+03  0.88884657478E+03  0.50400001928E-02 0.  1.
</event>
<event>
 5   0  0.3445959E-06  0.3164802E+04  0.7818609E-02  0.8198175E-01
       -2   -1    0    0    0  501  0.00000000000E+00  0.00000000000E+00  0.14406765139E+04  0.14406765139E+04  0.25500000920E-02 0.  1.
        2   -1    0    0  501    0  0.00000000000E+00  0.00000000000E+00 -0.17380671877E+04  0.17380671877E+04  0.25500000920E-02 0. -1.
    10030    2    1    2    0    0  0.00000000000E+00  0.00000000000E+00 -0.29739067386E+03  0.31787437016E+04  0.31648017801E+04 0.  0.
        4    1    3    3  502    0  0.10283072206E+04  0.11878023867E+04 -0.33847402965E+03  0.16071267938E+04  0.12699999809E+01 0.  1.
       -4    1    3    3    0  502 -0.10283072206E+04 -0.11878023867E+04  0.41083355791E+02  0.15716169078E+04  0.12699999809E+01 0. -1.
</event>
<event>
 5   0  0.3340899E-06  0.3068790E+04  0.7818609E-02  0.8224356E-01
       -2   -1    0    0    0  501  0.00000000000E+00  0.00000000000E+00  0.95863717052E+03  0.95863717052E+03  0.25500000920E-02 0.  1.
        2   -1    0    0  501    0  0.00000000000E+00  0.00000000000E+00 -0.24559536080E+04  0.24559536080E+04  0.25500000920E-02 0. -1.
    10030    2    1    2    0    0  0.00000000000E+00  0.00000000000E+00 -0.14973164375E+04  0.34145907785E+04  0.30687902618E+04 0.  0.
        3    1    3    3  502    0  0.75218576951E+03  0.11585888446E+04 -0.14919578387E+04  0.20332362738E+04  0.10100000352E+00 0. -1.
       -3    1    3    3    0  502 -0.75218576951E+03 -0.11585888446E+04 -0.53585988168E+01  0.13813545047E+04  0.10100000352E+00 0.  1.
</event>
<event>
 5   0  0.1198763E-06  0.3091155E+04  0.7818609E-02  0.8218169E-01
       -1   -1    0    0    0  501  0.00000000000E+00  0.00000000000E+00  0.23681021772E+04  0.23681021772E+04  0.50400001928E-02 0.  1.
        1   -1    0    0  501    0  0.00000000000E+00  0.00000000000E+00 -0.10087445368E+04  0.10087445368E+04  0.50400001928E-02 0. -1.
    10030    2    1    2    0    0  0.00000000000E+00  0.00000000000E+00  0.13593576404E+04  0.33768467140E+04  0.30911552105E+04 0.  0.
        1    1    3    3  502    0 -0.74999602094E+03  0.10654883269E+04 -0.22844590303E+03  0.13228555994E+04  0.50400001928E-02 0. -1.
       -1    1    3    3    0  502  0.74999602094E+03 -0.10654883269E+04  0.15878035435E+04  0.20539911146E+04  0.50400001928E-02 0.  1.
</event>
<event>
 5   0  0.3374790E-06  0.3064773E+04  0.7818609E-02  0.8225473E-01
        2   -1    0    0  501    0  0.00000000000E+00  0.00000000000E+00  0.17150545887E+04  0.17150545887E+04  0.25500000920E-02 0.  1.
       -2   -1    0    0    0  501  0.00000000000E+00  0.00000000000E+00 -0.13691745258E+04  0.13691745258E+04  0.25500000920E-02 0. -1.
    10030    2    1    2    0    0  0.00000000000E+00  0.00000000000E+00  0.34588006295E+03  0.30842291145E+04  0.30647734358E+04 0.  0.
        2    1    3    3  502    0 -0.14734889940E+04 -0.39881237245E+03  0.30791052729E+03  0.15572507880E+04  0.25500000920E-02 0.  1.
       -2    1    3    3    0  502  0.14734889940E+04  0.39881237245E+03  0.37969535658E+02  0.15269783265E+04  0.25500000920E-02 0. -1.
</event>
<event>
 5   0  0.1198763E-06  0.3093685E+04  0.7818609E-02  0.8217473E-01
       -1   -1    0    0    0  501  0.00000000000E+00  0.00000000000E+00  0.23386768086E+04  0.23386768086E+04  0.50400001928E-02 0.  1.
        1   -1    0    0  501    0  0.00000000000E+00  0.00000000000E+00 -0.10231092824E+04  0.10231092825E+04  0.50400001928E-02 0. -1.
    10030    2    1    2    0    0  0.00000000000E+00  0.00000000000E+00  0.13155675261E+04  0.33617860910E+04  0.30936851498E+04 0.  0.
        1    1    3    3  502    0 -0.10541072952E+04  0.46872814914E+03 -0.46199027029E+03  0.12426919480E+04  0.50400001928E-02 0. -1.
       -1    1    3    3    0  502  0.10541072952E+04 -0.46872814914E+03  0.17775577964E+04  0.21190941431E+04  0.50400001928E-02 0.  1.
</event>
<event>
 5   0  0.1171915E-06  0.3093580E+04  0.7818609E-02  0.8217502E-01
        1   -1    0    0  501    0  0.00000000000E+00  0.00000000000E+00  0.16915339990E+04  0.16915339990E+04  0.50400001928E-02 0.  1.
       -1   -1    0    0    0  501  0.00000000000E+00  0.00000000000E+00 -0.14144317182E+04  0.14144317182E+04  0.50400001928E-02 0. -1.
    10030    2    1    2    0    0  0.00000000000E+00  0.00000000000E+00  0.27710228082E+03  0.31059657171E+04  0.30935800235E+04 0.  0.
        2    1    3    3  502    0 -0.13942058329E+04  0.55246501553E+03  0.51892392279E+03  0.15869182510E+04  0.25500000920E-02 0. -1.
       -2    1    3    3    0  502  0.13942058329E+04 -0.55246501553E+03 -0.24182164197E+03  0.15190474661E+04  0.25500000920E-02 0.  1.
</event>
<event>
 5   0  0.3441897E-06  0.3155652E+04  0.7818609E-02  0.8200629E-01
        2   -1    0    0  501    0  0.00000000000E+00  0.00000000000E+00  0.14739738475E+04  0.14739738475E+04  0.25500000920E-02 0.  1.
       -2   -1    0    0    0  501  0.00000000000E+00  0.00000000000E+00 -0.16889953365E+04  0.16889953365E+04  0.25500000920E-02 0. -1.
    10030    2    1    2    0    0  0.00000000000E+00  0.00000000000E+00 -0.21502148902E+03  0.31629691840E+04  0.31556520433E+04 0.  0.
        5    1    3    3  502    0  0.21511669362E+03 -0.12084119546E+04  0.88624075872E+03  0.15139284713E+04  0.46999998093E+01 0.  1.
       -5    1    3    3    0  502 -0.21511669362E+03  0.12084119546E+04 -0.11012622477E+04  0.16490407127E+04  0.46999998093E+01 0. -1.
</event>
<event>
 5   0  0.1198763E-06  0.3099879E+04  0.7818609E-02  0.8215771E-01
       -1   -1    0    0    0  501  0.00000000000E+00  0.00000000000E+00  0.12338137128E+04  0.12338137129E+04  0.50400001928E-02 0. -1.
        1   -1    0    0  501    0  0.00000000000E+00  0.00000000000E+00 -0.19470626155E+04  0.19470626155E+04  0.50400001928E-02 0.  1.
    10030    2    1    2    0    0  0.00000000000E+00  0.00000000000E+00 -0.71324890261E+03  0.31808763283E+04  0.30998790652E+04 0.  0.
        1    1    3    3  502    0  0.18713535400E+03  0.10931725745E+04 -0.14676274609E+04  0.18395587195E+04  0.50400001928E-02 0.  1.
       -1    1    3    3    0  502 -0.18713535400E+03 -0.10931725745E+04  0.75437855832E+03  0.13413176088E+04  0.50400001928E-02 0. -1.
</event>
<event>
 5   0  0.3445959E-06  0.3100694E+04  0.7818609E-02  0.8215548E-01
       -2   -1    0    0    0  501  0.00000000000E+00  0.00000000000E+00  0.12258442481E+04  0.12258442481E+04  0.25500000920E-02 0. -1.
        2   -1    0    0  501    0  0.00000000000E+00  0.00000000000E+00 -0.19607510492E+04  0.19607510492E+04  0.25500000920E-02 0.  1.
    10030    2    1    2    0    0  0.00000000000E+00  0.00000000000E+00 -0.73490680111E+03  0.31865952972E+04  0.31006937259E+04 0.  0.
        4    1    3    3  502    0 -0.12667076526E+04  0.73626232524E+03  0.15348537399E+03  0.14731564281E+04  0.12699999809E+01 0. -1.
       -4    1    3    3    0  502  0.12667076526E+04 -0.73626232524E+03 -0.88839217509E+03  0.17134388691E+04  0.12699999809E+01 0.  1.
</event>
<event>
 5   0  0.1109562E-06  0.3110768E+04  0.7818609E-02  0.8212789E-01
        3   -1    0    0  501    0  0.00000000000E+00  0.00000000000E+00  0.19468224660E+04  0.19468224686E+04  0.10100000352E+00 0. -1.
       -3   -1    0    0    0  501  0.00000000000E+00  0.00000000000E+00 -0.12426501875E+04  0.12426501916E+04  0.10100000352E+00 0.  1.
    10030    2    1    2    0    0  0.00000000000E+00  0.00000000000E+00  0.70417227848E+03  0.31894726603E+04  0.31107679523E+04 0.  0.
        3    1    3    3  502    0  0.10470521330E+04  0.38241114064E+03  0.14642717944E+04  0.18402848550E+04  0.10100000352E+00 0.  1.
       -3    1    3    3    0  502 -0.10470521330E+04 -0.38241114064E+03 -0.76009951589E+03  0.13491878053E+04  0.10100000352E+00 0. -1.
</event>
<event>
 5   0  0.3340899E-06  0.3088791E+04  0.7818609E-02  0.8218821E-01
       -2   -1    0    0    0  501  0.00000000000E+00  0.00000000000E+00  0.20229785743E+04  0.20229785743E+04  0.25500000920E-02 0. -1.
        2   -1    0    0  501    0  0.00000000000E+00  0.00000000000E+00 -0.11790321426E+04  0.11790321426E+04  0.25500000920E-02 0.  1.
    10030    2    1    2    0    0  0.00000000000E+00  0.00000000000E+00  0.84394643163E+03  0.32020107169E+04  0.30887905484E+04 0.  0.
        3    1    3    3  502    0 -0.15891344616E+03 -0.91229303230E+03  0.17032491125E+04  0.19387082322E+04  0.10100000352E+00 0. -1.
       -3    1    3    3    0  502  0.15891344616E+03  0.91229303230E+03 -0.85930268092E+03  0.12633024847E+04  0.10100000352E+00 0.  1.
</event>
<event>
 5   0  0.3340899E-06  0.3159296E+04  0.7818609E-02  0.8199651E-01
        2   -1    0    0  501    0  0.00000000000E+00  0.00000000000E+00  0.16944187420E+04  0.16944187420E+04  0.25500000920E-02 0. -1.
       -2   -1    0    0    0  501  0.00000000000E+00  0.00000000000E+00 -0.14726509720E+04  0.14726509720E+04  0.25500000920E-02 0.  1.
    10030    2    1    2    0    0  0.00000000000E+00  0.00000000000E+00  0.22176777003E+03  0.31670697141E+04  0.31592957490E+04 0.  0.
        3    1    3    3  502    0  0.58361230222E+03 -0.60739018664E+03  0.14504959065E+04  0.16773385297E+04  0.10100000352E+00 0. -1.
       -3    1    3    3    0  502 -0.58361230222E+03  0.60739018664E+03 -0.12287281365E+04  0.14897311844E+04  0.10100000352E+00 0.  1.
</event>
<event>
 5   0  0.1211008E-06  0.3123708E+04  0.7818609E-02  0.8209262E-01
        1   -1    0    0  501    0  0.00000000000E+00  0.00000000000E+00  0.20497392580E+04  0.20497392580E+04  0.50400001928E-02 0. -1.
       -1   -1    0    0    0  501  0.00000000000E+00  0.00000000000E+00 -0.11900963756E+04  0.11900963756E+04  0.50400001928E-02 0.  1.
    10030    2    1    2    0    0  0.00000000000E+00  0.00000000000E+00  0.85964288243E+03  0.32398356336E+04  0.31237075803E+04 0.  0.
        3    1    3    3  502    0  0.50252725657E+02 -0.11271135639E+03 -0.11850318514E+04  0.11914401728E+04  0.10100000352E+00 0.  1.
       -3    1    3    3    0  502 -0.50252725657E+02  0.11271135639E+03  0.20446747339E+04  0.20483954608E+04  0.10100000352E+00 0. -1.
</event>
<event>
 5   0  0.3374790E-06  0.2672664E+04  0.7818609E-02  0.8343929E-01
       -2   -1    0    0    0  501  0.00000000000E+00  0.00000000000E+00  0.10278067961E+04  0.10278067961E+04  0.25500000920E-02 0.  1.
        2   -1    0    0  501    0  0.00000000000E+00  0.00000000000E+00 -0.17374701683E+04  0.17374701683E+04  0.25500000920E-02 0. -1.
    10030    2    1    2    0    0  0.00000000000E+00  0.00000000000E+00 -0.70966337218E+03  0.27652769644E+04  0.26726643239E+04 0.  0.
        2    1    3    3  502    0 -0.25175986855E+03 -0.64148990573E+03  0.82978422809E+03  0.10786260685E+04  0.25500000920E-02 0.  1.
       -2    1    3    3    0  502  0.25175986855E+03  0.64148990573E+03 -0.15394476003E+04  0.16866508959E+04  0.25500000920E-02 0. -1.
</event>
<event>
 5   0  0.3445959E-06  0.3114067E+04  0.7818609E-02  0.8211888E-01
        2   -1    0    0  501    0  0.00000000000E+00  0.00000000000E+00  0.28730312068E+04  0.28730312068E+04  0.25500000920E-02 0. -1.
       -2   -1    0    0    0  501  0.00000000000E+00  0.00000000000E+00 -0.84383134939E+03  0.84383134940E+03  0.25500000920E-02 0.  1.
    10030    2    1    2    0    0  0.00000000000E+00  0.00000000000E+00  0.20291998574E+04  0.37168625562E+04  0.31140673083E+04 0.  0.
        4    1    3    3  502    0 -0.12744247359E+04  0.85531176212E+03  0.13272965053E+04  0.20291461859E+04  0.12699999809E+01 0. -1.
       -4    1    3    3    0  502  0.12744247359E+04 -0.85531176212E+03  0.70190335209E+03  0.16877163703E+04  0.12699999809E+01 0.  1.
</event>
<event>
 5   0  0.3445959E-06  0.3179356E+04  0.7818609E-02  0.8194290E-01
       -2   -1    0    0    0  501  0.00000000000E+00  0.00000000000E+00  0.10551590385E+04  0.10551590385E+04  0.25500000920E-02 0.  1.
        2   -1    0    0  501    0  0.00000000000E+00  0.00000000000E+00 -0.23949723486E+04  0.23949723486E+04  0.25500000920E-02 0. -1.
    10030    2    1    2    0    0  0.00000000000E+00  0.00000000000E+00 -0.13398133101E+04  0.34501313871E+04  0.31793563629E+04 0.  0.
        4    1    3    3  502    0 -0.60532401703E+03 -0.56928210232E+03  0.80071466300E+03  0.11539691773E+04  0.12699999809E+01 0.  1.
       -4    1    3    3    0  502  0.60532401703E+03  0.56928210232E+03 -0.21405279731E+04  0.22961622099E+04  0.12699999809E+01 0. -1.
</event>
<event>
 5   0  0.1235960E-06  0.3104809E+04  0.7818609E-02  0.8214419E-01
        1   -1    0    0  501    0  0.00000000000E+00  0.00000000000E+00  0.14306527022E+04  0.14306527022E+04  0.50400001928E-02 0. -1.
       -1   -1    0    0    0  501  0.00000000000E+00  0.00000000000E+00 -0.16845171756E+04  0.16845171756E+04  0.50400001928E-02 0.  1.
    10030    2    1    2    0    0  0.00000000000E+00  0.00000000000E+00 -0.25386447338E+03  0.31151698778E+04  0.31048085604E+04 0.  0.
        4    1    3    3  502    0 -0.62511788282E+03 -0.39849205269E+03  0.12415803841E+04  0.14460607686E+04  0.12699999809E+01 0. -1.
       -4    1    3    3    0  502  0.62511788282E+03  0.39849205269E+03 -0.14954448575E+04  0.16691091091E+04  0.12699999809E+01 0.  1.
</event>
<event>
 5   0  0.1250276E-06  0.3156700E+04  0.7818609E-02  0.8200347E-01
        1   -1    0    0  501    0  0.00000000000E+00  0.00000000000E+00  0.15618453572E+04  0.15618453572E+04  0.50400001928E-02 0.  1.
       -1   -1    0    0    0  501  0.00000000000E+00  0.00000000000E+00 -0.15950293929E+04  0.15950293929E+04  0.50400001928E-02 0. -1.
    10030    2    1    2    0    0  0.00000000000E+00  0.00000000000E+00 -0.33184035752E+02  0.31568747501E+04  0.31567003354E+04 0.  0.
        5    1    3    3  502    0  0.14570327801E+04 -0.86621449000E+02  0.58404033753E+03  0.15721237240E+04  0.46999998093E+01 0.  1.
       -5    1    3    3    0  502 -0.14570327801E+04  0.86621449000E+02 -0.61722437328E+03  0.15847510261E+04  0.46999998093E+01 0. -1.
</event>
<event>
 5   0  0.1198763E-06  0.3069744E+04  0.7818609E-02  0.8224091E-01
       -1   -1    0    0    0  501  0.00000000000E+00  0.00000000000E+00  0.20032257525E+04  0.20032257525E+04  0.50400001928E-02 0. -1.
        1   -1    0    0  501    0  0.00000000000E+00  0.00000000000E+00 -0.11760192439E+04  0.11760192439E+04  0.50400001928E-02 0.  1.
    10030    2    1    2    0    0  0.00000000000E+00  0.00000000000E+00  0.82720650865E+03  0.31792449964E+04  0.30697439859E+04 0.  0.
        1    1    3    3  502    0 -0.11998791142E+04  0.78630886939E+02  0.14015375398E+04  0.18466727325E+04  0.50400001928E-02 0. -1.
       -1    1    3    3    0  502  0.11998791142E+04 -0.78630886939E+02 -0.57433103120E+03  0.13325722639E+04  0.50400001928E-02 0.  1.
</event>
<event>
 5   0  0.1235960E-06  0.3026788E+04  0.7818609E-02  0.8236123E-01
        1   -1    0    0  501    0  0.00000000000E+00  0.00000000000E+00  0.24393496697E+04  0.24393496697E+04  0.50400001928E-02 0.  1.
       -1   -1    0    0    0  501  0.00000000000E+00  0.00000000000E+00 -0.93892296828E+03  0.93892296829E+03  0.50400001928E-02 0. -1.
    10030    2    1    2    0    0  0.00000000000E+00  0.00000000000E+00  0.15004267014E+04  0.33782726380E+04  0.30267880220E+04 0.  0.
        4    1    3    3  502    0  0.55919634514E+03  0.12159519932E+04 -0.38311133305E+02  0.13389208932E+04  0.12699999809E+01 0. -1.
       -4    1    3    3    0  502 -0.55919634514E+03 -0.12159519932E+04  0.15387378347E+04  0.20393517448E+04  0.12699999809E+01 0.  1.
</event>
<event>
 5   0  0.1198763E-06  0.2672648E+04  0.7818609E-02  0.8343935E-01
       -1   -1    0    0    0  501  0.00000000000E+00  0.00000000000E+00  0.13183185866E+04  0.13183185866E+04  0.50400001928E-02 0.  1.
        1   -1    0    0  501    0  0.00000000000E+00  0.00000000000E+00 -0.13545751408E+04  0.13545751408E+04  0.50400001928E-02 0. -1.
    10030    2    1    2    0    0  0.00000000000E+00  0.00000000000E+00 -0.36256554208E+02  0.26728937275E+04  0.26726478146E+04 0.  0.
        1    1    3    3  502    0  0.36681587747E+03 -0.11133712738E+04 -0.65975733897E+03  0.13451502621E+04  0.50400001928E-02 0. -1.
       -1    1    3    3    0  502 -0.36681587747E+03  0.11133712738E+04  0.62350078476E+03  0.13277434654E+04  0.50400001928E-02 0.  1.
</event>
<event>
 5   0  0.3374790E-06  0.3149458E+04  0.7818609E-02  0.8202294E-01
        2   -1    0    0  501    0  0.00000000000E+00  0.00000000000E+00  0.20652076949E+04  0.20652076949E+04  0.25500000920E-02 0.  1.
       -2   -1    0    0    0  501  0.00000000000E+00  0.00000000000E+00 -0.12007371389E+04  0.12007371389E+04  0.25500000920E-02 0. -1.
    10030    2    1    2    0    0  0.00000000000E+00  0.00000000000E+00  0.86447055604E+03  0.32659448339E+04  0.31494580987E+04 0.  0.
        2    1    3    3  502    0 -0.48310386620E+03 -0.12959936298E+04  0.12129301380E+04  0.18396163604E+04  0.25500000920E-02 0.  1.
       -2    1    3    3    0  502  0.48310386620E+03  0.12959936298E+04 -0.34845958193E+03  0.14263284734E+04  0.25500000920E-02 0. -1.
</event>
<event>
 5   0  0.1235960E-06  0.3103734E+04  0.7818609E-02  0.8214714E-01
        1   -1    0    0  501    0  0.00000000000E+00  0.00000000000E+00  0.29300011315E+04  0.29300011315E+04  0.50400001928E-02 0.  1.
       -1   -1    0    0    0  501  0.00000000000E+00  0.00000000000E+00 -0.82194182755E+03  0.82194182757E+03  0.50400001928E-02 0. -1.
    10030    2    1    2    0    0  0.00000000000E+00  0.00000000000E+00  0.21080593040E+04  0.37519429591E+04  0.31037335484E+04 0.  0.
        4    1    3    3  502    0 -0.67987036333E+03  0.11030712416E+04  0.20863740483E+04  0.24560024750E+04  0.12699999809E+01 0.  1.
       -4    1    3    3    0  502  0.67987036333E+03 -0.11030712416E+04  0.21685255656E+02  0.12959404841E+04  0.12699999809E+01 0. -1.
</event>
<event>
 5   0  0.3374790E-06  0.3081067E+04  0.7818609E-02  0.8220953E-01
        2   -1    0    0  501    0  0.00000000000E+00  0.00000000000E+00  0.27534271475E+04  0.27534271475E+04  0.25500000920E-02 0. -1.
       -2   -1    0    0    0  501  0.00000000000E+00  0.00000000000E+00 -0.86192345986E+03  0.86192345987E+03  0.25500000920E-02 0.  1.
    10030    2    1    2    0    0  0.00000000000E+00  0.00000000000E+00  0.18915036876E+04  0.36153506074E+04  0.30810669928E+04 0.  0.
        2    1    3    3  502    0  0.53467356437E+03 -0.14442868661E+04  0.90179861976E+03  0.17846795574E+04  0.25500000920E-02 0.  1.
       -2    1    3    3    0  502 -0.53467356437E+03  0.14442868661E+04  0.98970506789E+03  0.18306710500E+04  0.25500000920E-02 0. -1.
</event>
<event>
 5   0  0.1198763E-06  0.3196962E+04  0.7818609E-02  0.8189620E-01
        1   -1    0    0  501    0  0.00000000000E+00  0.00000000000E+00  0.14394483034E+04  0.14394483034E+04  0.50400001928E-02 0.  1.
       -1   -1    0    0    0  501  0.00000000000E+00  0.00000000000E+00 -0.17750840849E+04  0.17750840849E+04  0.50400001928E-02 0. -1.
    10030    2    1    2    0    0  0.00000000000E+00  0.00000000000E+00 -0.33563578145E+03  0.32145323883E+04  0.31969621671E+04 0.  0.
        1    1    3    3  502    0  0.12504778918E+04 -0.24127932346E+03  0.80353024674E+03  0.15058457847E+04  0.50400001928E-02 0.  1.
       -1    1    3    3    0  502 -0.12504778918E+04  0.24127932346E+03 -0.11391660282E+04  0.17086866037E+04  0.50400001928E-02 0. -1.
</event>
<event>
 5   0  0.1211008E-06  0.3099996E+04  0.7818609E-02  0.8215739E-01
        1   -1    0    0  501    0  0.00000000000E+00  0.00000000000E+00  0.31553374746E+04  0.31553374746E+04  0.50400001928E-02 0.  1.
       -1   -1    0    0    0  501  0.00000000000E+00  0.00000000000E+00 -0.76140626941E+03  0.76140626943E+03  0.50400001928E-02 0. -1.
    10030    2    1    2    0    0  0.00000000000E+00  0.00000000000E+00  0.23939312052E+04  0.39167437440E+04  0.30999959583E+04 0.  0.
        3    1    3    3  502    0  0.66026522181E+03  0.53373957707E+03  0.28354180988E+04  0.29598013285E+04  0.10100000352E+00 0.  1.
       -3    1    3    3    0  502 -0.66026522181E+03 -0.53373957707E+03 -0.44148689356E+03  0.95694241554E+03  0.10100000352E+00 0. -1.
</event>
<event>
 5   0  0.3374790E-06  0.3132281E+04  0.7818609E-02  0.8206934E-01
        2   -1    0    0  501    0  0.00000000000E+00  0.00000000000E+00  0.25199189645E+04  0.25199189645E+04  0.25500000920E-02 0.  1.
       -2   -1    0    0    0  501  0.00000000000E+00  0.00000000000E+00 -0.97336278290E+03  0.97336278290E+03  0.25500000920E-02 0. -1.
    10030    2    1    2    0    0  0.00000000000E+00  0.00000000000E+00  0.15465561816E+04  0.34932817474E+04  0.31322805340E+04 0.  0.
        2    1    3    3  502    0  0.25674400391E+03 -0.86639772331E+03 -0.65329988629E+03  0.11150619893E+04  0.25500000920E-02 0. -1.
       -2    1    3    3    0  502 -0.25674400391E+03  0.86639772331E+03  0.21998560679E+04  0.23782197581E+04  0.25500000920E-02 0.  1.
</event>
<event>
 5   0  0.3340899E-06  0.3097744E+04  0.7818609E-02  0.8216357E-01
       -2   -1    0    0    0  501  0.00000000000E+00  0.00000000000E+00  0.85759643616E+03  0.85759643616E+03  0.25500000920E-02 0.  1.
        2   -1    0    0  501    0  0.00000000000E+00  0.00000000000E+00 -0.27973577802E+04  0.27973577802E+04  0.25500000920E-02 0. -1.
    10030    2    1    2    0    0  0.00000000000E+00  0.00000000000E+00 -0.19397613440E+04  0.36549542164E+04  0.30977437357E+04 0.  0.
        3    1    3    3  502    0  0.59835312568E+03  0.30852556838E+03  0.67594710814E+03  0.95400156842E+03  0.10100000352E+00 0.  1.
       -3    1    3    3    0  502 -0.59835312568E+03 -0.30852556838E+03 -0.26157084522E+04  0.27009526479E+04  0.10100000352E+00 0. -1.
</event>
<event>
 5   0  0.3441897E-06  0.3093695E+04  0.7818609E-02  0.8217470E-01
        2   -1    0    0  501    0  0.00000000000E+00  0.00000000000E+00  0.15802730932E+04  0.15802730932E+04  0.25500000920E-02 0. -1.
       -2   -1    0    0    0  501  0.00000000000E+00  0.00000000000E+00 -0.15141287966E+04  0.15141287966E+04  0.25500000920E-02 0.  1.
    10030    2    1    2    0    0  0.00000000000E+00  0.00000000000E+00  0.66144296610E+02  0.30944018898E+04  0.30936948763E+04 0.  0.
        5    1    3    3  502    0 -0.29615625246E+03  0.35380854583E+03  0.15098329059E+04  0.15787674010E+04  0.46999998093E+01 0. -1.
       -5    1    3    3    0  502  0.29615625246E+03 -0.35380854583E+03 -0.14436886092E+04  0.15156344887E+04  0.46999998093E+01 0.  1.
</event>
<event>
 5   0  0.1235960E-06  0.3098089E+04  0.7818609E-02  0.8216263E-01
        1   -1    0    0  501    0  0.00000000000E+00  0.00000000000E+00  0.10907341597E+04  0.10907341597E+04  0.50400001928E-02 0. -1.
       -1   -1    0    0    0  501  0.00000000000E+00  0.00000000000E+00 -0.21999295225E+04  0.21999295225E+04  0.50400001928E-02 0.  1.
    10030    2    1    2    0    0  0.00000000000E+00  0.00000000000E+00 -0.11091953628E+04  0.32906636822E+04  0.30980886231E+04 0.  0.
        4    1    3    3  502    0 -0.80540047722E+03 -0.82839167631E+03 -0.16505453585E+04  0.20147467065E+04  0.12699999809E+01 0. -1.
       -4    1    3    3    0  502  0.80540047722E+03  0.82839167631E+03  0.54134999569E+03  0.12759169757E+04  0.12699999809E+01 0.  1.
</event>
<event>
 5   0  0.1198763E-06  0.3103132E+04  0.7818609E-02  0.8214879E-01
        1   -1    0    0  501    0  0.00000000000E+00  0.00000000000E+00  0.20527061189E+04  0.20527061189E+04  0.50400001928E-02 0. -1.
       -1   -1    0    0    0  501  0.00000000000E+00  0.00000000000E+00 -0.11727721330E+04  0.11727721330E+04  0.50400001928E-02 0.  1.
    10030    2    1    2    0    0  0.00000000000E+00  0.00000000000E+00  0.87993398585E+03  0.32254782519E+04  0.31031316656E+04 0.  0.
        1    1    3    3  502    0  0.27022873598E+03 -0.80156017215E+03  0.17919549459E+04  0.19815712976E+04  0.50400001928E-02 0. -1.
       -1    1    3    3    0  502 -0.27022873598E+03  0.80156017215E+03 -0.91202096004E+03  0.12439069543E+04  0.50400001928E-02 0.  1.
</event>
<event>
 5   0  0.1250276E-06  0.3113433E+04  0.7818609E-02  0.8212061E-01
        1   -1    0    0  501    0  0.00000000000E+00  0.00000000000E+00  0.19170413274E+04  0.19170413274E+04  0.50400001928E-02 0.  1.
       -1   -1    0    0    0  501  0.00000000000E+00  0.00000000000E+00 -0.12641176312E+04  0.12641176312E+04  0.50400001928E-02 0. -1.
    10030    2    1    2    0    0  0.00000000000E+00  0.00000000000E+00  0.65292369623E+03  0.31811589587E+04  0.31134326662E+04 0.  0.
        5    1    3    3  502    0 -0.74390489651E+03  0.69167567424E+03  0.15317552841E+04  0.18379624789E+04  0.46999998093E+01 0.  1.
       -5    1    3    3    0  502  0.74390489651E+03 -0.69167567424E+03 -0.87883158789E+03  0.13431964798E+04  0.46999998093E+01 0. -1.
</event>
<event>
 5   0  0.3340899E-06  0.3097959E+04  0.7818609E-02  0.8216298E-01
        2   -1    0    0  501    0  0.00000000000E+00  0.00000000000E+00  0.15931952030E+04  0.15931952030E+04  0.25500000920E-02 0.  1.
       -2   -1    0    0    0  501  0.00000000000E+00  0.00000000000E+00 -0.15059906904E+04  0.15059906904E+04  0.25500000920E-02 0. -1.
    10030    2    1    2    0    0  0.00000000000E+00  0.00000000000E+00  0.87204512557E+02  0.30991858934E+04  0.30979587756E+04 0.  0.
        3    1    3    3  502    0 -0.11743505039E+04  0.22284532580E+03  0.10291716565E+04  0.15773247776E+04  0.10100000352E+00 0.  1.
       -3    1    3    3    0  502  0.11743505039E+04 -0.22284532580E+03 -0.94196714396E+03  0.15218611158E+04  0.10100000352E+00 0. -1.
</event>
<event>
 5   0  0.3374790E-06  0.3117880E+04  0.7818609E-02  0.8210848E-01
        2   -1    0    0  501    0  0.00000000000E+00  0.00000000000E+00  0.17712212311E+04  0.17712212311E+04  0.25500000920E-02 0. -1.
       -2   -1    0    0    0  501  0.00000000000E+00  0.00000000000E+00 -0.13721006554E+04  0.13721006554E+04  0.25500000920E-02 0.  1.
    10030    2    1    2    0    0  0.00000000000E+00  0.00000000000E+00  0.39912057571E+03  0.31433218864E+04  0.31178799284E+04 0.  0.
        2    1    3    3  502    0 -0.55328811692E+03 -0.11614977088E+04  0.10871357707E+04  0.16843600719E+04  0.25500000920E-02 0.  1.
       -2    1    3    3    0  502  0.55328811692E+03  0.11614977088E+04 -0.68801519498E+03  0.14589618146E+04  0.25500000920E-02 0. -1.
</event>
<event>
 5   0  0.1171915E-06  0.3093537E+04  0.7818609E-02  0.8217514E-01
       -1   -1    0    0    0  501  0.00000000000E+00  0.00000000000E+00  0.14286081831E+04  0.14286081832E+04  0.50400001928E-02 0.  1.
        1   -1    0    0  501    0  0.00000000000E+00  0.00000000000E+00 -0.16747018573E+04  0.16747018573E+04  0.50400001928E-02 0. -1.
    10030    2    1    2    0    0  0.00000000000E+00  0.00000000000E+00 -0.24609367417E+03  0.31033100405E+04  0.30935369904E+04 0.  0.
        2    1    3    3  502    0 -0.84914799934E+03 -0.91176326378E+03  0.79643390029E+03  0.14787398458E+04  0.25500000920E-02 0.  1.
       -2    1    3    3    0  502  0.84914799934E+03  0.91176326378E+03 -0.10425275745E+04  0.16245701947E+04  0.25500000920E-02 0. -1.
</event>
<event>
 5   0  0.1171915E-06  0.3145067E+04  0.7818609E-02  0.8203477E-01
       -1   -1    0    0    0  501  0.00000000000E+00  0.00000000000E+00  0.16294607915E+04  0.16294607915E+04  0.50400001928E-02 0.  1.
        1   -1    0    0  501    0  0.00000000000E+00  0.00000000000E+00 -0.15175950966E+04  0.15175950966E+04  0.50400001928E-02 0. -1.
    10030    2    1    2    0    0  0.00000000000E+00  0.00000000000E+00  0.11186569485E+03  0.31470558881E+04  0.31450670627E+04 0.  0.
        2    1    3    3  502    0 -0.14596028990E+04 -0.42240437562E+03  0.46115266822E+03  0.15879319453E+04  0.25500000920E-02 0.  1.
       -2    1    3    3    0  502  0.14596028990E+04  0.42240437562E+03 -0.34928697337E+03  0.15591239428E+04  0.25500000920E-02 0. -1.
</event>
<event>
 5   0  0.3445410E-06  0.3094741E+04  0.7818609E-02  0.8217183E-01
        2   -1    0    0  501    0  0.00000000000E+00  0.00000000000E+00  0.24739651471E+04  0.24739651471E+04  0.25500000920E-02 0.  1.
       -2   -1    0    0    0  501  0.00000000000E+00  0.00000000000E+00 -0.96782115577E+03  0.96782115578E+03  0.25500000920E-02 0. -1.
    10030    2    1    2    0    0  0.00000000000E+00  0.00000000000E+00  0.15061439913E+04  0.34417863028E+04  0.30947412221E+04 0.  0.
        1    1    3    3  502    0  0.11028172353E+04  0.35030341991E+03 -0.38947958583E+03  0.12209065027E+04  0.50400001928E-02 0. -1.
       -1    1    3    3    0  502 -0.11028172353E+04 -0.35030341991E+03  0.18956235771E+04  0.22208798001E+04  0.50400001928E-02 0.  1.
</event>
<event>
 5   0  0.1211008E-06  0.3066694E+04  0.7818609E-02  0.8224938E-01
       -1   -1    0    0    0  501  0.00000000000E+00  0.00000000000E+00  0.14177193868E+04  0.14177193868E+04  0.50400001928E-02 0.  1.
        1   -1    0    0  501    0  0.00000000000E+00  0.00000000000E+00 -0.16584054972E+04  0.16584054972E+04  0.50400001928E-02 0. -1.
    10030    2    1    2    0    0  0.00000000000E+00  0.00000000000E+00 -0.24068611039E+03  0.30761248840E+04  0.30666943927E+04 0.  0.
        3    1    3    3  502    0  0.90950922487E+03 -0.10356175906E+04  0.55361803561E+03  0.14853295135E+04  0.10100000352E+00 0.  1.
       -3    1    3    3    0  502 -0.90950922487E+03  0.10356175906E+04 -0.79430414600E+03  0.15907953705E+04  0.10100000352E+00 0. -1.
</event>
<event>
 5   0  0.3445410E-06  0.3080811E+04  0.7818609E-02  0.8221024E-01
        2   -1    0    0  501    0  0.00000000000E+00  0.00000000000E+00  0.16188547701E+04  0.16188547701E+04  0.25500000920E-02 0.  1.
       -2   -1    0    0    0  501  0.00000000000E+00  0.00000000000E+00 -0.14657580714E+04  0.14657580714E+04  0.25500000920E-02 0. -1.
    10030    2    1    2    0    0  0.00000000000E+00  0.00000000000E+00  0.15309669872E+03  0.30846128415E+04  0.30808112215E+04 0.  0.
        1    1    3    3  502    0  0.13966183846E+04  0.10627288003E+03 -0.56534540077E+03  0.15104477016E+04  0.50400001928E-02 0. -1.
       -1    1    3    3    0  502 -0.13966183846E+04 -0.10627288003E+03  0.71844209949E+03  0.15741651398E+04  0.50400001928E-02 0.  1.
</event>
<event>
 5   0  0.1171915E-06  0.3102576E+04  0.7818609E-02  0.8215031E-01
        1   -1    0    0  501    0  0.00000000000E+00  0.00000000000E+00  0.20514438175E+04  0.20514438175E+04  0.50400001928E-02 0.  1.
       -1   -1    0    0    0  501  0.00000000000E+00  0.00000000000E+00 -0.11730732926E+04  0.11730732926E+04  0.50400001928E-02 0. -1.
    10030    2    1    2    0    0  0.00000000000E+00  0.00000000000E+00  0.87837052494E+03  0.32245171101E+04  0.31025756742E+04 0.  0.
        2    1    3    3  502    0 -0.12018672553E+04  0.97571625513E+03  0.33532332314E+03  0.15839661742E+04  0.25500000920E-02 0.  1.
       -2    1    3    3    0  502  0.12018672553E+04 -0.97571625513E+03  0.54304720180E+03  0.16405509359E+04  0.25500000920E-02 0. -1.
</event>
<event>
 5   0  0.1235960E-06  0.3096597E+04  0.7818609E-02  0.8216672E-01
       -1   -1    0    0    0  501  0.00000000000E+00  0.00000000000E+00  0.16626782627E+04  0.16626782627E+04  0.50400001928E-02 0.  1.
        1   -1    0    0  501    0  0.00000000000E+00  0.00000000000E+00 -0.14417874448E+04  0.14417874448E+04  0.50400001928E-02 0. -1.
    10030    2    1    2    0    0  0.00000000000E+00  0.00000000000E+00  0.22089081792E+03  0.31044657076E+04  0.30965972576E+04 0.  0.
        4    1    3    3  502    0  0.11238369013E+04 -0.10289344614E+03  0.11731533331E+04  0.16278472895E+04  0.12699999809E+01 0.  1.
       -4    1    3    3    0  502 -0.11238369013E+04  0.10289344614E+03 -0.95226251517E+03  0.14766184181E+04  0.12699999809E+01 0. -1.
</event>
<event>
 5   0  0.3445959E-06  0.3089643E+04  0.7818609E-02  0.8218586E-01
       -2   -1    0    0    0  501  0.00000000000E+00  0.00000000000E+00  0.10427190149E+04  0.10427190149E+04  0.25500000920E-02 0.  1.
        2   -1    0    0  501    0  0.00000000000E+00  0.00000000000E+00 -0.22887029060E+04  0.22887029060E+04  0.25500000920E-02 0. -1.
    10030    2    1    2    0    0  0.00000000000E+00  0.00000000000E+00 -0.12459838911E+04  0.33314219209E+04  0.30896433708E+04 0.  0.
        4    1    3    3  502    0  0.61342955817E+03  0.13612212484E+04 -0.10505756969E+04  0.18256314025E+04  0.12699999809E+01 0. -1.
       -4    1    3    3    0  502 -0.61342955817E+03 -0.13612212484E+04 -0.19540819413E+03  0.15057905184E+04  0.12699999809E+01 0.  1.
</event>
<event>
 5   0  0.3374790E-06  0.3031894E+04  0.7818609E-02  0.8234682E-01
       -2   -1    0    0    0  501  0.00000000000E+00  0.00000000000E+00  0.91592905626E+03  0.91592905626E+03  0.25500000920E-02 0. -1.
        2   -1    0    0  501    0  0.00000000000E+00  0.00000000000E+00 -0.25090323183E+04  0.25090323183E+04  0.25500000920E-02 0.  1.
    10030    2    1    2    0    0  0.00000000000E+00  0.00000000000E+00 -0.15931032621E+04  0.34249613746E+04  0.30318941957E+04 0.  0.
        2    1    3    3  502    0 -0.10697628543E+04 -0.96753363535E+03 -0.13234815067E+04  0.19575794233E+04  0.25500000920E-02 0.  1.
       -2    1    3    3    0  502  0.10697628543E+04  0.96753363535E+03 -0.26962175537E+03  0.14673819513E+04  0.25500000920E-02 0. -1.
</event>
<event>
 5   0  0.1250276E-06  0.3071920E+04  0.7818609E-02  0.8223487E-01
       -1   -1    0    0    0  501  0.00000000000E+00  0.00000000000E+00  0.12952303323E+04  0.12952303323E+04  0.50400001928E-02 0.  1.
        1   -1    0    0  501    0  0.00000000000E+00  0.00000000000E+00 -0.18214318788E+04  0.18214318788E+04  0.50400001928E-02 0. -1.
    10030    2    1    2    0    0  0.00000000000E+00  0.00000000000E+00 -0.52620154646E+03  0.31166622111E+04  0.30719204531E+04 0.  0.
        5    1    3    3  502    0  0.75227002953E+03 -0.11338566858E+04  0.45974407153E+03  0.14362896235E+04  0.46999998093E+01 0.  1.
       -5    1    3    3    0  502 -0.75227002953E+03  0.11338566858E+04 -0.98594561799E+03  0.16803725875E+04  0.46999998093E+01 0. -1.
</event>
<event>
 5   0  0.3441897E-06  0.3144399E+04  0.7818609E-02  0.8203657E-01
        2   -1    0    0  501    0  0.00000000000E+00  0.00000000000E+00  0.14358569214E+04  0.14358569214E+04  0.25500000920E-02 0. -1.
       -2   -1    0    0    0  501  0.00000000000E+00  0.00000000000E+00 -0.17214887933E+04  0.17214887933E+04  0.25500000920E-02 0.  1.
    10030    2    1    2    0    0  0.00000000000E+00  0.00000000000E+00 -0.28563187194E+03  0.31573457147E+04  0.31443992106E+04 0.  0.
        5    1    3    3  502    0 -0.26269778904E+03  0.40951871653E+03  0.13583558491E+04  0.14428681195E+04  0.46999998093E+01 0. -1.
       -5    1    3    3    0  502  0.26269778904E+03 -0.40951871653E+03 -0.16439877210E+04  0.17144775952E+04  0.46999998093E+01 0.  1.
</event>
<event>
 5   0  0.3374790E-06  0.3272924E+04  0.7818609E-02  0.8169819E-01
       -2   -1    0    0    0  501  0.00000000000E+00  0.00000000000E+00  0.12333331967E+04  0.12333331967E+04  0.25500000920E-02 0.  1.
        2   -1    0    0  501    0  0.00000000000E+00  0.00000000000E+00 -0.21713583956E+04  0.21713583956E+04  0.25500000920E-02 0. -1.
    10030    2    1    2    0    0  0.00000000000E+00  0.00000000000E+00 -0.93802519892E+03  0.34046915922E+04  0.32729243139E+04 0.  0.
        2    1    3    3  502    0 -0.13019571394E+04  0.98887848474E+03 -0.39519562500E+03  0.16820085114E+04  0.25500000920E-02 0.  1.
       -2    1    3    3    0  502  0.13019571394E+04 -0.98887848474E+03 -0.54282957391E+03  0.17226830808E+04  0.25500000920E-02 0. -1.
</event>
<event>
 5   0  0.1109562E-06  0.3160263E+04  0.7818609E-02  0.8199391E-01
        4   -1    0    0  501    0  0.00000000000E+00  0.00000000000E+00  0.10093908764E+04  0.10093916753E+04  0.12699999809E+01 0. -1.
       -4   -1    0    0    0  501  0.00000000000E+00  0.00000000000E+00 -0.24735845582E+04  0.24735848842E+04  0.12699999809E+01 0.  1.
    10030    2    1    2    0    0  0.00000000000E+00  0.00000000000E+00 -0.14641936818E+04  0.34829765595E+04  0.31602630549E+04 0.  0.
        5    1    3    3  502    0  0.16930756397E+03 -0.17757291854E+03 -0.24524559577E+04  0.24647027218E+04  0.46999998093E+01 0.  1.
       -5    1    3    3    0  502 -0.16930756397E+03  0.17757291854E+03  0.98826227590E+03  0.10182738377E+04  0.46999998093E+01 0. -1.
</event>
<event>
 5   0  0.1211008E-06  0.3063422E+04  0.7818609E-02  0.8225849E-01
       -1   -1    0    0    0  501  0.00000000000E+00  0.00000000000E+00  0.18995047304E+04  0.18995047304E+04  0.50400001928E-02 0.  1.
        1   -1    0    0  501    0  0.00000000000E+00  0.00000000000E+00 -0.12351320465E+04  0.12351320465E+04  0.50400001928E-02 0. -1.
    10030    2    1    2    0    0  0.00000000000E+00  0.00000000000E+00  0.66437268394E+03  0.31346367769E+04  0.30634223770E+04 0.  0.
        3    1    3    3  502    0  0.70049618082E+03 -0.13250974304E+04  0.65505440624E+03  0.16357488758E+04  0.10100000352E+00 0. -1.
       -3    1    3    3    0  502 -0.70049618082E+03  0.13250974304E+04  0.93182777038E+01  0.14988879010E+04  0.10100000352E+00 0.  1.
</event>
<event>
 5   0  0.3445410E-06  0.2936697E+04  0.7818609E-02  0.8262042E-01
       -2   -1    0    0    0  501  0.00000000000E+00  0.00000000000E+00  0.12147886120E+04  0.12147886120E+04  0.25500000920E-02 0. -1.
        2   -1    0    0  501    0  0.00000000000E+00  0.00000000000E+00 -0.17748337304E+04  0.17748337304E+04  0.25500000920E-02 0.  1.
    10030    2    1    2    0    0  0.00000000000E+00  0.00000000000E+00 -0.56004511839E+03  0.29896223423E+04  0.29366973312E+04 0.  0.
        1    1    3    3  502    0 -0.40293676011E+03  0.30272844150E+03  0.11239789208E+04  0.12317999660E+04  0.50400001928E-02 0. -1.
       -1    1    3    3    0  502  0.40293676011E+03 -0.30272844150E+03 -0.16840240392E+04  0.17578223763E+04  0.50400001928E-02 0.  1.
</event>
<event>
 5   0  0.1211008E-06  0.3103619E+04  0.7818609E-02  0.8214745E-01
        1   -1    0    0  501    0  0.00000000000E+00  0.00000000000E+00  0.11537352945E+04  0.11537352946E+04  0.50400001928E-02 0.  1.
       -1   -1    0    0    0  501  0.00000000000E+00  0.00000000000E+00 -0.20872318836E+04  0.20872318836E+04  0.50400001928E-02 0. -1.
    10030    2    1    2    0    0  0.00000000000E+00  0.00000000000E+00 -0.93349658903E+03  0.32409671781E+04  0.31036192370E+04 0.  0.
        3    1    3    3  502    0  0.71947585827E+03  0.10499643752E+04 -0.13937509651E+04  0.18874884007E+04  0.10100000352E+00 0. -1.
       -3    1    3    3    0  502 -0.71947585827E+03 -0.10499643752E+04  0.46025437612E+03  0.13534787774E+04  0.10100000352E+00 0.  1.
</event>
<event>
 5   0  0.3374790E-06  0.3100495E+04  0.7818609E-02  0.8215602E-01
        2   -1    0    0  501    0  0.00000000000E+00  0.00000000000E+00  0.26673991148E+04  0.26673991148E+04  0.25500000920E-02 0.  1.
       -2   -1    0    0    0  501  0.00000000000E+00  0.00000000000E+00 -0.90097797370E+03  0.90097797370E+03  0.25500000920E-02 0. -1.
    10030    2    1    2    0    0  0.00000000000E+00  0.00000000000E+00  0.17664211411E+04  0.35683770885E+04  0.31004953472E+04 0.  0.
        2    1    3    3  502    0 -0.11257583545E+03 -0.62871640836E+03  0.25089272838E+04  0.25889522507E+04  0.25500000920E-02 0.  1.
       -2    1    3    3    0  502  0.11257583545E+03  0.62871640836E+03 -0.74250614274E+03  0.97942483779E+03  0.25500000920E-02 0. -1.
</event>
<event>
 5   0  0.3340899E-06  0.3093156E+04  0.7818609E-02  0.8217619E-01
        2   -1    0    0  501    0  0.00000000000E+00  0.00000000000E+00  0.13242638665E+04  0.13242638665E+04  0.25500000920E-02 0. -1.
       -2   -1    0    0    0  501  0.00000000000E+00  0.00000000000E+00 -0.18062142404E+04  0.18062142404E+04  0.25500000920E-02 0.  1.
    10030    2    1    2    0    0  0.00000000000E+00  0.00000000000E+00 -0.48195037394E+03  0.31304781070E+04  0.30931564809E+04 0.  0.
        3    1    3    3  502    0 -0.16995082145E+03  0.80509037428E+02 -0.17945998939E+04  0.18044261626E+04  0.10100000352E+00 0.  1.
       -3    1    3    3    0  502  0.16995082145E+03 -0.80509037428E+02  0.13126495199E+04  0.13260519444E+04  0.10100000352E+00 0. -1.
</event>
<event>
 5   0  0.3445410E-06  0.3105995E+04  0.7818609E-02  0.8214094E-01
       -2   -1    0    0    0  501  0.00000000000E+00  0.00000000000E+00  0.11295371336E+04  0.11295371336E+04  0.25500000920E-02 0. -1.
        2   -1    0    0  501    0  0.00000000000E+00  0.00000000000E+00 -0.21352125018E+04  0.21352125018E+04  0.25500000920E-02 0.  1.
    10030    2    1    2    0    0  0.00000000000E+00  0.00000000000E+00 -0.10056753682E+04  0.32647496354E+04  0.31059953696E+04 0.  0.
        1    1    3    3  502    0  0.14689752340E+03 -0.10863853694E+04  0.65338084471E+03  0.12762125926E+04  0.50400001928E-02 0. -1.
       -1    1    3    3    0  502 -0.14689752340E+03  0.10863853694E+04 -0.16590562129E+04  0.19885370429E+04  0.50400001928E-02 0.  1.
</event>
<event>
 5   0  0.3441897E-06  0.3063162E+04  0.7818609E-02  0.8225921E-01
       -2   -1    0    0    0  501  0.00000000000E+00  0.00000000000E+00  0.14769857600E+04  0.14769857600E+04  0.25500000920E-02 0.  1.
        2   -1    0    0  501    0  0.00000000000E+00  0.00000000000E+00 -0.15881943449E+04  0.15881943449E+04  0.25500000920E-02 0. -1.
    10030    2    1    2    0    0  0.00000000000E+00  0.00000000000E+00 -0.11120858490E+03  0.30651801050E+04  0.30631620471E+04 0.  0.
        5    1    3    3  502    0 -0.81363208398E+03 -0.51668716577E+03 -0.12466638718E+04  0.15758031903E+04  0.46999998093E+01 0. -1.
       -5    1    3    3    0  502  0.81363208398E+03  0.51668716577E+03  0.11354552869E+04  0.14893769147E+04  0.46999998093E+01 0.  1.
</event>
<event>
 5   0  0.1235960E-06  0.3083164E+04  0.7818609E-02  0.8220374E-01
       -1   -1    0    0    0  501  0.00000000000E+00  0.00000000000E+00  0.10530483142E+04  0.10530483142E+04  0.50400001928E-02 0. -1.
        1   -1    0    0  501    0  0.00000000000E+00  0.00000000000E+00 -0.22567573584E+04  0.22567573584E+04  0.50400001928E-02 0.  1.
    10030    2    1    2    0    0  0.00000000000E+00  0.00000000000E+00 -0.12037090442E+04  0.33098056726E+04  0.30831636557E+04 0.  0.
        4    1    3    3  502    0  0.13211497479E+04  0.68824404686E+01  0.25088575429E+03  0.13447785316E+04  0.12699999809E+01 0.  1.
       -4    1    3    3    0  502 -0.13211497479E+04 -0.68824404686E+01 -0.14545947984E+04  0.19650271410E+04  0.12699999809E+01 0. -1.
</event>
<event>
 5   0  0.1250276E-06  0.3133999E+04  0.7818609E-02  0.8206469E-01
       -1   -1    0    0    0  501  0.00000000000E+00  0.00000000000E+00  0.11545041578E+04  0.11545041578E+04  0.50400001928E-02 0.  1.
        1   -1    0    0  501    0  0.00000000000E+00  0.00000000000E+00 -0.21268764561E+04  0.21268764561E+04  0.50400001928E-02 0. -1.
    10030    2    1    2    0    0  0.00000000000E+00  0.00000000000E+00 -0.97237229830E+03  0.32813806138E+04  0.31339991778E+04 0.  0.
        5    1    3    3  502    0 -0.10163100700E+04 -0.15710804635E+03 -0.17241137396E+04  0.20075256844E+04  0.46999998093E+01 0. -1.
       -5    1    3    3    0  502  0.10163100700E+04  0.15710804635E+03  0.75174144128E+03  0.12738549294E+04  0.46999998093E+01 0.  1.
</event>
<event>
 5   0  0.3445959E-06  0.3085998E+04  0.7818609E-02  0.8219591E-01
       -2   -1    0    0    0  501  0.00000000000E+00  0.00000000000E+00  0.98081972766E+03  0.98081972766E+03  0.25500000920E-02 0. -1.
        2   -1    0    0  501    0  0.00000000000E+00  0.00000000000E+00 -0.24274038240E+04  0.24274038240E+04  0.25500000920E-02 0.  1.
    10030    2    1    2    0    0  0.00000000000E+00  0.00000000000E+00 -0.14465840964E+04  0.34082235517E+04  0.30859977690E+04 0.  0.
        4    1    3    3  502    0 -0.21605232860E+03  0.60484777705E+03  0.82616954174E+03  0.10464593478E+04  0.12699999809E+01 0. -1.
       -4    1    3    3    0  502  0.21605232860E+03 -0.60484777705E+03 -0.22727536381E+04  0.23617642038E+04  0.12699999809E+01 0.  1.
</event>
<event>
 5   0  0.1235960E-06  0.3086217E+04  0.7818609E-02  0.8219531E-01
        1   -1    0    0  501    0  0.00000000000E+00  0.00000000000E+00  0.16452472871E+04  0.16452472871E+04  0.50400001928E-02 0.  1.
       -1   -1    0    0    0  501  0.00000000000E+00  0.00000000000E+00 -0.14473105531E+04  0.14473105532E+04  0.50400001928E-02 0. -1.
    10030    2    1    2    0    0  0.00000000000E+00  0.00000000000E+00  0.19793673400E+03  0.30925578403E+04  0.30862169472E+04 0.  0.
        4    1    3    3  502    0  0.15158754749E+04 -0.15100032324E+03  0.34544649176E+03  0.15620545588E+04  0.12699999809E+01 0. -1.
       -4    1    3    3    0  502 -0.15158754749E+04  0.15100032324E+03 -0.14750975777E+03  0.15305032815E+04  0.12699999809E+01 0.  1.
</event>
<event>
 5   0  0.1198763E-06  0.3096070E+04  0.7818609E-02  0.8216817E-01
       -1   -1    0    0    0  501  0.00000000000E+00  0.00000000000E+00  0.23533469564E+04  0.23533469564E+04  0.50400001928E-02 0.  1.
        1   -1    0    0  501    0  0.00000000000E+00  0.00000000000E+00 -0.10182995475E+04  0.10182995475E+04  0.50400001928E-02 0. -1.
    10030    2    1    2    0    0  0.00000000000E+00  0.00000000000E+00  0.13350474090E+04  0.33716465039E+04  0.30960698576E+04 0.  0.
        1    1    3    3  502    0  0.86234888011E+03  0.33145218812E+03 -0.68517482384E+03  0.11502046267E+04  0.50400001928E-02 0. -1.
       -1    1    3    3    0  502 -0.86234888011E+03 -0.33145218812E+03  0.20202222328E+04  0.22214418772E+04  0.50400001928E-02 0.  1.
</event>
<event>
 5   0  0.3445410E-06  0.3108563E+04  0.7818609E-02  0.8213392E-01
       -2   -1    0    0    0  501  0.00000000000E+00  0.00000000000E+00  0.14272684034E+04  0.14272684034E+04  0.25500000920E-02 0. -1.
        2   -1    0    0  501    0  0.00000000000E+00  0.00000000000E+00 -0.16925979218E+04  0.16925979218E+04  0.25500000920E-02 0.  1.
    10030    2    1    2    0    0  0.00000000000E+00  0.00000000000E+00 -0.26532951837E+03  0.31198663253E+04  0.31085633553E+04 0.  0.
        1    1    3    3  502    0  0.10560826548E+04  0.81063899939E+03 -0.93766934451E+03  0.16283949032E+04  0.50400001928E-02 0. -1.
       -1    1    3    3    0  502 -0.10560826548E+04 -0.81063899939E+03  0.67233982614E+03  0.14914714221E+04  0.50400001928E-02 0.  1.
</event>
<event>
 5   0  0.1250276E-06  0.3152219E+04  0.7818609E-02  0.8201551E-01
       -1   -1    0    0    0  501  0.00000000000E+00  0.00000000000E+00  0.12686776943E+04  0.12686776943E+04  0.50400001928E-02 0.  1.
        1   -1    0    0  501    0  0.00000000000E+00  0.00000000000E+00 -0.19580393483E+04  0.19580393483E+04  0.50400001928E-02 0. -1.
    10030    2    1    2    0    0  0.00000000000E+00  0.00000000000E+00 -0.68936165401E+03  0.32267170426E+04  0.31522188032E+04 0.  0.
        5    1    3    3  502    0  0.15314063880E+04  0.35300753979E+03 -0.46699929095E+03  0.16394908588E+04  0.46999998093E+01 0. -1.
       -5    1    3    3    0  502 -0.15314063880E+04 -0.35300753979E+03 -0.22236236306E+03  0.15872261839E+04  0.46999998093E+01 0.  1.
</event>
<event>
 5   0  0.3445959E-06  0.3061860E+04  0.7818609E-02  0.8226284E-01
        2   -1    0    0  501    0  0.00000000000E+00  0.00000000000E+00  0.13692387462E+04  0.13692387462E+04  0.25500000920E-02 0. -1.
       -2   -1    0    0    0  501  0.00000000000E+00  0.00000000000E+00 -0.17117153674E+04  0.17117153674E+04  0.25500000920E-02 0.  1.
    10030    2    1    2    0    0  0.00000000000E+00  0.00000000000E+00 -0.34247662124E+03  0.30809541136E+04  0.30618602212E+04 0.  0.
        4    1    3    3  502    0  0.99111291896E+03  0.52461751935E+03 -0.12199549856E+04  0.16570516406E+04  0.12699999809E+01 0.  1.
       -4    1    3    3    0  502 -0.99111291896E+03 -0.52461751935E+03  0.87747836438E+03  0.14239024730E+04  0.12699999809E+01 0. -1.
</event>
<event>
 5   0  0.3445410E-06  0.3124457E+04  0.7818609E-02  0.8209058E-01
       -2   -1    0    0    0  501  0.00000000000E+00  0.00000000000E+00  0.15303863133E+04  0.15303863133E+04  0.25500000920E-02 0. -1.
        2   -1    0    0  501    0  0.00000000000E+00  0.00000000000E+00 -0.15947333543E+04  0.15947333543E+04  0.25500000920E-02 0.  1.
    10030    2    1    2    0    0  0.00000000000E+00  0.00000000000E+00 -0.64347040980E+02  0.31251196677E+04  0.31244571361E+04 0.  0.
        1    1    3    3  502    0 -0.56564178268E+03 -0.49985107785E+03 -0.14002195113E+04  0.15907282628E+04  0.50400001928E-02 0.  1.
       -1    1    3    3    0  502  0.56564178268E+03  0.49985107785E+03  0.13358724703E+04  0.15343914048E+04  0.50400001928E-02 0. -1.
</event>
<event>
 5   0  0.3340899E-06  0.3099981E+04  0.7818609E-02  0.8215743E-01
       -2   -1    0    0    0  501  0.00000000000E+00  0.00000000000E+00  0.16355964991E+04  0.16355964991E+04  0.25500000920E-02 0. -1.
        2   -1    0    0  501    0  0.00000000000E+00  0.00000000000E+00 -0.14688652395E+04  0.14688652395E+04  0.25500000920E-02 0.  1.
    10030    2    1    2    0    0  0.00000000000E+00  0.00000000000E+00  0.16673125963E+03  0.31044617386E+04  0.30999811892E+04 0.  0.
        3    1    3    3  502    0 -0.56854515567E+03  0.19271590631E+02 -0.13605420975E+04  0.14746829481E+04  0.10100000352E+00 0.  1.
       -3    1    3    3    0  502  0.56854515567E+03 -0.19271590631E+02  0.15272733571E+04  0.16297787905E+04  0.10100000352E+00 0. -1.
</event>
<event>
 5   0  0.3374790E-06  0.3227754E+04  0.7818609E-02  0.8181526E-01
       -2   -1    0    0    0  501  0.00000000000E+00  0.00000000000E+00  0.11596994313E+04  0.11596994313E+04  0.25500000920E-02 0.  1.
        2   -1    0    0  501    0  0.00000000000E+00  0.00000000000E+00 -0.22459256548E+04  0.22459256548E+04  0.25500000920E-02 0. -1.
    10030    2    1    2    0    0  0.00000000000E+00  0.00000000000E+00 -0.10862262236E+04  0.34056250861E+04  0.32277538349E+04 0.  0.
        2    1    3    3  502    0  0.20420920519E+03  0.76796298363E+03  0.93897593622E+03  0.12300993263E+04  0.25500000920E-02 0.  1.
       -2    1    3    3    0  502 -0.20420920519E+03 -0.76796298363E+03 -0.20252021598E+04  0.21755257598E+04  0.25500000920E-02 0. -1.
</event>
<event>
 5   0  0.3445410E-06  0.3115552E+04  0.7818609E-02  0.8211483E-01
       -2   -1    0    0    0  501  0.00000000000E+00  0.00000000000E+00  0.24263986940E+04  0.24263986940E+04  0.25500000920E-02 0. -1.
        2   -1    0    0  501    0  0.00000000000E+00  0.00000000000E+00 -0.10001100526E+04  0.10001100526E+04  0.25500000920E-02 0.  1.
    10030    2    1    2    0    0  0.00000000000E+00  0.00000000000E+00  0.14262886415E+04  0.34265087466E+04  0.31155517813E+04 0.  0.
        1    1    3    3  502    0 -0.55214157140E+03 -0.16799209824E+03  0.23044810000E+04  0.23756502982E+04  0.50400001928E-02 0. -1.
       -1    1    3    3    0  502  0.55214157140E+03  0.16799209824E+03 -0.87819235855E+03  0.10508584484E+04  0.50400001928E-02 0.  1.
</event>
<event>
 5   0  0.3441897E-06  0.3122108E+04  0.7818609E-02  0.8209697E-01
       -2   -1    0    0    0  501  0.00000000000E+00  0.00000000000E+00  0.14879917638E+04  0.14879917638E+04  0.25500000920E-02 0.  1.
        2   -1    0    0  501    0  0.00000000000E+00  0.00000000000E+00 -0.16377032911E+04  0.16377032911E+04  0.25500000920E-02 0. -1.
    10030    2    1    2    0    0  0.00000000000E+00  0.00000000000E+00 -0.14971152727E+03  0.31256950549E+04  0.31221076271E+04 0.  0.
        5    1    3    3  502    0  0.94462806597E+03 -0.34248607615E+03  0.11211918270E+04  0.15055603935E+04  0.46999998093E+01 0.  1.
       -5    1    3    3    0  502 -0.94462806597E+03  0.34248607615E+03 -0.12709033543E+04  0.16201346615E+04  0.46999998093E+01 0. -1.
</event>
<event>
 5   0  0.3374790E-06  0.3091940E+04  0.7818609E-02  0.8217953E-01
        2   -1    0    0  501    0  0.00000000000E+00  0.00000000000E+00  0.67097884558E+03  0.67097884559E+03  0.25500000920E-02 0.  1.
       -2   -1    0    0    0  501  0.00000000000E+00  0.00000000000E+00 -0.35619954470E+04  0.35619954470E+04  0.25500000920E-02 0. -1.
    10030    2    1    2    0    0  0.00000000000E+00  0.00000000000E+00 -0.28910166014E+04  0.42329742926E+04  0.30919402278E+04 0.  0.
        2    1    3    3  502    0 -0.29274441156E+03  0.13791165931E+04 -0.23139144139E+04  0.27095870133E+04  0.25500000920E-02 0. -1.
       -2    1    3    3    0  502  0.29274441156E+03 -0.13791165931E+04 -0.57710218749E+03  0.15233872793E+04  0.25500000920E-02 0.  1.
</event>
<event>
 5   0  0.1211008E-06  0.3342397E+04  0.7818609E-02  0.8152191E-01
       -1   -1    0    0    0  501  0.00000000000E+00  0.00000000000E+00  0.23901948005E+04  0.23901948006E+04  0.50400001928E-02 0.  1.
        1   -1    0    0  501    0  0.00000000000E+00  0.00000000000E+00 -0.11684836700E+04  0.11684836700E+04  0.50400001928E-02 0. -1.
    10030    2    1    2    0    0  0.00000000000E+00  0.00000000000E+00  0.12217111305E+04  0.35586784706E+04  0.33423965011E+04 0.  0.
        3    1    3    3  502    0 -0.25730095028E+02 -0.10200050898E+03 -0.11649550875E+04  0.11696950491E+04  0.10100000352E+00 0. -1.
       -3    1    3    3    0  502  0.25730095028E+02  0.10200050898E+03  0.23866662181E+04  0.23889834215E+04  0.10100000352E+00 0.  1.
</event>
<event>
 5   0  0.1198763E-06  0.3154647E+04  0.7818609E-02  0.8200898E-01
        1   -1    0    0  501    0  0.00000000000E+00  0.00000000000E+00  0.22365639782E+04  0.22365639782E+04  0.50400001928E-02 0. -1.
       -1   -1    0    0    0  501  0.00000000000E+00  0.00000000000E+00 -0.11123981829E+04  0.11123981829E+04  0.50400001928E-02 0.  1.
    10030    2    1    2    0    0  0.00000000000E+00  0.00000000000E+00  0.11241657953E+04  0.33489621611E+04  0.31546471785E+04 0.  0.
        1    1    3    3  502    0 -0.42992933342E+03 -0.11118910386E+03 -0.10446661572E+04  0.11351341897E+04  0.50400001928E-02 0.  1.
       -1    1    3    3    0  502  0.42992933342E+03  0.11118910386E+03  0.21688319526E+04  0.22138279714E+04  0.50400001928E-02 0. -1.
</event>
<event>
 5   0  0.3374790E-06  0.3032779E+04  0.7818609E-02  0.8234432E-01
       -2   -1    0    0    0  501  0.00000000000E+00  0.00000000000E+00  0.12144346724E+04  0.12144346724E+04  0.25500000920E-02 0. -1.
        2   -1    0    0  501    0  0.00000000000E+00  0.00000000000E+00 -0.18934212116E+04  0.18934212116E+04  0.25500000920E-02 0.  1.
    10030    2    1    2    0    0  0.00000000000E+00  0.00000000000E+00 -0.67898653923E+03  0.31078558841E+04  0.30327785075E+04 0.  0.
        2    1    3    3  502    0  0.32465156782E+03  0.36730204286E+03  0.11309955880E+04  0.12326639653E+04  0.25500000920E-02 0. -1.
       -2    1    3    3    0  502 -0.32465156782E+03 -0.36730204286E+03 -0.18099821273E+04  0.18751919188E+04  0.25500000920E-02 0.  1.
</event>
<event>
 5   0  0.3441897E-06  0.2908524E+04  0.7818609E-02  0.8270346E-01
       -2   -1    0    0    0  501  0.00000000000E+00  0.00000000000E+00  0.16663720896E+04  0.16663720896E+04  0.25500000920E-02 0.  1.
        2   -1    0    0  501    0  0.00000000000E+00  0.00000000000E+00 -0.12691514039E+04  0.12691514039E+04  0.25500000920E-02 0. -1.
    10030    2    1    2    0    0  0.00000000000E+00  0.00000000000E+00  0.39722068569E+03  0.29355234935E+04  0.29085243523E+04 0.  0.
        5    1    3    3  502    0 -0.79454189491E+03 -0.33853941878E+03 -0.98227232518E+03  0.13079704781E+04  0.46999998093E+01 0. -1.
       -5    1    3    3    0  502  0.79454189491E+03  0.33853941878E+03  0.13794930109E+04  0.16275530154E+04  0.46999998093E+01 0.  1.
</event>
<event>
 5   0  0.3441897E-06  0.3049527E+04  0.7818609E-02  0.8229728E-01
       -2   -1    0    0    0  501  0.00000000000E+00  0.00000000000E+00  0.91751623520E+03  0.91751623520E+03  0.25500000920E-02 0.  1.
        2   -1    0    0  501    0  0.00000000000E+00  0.00000000000E+00 -0.25339108375E+04  0.25339108375E+04  0.25500000920E-02 0. -1.
    10030    2    1    2    0    0  0.00000000000E+00  0.00000000000E+00 -0.16163946023E+04  0.34514270727E+04  0.30495273942E+04 0.  0.
        5    1    3    3  502    0 -0.21104170665E+03  0.14448392342E+04 -0.31126092862E+03  0.14929850871E+04  0.46999998093E+01 0. -1.
       -5    1    3    3    0  502  0.21104170665E+03 -0.14448392342E+04 -0.13051336736E+04  0.19584419855E+04  0.46999998093E+01 0.  1.
</event>
<event>
 5   0  0.1235960E-06  0.3096846E+04  0.7818609E-02  0.8216604E-01
       -1   -1    0    0    0  501  0.00000000000E+00  0.00000000000E+00  0.13435464283E+04  0.13435464284E+04  0.50400001928E-02 0.  1.
        1   -1    0    0  501    0  0.00000000000E+00  0.00000000000E+00 -0.17845407739E+04  0.17845407739E+04  0.50400001928E-02 0. -1.
    10030    2    1    2    0    0  0.00000000000E+00  0.00000000000E+00 -0.44099434558E+03  0.31280872023E+04  0.30968457392E+04 0.  0.
        4    1    3    3  502    0  0.14829361309E+04  0.42028731034E+03 -0.71117535862E+02  0.15429842217E+04  0.12699999809E+01 0.  1.
       -4    1    3    3    0  502 -0.14829361309E+04 -0.42028731034E+03 -0.36987680972E+03  0.15851029806E+04  0.12699999809E+01 0. -1.
</event>
<event>
 5   0  0.1250276E-06  0.2545198E+04  0.7818609E-02  0.8387058E-01
       -1   -1    0    0    0  501  0.00000000000E+00  0.00000000000E+00  0.13063233205E+04  0.13063233205E+04  0.50400001928E-02 0.  1.
        1   -1    0    0  501    0  0.00000000000E+00  0.00000000000E+00 -0.12397449392E+04  0.12397449393E+04  0.50400001928E-02 0. -1.
    10030    2    1    2    0    0  0.00000000000E+00  0.00000000000E+00  0.66578381257E+02  0.25460682598E+04  0.25451976156E+04 0.  0.
        5    1    3    3  502    0 -0.44140743496E+03  0.84488686540E+03 -0.81009546597E+03  0.12509800530E+04  0.46999998093E+01 0. -1.
       -5    1    3    3    0  502  0.44140743496E+03 -0.84488686540E+03  0.87667384722E+03  0.12950882068E+04  0.46999998093E+01 0.  1.
</event>
<event>
 5   0  0.3445410E-06  0.3114364E+04  0.7818609E-02  0.8211807E-01
        2   -1    0    0  501    0  0.00000000000E+00  0.00000000000E+00  0.16470092050E+04  0.16470092050E+04  0.25500000920E-02 0.  1.
       -2   -1    0    0    0  501  0.00000000000E+00  0.00000000000E+00 -0.14722540477E+04  0.14722540477E+04  0.25500000920E-02 0. -1.
    10030    2    1    2    0    0  0.00000000000E+00  0.00000000000E+00  0.17475515727E+03  0.31192632527E+04  0.31143641204E+04 0.  0.
        1    1    3    3  502    0 -0.89248981225E+03  0.95331279256E+03  0.93692920991E+03  0.16072273299E+04  0.50400001928E-02 0.  1.
       -1    1    3    3    0  502  0.89248981225E+03 -0.95331279256E+03 -0.76217405264E+03  0.15120359228E+04  0.50400001928E-02 0. -1.
</event>
<event>
 5   0  0.3445959E-06  0.3174424E+04  0.7818609E-02  0.8195605E-01
        2   -1    0    0  501    0  0.00000000000E+00  0.00000000000E+00  0.23046559339E+04  0.23046559339E+04  0.25500000920E-02 0.  1.
       -2   -1    0    0    0  501  0.00000000000E+00  0.00000000000E+00 -0.10931096692E+04  0.10931096692E+04  0.25500000920E-02 0. -1.
    10030    2    1    2    0    0  0.00000000000E+00  0.00000000000E+00  0.12115462647E+04  0.33977656031E+04  0.31744238441E+04 0.  0.
        4    1    3    3  502    0  0.11768230159E+04  0.62161098731E+03 -0.31990123304E+03  0.13688137353E+04  0.12699999809E+01 0. -1.
       -4    1    3    3    0  502 -0.11768230159E+04 -0.62161098731E+03  0.15314474977E+04  0.20289518677E+04  0.12699999809E+01 0.  1.
</event>
<event>
 5   0  0.3374790E-06  0.2775493E+04  0.7818609E-02  0.8310917E-01
       -2   -1    0    0    0  501  0.00000000000E+00  0.00000000000E+00  0.85552770330E+03  0.85552770330E+03  0.25500000920E-02 0.  1.
        2   -1    0    0  501    0  0.00000000000E+00  0.00000000000E+00 -0.22510553097E+04  0.22510553097E+04  0.25500000920E-02 0. -1.
    10030    2    1    2    0    0  0.00000000000E+00  0.00000000000E+00 -0.13955276064E+04  0.31065830130E+04  0.27754928781E+04 0.  0.
        2    1    3    3  502    0 -0.13347359930E+04 -0.20133101075E+03 -0.10583523114E+04  0.17152737280E+04  0.25500000920E-02 0. -1.
       -2    1    3    3    0  502  0.13347359930E+04  0.20133101075E+03 -0.33717529498E+03  0.13913092850E+04  0.25500000920E-02 0.  1.
</event>
<event>
 5   0  0.3374790E-06  0.3065687E+04  0.7818609E-02  0.8225218E-01
        2   -1    0    0  501    0  0.00000000000E+00  0.00000000000E+00  0.18900379395E+04  0.18900379395E+04  0.25500000920E-02 0. -1.
       -2   -1    0    0    0  501  0.00000000000E+00  0.00000000000E+00 -0.12431542770E+04  0.12431542770E+04  0.25500000920E-02 0.  1.
    10030    2    1    2    0    0  0.00000000000E+00  0.00000000000E+00  0.64688366249E+03  0.31331922165E+04  0.30656867082E+04 0.  0.
        2    1    3    3  502    0  0.21651532513E+03  0.93250877801E+03 -0.90006441042E+03  0.13139891362E+04  0.25500000920E-02 0.  1.
       -2    1    3    3    0  502 -0.21651532513E+03 -0.93250877801E+03  0.15469480729E+04  0.18192030803E+04  0.25500000920E-02 0. -1.
</event>
<event>
 5   0  0.1171915E-06  0.3103739E+04  0.7818609E-02  0.8214713E-01
        1   -1    0    0  501    0  0.00000000000E+00  0.00000000000E+00  0.27878837871E+04  0.27878837871E+04  0.50400001928E-02 0.  1.
       -1   -1    0    0    0  501  0.00000000000E+00  0.00000000000E+00 -0.86384477786E+03  0.86384477787E+03  0.50400001928E-02 0. -1.
    10030    2    1    2    0    0  0.00000000000E+00  0.00000000000E+00  0.19240390093E+04  0.36517285650E+04  0.31037389393E+04 0.  0.
        2    1    3    3  502    0  0.40978387305E+02 -0.69893737259E+03  0.25915017215E+04  0.26844131298E+04  0.25500000920E-02 0.  1.
       -2    1    3    3    0  502 -0.40978387305E+02  0.69893737259E+03 -0.66746271219E+03  0.96731543521E+03  0.25500000920E-02 0. -1.
</event>
<event>
 5   0  0.1211008E-06  0.2771740E+04  0.7818609E-02  0.8312096E-01
        1   -1    0    0  501    0  0.00000000000E+00  0.00000000000E+00  0.18273319926E+04  0.18273319927E+04  0.50400001928E-02 0. -1.
       -1   -1    0    0    0  501  0.00000000000E+00  0.00000000000E+00 -0.10510600417E+04  0.10510600417E+04  0.50400001928E-02 0.  1.
    10030    2    1    2    0    0  0.00000000000E+00  0.00000000000E+00  0.77627195097E+03  0.28783920343E+04  0.27717399881E+04 0.  0.
        3    1    3    3  502    0 -0.13200430250E+04 -0.38168852841E+03  0.57516564148E+03  0.14896359440E+04  0.10100000352E+00 0.  1.
       -3    1    3    3    0  502  0.13200430250E+04  0.38168852841E+03  0.20110630948E+03  0.13887560903E+04  0.10100000352E+00 0. -1.
</event>
<event>
 5   0  0.3441897E-06  0.3059885E+04  0.7818609E-02  0.8226834E-01
       -2   -1    0    0    0  501  0.00000000000E+00  0.00000000000E+00  0.13459074836E+04  0.13459074836E+04  0.25500000920E-02 0.  1.
        2   -1    0    0  501    0  0.00000000000E+00  0.00000000000E+00 -0.17391414245E+04  0.17391414245E+04  0.25500000920E-02 0. -1.
    10030    2    1    2    0    0  0.00000000000E+00  0.00000000000E+00 -0.39323394088E+03  0.30850489081E+04  0.30598846111E+04 0.  0.
        5    1    3    3  502    0  0.74433075116E+02  0.10268392316E+04  0.94439780399E+03  0.13970856783E+04  0.46999998093E+01 0.  1.
       -5    1    3    3    0  502 -0.74433075116E+02 -0.10268392316E+04 -0.13376317449E+04  0.16879632298E+04  0.46999998093E+01 0. -1.
</event>
<event>
 5   0  0.3445410E-06  0.3023663E+04  0.7818609E-02  0.8237006E-01
        2   -1    0    0  501    0  0.00000000000E+00  0.00000000000E+00  0.15440719305E+04  0.15440719305E+04  0.25500000920E-02 0. -1.
       -2   -1    0    0    0  501  0.00000000000E+00  0.00000000000E+00 -0.14802644092E+04  0.14802644092E+04  0.25500000920E-02 0.  1.
    10030    2    1    2    0    0  0.00000000000E+00  0.00000000000E+00  0.63807521283E+02  0.30243363397E+04  0.30236631585E+04 0.  0.
        1    1    3    3  502    0 -0.60160387308E+03  0.53515123159E+03 -0.12479594363E+04  0.14851655852E+04  0.50400001928E-02 0.  1.
       -1    1    3    3    0  502  0.60160387308E+03 -0.53515123159E+03  0.13117669575E+04  0.15391707546E+04  0.50400001928E-02 0. -1.
</event>
<event>
 5   0  0.1235960E-06  0.3102560E+04  0.7818609E-02  0.8215036E-01
       -1   -1    0    0    0  501  0.00000000000E+00  0.00000000000E+00  0.97128300368E+03  0.97128300369E+03  0.50400001928E-02 0. -1.
        1   -1    0    0  501    0  0.00000000000E+00  0.00000000000E+00 -0.24776198240E+04  0.24776198240E+04  0.50400001928E-02 0.  1.
    10030    2    1    2    0    0  0.00000000000E+00  0.00000000000E+00 -0.15063368203E+04  0.34489028277E+04  0.31025602490E+04 0.  0.
        4    1    3    3  502    0  0.96561767596E+03 -0.12023281182E+04 -0.94069506756E+03  0.18063552317E+04  0.12699999809E+01 0.  1.
       -4    1    3    3    0  502 -0.96561767596E+03  0.12023281182E+04 -0.56564175276E+03  0.16425475960E+04  0.12699999809E+01 0. -1.
</event>
<event>
 5   0  0.1211008E-06  0.3140460E+04  0.7818609E-02  0.8204721E-01
       -1   -1    0    0    0  501  0.00000000000E+00  0.00000000000E+00  0.12882155175E+04  0.12882155175E+04  0.50400001928E-02 0.  1.
        1   -1    0    0  501    0  0.00000000000E+00  0.00000000000E+00 -0.19139828487E+04  0.19139828487E+04  0.50400001928E-02 0. -1.
    10030    2    1    2    0    0  0.00000000000E+00  0.00000000000E+00 -0.62576733120E+03  0.32021983662E+04  0.31404600974E+04 0.  0.
        3    1    3    3  502    0 -0.10914759064E+04  0.16303874973E+03  0.82609007914E+03  0.13785231653E+04  0.10100000352E+00 0.  1.
       -3    1    3    3    0  502  0.10914759064E+04 -0.16303874973E+03 -0.14518574103E+04  0.18236752009E+04  0.10100000352E+00 0. -1.
</event>
<event>
 5   0  0.3441897E-06  0.3141500E+04  0.7818609E-02  0.8204440E-01
       -2   -1    0    0    0  501  0.00000000000E+00  0.00000000000E+00  0.13254838554E+04  0.13254838554E+04  0.25500000920E-02 0.  1.
        2   -1    0    0  501    0  0.00000000000E+00  0.00000000000E+00 -0.18613999496E+04  0.18613999496E+04  0.25500000920E-02 0. -1.
    10030    2    1    2    0    0  0.00000000000E+00  0.00000000000E+00 -0.53591609427E+03  0.31868838050E+04  0.31415000122E+04 0.  0.
        5    1    3    3  502    0  0.10637845370E+04 -0.14916431240E+03 -0.14305270369E+04  0.17889430473E+04  0.46999998093E+01 0. -1.
       -5    1    3    3    0  502 -0.10637845370E+04  0.14916431240E+03  0.89461094260E+03  0.13979407577E+04  0.46999998093E+01 0.  1.
</event>
<event>
 5   0  0.3441897E-06  0.3097350E+04  0.7818609E-02  0.8216466E-01
       -2   -1    0    0    0  501  0.00000000000E+00  0.00000000000E+00  0.16571499234E+04  0.16571499234E+04  0.25500000920E-02 0. -1.
        2   -1    0    0  501    0  0.00000000000E+00  0.00000000000E+00 -0.14473007879E+04  0.14473007879E+04  0.25500000920E-02 0.  1.
    10030    2    1    2    0    0  0.00000000000E+00  0.00000000000E+00  0.20984913558E+03  0.31044507113E+04  0.30973500866E+04 0.  0.
        5    1    3    3  502    0 -0.44108673714E+01 -0.28224599603E+03  0.16311399346E+04  0.16553917465E+04  0.46999998093E+01 0. -1.
       -5    1    3    3    0  502  0.44108673714E+01  0.28224599603E+03 -0.14212907990E+04  0.14490589648E+04  0.46999998093E+01 0.  1.
</event>
<event>
 5   0  0.3374790E-06  0.3095586E+04  0.7818609E-02  0.8216950E-01
       -2   -1    0    0    0  501  0.00000000000E+00  0.00000000000E+00  0.14481395951E+04  0.14481395951E+04  0.25500000920E-02 0. -1.
        2   -1    0    0  501    0  0.00000000000E+00  0.00000000000E+00 -0.16543037863E+04  0.16543037863E+04  0.25500000920E-02 0.  1.
    10030    2    1    2    0    0  0.00000000000E+00  0.00000000000E+00 -0.20616419119E+03  0.31024433814E+04  0.30955857703E+04 0.  0.
        2    1    3    3  502    0  0.10307331313E+04 -0.11534188520E+04 -0.49325794696E+02  0.15476494662E+04  0.25500000920E-02 0. -1.
       -2    1    3    3    0  502 -0.10307331313E+04  0.11534188520E+04 -0.15683839650E+03  0.15547939152E+04  0.25500000920E-02 0.  1.
</event>
<event>
 5   0  0.3445959E-06  0.3100282E+04  0.7818609E-02  0.8215660E-01
       -2   -1    0    0    0  501  0.00000000000E+00  0.00000000000E+00  0.13233197373E+04  0.13233197373E+04  0.25500000920E-02 0.  1.
        2   -1    0    0  501    0  0.00000000000E+00  0.00000000000E+00 -0.18158405043E+04  0.18158405043E+04  0.25500000920E-02 0. -1.
    10030    2    1    2    0    0  0.00000000000E+00  0.00000000000E+00 -0.49252076694E+03  0.31391602416E+04  0.31002822963E+04 0.  0.
        4    1    3    3  502    0  0.84227321243E+03 -0.22903733129E+03 -0.15433609279E+04  0.17730896284E+04  0.12699999809E+01 0. -1.
       -4    1    3    3    0  502 -0.84227321243E+03  0.22903733129E+03  0.10508401610E+04  0.13660706132E+04  0.12699999809E+01 0.  1.
</event>
<event>
 5   0  0.1198763E-06  0.3132673E+04  0.7818609E-02  0.8206828E-01
        1   -1    0    0  501    0  0.00000000000E+00  0.00000000000E+00  0.19922310213E+04  0.19922310213E+04  0.50400001928E-02 0. -1.
       -1   -1    0    0    0  501  0.00000000000E+00  0.00000000000E+00 -0.12314883995E+04  0.12314883995E+04  0.50400001928E-02 0.  1.
    10030    2    1    2    0    0  0.00000000000E+00  0.00000000000E+00  0.76074262176E+03  0.32237194208E+04  0.31326725918E+04 0.  0.
        1    1    3    3  502    0 -0.44616626552E+03 -0.76882880805E+03  0.17075232448E+04  0.19250448577E+04  0.50400001928E-02 0. -1.
       -1    1    3    3    0  502  0.44616626552E+03  0.76882880805E+03 -0.94678062304E+03  0.12986745631E+04  0.50400001928E-02 0.  1.
</event>
<event>
 5   0  0.1198763E-06  0.2948119E+04  0.7818609E-02  0.8258703E-01
        1   -1    0    0  501    0  0.00000000000E+00  0.00000000000E+00  0.16076360323E+04  0.16076360324E+04  0.50400001928E-02 0. -1.
       -1   -1    0    0    0  501  0.00000000000E+00  0.00000000000E+00 -0.13515819363E+04  0.13515819363E+04  0.50400001928E-02 0.  1.
    10030    2    1    2    0    0  0.00000000000E+00  0.00000000000E+00  0.25605409605E+03  0.29592179687E+04  0.29481192795E+04 0.  0.
        1    1    3    3  502    0  0.61736861567E+02 -0.14423150394E+04 -0.17103369559E+03  0.14537319691E+04  0.50400001928E-02 0.  1.
       -1    1    3    3    0  502 -0.61736861567E+02  0.14423150394E+04  0.42708779163E+03  0.15054859995E+04  0.50400001928E-02 0. -1.
</event>
<event>
 5   0  0.1250276E-06  0.3090788E+04  0.7818609E-02  0.8218271E-01
        1   -1    0    0  501    0  0.00000000000E+00  0.00000000000E+00  0.11382947286E+04  0.11382947286E+04  0.50400001928E-02 0.  1.
       -1   -1    0    0    0  501  0.00000000000E+00  0.00000000000E+00 -0.20980876589E+04  0.20980876589E+04  0.50400001928E-02 0. -1.
    10030    2    1    2    0    0  0.00000000000E+00  0.00000000000E+00 -0.95979293033E+03  0.32363823875E+04  0.30907876810E+04 0.  0.
        5    1    3    3  502    0  0.68763754927E+03  0.12509952260E+04 -0.10997138699E+04  0.18020064207E+04  0.46999998093E+01 0. -1.
       -5    1    3    3    0  502 -0.68763754927E+03 -0.12509952260E+04  0.13992093956E+03  0.14343759668E+04  0.46999998093E+01 0.  1.
</event>
<event>
 5   0  0.3445410E-06  0.3129087E+04  0.7818609E-02  0.8207800E-01
       -2   -1    0    0    0  501  0.00000000000E+00  0.00000000000E+00  0.16302521574E+04  0.16302521574E+04  0.25500000920E-02 0.  1.
        2   -1    0    0  501    0  0.00000000000E+00  0.00000000000E+00 -0.15014836940E+04  0.15014836940E+04  0.25500000920E-02 0. -1.
    10030    2    1    2    0    0  0.00000000000E+00  0.00000000000E+00  0.12876846348E+03  0.31317358514E+04  0.31290874270E+04 0.  0.
        1    1    3    3  502    0  0.14702699941E+04 -0.28582410754E+02 -0.47018975954E+03  0.15438876966E+04  0.50400001928E-02 0. -1.
       -1    1    3    3    0  502 -0.14702699941E+04  0.28582410754E+02  0.59895822301E+03  0.15878481548E+04  0.50400001928E-02 0.  1.
</event>
<event>
 5   0  0.3445959E-06  0.2779733E+04  0.7818609E-02  0.8309588E-01
       -2   -1    0    0    0  501  0.00000000000E+00  0.00000000000E+00  0.14054254743E+04  0.14054254743E+04  0.25500000920E-02 0.  1.
        2   -1    0    0  501    0  0.00000000000E+00  0.00000000000E+00 -0.13744794548E+04  0.13744794548E+04  0.25500000920E-02 0. -1.
    10030    2    1    2    0    0  0.00000000000E+00  0.00000000000E+00  0.30946019585E+02  0.27799049291E+04  0.27797326776E+04 0.  0.
        4    1    3    3  502    0 -0.42145752032E+03 -0.82632248869E+03 -0.10196232676E+04  0.13784297289E+04  0.12699999809E+01 0. -1.
       -4    1    3    3    0  502  0.42145752032E+03  0.82632248869E+03  0.10505692872E+04  0.14014752002E+04  0.12699999809E+01 0.  1.
</event>
<event>
 5   0  0.1235960E-06  0.3104806E+04  0.7818609E-02  0.8214420E-01
        1   -1    0    0  501    0  0.00000000000E+00  0.00000000000E+00  0.20533509220E+04  0.20533509220E+04  0.50400001928E-02 0.  1.
       -1   -1    0    0    0  501  0.00000000000E+00  0.00000000000E+00 -0.11736694539E+04  0.11736694539E+04  0.50400001928E-02 0. -1.
    10030    2    1    2    0    0  0.00000000000E+00  0.00000000000E+00  0.87968146813E+03  0.32270203760E+04  0.31048061166E+04 0.  0.
        4    1    3    3  502    0 -0.13814442028E+04 -0.37256718276E+03 -0.18616234712E+03  0.14428625795E+04  0.12699999809E+01 0. -1.
       -4    1    3    3    0  502  0.13814442028E+04  0.37256718276E+03  0.10658438153E+04  0.17841577964E+04  0.12699999809E+01 0.  1.
</event>
<event>
 5   0  0.1250276E-06  0.3091290E+04  0.7818609E-02  0.8218132E-01
       -1   -1    0    0    0  501  0.00000000000E+00  0.00000000000E+00  0.14718036157E+04  0.14718036157E+04  0.50400001928E-02 0. -1.
        1   -1    0    0  501    0  0.00000000000E+00  0.00000000000E+00 -0.16231909849E+04  0.16231909850E+04  0.50400001928E-02 0.  1.
    10030    2    1    2    0    0  0.00000000000E+00  0.00000000000E+00 -0.15138736925E+03  0.30949946007E+04  0.30912899318E+04 0.  0.
        5    1    3    3  502    0  0.21843190946E+03  0.15289625022E+04 -0.15977938934E+02  0.15445763874E+04  0.46999998093E+01 0.  1.
       -5    1    3    3    0  502 -0.21843190946E+03 -0.15289625022E+04 -0.13540943031E+03  0.15504182132E+04  0.46999998093E+01 0. -1.
</event>
<event>
 5   0  0.3445410E-06  0.3120975E+04  0.7818609E-02  0.8210005E-01
       -2   -1    0    0    0  501  0.00000000000E+00  0.00000000000E+00  0.94452273306E+03  0.94452273306E+03  0.25500000920E-02 0. -1.
        2   -1    0    0  501    0  0.00000000000E+00  0.00000000000E+00 -0.25781493666E+04  0.25781493666E+04  0.25500000920E-02 0.  1.
    10030    2    1    2    0    0  0.00000000000E+00  0.00000000000E+00 -0.16336266335E+04  0.35226720996E+04  0.31209746464E+04 0.  0.
        1    1    3    3  502    0 -0.77916818998E+03  0.12364838244E+04 -0.19949579615E+03  0.14750572494E+04  0.50400001928E-02 0. -1.
       -1    1    3    3    0  502  0.77916818998E+03 -0.12364838244E+04 -0.14341308373E+04  0.20476148502E+04  0.50400001928E-02 0.  1.
</event>
<event>
 5   0  0.1211008E-06  0.3098504E+04  0.7818609E-02  0.8216149E-01
        1   -1    0    0  501    0  0.00000000000E+00  0.00000000000E+00  0.11892952803E+04  0.11892952803E+04  0.50400001928E-02 0. -1.
       -1   -1    0    0    0  501  0.00000000000E+00  0.00000000000E+00 -0.20181544972E+04  0.20181544972E+04  0.50400001928E-02 0.  1.
    10030    2    1    2    0    0  0.00000000000E+00  0.00000000000E+00 -0.82885921687E+03  0.32074497775E+04  0.30985039090E+04 0.  0.
        3    1    3    3  502    0  0.12981194937E+04 -0.65746821826E+03  0.13606081600E+03  0.14614688618E+04  0.10100000352E+00 0. -1.
       -3    1    3    3    0  502 -0.12981194937E+04  0.65746821826E+03 -0.96492003287E+03  0.17459809157E+04  0.10100000352E+00 0.  1.
</event>
<event>
 5   0  0.3374790E-06  0.3110478E+04  0.7818609E-02  0.8212868E-01
       -2   -1    0    0    0  501  0.00000000000E+00  0.00000000000E+00  0.10945179041E+04  0.10945179041E+04  0.25500000920E-02 0.  1.
        2   -1    0    0  501    0  0.00000000000E+00  0.00000000000E+00 -0.22098941522E+04  0.22098941522E+04  0.25500000920E-02 0. -1.
    10030    2    1    2    0    0  0.00000000000E+00  0.00000000000E+00 -0.11153762481E+04  0.33044120563E+04  0.31104782370E+04 0.  0.
        2    1    3    3  502    0  0.12526183209E+04  0.50436145580E+03  0.26199869274E+03  0.13755276991E+04  0.25500000920E-02 0.  1.
       -2    1    3    3    0  502 -0.12526183209E+04 -0.50436145580E+03 -0.13773749408E+04  0.19288843572E+04  0.25500000920E-02 0. -1.
</event>
<event>
 5   0  0.3374790E-06  0.3095766E+04  0.7818609E-02  0.8216901E-01
       -2   -1    0    0    0  501  0.00000000000E+00  0.00000000000E+00  0.15051692311E+04  0.15051692311E+04  0.25500000920E-02 0.  1.
        2   -1    0    0  501    0  0.00000000000E+00  0.00000000000E+00 -0.15918084524E+04  0.15918084524E+04  0.25500000920E-02 0. -1.
    10030    2    1    2    0    0  0.00000000000E+00  0.00000000000E+00 -0.86639221271E+02  0.30969776834E+04  0.30957655624E+04 0.  0.
        2    1    3    3  502    0 -0.12880242604E+03 -0.42973717957E+03  0.14387046628E+04  0.15070286047E+04  0.25500000920E-02 0.  1.
       -2    1    3    3    0  502  0.12880242604E+03  0.42973717957E+03 -0.15253438841E+04  0.15899490788E+04  0.25500000920E-02 0. -1.
</event>
<event>
 5   0  0.3445959E-06  0.3141457E+04  0.7818609E-02  0.8204452E-01
       -2   -1    0    0    0  501  0.00000000000E+00  0.00000000000E+00  0.16002181305E+04  0.16002181305E+04  0.25500000920E-02 0. -1.
        2   -1    0    0  501    0  0.00000000000E+00  0.00000000000E+00 -0.15417823627E+04  0.15417823627E+04  0.25500000920E-02 0.  1.
    10030    2    1    2    0    0  0.00000000000E+00  0.00000000000E+00  0.58435767781E+02  0.31420004932E+04  0.31414570442E+04 0.  0.
        4    1    3    3  502    0  0.10464496564E+04 -0.69413312016E+03 -0.91450711086E+03  0.15534485961E+04  0.12699999809E+01 0.  1.
       -4    1    3    3    0  502 -0.10464496564E+04  0.69413312016E+03  0.97294287864E+03  0.15885518972E+04  0.12699999809E+01 0. -1.
</event>
<event>
 5   0  0.3340899E-06  0.2964406E+04  0.7818609E-02  0.8253969E-01
       -2   -1    0    0    0  501  0.00000000000E+00  0.00000000000E+00  0.94832782149E+03  0.94832782149E+03  0.25500000920E-02 0.  1.
        2   -1    0    0  501    0  0.00000000000E+00  0.00000000000E+00 -0.23166312744E+04  0.23166312744E+04  0.25500000920E-02 0. -1.
    10030    2    1    2    0    0  0.00000000000E+00  0.00000000000E+00 -0.13683034529E+04  0.32649590959E+04  0.29644061056E+04 0.  0.
        3    1    3    3  502    0  0.14593514106E+04 -0.86586359737E+02 -0.41499345250E+03  0.15196786874E+04  0.10100000352E+00 0. -1.
       -3    1    3    3    0  502 -0.14593514106E+04  0.86586359737E+02 -0.95331000045E+03  0.17452804085E+04  0.10100000352E+00 0.  1.
</event>
<event>
 5   0  0.3445410E-06  0.3102294E+04  0.7818609E-02  0.8215108E-01
        2   -1    0    0  501    0  0.00000000000E+00  0.00000000000E+00  0.14461417378E+04  0.14461417378E+04  0.25500000920E-02 0.  1.
       -2   -1    0    0    0  501  0.00000000000E+00  0.00000000000E+00 -0.16637772933E+04  0.16637772933E+04  0.25500000920E-02 0. -1.
    10030    2    1    2    0    0  0.00000000000E+00  0.00000000000E+00 -0.21763555550E+03  0.31099190311E+04  0.31022944968E+04 0.  0.
        1    1    3    3  502    0 -0.74285166566E+02 -0.14214268130E+04 -0.72684357737E+03  0.15982096410E+04  0.50400001928E-02 0. -1.
       -1    1    3    3    0  502  0.74285166566E+02  0.14214268130E+04  0.50920802187E+03  0.15117093901E+04  0.50400001928E-02 0.  1.
</event>
<event>
 5   0  0.3441897E-06  0.3073678E+04  0.7818609E-02  0.8222999E-01
        2   -1    0    0  501    0  0.00000000000E+00  0.00000000000E+00  0.18406773297E+04  0.18406773297E+04  0.25500000920E-02 0.  1.
       -2   -1    0    0    0  501  0.00000000000E+00  0.00000000000E+00 -0.12831547947E+04  0.12831547947E+04  0.25500000920E-02 0. -1.
    10030    2    1    2    0    0  0.00000000000E+00  0.00000000000E+00  0.55752253505E+03  0.31238321244E+04  0.30736778888E+04 0.  0.
        5    1    3    3  502    0  0.31177597496E+03 -0.10540998016E+04 -0.81278493797E+03  0.13671035424E+04  0.46999998093E+01 0. -1.
       -5    1    3    3    0  502 -0.31177597496E+03  0.10540998016E+04  0.13703074730E+04  0.17567285820E+04  0.46999998093E+01 0.  1.
</event>
<event>
 5   0  0.1235960E-06  0.3110631E+04  0.7818609E-02  0.8212826E-01
        1   -1    0    0  501    0  0.00000000000E+00  0.00000000000E+00  0.24967216202E+04  0.24967216202E+04  0.50400001928E-02 0. -1.
       -1   -1    0    0    0  501  0.00000000000E+00  0.00000000000E+00 -0.96887329938E+03  0.96887329940E+03  0.50400001928E-02 0.  1.
    10030    2    1    2    0    0  0.00000000000E+00  0.00000000000E+00  0.15278483209E+04  0.34655949196E+04  0.31106313918E+04 0.  0.
        4    1    3    3  502    0  0.10584039302E+04 -0.23117772053E+03  0.20072180211E+04  0.22809181956E+04  0.12699999809E+01 0. -1.
       -4    1    3    3    0  502 -0.10584039302E+04  0.23117772053E+03 -0.47936970023E+03  0.11846767240E+04  0.12699999809E+01 0.  1.
</event>
<event>
 5   0  0.1250276E-06  0.3104967E+04  0.7818609E-02  0.8214376E-01
        1   -1    0    0  501    0  0.00000000000E+00  0.00000000000E+00  0.10101146326E+04  0.10101146326E+04  0.50400001928E-02 0.  1.
       -1   -1    0    0    0  501  0.00000000000E+00  0.00000000000E+00 -0.23860709188E+04  0.23860709188E+04  0.50400001928E-02 0. -1.
    10030    2    1    2    0    0  0.00000000000E+00  0.00000000000E+00 -0.13759562861E+04  0.33961855514E+04  0.31049670848E+04 0.  0.
        5    1    3    3  502    0 -0.10632049162E+04 -0.75821250678E+01  0.54937035877E+03  0.11967840505E+04  0.46999998093E+01 0.  1.
       -5    1    3    3    0  502  0.10632049162E+04  0.75821250678E+01 -0.19253266449E+04  0.21994015009E+04  0.46999998093E+01 0. -1.
</event>
<event>
 5   0  0.3445959E-06  0.3103361E+04  0.7818609E-02  0.8214816E-01
       -2   -1    0    0    0  501  0.00000000000E+00  0.00000000000E+00  0.16317261175E+04  0.16317261175E+04  0.25500000920E-02 0.  1.
        2   -1    0    0  501    0  0.00000000000E+00  0.00000000000E+00 -0.14755611715E+04  0.14755611715E+04  0.25500000920E-02 0. -1.
    10030    2    1    2    0    0  0.00000000000E+00  0.00000000000E+00  0.15616494597E+03  0.31072872890E+04  0.31033605665E+04 0.  0.
        4    1    3    3  502    0 -0.34959451427E+03 -0.13083959279E+04  0.83640056584E+03  0.15917549271E+04  0.12699999809E+01 0.  1.
       -4    1    3    3    0  502  0.34959451427E+03  0.13083959279E+04 -0.68023561986E+03  0.15155323619E+04  0.12699999809E+01 0. -1.
</event>
<event>
 5   0  0.3374790E-06  0.3009317E+04  0.7818609E-02  0.8241075E-01
       -2   -1    0    0    0  501  0.00000000000E+00  0.00000000000E+00  0.17409477984E+04  0.17409477984E+04  0.25500000920E-02 0.  1.
        2   -1    0    0  501    0  0.00000000000E+00  0.00000000000E+00 -0.13004396585E+04  0.13004396585E+04  0.25500000920E-02 0. -1.
    10030    2    1    2    0    0  0.00000000000E+00  0.00000000000E+00  0.44050813987E+03  0.30413874570E+04  0.30093172385E+04 0.  0.
        2    1    3    3  502    0  0.10399598959E+04 -0.75042185590E+03 -0.57511949407E+03  0.14054935003E+04  0.25500000920E-02 0. -1.
       -2    1    3    3    0  502 -0.10399598959E+04  0.75042185590E+03  0.10156276339E+04  0.16358939567E+04  0.25500000920E-02 0.  1.
</event>
<event>
 5   0  0.1250276E-06  0.3079314E+04  0.7818609E-02  0.8221438E-01
        1   -1    0    0  501    0  0.00000000000E+00  0.00000000000E+00  0.18740934383E+04  0.18740934383E+04  0.50400001928E-02 0. -1.
       -1   -1    0    0    0  501  0.00000000000E+00  0.00000000000E+00 -0.12649013530E+04  0.12649013530E+04  0.50400001928E-02 0.  1.
    10030    2    1    2    0    0  0.00000000000E+00  0.00000000000E+00  0.60919208529E+03  0.31389947914E+04  0.30793137715E+04 0.  0.
        5    1    3    3  502    0 -0.42650479590E+03 -0.17407047126E+02 -0.12033689544E+04  0.12768430900E+04  0.46999998093E+01 0.  1.
       -5    1    3    3    0  502  0.42650479590E+03  0.17407047126E+02  0.18125610397E+04  0.18621517013E+04  0.46999998093E+01 0. -1.
</event>
<event>
 5   0  0.1235960E-06  0.3123028E+04  0.7818609E-02  0.8209446E-01
        1   -1    0    0  501    0  0.00000000000E+00  0.00000000000E+00  0.15864857172E+04  0.15864857172E+04  0.50400001928E-02 0. -1.
       -1   -1    0    0    0  501  0.00000000000E+00  0.00000000000E+00 -0.15369357172E+04  0.15369357172E+04  0.50400001928E-02 0.  1.
    10030    2    1    2    0    0  0.00000000000E+00  0.00000000000E+00  0.49550000037E+02  0.31234214344E+04  0.31230283788E+04 0.  0.
        4    1    3    3  502    0  0.14531867173E+04 -0.55869029261E+03  0.14495031815E+03  0.15636171801E+04  0.12699999809E+01 0. -1.
       -4    1    3    3    0  502 -0.14531867173E+04  0.55869029261E+03 -0.95400318111E+02  0.15598042543E+04  0.12699999809E+01 0.  1.
</event>
<event>
 5   0  0.3441897E-06  0.3097847E+04  0.7818609E-02  0.8216329E-01
        2   -1    0    0  501    0  0.00000000000E+00  0.00000000000E+00  0.22165439563E+04  0.22165439563E+04  0.25500000920E-02 0. -1.
       -2   -1    0    0    0  501  0.00000000000E+00  0.00000000000E+00 -0.10823893555E+04  0.10823893555E+04  0.25500000920E-02 0.  1.
    10030    2    1    2    0    0  0.00000000000E+00  0.00000000000E+00  0.11341546008E+04  0.32989333119E+04  0.30978467260E+04 0.  0.
        5    1    3    3  502    0  0.98050275132E+03 -0.82221416212E+03  0.14964955803E+04  0.19689954001E+04  0.46999998093E+01 0. -1.
       -5    1    3    3    0  502 -0.98050275132E+03  0.82221416212E+03 -0.36234097952E+03  0.13299379118E+04  0.46999998093E+01 0.  1.
</event>
<event>
 5   0  0.1171915E-06  0.3280000E+04  0.7818609E-02  0.8168003E-01
        1   -1    0    0  501    0  0.00000000000E+00  0.00000000000E+00  0.14704941103E+04  0.14704941103E+04  0.50400001928E-02 0.  1.
       -1   -1    0    0    0  501  0.00000000000E+00  0.00000000000E+00 -0.18290447176E+04  0.18290447176E+04  0.50400001928E-02 0. -1.
    10030    2    1    2    0    0  0.00000000000E+00  0.00000000000E+00 -0.35855060724E+03  0.32995388279E+04  0.32799996858E+04 0.  0.
        2    1    3    3  502    0  0.19934627902E+03  0.10361793769E+04  0.10836687634E+04  0.15125292159E+04  0.25500000920E-02 0.  1.
       -2    1    3    3    0  502 -0.19934627902E+03 -0.10361793769E+04 -0.14422193707E+04  0.17870096120E+04  0.25500000920E-02 0. -1.
</event>
<event>
 5   0  0.1211008E-06  0.2869148E+04  0.7818609E-02  0.8282116E-01
        1   -1    0    0  501    0  0.00000000000E+00  0.00000000000E+00  0.19631685637E+04  0.19631685637E+04  0.50400001928E-02 0.  1.
       -1   -1    0    0    0  501  0.00000000000E+00  0.00000000000E+00 -0.10483068590E+04  0.10483068590E+04  0.50400001928E-02 0. -1.
    10030    2    1    2    0    0  0.00000000000E+00  0.00000000000E+00  0.91486170468E+03  0.30114754227E+04  0.28691483550E+04 0.  0.
        3    1    3    3  502    0  0.47561613717E+03 -0.12748505301E+04  0.93445165228E+03  0.16506527450E+04  0.10100000352E+00 0.  1.
       -3    1    3    3    0  502 -0.47561613717E+03  0.12748505301E+04 -0.19589947598E+02  0.13608226777E+04  0.10100000352E+00 0. -1.
</event>
<event>
 5   0  0.1198763E-06  0.3103754E+04  0.7818609E-02  0.8214708E-01
       -1   -1    0    0    0  501  0.00000000000E+00  0.00000000000E+00  0.18451745528E+04  0.18451745528E+04  0.50400001928E-02 0.  1.
        1   -1    0    0  501    0  0.00000000000E+00  0.00000000000E+00 -0.13052002569E+04  0.13052002569E+04  0.50400001928E-02 0. -1.
    10030    2    1    2    0    0  0.00000000000E+00  0.00000000000E+00  0.53997429595E+03  0.31503748097E+04  0.31037540497E+04 0.  0.
        1    1    3    3  502    0 -0.32594990505E+03  0.41796735977E+03 -0.12104763099E+04  0.13214359430E+04  0.50400001928E-02 0. -1.
       -1    1    3    3    0  502  0.32594990505E+03 -0.41796735977E+03  0.17504506059E+04  0.18289388667E+04  0.50400001928E-02 0.  1.
</event>
<event>
 5   0  0.3445410E-06  0.3131873E+04  0.7818609E-02  0.8207045E-01
        2   -1    0    0  501    0  0.00000000000E+00  0.00000000000E+00  0.23477588155E+04  0.23477588155E+04  0.25500000920E-02 0.  1.
       -2   -1    0    0    0  501  0.00000000000E+00  0.00000000000E+00 -0.10444673913E+04  0.10444673913E+04  0.25500000920E-02 0. -1.
    10030    2    1    2    0    0  0.00000000000E+00  0.00000000000E+00  0.13032914242E+04  0.33922262068E+04  0.31318732576E+04 0.  0.
        1    1    3    3  502    0  0.11285514806E+04 -0.12693805609E+03  0.18194266471E+04  0.21447738899E+04  0.50400001928E-02 0.  1.
       -1    1    3    3    0  502 -0.11285514806E+04  0.12693805609E+03 -0.51613522290E+03  0.12474523169E+04  0.50400001928E-02 0. -1.
</event>
<event>
 5   0  0.3340899E-06  0.3058454E+04  0.7818609E-02  0.8227233E-01
       -2   -1    0    0    0  501  0.00000000000E+00  0.00000000000E+00  0.86433867593E+03  0.86433867594E+03  0.25500000920E-02 0. -1.
        2   -1    0    0  501    0  0.00000000000E+00  0.00000000000E+00 -0.27055770074E+04  0.27055770074E+04  0.25500000920E-02 0.  1.
    10030    2    1    2    0    0  0.00000000000E+00  0.00000000000E+00 -0.18412383314E+04  0.35699156833E+04  0.30584537585E+04 0.  0.
        3    1    3    3  502    0 -0.98957510063E+03 -0.47290884005E+03 -0.21644894075E+04  0.24265028449E+04  0.10100000352E+00 0.  1.
       -3    1    3    3    0  502  0.98957510063E+03  0.47290884005E+03  0.32325107605E+03  0.11434128385E+04  0.10100000352E+00 0. -1.
</event>
<event>
 5   0  0.3441897E-06  0.3126260E+04  0.7818609E-02  0.8208568E-01
        2   -1    0    0  501    0  0.00000000000E+00  0.00000000000E+00  0.16328125782E+04  0.16328125782E+04  0.25500000920E-02 0.  1.
       -2   -1    0    0    0  501  0.00000000000E+00  0.00000000000E+00 -0.14964215564E+04  0.14964215564E+04  0.25500000920E-02 0. -1.
    10030    2    1    2    0    0  0.00000000000E+00  0.00000000000E+00  0.13639102183E+03  0.31292341346E+04  0.31262603472E+04 0.  0.
        5    1    3    3  502    0 -0.91299303459E+03 -0.11763288187E+04  0.54409290520E+03  0.15853595650E+04  0.46999998093E+01 0.  1.
       -5    1    3    3    0  502  0.91299303459E+03  0.11763288187E+04 -0.40770188337E+03  0.15438745696E+04  0.46999998093E+01 0. -1.
</event>
<event>
 5   0  0.3445959E-06  0.3051028E+04  0.7818609E-02  0.8229308E-01
       -2   -1    0    0    0  501  0.00000000000E+00  0.00000000000E+00  0.12981869305E+04  0.12981869305E+04  0.25500000920E-02 0.  1.
        2   -1    0    0  501    0  0.00000000000E+00  0.00000000000E+00 -0.17926489984E+04  0.17926489984E+04  0.25500000920E-02 0. -1.
    10030    2    1    2    0    0  0.00000000000E+00  0.00000000000E+00 -0.49446206790E+03  0.30908359289E+04  0.30510283517E+04 0.  0.
        4    1    3    3  502    0  0.10104336321E+04 -0.88556130682E+03 -0.97915115273E+03  0.16625082092E+04  0.12699999809E+01 0. -1.
       -4    1    3    3    0  502 -0.10104336321E+04  0.88556130682E+03  0.48468908482E+03  0.14283277197E+04  0.12699999809E+01 0.  1.
</event>
<event>
 5   0  0.3445410E-06  0.3120678E+04  0.7818609E-02  0.8210086E-01
        2   -1    0    0  501    0  0.00000000000E+00  0.00000000000E+00  0.12911653833E+04  0.12911653833E+04  0.25500000920E-02 0.  1.
       -2   -1    0    0    0  501  0.00000000000E+00  0.00000000000E+00 -0.18856283359E+04  0.18856283359E+04  0.25500000920E-02 0. -1.
    10030    2    1    2    0    0  0.00000000000E+00  0.00000000000E+00 -0.59446295260E+03  0.31767937193E+04  0.31206781527E+04 0.  0.
        1    1    3    3  502    0  0.26239218684E+02  0.59570220300E+03  0.11706081358E+04  0.13137248643E+04  0.50400001928E-02 0.  1.
       -1    1    3    3    0  502 -0.26239218684E+02 -0.59570220300E+03 -0.17650710884E+04  0.18630688550E+04  0.50400001928E-02 0. -1.
</event>
<event>
 5   0  0.1171915E-06  0.3091445E+04  0.7818609E-02  0.8218090E-01
       -1   -1    0    0    0  501  0.00000000000E+00  0.00000000000E+00  0.12939980523E+04  0.12939980523E+04  0.50400001928E-02 0. -1.
        1   -1    0    0  501    0  0.00000000000E+00  0.00000000000E+00 -0.18464154755E+04  0.18464154755E+04  0.50400001928E-02 0.  1.
    10030    2    1    2    0    0  0.00000000000E+00  0.00000000000E+00 -0.55241742320E+03  0.31404135279E+04  0.30914449884E+04 0.  0.
        2    1    3    3  502    0 -0.15059888904E+03  0.32173037380E+03 -0.18043871838E+04  0.18390224490E+04  0.25500000920E-02 0.  1.
       -2    1    3    3    0  502  0.15059888904E+03 -0.32173037380E+03  0.12519697606E+04  0.13013910789E+04  0.25500000920E-02 0. -1.
</event>
<event>
 5   0  0.1211008E-06  0.3136273E+04  0.7818609E-02  0.8205853E-01
       -1   -1    0    0    0  501  0.00000000000E+00  0.00000000000E+00  0.14015296607E+04  0.14015296607E+04  0.50400001928E-02 0.  1.
        1   -1    0    0  501    0  0.00000000000E+00  0.00000000000E+00 -0.17545487842E+04  0.17545487842E+04  0.50400001928E-02 0. -1.
    10030    2    1    2    0    0  0.00000000000E+00  0.00000000000E+00 -0.35301912357E+03  0.31560784449E+04  0.31362730507E+04 0.  0.
        3    1    3    3  502    0 -0.27521719404E+03 -0.30347573831E+02 -0.17297548625E+04  0.17517754918E+04  0.10100000352E+00 0. -1.
       -3    1    3    3    0  502  0.27521719404E+03  0.30347573831E+02  0.13767357389E+04  0.14043029531E+04  0.10100000352E+00 0.  1.
</event>
<event>
 5   0  0.3340899E-06  0.3082835E+04  0.7818609E-02  0.8220464E-01
        2   -1    0    0  501    0  0.00000000000E+00  0.00000000000E+00  0.12390010960E+04  0.12390010960E+04  0.25500000920E-02 0. -1.
       -2   -1    0    0    0  501  0.00000000000E+00  0.00000000000E+00 -0.19176482093E+04  0.19176482093E+04  0.25500000920E-02 0.  1.
    10030    2    1    2    0    0  0.00000000000E+00  0.00000000000E+00 -0.67864711323E+03  0.31566493053E+04  0.30828352100E+04 0.  0.
        3    1    3    3  502    0 -0.14992389830E+03 -0.34503527530E+03  0.11912723221E+04  0.12492622912E+04  0.10100000352E+00 0. -1.
       -3    1    3    3    0  502  0.14992389830E+03  0.34503527530E+03 -0.18699194354E+04  0.19073870141E+04  0.10100000352E+00 0.  1.
</event>
<event>
 5   0  0.3340899E-06  0.3064566E+04  0.7818609E-02  0.8225530E-01
        2   -1    0    0  501    0  0.00000000000E+00  0.00000000000E+00  0.16182192101E+04  0.16182192102E+04  0.25500000920E-02 0.  1.
       -2   -1    0    0    0  501  0.00000000000E+00  0.00000000000E+00 -0.14509107914E+04  0.14509107914E+04  0.25500000920E-02 0. -1.
    10030    2    1    2    0    0  0.00000000000E+00  0.00000000000E+00  0.16730841873E+03  0.30691300016E+04  0.30645663412E+04 0.  0.
        3    1    3    3  502    0  0.26147279277E+02  0.15313137802E+04  0.13153891305E+03  0.15371753542E+04  0.10100000352E+00 0. -1.
       -3    1    3    3    0  502 -0.26147279277E+02 -0.15313137802E+04  0.35769505674E+02  0.15319546473E+04  0.10100000352E+00 0.  1.
</event>
<event>
 5   0  0.1235960E-06  0.3102562E+04  0.7818609E-02  0.8215035E-01
        1   -1    0    0  501    0  0.00000000000E+00  0.00000000000E+00  0.16346075753E+04  0.16346075753E+04  0.50400001928E-02 0.  1.
       -1   -1    0    0    0  501  0.00000000000E+00  0.00000000000E+00 -0.14722022348E+04  0.14722022348E+04  0.50400001928E-02 0. -1.
    10030    2    1    2    0    0  0.00000000000E+00  0.00000000000E+00  0.16240534054E+03  0.31068098101E+04  0.31025621189E+04 0.  0.
        4    1    3    3  502    0  0.54094462359E+03  0.80312789203E+03 -0.11324119762E+04  0.14899644269E+04  0.12699999809E+01 0. -1.
       -4    1    3    3    0  502 -0.54094462359E+03 -0.80312789203E+03  0.12948173167E+04  0.16168453832E+04  0.12699999809E+01 0.  1.
</event>
<event>
 5   0  0.1198763E-06  0.3084155E+04  0.7818609E-02  0.8220100E-01
        1   -1    0    0  501    0  0.00000000000E+00  0.00000000000E+00  0.17215000775E+04  0.17215000775E+04  0.50400001928E-02 0. -1.
       -1   -1    0    0    0  501  0.00000000000E+00  0.00000000000E+00 -0.13813551999E+04  0.13813551999E+04  0.50400001928E-02 0.  1.
    10030    2    1    2    0    0  0.00000000000E+00  0.00000000000E+00  0.34014487758E+03  0.31028552774E+04  0.30841550439E+04 0.  0.
        1    1    3    3  502    0 -0.42827263786E+03 -0.83872573658E+03  0.13985926612E+04  0.16861019381E+04  0.50400001928E-02 0. -1.
       -1    1    3    3    0  502  0.42827263786E+03  0.83872573658E+03 -0.10584477837E+04  0.14167533393E+04  0.50400001928E-02 0.  1.
</event>
<event>
 5   0  0.3441897E-06  0.3090672E+04  0.7818609E-02  0.8218302E-01
       -2   -1    0    0    0  501  0.00000000000E+00  0.00000000000E+00  0.13079733001E+04  0.13079733001E+04  0.25500000920E-02 0. -1.
        2   -1    0    0  501    0  0.00000000000E+00  0.00000000000E+00 -0.18257743086E+04  0.18257743086E+04  0.25500000920E-02 0.  1.
    10030    2    1    2    0    0  0.00000000000E+00  0.00000000000E+00 -0.51780100852E+03  0.31337476087E+04  0.30906724496E+04 0.  0.
        5    1    3    3  502    0  0.65643160315E+03  0.64711201388E+03 -0.15165036952E+04  0.17746723516E+04  0.46999998093E+01 0.  1.
       -5    1    3    3    0  502 -0.65643160315E+03 -0.64711201388E+03  0.99870268666E+03  0.13590752571E+04  0.46999998093E+01 0. -1.
</event>
<event>
 5   0  0.1235960E-06  0.2714788E+04  0.7818609E-02  0.8330223E-01
       -1   -1    0    0    0  501  0.00000000000E+00  0.00000000000E+00  0.81103940014E+03  0.81103940015E+03  0.50400001928E-02 0. -1.
        1   -1    0    0  501    0  0.00000000000E+00  0.00000000000E+00 -0.22717985683E+04  0.22717985683E+04  0.50400001928E-02 0.  1.
    10030    2    1    2    0    0  0.00000000000E+00  0.00000000000E+00 -0.14607591682E+04  0.30828379684E+04  0.27147877619E+04 0.  0.
        4    1    3    3  502    0 -0.29256453198E+03  0.30194884604E+03  0.73523457602E+03  0.84695844389E+03  0.12699999809E+01 0. -1.
       -4    1    3    3    0  502  0.29256453198E+03 -0.30194884604E+03 -0.21959937442E+04  0.22358795246E+04  0.12699999809E+01 0.  1.
</event>
<event>
 5   0  0.1198763E-06  0.3062863E+04  0.7818609E-02  0.8226004E-01
        1   -1    0    0  501    0  0.00000000000E+00  0.00000000000E+00  0.27199262624E+04  0.27199262624E+04  0.50400001928E-02 0.  1.
       -1   -1    0    0    0  501  0.00000000000E+00  0.00000000000E+00 -0.86225958816E+03  0.86225958817E+03  0.50400001928E-02 0. -1.
    10030    2    1    2    0    0  0.00000000000E+00  0.00000000000E+00  0.18576666742E+04  0.35821858505E+04  0.30628630390E+04 0.  0.
        1    1    3    3  502    0  0.27848660754E+03 -0.13480803113E+04  0.17137493531E+04  0.21981383399E+04  0.50400001928E-02 0.  1.
       -1    1    3    3    0  502 -0.27848660754E+03  0.13480803113E+04  0.14391732115E+03  0.13840475106E+04  0.50400001928E-02 0. -1.
</event>
<event>
 5   0  0.3445959E-06  0.2969919E+04  0.7818609E-02  0.8252373E-01
        2   -1    0    0  501    0  0.00000000000E+00  0.00000000000E+00  0.13508100257E+04  0.13508100257E+04  0.25500000920E-02 0. -1.
       -2   -1    0    0    0  501  0.00000000000E+00  0.00000000000E+00 -0.16324311927E+04  0.16324311927E+04  0.25500000920E-02 0.  1.
    10030    2    1    2    0    0  0.00000000000E+00  0.00000000000E+00 -0.28162116703E+03  0.29832412184E+04  0.29699188012E+04 0.  0.
        4    1    3    3  502    0  0.12595551917E+04 -0.45879143598E+03 -0.78252996197E+03  0.15521996060E+04  0.12699999809E+01 0.  1.
       -4    1    3    3    0  502 -0.12595551917E+04  0.45879143598E+03  0.50090879494E+03  0.14310416124E+04  0.12699999809E+01 0. -1.
</event>
<event>
 5   0  0.1211008E-06  0.3051731E+04  0.7818609E-02  0.8229111E-01
        1   -1    0    0  501    0  0.00000000000E+00  0.00000000000E+00  0.18586883982E+04  0.18586883982E+04  0.50400001928E-02 0.  1.
       -1   -1    0    0    0  501  0.00000000000E+00  0.00000000000E+00 -0.12526392204E+04  0.12526392204E+04  0.50400001928E-02 0. -1.
    10030    2    1    2    0    0  0.00000000000E+00  0.00000000000E+00  0.60604917775E+03  0.31113276186E+04  0.30517313028E+04 0.  0.
        3    1    3    3  502    0  0.10191217762E+04 -0.16642935848E+03  0.14483315776E+04  0.17787558279E+04  0.10100000352E+00 0.  1.
       -3    1    3    3    0  502 -0.10191217762E+04  0.16642935848E+03 -0.84228239990E+03  0.13325717907E+04  0.10100000352E+00 0. -1.
</event>
<event>
 5   0  0.1198763E-06  0.3101411E+04  0.7818609E-02  0.8215351E-01
       -1   -1    0    0    0  501  0.00000000000E+00  0.00000000000E+00  0.16276689173E+04  0.16276689173E+04  0.50400001928E-02 0.  1.
        1   -1    0    0  501    0  0.00000000000E+00  0.00000000000E+00 -0.14773810923E+04  0.14773810923E+04  0.50400001928E-02 0. -1.
    10030    2    1    2    0    0  0.00000000000E+00  0.00000000000E+00  0.15028782500E+03  0.31050500097E+04  0.31014108293E+04 0.  0.
        1    1    3    3  502    0 -0.34691971830E+03 -0.91102199175E+03 -0.11322450196E+04  0.14940860567E+04  0.50400001928E-02 0. -1.
       -1    1    3    3    0  502  0.34691971830E+03  0.91102199175E+03  0.12825328446E+04  0.16109639530E+04  0.50400001928E-02 0.  1.
</event>
<event>
 5   0  0.1198763E-06  0.3066006E+04  0.7818609E-02  0.8225130E-01
        1   -1    0    0  501    0  0.00000000000E+00  0.00000000000E+00  0.13472422327E+04  0.13472422327E+04  0.50400001928E-02 0.  1.
       -1   -1    0    0    0  501  0.00000000000E+00  0.00000000000E+00 -0.17443773499E+04  0.17443773499E+04  0.50400001928E-02 0. -1.
    10030    2    1    2    0    0  0.00000000000E+00  0.00000000000E+00 -0.39713511723E+03  0.30916195826E+04  0.30660064159E+04 0.  0.
        1    1    3    3  502    0  0.57713619566E+03  0.79519962508E+03 -0.13851178862E+04  0.16982285449E+04  0.50400001928E-02 0. -1.
       -1    1    3    3    0  502 -0.57713619566E+03 -0.79519962508E+03  0.98798276896E+03  0.13933910377E+04  0.50400001928E-02 0.  1.
</event>
<event>
 5   0  0.1250276E-06  0.3118289E+04  0.7818609E-02  0.8210736E-01
       -1   -1    0    0    0  501  0.00000000000E+00  0.00000000000E+00  0.80004577859E+03  0.80004577861E+03  0.50400001928E-02 0. -1.
        1   -1    0    0  501    0  0.00000000000E+00  0.00000000000E+00 -0.30384911364E+04  0.30384911365E+04  0.50400001928E-02 0.  1.
    10030    2    1    2    0    0  0.00000000000E+00  0.00000000000E+00 -0.22384453579E+04  0.38385369151E+04  0.31182892791E+04 0.  0.
        5    1    3    3  502    0  0.11876098085E+02  0.15426154565E+04 -0.84093941607E+03  0.17569873875E+04  0.46999998093E+01 0.  1.
       -5    1    3    3    0  502 -0.11876098085E+02 -0.15426154565E+04 -0.13975059418E+04  0.20815495276E+04  0.46999998093E+01 0. -1.
</event>
<event>
 5   0  0.1250276E-06  0.3108221E+04  0.7818609E-02  0.8213485E-01
       -1   -1    0    0    0  501  0.00000000000E+00  0.00000000000E+00  0.14266896374E+04  0.14266896374E+04  0.50400001928E-02 0. -1.
        1   -1    0    0  501    0  0.00000000000E+00  0.00000000000E+00 -0.16929115095E+04  0.16929115096E+04  0.50400001928E-02 0.  1.
    10030    2    1    2    0    0  0.00000000000E+00  0.00000000000E+00 -0.26622187217E+03  0.31196011469E+04  0.31082209109E+04 0.  0.
        5    1    3    3  502    0 -0.35771254705E+02 -0.88467334348E+03  0.11487931659E+04  0.14504048867E+04  0.46999998093E+01 0. -1.
       -5    1    3    3    0  502  0.35771254705E+02  0.88467334348E+03 -0.14150150381E+04  0.16691962603E+04  0.46999998093E+01 0.  1.
</event>
<event>
 5   0  0.1171915E-06  0.3035534E+04  0.7818609E-02  0.8233656E-01
        1   -1    0    0  501    0  0.00000000000E+00  0.00000000000E+00  0.21930581774E+04  0.21930581774E+04  0.50400001928E-02 0. -1.
       -1   -1    0    0    0  501  0.00000000000E+00  0.00000000000E+00 -0.10504127232E+04  0.10504127232E+04  0.50400001928E-02 0.  1.
    10030    2    1    2    0    0  0.00000000000E+00  0.00000000000E+00  0.11426454542E+04  0.32434709007E+04  0.30355337009E+04 0.  0.
        2    1    3    3  502    0 -0.95183547720E+03 -0.98305077208E+03  0.12729924901E+04  0.18689273597E+04  0.25500000920E-02 0. -1.
       -2    1    3    3    0  502  0.95183547720E+03  0.98305077208E+03 -0.13034703589E+03  0.13745435409E+04  0.25500000920E-02 0.  1.
</event>
<event>
 5   0  0.1171915E-06  0.3075019E+04  0.7818609E-02  0.8222627E-01
       -1   -1    0    0    0  501  0.00000000000E+00  0.00000000000E+00  0.12444583527E+04  0.12444583527E+04  0.50400001928E-02 0. -1.
        1   -1    0    0  501    0  0.00000000000E+00  0.00000000000E+00 -0.18995697727E+04  0.18995697727E+04  0.50400001928E-02 0.  1.
    10030    2    1    2    0    0  0.00000000000E+00  0.00000000000E+00 -0.65511142001E+03  0.31440281254E+04  0.30750190049E+04 0.  0.
        2    1    3    3  502    0  0.15350611718E+04  0.55775754352E+02 -0.25964421577E+03  0.15578635546E+04  0.25500000920E-02 0.  1.
       -2    1    3    3    0  502 -0.15350611718E+04 -0.55775754352E+02 -0.39546720424E+03  0.15861645708E+04  0.25500000920E-02 0. -1.
</event>
<event>
 5   0  0.1171915E-06  0.3219957E+04  0.7818609E-02  0.8183566E-01
       -1   -1    0    0    0  501  0.00000000000E+00  0.00000000000E+00  0.14006204116E+04  0.14006204116E+04  0.50400001928E-02 0.  1.
        1   -1    0    0  501    0  0.00000000000E+00  0.00000000000E+00 -0.18506303448E+04  0.18506303448E+04  0.50400001928E-02 0. -1.
    10030    2    1    2    0    0  0.00000000000E+00  0.00000000000E+00 -0.45000993315E+03  0.32512507564E+04  0.32199569160E+04 0.  0.
        2    1    3    3  502    0 -0.48042944186E+03 -0.66600921642E+03 -0.16232557384E+04  0.18191591237E+04  0.25500000920E-02 0. -1.
       -2    1    3    3    0  502  0.48042944186E+03  0.66600921642E+03  0.11732458053E+04  0.14320916327E+04  0.25500000920E-02 0.  1.
</event>
<event>
 5   0  0.3441897E-06  0.3158369E+04  0.7818609E-02  0.8199899E-01
       -2   -1    0    0    0  501  0.00000000000E+00  0.00000000000E+00  0.11886404946E+04  0.11886404946E+04  0.25500000920E-02 0.  1.
        2   -1    0    0  501    0  0.00000000000E+00  0.00000000000E+00 -0.20980464810E+04  0.20980464810E+04  0.25500000920E-02 0. -1.
    10030    2    1    2    0    0  0.00000000000E+00  0.00000000000E+00 -0.90940598643E+03  0.32866869757E+04  0.31583685706E+04 0.  0.
        5    1    3    3  502    0 -0.13095435093E+04  0.43108982628E+03 -0.12560935487E+04  0.18650833049E+04  0.46999998093E+01 0. -1.
       -5    1    3    3    0  502  0.13095435093E+04 -0.43108982628E+03  0.34668756227E+03  0.14216036708E+04  0.46999998093E+01 0.  1.
</event>
<event>
 5   0  0.1198763E-06  0.3071133E+04  0.7818609E-02  0.8223705E-01
        1   -1    0    0  501    0  0.00000000000E+00  0.00000000000E+00  0.16065436676E+04  0.16065436676E+04  0.50400001928E-02 0. -1.
       -1   -1    0    0    0  501  0.00000000000E+00  0.00000000000E+00 -0.14677253260E+04  0.14677253260E+04  0.50400001928E-02 0.  1.
    10030    2    1    2    0    0  0.00000000000E+00  0.00000000000E+00  0.13881834163E+03  0.30742689936E+04  0.30711332295E+04 0.  0.
        1    1    3    3  502    0  0.10094816964E+04  0.90153072762E+03 -0.65669611207E+03  0.15043472777E+04  0.50400001928E-02 0.  1.
       -1    1    3    3    0  502 -0.10094816964E+04 -0.90153072762E+03  0.79551445370E+03  0.15699217160E+04  0.50400001928E-02 0. -1.
</event>
<event>
 5   0  0.3340899E-06  0.3117904E+04  0.7818609E-02  0.8210842E-01
        2   -1    0    0  501    0  0.00000000000E+00  0.00000000000E+00  0.10326665917E+04  0.10326665917E+04  0.25500000920E-02 0.  1.
       -2   -1    0    0    0  501  0.00000000000E+00  0.00000000000E+00 -0.23534516427E+04  0.23534516427E+04  0.25500000920E-02 0. -1.
    10030    2    1    2    0    0  0.00000000000E+00  0.00000000000E+00 -0.13207850511E+04  0.33861182344E+04  0.31179037103E+04 0.  0.
        3    1    3    3  502    0  0.11151473566E+03 -0.44014689178E+03  0.95926436768E+03  0.10612977716E+04  0.10100000352E+00 0.  1.
       -3    1    3    3    0  502 -0.11151473566E+03  0.44014689178E+03 -0.22800494187E+04  0.23248204629E+04  0.10100000352E+00 0. -1.
</event>
<event>
 5   0  0.1235960E-06  0.3053559E+04  0.7818609E-02  0.8228600E-01
        1   -1    0    0  501    0  0.00000000000E+00  0.00000000000E+00  0.14505894988E+04  0.14505894988E+04  0.50400001928E-02 0. -1.
       -1   -1    0    0    0  501  0.00000000000E+00  0.00000000000E+00 -0.16069713506E+04  0.16069713506E+04  0.50400001928E-02 0.  1.
    10030    2    1    2    0    0  0.00000000000E+00  0.00000000000E+00 -0.15638185174E+03  0.30575608494E+04  0.30535590815E+04 0.  0.
        4    1    3    3  502    0  0.79060541587E+02  0.90207002085E+03  0.11526772464E+04  0.14658265038E+04  0.12699999809E+01 0. -1.
       -4    1    3    3    0  502 -0.79060541587E+02 -0.90207002085E+03 -0.13090590982E+04  0.15917343457E+04  0.12699999809E+01 0.  1.
</event>
<event>
 5   0  0.3445959E-06  0.3120330E+04  0.7818609E-02  0.8210181E-01
       -2   -1    0    0    0  501  0.00000000000E+00  0.00000000000E+00  0.16541069861E+04  0.16541069861E+04  0.25500000920E-02 0.  1.
        2   -1    0    0  501    0  0.00000000000E+00  0.00000000000E+00 -0.14715579047E+04  0.14715579047E+04  0.25500000920E-02 0. -1.
    10030    2    1    2    0    0  0.00000000000E+00  0.00000000000E+00  0.18254908144E+03  0.31256648908E+04  0.31203296048E+04 0.  0.
        4    1    3    3  502    0 -0.46914141138E+03  0.14855279340E+04  0.61251318733E+01  0.15578594406E+04  0.12699999809E+01 0.  1.
       -4    1    3    3    0  502  0.46914141138E+03 -0.14855279340E+04  0.17642394956E+03  0.15678054502E+04  0.12699999809E+01 0. -1.
</event>
<event>
 5   0  0.3445410E-06  0.3008907E+04  0.7818609E-02  0.8241192E-01
       -2   -1    0    0    0  501  0.00000000000E+00  0.00000000000E+00  0.92052633649E+03  0.92052633650E+03  0.25500000920E-02 0. -1.
        2   -1    0    0  501    0  0.00000000000E+00  0.00000000000E+00 -0.24587899629E+04  0.24587899629E+04  0.25500000920E-02 0.  1.
    10030    2    1    2    0    0  0.00000000000E+00  0.00000000000E+00 -0.15382636264E+04  0.33793162994E+04  0.30089073876E+04 0.  0.
        1    1    3    3  502    0 -0.90874707561E+03 -0.98195397765E+03 -0.15418128044E+04  0.20413822732E+04  0.50400001928E-02 0. -1.
       -1    1    3    3    0  502  0.90874707561E+03  0.98195397765E+03  0.35491780053E+01  0.13379340262E+04  0.50400001928E-02 0.  1.
</event>
<event>
 5   0  0.1211008E-06  0.3106545E+04  0.7818609E-02  0.8213944E-01
       -1   -1    0    0    0  501  0.00000000000E+00  0.00000000000E+00  0.16732083858E+04  0.16732083858E+04  0.50400001928E-02 0.  1.
        1   -1    0    0  501    0  0.00000000000E+00  0.00000000000E+00 -0.14419339837E+04  0.14419339837E+04  0.50400001928E-02 0. -1.
    10030    2    1    2    0    0  0.00000000000E+00  0.00000000000E+00  0.23127440214E+03  0.31151423696E+04  0.31065453696E+04 0.  0.
        3    1    3    3  502    0 -0.23669327014E+03  0.14428454806E+04  0.64132956199E+03  0.15965996374E+04  0.10100000352E+00 0.  1.
       -3    1    3    3    0  502  0.23669327014E+03 -0.14428454806E+04 -0.41005515985E+03  0.15185427321E+04  0.10100000352E+00 0. -1.
</event>
<event>
 5   0  0.3340899E-06  0.3113132E+04  0.7818609E-02  0.8212143E-01
       -2   -1    0    0    0  501  0.00000000000E+00  0.00000000000E+00  0.98415507490E+03  0.98415507490E+03  0.25500000920E-02 0.  1.
        2   -1    0    0  501    0  0.00000000000E+00  0.00000000000E+00 -0.24619064622E+04  0.24619064622E+04  0.25500000920E-02 0. -1.
    10030    2    1    2    0    0  0.00000000000E+00  0.00000000000E+00 -0.14777513873E+04  0.34460615371E+04  0.31131320169E+04 0.  0.
        3    1    3    3  502    0  0.27520473609E+03  0.13615569049E+04  0.38607693651E+02  0.13896277977E+04  0.10100000352E+00 0.  1.
       -3    1    3    3    0  502 -0.27520473609E+03 -0.13615569049E+04 -0.15163590810E+04  0.20564337394E+04  0.10100000352E+00 0. -1.
</event>
<event>
 5   0  0.1235960E-06  0.2992851E+04  0.7818609E-02  0.8245775E-01
        1   -1    0    0  501    0  0.00000000000E+00  0.00000000000E+00  0.16863889407E+04  0.16863889407E+04  0.50400001928E-02 0. -1.
       -1   -1    0    0    0  501  0.00000000000E+00  0.00000000000E+00 -0.13278605477E+04  0.13278605477E+04  0.50400001928E-02 0.  1.
    10030    2    1    2    0    0  0.00000000000E+00  0.00000000000E+00  0.35852839303E+03  0.30142494884E+04  0.29928510437E+04 0.  0.
        4    1    3    3  502    0 -0.77025053893E+03 -0.45792729188E+03  0.13862921943E+04  0.16506940838E+04  0.12699999809E+01 0. -1.
       -4    1    3    3    0  502  0.77025053893E+03  0.45792729188E+03 -0.10277638013E+04  0.13635554046E+04  0.12699999809E+01 0.  1.
</event>
<event>
 5   0  0.3374790E-06  0.3094525E+04  0.7818609E-02  0.8217242E-01
        2   -1    0    0  501    0  0.00000000000E+00  0.00000000000E+00  0.13923177632E+04  0.13923177632E+04  0.25500000920E-02 0. -1.
       -2   -1    0    0    0  501  0.00000000000E+00  0.00000000000E+00 -0.17194499536E+04  0.17194499536E+04  0.25500000920E-02 0.  1.
    10030    2    1    2    0    0  0.00000000000E+00  0.00000000000E+00 -0.32713219038E+03  0.31117677167E+04  0.30945246570E+04 0.  0.
        2    1    3    3  502    0 -0.64557738131E+02 -0.13566488158E+04  0.58175009558E+03  0.14775306713E+04  0.25500000920E-02 0. -1.
       -2    1    3    3    0  502  0.64557738131E+02  0.13566488158E+04 -0.90888228596E+03  0.16342370454E+04  0.25500000920E-02 0.  1.
</event>
<event>
 5   0  0.1235960E-06  0.2545777E+04  0.7818609E-02  0.8386856E-01
        1   -1    0    0  501    0  0.00000000000E+00  0.00000000000E+00  0.18166347839E+04  0.18166347839E+04  0.50400001928E-02 0.  1.
       -1   -1    0    0    0  501  0.00000000000E+00  0.00000000000E+00 -0.89189359197E+03  0.89189359199E+03  0.50400001928E-02 0. -1.
    10030    2    1    2    0    0  0.00000000000E+00  0.00000000000E+00  0.92474119190E+03  0.27085283759E+04  0.25457768345E+04 0.  0.
        4    1    3    3  502    0 -0.93171515668E+03 -0.44047477239E+03  0.12572140100E+04  0.16256382864E+04  0.12699999809E+01 0.  1.
       -4    1    3    3    0  502  0.93171515668E+03  0.44047477239E+03 -0.33247281807E+03  0.10828900895E+04  0.12699999809E+01 0. -1.
</event>
<event>
 5   0  0.1235960E-06  0.3093265E+04  0.7818609E-02  0.8217589E-01
       -1   -1    0    0    0  501  0.00000000000E+00  0.00000000000E+00  0.91244382496E+03  0.91244382497E+03  0.50400001928E-02 0.  1.
        1   -1    0    0  501    0  0.00000000000E+00  0.00000000000E+00 -0.26216105306E+04  0.26216105306E+04  0.50400001928E-02 0. -1.
    10030    2    1    2    0    0  0.00000000000E+00  0.00000000000E+00 -0.17091667057E+04  0.35340543556E+04  0.30932651617E+04 0.  0.
        4    1    3    3  502    0 -0.45051982846E+03  0.12966974432E+04 -0.16686320718E+04  0.21607237165E+04  0.12699999809E+01 0. -1.
       -4    1    3    3    0  502  0.45051982846E+03 -0.12966974432E+04 -0.40534633863E+02  0.13733306391E+04  0.12699999809E+01 0.  1.
</event>
<event>
 5   0  0.1171915E-06  0.3075482E+04  0.7818609E-02  0.8222499E-01
       -1   -1    0    0    0  501  0.00000000000E+00  0.00000000000E+00  0.11325352938E+04  0.11325352938E+04  0.50400001928E-02 0.  1.
        1   -1    0    0  501    0  0.00000000000E+00  0.00000000000E+00 -0.20879240330E+04  0.20879240330E+04  0.50400001928E-02 0. -1.
    10030    2    1    2    0    0  0.00000000000E+00  0.00000000000E+00 -0.95538873917E+03  0.32204593268E+04  0.30754821789E+04 0.  0.
        2    1    3    3  502    0  0.81601790633E+03  0.24551976529E+03 -0.18180668562E+04  0.20078675933E+04  0.25500000920E-02 0. -1.
       -2    1    3    3    0  502 -0.81601790633E+03 -0.24551976529E+03  0.86267811703E+03  0.12125917335E+04  0.25500000920E-02 0.  1.
</event>
<event>
 5   0  0.3374790E-06  0.3044533E+04  0.7818609E-02  0.8231127E-01
       -2   -1    0    0    0  501  0.00000000000E+00  0.00000000000E+00  0.11409131003E+04  0.11409131003E+04  0.25500000920E-02 0. -1.
        2   -1    0    0  501    0  0.00000000000E+00  0.00000000000E+00 -0.20310883561E+04  0.20310883561E+04  0.25500000920E-02 0.  1.
    10030    2    1    2    0    0  0.00000000000E+00  0.00000000000E+00 -0.89017525583E+03  0.31720014563E+04  0.30445330107E+04 0.  0.
        2    1    3    3  502    0 -0.13334146965E+04  0.42427950518E+03 -0.10695894669E+04  0.17612579252E+04  0.25500000920E-02 0.  1.
       -2    1    3    3    0  502  0.13334146965E+04 -0.42427950518E+03  0.17941421104E+03  0.14107435311E+04  0.25500000920E-02 0. -1.
</event>
<event>
 5   0  0.3445410E-06  0.3089094E+04  0.7818609E-02  0.8218737E-01
        2   -1    0    0  501    0  0.00000000000E+00  0.00000000000E+00  0.14702937392E+04  0.14702937392E+04  0.25500000920E-02 0.  1.
       -2   -1    0    0    0  501  0.00000000000E+00  0.00000000000E+00 -0.16225504389E+04  0.16225504389E+04  0.25500000920E-02 0. -1.
    10030    2    1    2    0    0  0.00000000000E+00  0.00000000000E+00 -0.15225669965E+03  0.30928441781E+04  0.30890942050E+04 0.  0.
        1    1    3    3  502    0  0.76372101656E+03 -0.58093176657E+03 -0.12879174978E+04  0.16060768941E+04  0.50400001928E-02 0. -1.
       -1    1    3    3    0  502 -0.76372101656E+03  0.58093176657E+03  0.11356607981E+04  0.14867672841E+04  0.50400001928E-02 0.  1.
</event>
<event>
 5   0  0.1109562E-06  0.3094043E+04  0.7818609E-02  0.8217375E-01
        4   -1    0    0  501    0  0.00000000000E+00  0.00000000000E+00  0.23283366737E+04  0.23283370200E+04  0.12699999809E+01 0. -1.
       -4   -1    0    0    0  501  0.00000000000E+00  0.00000000000E+00 -0.10278897573E+04  0.10278905418E+04  0.12699999809E+01 0.  1.
    10030    2    1    2    0    0  0.00000000000E+00  0.00000000000E+00  0.13004469164E+04  0.33562275619E+04  0.30940428673E+04 0.  0.
        1    1    3    3  502    0  0.27888840611E+03  0.51778826550E+03 -0.90189749542E+03  0.10767091173E+04  0.50400001928E-02 0.  1.
       -1    1    3    3    0  502 -0.27888840611E+03 -0.51778826550E+03  0.22023444118E+04  0.22795184446E+04  0.50400001928E-02 0. -1.
</event>
<event>
 5   0  0.3445410E-06  0.3115778E+04  0.7818609E-02  0.8211421E-01
       -2   -1    0    0    0  501  0.00000000000E+00  0.00000000000E+00  0.89278205746E+03  0.89278205746E+03  0.25500000920E-02 0. -1.
        2   -1    0    0  501    0  0.00000000000E+00  0.00000000000E+00 -0.27184888562E+04  0.27184888562E+04  0.25500000920E-02 0.  1.
    10030    2    1    2    0    0  0.00000000000E+00  0.00000000000E+00 -0.18257067987E+04  0.36112709136E+04  0.31157779601E+04 0.  0.
        1    1    3    3  502    0 -0.13077257515E+04 -0.31135693638E+03 -0.28737152136E+00  0.13442804266E+04  0.50400001928E-02 0. -1.
       -1    1    3    3    0  502  0.13077257515E+04  0.31135693638E+03 -0.18254194272E+04  0.22669904870E+04  0.50400001928E-02 0.  1.
</event>
<event>
 5   0  0.1198763E-06  0.3109220E+04  0.7818609E-02  0.8213212E-01
        1   -1    0    0  501    0  0.00000000000E+00  0.00000000000E+00  0.21540972902E+04  0.21540972902E+04  0.50400001928E-02 0. -1.
       -1   -1    0    0    0  501  0.00000000000E+00  0.00000000000E+00 -0.11219605978E+04  0.11219605978E+04  0.50400001928E-02 0.  1.
    10030    2    1    2    0    0  0.00000000000E+00  0.00000000000E+00  0.10321366924E+04  0.32760578880E+04  0.31092200201E+04 0.  0.
        1    1    3    3  502    0 -0.13567559425E+04  0.10362256184E+03 -0.27613191216E+03  0.13884427088E+04  0.50400001928E-02 0.  1.
       -1    1    3    3    0  502  0.13567559425E+04 -0.10362256184E+03  0.13082686045E+04  0.18876151791E+04  0.50400001928E-02 0. -1.
</event>
<event>
 5   0  0.3441897E-06  0.3095300E+04  0.7818609E-02  0.8217029E-01
        2   -1    0    0  501    0  0.00000000000E+00  0.00000000000E+00  0.24036102541E+04  0.24036102541E+04  0.25500000920E-02 0.  1.
       -2   -1    0    0    0  501  0.00000000000E+00  0.00000000000E+00 -0.99650984488E+03  0.99650984488E+03  0.25500000920E-02 0. -1.
    10030    2    1    2    0    0  0.00000000000E+00  0.00000000000E+00  0.14071004092E+04  0.34001200990E+04  0.30953004904E+04 0.  0.
        5    1    3    3  502    0  0.82579107779E+03 -0.12637811848E+04  0.10778805719E+04  0.18549723460E+04  0.46999998093E+01 0. -1.
       -5    1    3    3    0  502 -0.82579107779E+03  0.12637811848E+04  0.32921983734E+03  0.15451477530E+04  0.46999998093E+01 0.  1.
</event>
<event>
 5   0  0.3445959E-06  0.2919652E+04  0.7818609E-02  0.8267054E-01
        2   -1    0    0  501    0  0.00000000000E+00  0.00000000000E+00  0.15817141876E+04  0.15817141876E+04  0.25500000920E-02 0. -1.
       -2   -1    0    0    0  501  0.00000000000E+00  0.00000000000E+00 -0.13473308905E+04  0.13473308905E+04  0.25500000920E-02 0.  1.
    10030    2    1    2    0    0  0.00000000000E+00  0.00000000000E+00  0.23438329701E+03  0.29290450781E+04  0.29196522977E+04 0.  0.
        4    1    3    3  502    0 -0.85271523367E+03  0.72567546094E+03 -0.82249809541E+03  0.13893282097E+04  0.12699999809E+01 0.  1.
       -4    1    3    3    0  502  0.85271523367E+03 -0.72567546094E+03  0.10568813924E+04  0.15397168684E+04  0.12699999809E+01 0. -1.
</event>
<event>
 5   0  0.3445959E-06  0.3136234E+04  0.7818609E-02  0.8205864E-01
       -2   -1    0    0    0  501  0.00000000000E+00  0.00000000000E+00  0.10547242871E+04  0.10547242871E+04  0.25500000920E-02 0. -1.
        2   -1    0    0  501    0  0.00000000000E+00  0.00000000000E+00 -0.23314065689E+04  0.23314065689E+04  0.25500000920E-02 0.  1.
    10030    2    1    2    0    0  0.00000000000E+00  0.00000000000E+00 -0.12766822817E+04  0.33861308560E+04  0.31362341311E+04 0.  0.
        4    1    3    3  502    0 -0.48441008096E+03 -0.14223478312E+04 -0.15397109984E+03  0.15104420518E+04  0.12699999809E+01 0.  1.
       -4    1    3    3    0  502  0.48441008096E+03  0.14223478312E+04 -0.11227111819E+04  0.18756888042E+04  0.12699999809E+01 0. -1.
</event>
<event>
 5   0  0.1171915E-06  0.3120119E+04  0.7818609E-02  0.8210238E-01
       -1   -1    0    0    0  501  0.00000000000E+00  0.00000000000E+00  0.91352057028E+03  0.91352057029E+03  0.50400001928E-02 0. -1.
        1   -1    0    0  501    0  0.00000000000E+00  0.00000000000E+00 -0.26641828594E+04  0.26641828594E+04  0.50400001928E-02 0.  1.
    10030    2    1    2    0    0  0.00000000000E+00  0.00000000000E+00 -0.17506622891E+04  0.35777034297E+04  0.31201191292E+04 0.  0.
        2    1    3    3  502    0  0.15600491460E+04  0.56611610444E+01 -0.87455482224E+03  0.17884718404E+04  0.25500000920E-02 0. -1.
       -2    1    3    3    0  502 -0.15600491460E+04 -0.56611610444E+01 -0.87610746687E+03  0.17892315893E+04  0.25500000920E-02 0.  1.
</event>
<event>
 5   0  0.1211008E-06  0.3078803E+04  0.7818609E-02  0.8221579E-01
       -1   -1    0    0    0  501  0.00000000000E+00  0.00000000000E+00  0.13635247367E+04  0.13635247367E+04  0.50400001928E-02 0.  1.
        1   -1    0    0  501    0  0.00000000000E+00  0.00000000000E+00 -0.17379637290E+04  0.17379637290E+04  0.50400001928E-02 0. -1.
    10030    2    1    2    0    0  0.00000000000E+00  0.00000000000E+00 -0.37443899224E+03  0.31014884657E+04  0.30788027128E+04 0.  0.
        3    1    3    3  502    0 -0.94381142461E+03  0.75875086083E+03 -0.11446295438E+04  0.16663312026E+04  0.10100000352E+00 0. -1.
       -3    1    3    3    0  502  0.94381142461E+03 -0.75875086083E+03  0.77019055153E+03  0.14351572631E+04  0.10100000352E+00 0.  1.
</event>
<event>
 5   0  0.1250276E-06  0.3087144E+04  0.7818609E-02  0.8219275E-01
        1   -1    0    0  501    0  0.00000000000E+00  0.00000000000E+00  0.17961945413E+04  0.17961945413E+04  0.50400001928E-02 0.  1.
       -1   -1    0    0    0  501  0.00000000000E+00  0.00000000000E+00 -0.13264794965E+04  0.13264794965E+04  0.50400001928E-02 0. -1.
    10030    2    1    2    0    0  0.00000000000E+00  0.00000000000E+00  0.46971504480E+03  0.31226740378E+04  0.30871444610E+04 0.  0.
        5    1    3    3  502    0 -0.23535616909E+03  0.14853453849E+03  0.17705992158E+04  0.17923444726E+04  0.46999998093E+01 0.  1.
       -5    1    3    3    0  502  0.23535616909E+03 -0.14853453849E+03 -0.13008841711E+04  0.13303295652E+04  0.46999998093E+01 0. -1.
</event>
<event>
 5   0  0.3445959E-06  0.3121032E+04  0.7818609E-02  0.8209989E-01
        2   -1    0    0  501    0  0.00000000000E+00  0.00000000000E+00  0.14098237119E+04  0.14098237119E+04  0.25500000920E-02 0.  1.
       -2   -1    0    0    0  501  0.00000000000E+00  0.00000000000E+00 -0.17273156753E+04  0.17273156753E+04  0.25500000920E-02 0. -1.
    10030    2    1    2    0    0  0.00000000000E+00  0.00000000000E+00 -0.31749196342E+03  0.31371393872E+04  0.31210322632E+04 0.  0.
        4    1    3    3  502    0  0.27602923829E+03 -0.12419397715E+04  0.74957824111E+03  0.14766433858E+04  0.12699999809E+01 0.  1.
       -4    1    3    3    0  502 -0.27602923829E+03  0.12419397715E+04 -0.10670702045E+04  0.16604960014E+04  0.12699999809E+01 0. -1.
</event>
<event>
 5   0  0.3441897E-06  0.3071884E+04  0.7818609E-02  0.8223497E-01
       -2   -1    0    0    0  501  0.00000000000E+00  0.00000000000E+00  0.13890264450E+04  0.13890264450E+04  0.25500000920E-02 0.  1.
        2   -1    0    0  501    0  0.00000000000E+00  0.00000000000E+00 -0.16983962972E+04  0.16983962972E+04  0.25500000920E-02 0. -1.
    10030    2    1    2    0    0  0.00000000000E+00  0.00000000000E+00 -0.30936985215E+03  0.30874227422E+04  0.30718837029E+04 0.  0.
        5    1    3    3  502    0  0.14548896951E+04 -0.43168463722E+03 -0.39260931293E+03  0.15675521725E+04  0.46999998093E+01 0.  1.
       -5    1    3    3    0  502 -0.14548896951E+04  0.43168463722E+03  0.83239460783E+02  0.15198705697E+04  0.46999998093E+01 0. -1.
</event>
<event>
 5   0  0.3445410E-06  0.3080950E+04  0.7818609E-02  0.8220985E-01
        2   -1    0    0  501    0  0.00000000000E+00  0.00000000000E+00  0.23380616541E+04  0.23380616541E+04  0.25500000920E-02 0. -1.
       -2   -1    0    0    0  501  0.00000000000E+00  0.00000000000E+00 -0.10149704230E+04  0.10149704230E+04  0.25500000920E-02 0.  1.
    10030    2    1    2    0    0  0.00000000000E+00  0.00000000000E+00  0.13230912311E+04  0.33530320771E+04  0.30809501301E+04 0.  0.
        1    1    3    3  502    0  0.39291323461E+03 -0.37212726054E+03  0.22312070733E+04  0.22958973218E+04  0.50400001928E-02 0. -1.
       -1    1    3    3    0  502 -0.39291323461E+03  0.37212726054E+03 -0.90811584225E+03  0.10571347553E+04  0.50400001928E-02 0.  1.
</event>
<event>
 5   0  0.3445410E-06  0.3094855E+04  0.7818609E-02  0.8217151E-01
        2   -1    0    0  501    0  0.00000000000E+00  0.00000000000E+00  0.16013528200E+04  0.16013528200E+04  0.25500000920E-02 0.  1.
       -2   -1    0    0    0  501  0.00000000000E+00  0.00000000000E+00 -0.14953178830E+04  0.14953178830E+04  0.25500000920E-02 0. -1.
    10030    2    1    2    0    0  0.00000000000E+00  0.00000000000E+00  0.10603493697E+03  0.30966707030E+04  0.30948547680E+04 0.  0.
        1    1    3    3  502    0 -0.21819463409E+03 -0.14729753842E+04  0.47429435397E+03  0.15627605431E+04  0.50400001928E-02 0.  1.
       -1    1    3    3    0  502  0.21819463409E+03  0.14729753842E+04 -0.36825941700E+03  0.15339101600E+04  0.50400001928E-02 0. -1.
</event>
<event>
 5   0  0.1109562E-06  0.3122433E+04  0.7818609E-02  0.8209608E-01
        3   -1    0    0  501    0  0.00000000000E+00  0.00000000000E+00  0.93050561164E+03  0.93050561712E+03  0.10100000352E+00 0.  1.
       -3   -1    0    0    0  501  0.00000000000E+00  0.00000000000E+00 -0.26194325511E+04  0.26194325531E+04  0.10100000352E+00 0. -1.
    10030    2    1    2    0    0  0.00000000000E+00  0.00000000000E+00 -0.16889269395E+04  0.35499381702E+04  0.31224328344E+04 0.  0.
        4    1    3    3  502    0  0.12140054406E+04 -0.29971898179E+03  0.21826514461E+03  0.12693628181E+04  0.12699999809E+01 0.  1.
       -4    1    3    3    0  502 -0.12140054406E+04  0.29971898179E+03 -0.19071920841E+04  0.22805753521E+04  0.12699999809E+01 0. -1.
</event>
<event>
 5   0  0.1109562E-06  0.3091474E+04  0.7818609E-02  0.8218082E-01
       -3   -1    0    0    0  501  0.00000000000E+00  0.00000000000E+00  0.18326960756E+04  0.18326960783E+04  0.10100000352E+00 0.  1.
        3   -1    0    0  501    0  0.00000000000E+00  0.00000000000E+00 -0.13037096445E+04  0.13037096484E+04  0.10100000352E+00 0. -1.
    10030    2    1    2    0    0  0.00000000000E+00  0.00000000000E+00  0.52898643103E+03  0.31364057268E+04  0.30914744442E+04 0.  0.
        1    1    3    3  502    0 -0.71192834954E+03 -0.30123343427E+03  0.16224990897E+04  0.17972442386E+04  0.50400001928E-02 0.  1.
       -1    1    3    3    0  502  0.71192834954E+03  0.30123343427E+03 -0.10935126587E+04  0.13391614882E+04  0.50400001928E-02 0. -1.
</event>
<event>
 5   0  0.3445959E-06  0.3094309E+04  0.7818609E-02  0.8217302E-01
       -2   -1    0    0    0  501  0.00000000000E+00  0.00000000000E+00  0.17137528858E+04  0.17137528858E+04  0.25500000920E-02 0. -1.
        2   -1    0    0  501    0  0.00000000000E+00  0.00000000000E+00 -0.13967512087E+04  0.13967512087E+04  0.25500000920E-02 0.  1.
    10030    2    1    2    0    0  0.00000000000E+00  0.00000000000E+00  0.31700167705E+03  0.31105040945E+04  0.30943085914E+04 0.  0.
        4    1    3    3  502    0 -0.13039287472E+04 -0.98945010962E+02 -0.67266688806E+03  0.14705450174E+04  0.12699999809E+01 0.  1.
       -4    1    3    3    0  502  0.13039287472E+04  0.98945010962E+02  0.98966856512E+03  0.16399590771E+04  0.12699999809E+01 0. -1.
</event>
<event>
 5   0  0.1235960E-06  0.3053971E+04  0.7818609E-02  0.8228485E-01
       -1   -1    0    0    0  501  0.00000000000E+00  0.00000000000E+00  0.21390240328E+04  0.21390240328E+04  0.50400001928E-02 0.  1.
        1   -1    0    0  501    0  0.00000000000E+00  0.00000000000E+00 -0.10900691664E+04  0.10900691664E+04  0.50400001928E-02 0. -1.
    10030    2    1    2    0    0  0.00000000000E+00  0.00000000000E+00  0.10489548664E+04  0.32290931992E+04  0.30539706249E+04 0.  0.
        4    1    3    3  502    0 -0.19020728595E+03 -0.13839578041E+04 -0.12745338815E+03  0.14027701146E+04  0.12699999809E+01 0. -1.
       -4    1    3    3    0  502  0.19020728595E+03  0.13839578041E+04  0.11764082545E+04  0.18263230846E+04  0.12699999809E+01 0.  1.
</event>
<event>
 5   0  0.3445959E-06  0.3061779E+04  0.7818609E-02  0.8226306E-01
        2   -1    0    0  501    0  0.00000000000E+00  0.00000000000E+00  0.11402957436E+04  0.11402957436E+04  0.25500000920E-02 0.  1.
       -2   -1    0    0    0  501  0.00000000000E+00  0.00000000000E+00 -0.20552767490E+04  0.20552767490E+04  0.25500000920E-02 0. -1.
    10030    2    1    2    0    0  0.00000000000E+00  0.00000000000E+00 -0.91498100541E+03  0.31955724926E+04  0.30617794360E+04 0.  0.
        4    1    3    3  502    0 -0.11442881266E+04  0.47239970239E+03 -0.13974358041E+04  0.18669186471E+04  0.12699999809E+01 0. -1.
       -4    1    3    3    0  502  0.11442881266E+04 -0.47239970239E+03  0.48245479870E+03  0.13286538455E+04  0.12699999809E+01 0.  1.
</event>
<event>
 5   0  0.1211008E-06  0.3034115E+04  0.7818609E-02  0.8234056E-01
        1   -1    0    0  501    0  0.00000000000E+00  0.00000000000E+00  0.16713772886E+04  0.16713772886E+04  0.50400001928E-02 0.  1.
       -1   -1    0    0    0  501  0.00000000000E+00  0.00000000000E+00 -0.13769862380E+04  0.13769862380E+04  0.50400001928E-02 0. -1.
    10030    2    1    2    0    0  0.00000000000E+00  0.00000000000E+00  0.29439105060E+03  0.30483635265E+04  0.30341150438E+04 0.  0.
        3    1    3    3  502    0  0.79348372827E+03  0.16903228872E+03 -0.11407273585E+04  0.13998025783E+04  0.10100000352E+00 0. -1.
       -3    1    3    3    0  502 -0.79348372827E+03 -0.16903228872E+03  0.14351184091E+04  0.16485609482E+04  0.10100000352E+00 0.  1.
</event>
<event>
 5   0  0.1235960E-06  0.3003943E+04  0.7818609E-02  0.8242606E-01
       -1   -1    0    0    0  501  0.00000000000E+00  0.00000000000E+00  0.14709745195E+04  0.14709745195E+04  0.50400001928E-02 0. -1.
        1   -1    0    0  501    0  0.00000000000E+00  0.00000000000E+00 -0.15336217291E+04  0.15336217291E+04  0.50400001928E-02 0.  1.
    10030    2    1    2    0    0  0.00000000000E+00  0.00000000000E+00 -0.62647209681E+02  0.30045962486E+04  0.30039430661E+04 0.  0.
        4    1    3    3  502    0  0.34000527820E+03  0.14197376695E+04  0.32182289657E+03  0.14949348578E+04  0.12699999809E+01 0. -1.
       -4    1    3    3    0  502 -0.34000527820E+03 -0.14197376695E+04 -0.38447010625E+03  0.15096613908E+04  0.12699999809E+01 0.  1.
</event>
<event>
 5   0  0.1171915E-06  0.3130954E+04  0.7818609E-02  0.8207294E-01
        1   -1    0    0  501    0  0.00000000000E+00  0.00000000000E+00  0.29324165043E+04  0.29324165043E+04  0.50400001928E-02 0.  1.
       -1   -1    0    0    0  501  0.00000000000E+00  0.00000000000E+00 -0.83573323783E+03  0.83573323784E+03  0.50400001928E-02 0. -1.
    10030    2    1    2    0    0  0.00000000000E+00  0.00000000000E+00  0.20966832664E+04  0.37681497421E+04  0.31309538098E+04 0.  0.
        2    1    3    3  502    0 -0.41723448826E+03  0.74909069657E+03  0.26246689586E+04  0.27611788483E+04  0.25500000920E-02 0.  1.
       -2    1    3    3    0  502  0.41723448826E+03 -0.74909069657E+03 -0.52798569218E+03  0.10069708938E+04  0.25500000920E-02 0. -1.
</event>
<event>
 5   0  0.3445410E-06  0.3062688E+04  0.7818609E-02  0.8226053E-01
       -2   -1    0    0    0  501  0.00000000000E+00  0.00000000000E+00  0.27304689702E+04  0.27304689702E+04  0.25500000920E-02 0.  1.
        2   -1    0    0  501    0  0.00000000000E+00  0.00000000000E+00 -0.85883215887E+03  0.85883215888E+03  0.25500000920E-02 0. -1.
    10030    2    1    2    0    0  0.00000000000E+00  0.00000000000E+00  0.18716368113E+04  0.35893011291E+04  0.30626880745E+04 0.  0.
        1    1    3    3  502    0  0.30042673665E+03 -0.70107693923E+03  0.24920133785E+04  0.26061265851E+04  0.50400001928E-02 0.  1.
       -1    1    3    3    0  502 -0.30042673665E+03  0.70107693923E+03 -0.62037656718E+03  0.98317454399E+03  0.50400001928E-02 0. -1.
</event>
<event>
 5   0  0.1211008E-06  0.3118662E+04  0.7818609E-02  0.8210635E-01
        1   -1    0    0  501    0  0.00000000000E+00  0.00000000000E+00  0.14148627599E+04  0.14148627599E+04  0.50400001928E-02 0.  1.
       -1   -1    0    0    0  501  0.00000000000E+00  0.00000000000E+00 -0.17185505711E+04  0.17185505711E+04  0.50400001928E-02 0. -1.
    10030    2    1    2    0    0  0.00000000000E+00  0.00000000000E+00 -0.30368781124E+03  0.31334133310E+04  0.31186620234E+04 0.  0.
        3    1    3    3  502    0  0.53510278243E+02  0.14136587573E+04 -0.81085700605E+03  0.16305776665E+04  0.10100000352E+00 0. -1.
       -3    1    3    3    0  502 -0.53510278243E+02 -0.14136587573E+04  0.50716919481E+03  0.15028356645E+04  0.10100000352E+00 0.  1.
</event>
<event>
 5   0  0.3445410E-06  0.3094985E+04  0.7818609E-02  0.8217115E-01
        2   -1    0    0  501    0  0.00000000000E+00  0.00000000000E+00  0.29208034304E+04  0.29208034304E+04  0.25500000920E-02 0.  1.
       -2   -1    0    0    0  501  0.00000000000E+00  0.00000000000E+00 -0.81988872615E+03  0.81988872615E+03  0.25500000920E-02 0. -1.
    10030    2    1    2    0    0  0.00000000000E+00  0.00000000000E+00  0.21009147042E+04  0.37406921565E+04  0.30949854952E+04 0.  0.
        1    1    3    3  502    0  0.93702390566E+03  0.40170971292E+03 -0.35662323278E+03  0.10800762119E+04  0.50400001928E-02 0. -1.
       -1    1    3    3    0  502 -0.93702390566E+03 -0.40170971292E+03  0.24575379370E+04  0.26606159447E+04  0.50400001928E-02 0.  1.
</event>
<event>
 5   0  0.3374790E-06  0.3062934E+04  0.7818609E-02  0.8225985E-01
        2   -1    0    0  501    0  0.00000000000E+00  0.00000000000E+00  0.24073952640E+04  0.24073952640E+04  0.25500000920E-02 0.  1.
       -2   -1    0    0    0  501  0.00000000000E+00  0.00000000000E+00 -0.97424415553E+03  0.97424415554E+03  0.25500000920E-02 0. -1.
    10030    2    1    2    0    0  0.00000000000E+00  0.00000000000E+00  0.14331511085E+04  0.33816394196E+04  0.30629337349E+04 0.  0.
        2    1    3    3  502    0 -0.77865894612E+03  0.88569683746E+03 -0.36213628128E+03  0.12336577031E+04  0.25500000920E-02 0. -1.
       -2    1    3    3    0  502  0.77865894612E+03 -0.88569683746E+03  0.17952873898E+04  0.21479817164E+04  0.25500000920E-02 0.  1.
</event>
<event>
 5   0  0.3445959E-06  0.3138203E+04  0.7818609E-02  0.8205331E-01
        2   -1    0    0  501    0  0.00000000000E+00  0.00000000000E+00  0.10186929203E+04  0.10186929203E+04  0.25500000920E-02 0. -1.
       -2   -1    0    0    0  501  0.00000000000E+00  0.00000000000E+00 -0.24169008077E+04  0.24169008077E+04  0.25500000920E-02 0.  1.
    10030    2    1    2    0    0  0.00000000000E+00  0.00000000000E+00 -0.13982078874E+04  0.34355937280E+04  0.31382031431E+04 0.  0.
        4    1    3    3  502    0 -0.26953454934E+03  0.15035005745E+04 -0.10921766991E+04  0.18777684644E+04  0.12699999809E+01 0.  1.
       -4    1    3    3    0  502  0.26953454934E+03 -0.15035005745E+04 -0.30603118833E+03  0.15578252636E+04  0.12699999809E+01 0. -1.
</event>
<event>
 5   0  0.1235960E-06  0.2877883E+04  0.7818609E-02  0.8279489E-01
        1   -1    0    0  501    0  0.00000000000E+00  0.00000000000E+00  0.15079950585E+04  0.15079950585E+04  0.50400001928E-02 0.  1.
       -1   -1    0    0    0  501  0.00000000000E+00  0.00000000000E+00 -0.13730495924E+04  0.13730495924E+04  0.50400001928E-02 0. -1.
    10030    2    1    2    0    0  0.00000000000E+00  0.00000000000E+00  0.13494546609E+03  0.28810446510E+04  0.28778825553E+04 0.  0.
        4    1    3    3  502    0  0.64305690554E+03 -0.12835598320E+04 -0.30114431358E+02  0.14359514330E+04  0.12699999809E+01 0.  1.
       -4    1    3    3    0  502 -0.64305690554E+03  0.12835598320E+04  0.16505989745E+03  0.14450932180E+04  0.12699999809E+01 0. -1.
</event>
<event>
 5   0  0.1198763E-06  0.3096552E+04  0.7818609E-02  0.8216685E-01
       -1   -1    0    0    0  501  0.00000000000E+00  0.00000000000E+00  0.14161242547E+04  0.14161242547E+04  0.50400001928E-02 0. -1.
        1   -1    0    0  501    0  0.00000000000E+00  0.00000000000E+00 -0.16927595875E+04  0.16927595875E+04  0.50400001928E-02 0.  1.
    10030    2    1    2    0    0  0.00000000000E+00  0.00000000000E+00 -0.27663533276E+03  0.31088838422E+04  0.30965515719E+04 0.  0.
        1    1    3    3  502    0  0.75949281646E+02  0.14490619168E+04  0.40384145901E+03  0.15061994078E+04  0.50400001928E-02 0. -1.
       -1    1    3    3    0  502 -0.75949281646E+02 -0.14490619168E+04 -0.68047679177E+03  0.16026844344E+04  0.50400001928E-02 0.  1.
</event>
<event>
 5   0  0.3445959E-06  0.3105790E+04  0.7818609E-02  0.8214151E-01
       -2   -1    0    0    0  501  0.00000000000E+00  0.00000000000E+00  0.16134275171E+04  0.16134275171E+04  0.25500000920E-02 0.  1.
        2   -1    0    0  501    0  0.00000000000E+00  0.00000000000E+00 -0.14946339910E+04  0.14946339910E+04  0.25500000920E-02 0. -1.
    10030    2    1    2    0    0  0.00000000000E+00  0.00000000000E+00  0.11879352613E+03  0.31080615081E+04  0.31057904688E+04 0.  0.
        4    1    3    3  502    0  0.52869045020E+03  0.13794323408E+04 -0.41963355242E+03  0.15357216890E+04  0.12699999809E+01 0. -1.
       -4    1    3    3    0  502 -0.52869045020E+03 -0.13794323408E+04  0.53842707854E+03  0.15723398191E+04  0.12699999809E+01 0.  1.
</event>
<event>
 5   0  0.3441897E-06  0.3108251E+04  0.7818609E-02  0.8213477E-01
        2   -1    0    0  501    0  0.00000000000E+00  0.00000000000E+00  0.13566429275E+04  0.13566429275E+04  0.25500000920E-02 0.  1.
       -2   -1    0    0    0  501  0.00000000000E+00  0.00000000000E+00 -0.17803553042E+04  0.17803553042E+04  0.25500000920E-02 0. -1.
    10030    2    1    2    0    0  0.00000000000E+00  0.00000000000E+00 -0.42371237669E+03  0.31369982317E+04  0.31082512330E+04 0.  0.
        5    1    3    3  502    0 -0.71154712460E+02 -0.26424225906E+03 -0.17558407755E+04  0.17770441422E+04  0.46999998093E+01 0. -1.
       -5    1    3    3    0  502  0.71154712460E+02  0.26424225906E+03  0.13321283988E+04  0.13599540895E+04  0.46999998093E+01 0.  1.
</event>
<event>
 5   0  0.1171915E-06  0.3142427E+04  0.7818609E-02  0.8204190E-01
       -1   -1    0    0    0  501  0.00000000000E+00  0.00000000000E+00  0.16784124555E+04  0.16784124555E+04  0.50400001928E-02 0.  1.
        1   -1    0    0  501    0  0.00000000000E+00  0.00000000000E+00 -0.14708616449E+04  0.14708616450E+04  0.50400001928E-02 0. -1.
    10030    2    1    2    0    0  0.00000000000E+00  0.00000000000E+00  0.20755081058E+03  0.31492741005E+04  0.31424274090E+04 0.  0.
        2    1    3    3  502    0 -0.11609982526E+04  0.10568771146E+04  0.16560526833E+03  0.15787119062E+04  0.25500000920E-02 0.  1.
       -2    1    3    3    0  502  0.11609982526E+04 -0.10568771146E+04  0.41945542247E+02  0.15705621943E+04  0.25500000920E-02 0. -1.
</event>
<event>
 5   0  0.1211008E-06  0.3133781E+04  0.7818609E-02  0.8206528E-01
        1   -1    0    0  501    0  0.00000000000E+00  0.00000000000E+00  0.18543904624E+04  0.18543904625E+04  0.50400001928E-02 0. -1.
       -1   -1    0    0    0  501  0.00000000000E+00  0.00000000000E+00 -0.13239641029E+04  0.13239641029E+04  0.50400001928E-02 0.  1.
    10030    2    1    2    0    0  0.00000000000E+00  0.00000000000E+00  0.53042635956E+03  0.31783545653E+04  0.31337813613E+04 0.  0.
        3    1    3    3  502    0 -0.64400826255E+02 -0.21636158251E+03  0.18378112422E+04  0.18516236045E+04  0.10100000352E+00 0. -1.
       -3    1    3    3    0  502  0.64400826255E+02  0.21636158251E+03 -0.13073848826E+04  0.13267309608E+04  0.10100000352E+00 0.  1.
</event>
<event>
 5   0  0.3374790E-06  0.3108645E+04  0.7818609E-02  0.8213369E-01
       -2   -1    0    0    0  501  0.00000000000E+00  0.00000000000E+00  0.93201049058E+03  0.93201049058E+03  0.25500000920E-02 0. -1.
        2   -1    0    0  501    0  0.00000000000E+00  0.00000000000E+00 -0.25921575416E+04  0.25921575416E+04  0.25500000920E-02 0.  1.
    10030    2    1    2    0    0  0.00000000000E+00  0.00000000000E+00 -0.16601470511E+04  0.35241680322E+04  0.31086447350E+04 0.  0.
        2    1    3    3  502    0  0.44528355950E+02  0.37018311674E+03 -0.25407089669E+04  0.25679214102E+04  0.25500000920E-02 0.  1.
       -2    1    3    3    0  502 -0.44528355950E+02 -0.37018311674E+03  0.88056191587E+03  0.95624662200E+03  0.25500000920E-02 0. -1.
</event>
<event>
 5   0  0.3445959E-06  0.3111609E+04  0.7818609E-02  0.8212559E-01
       -2   -1    0    0    0  501  0.00000000000E+00  0.00000000000E+00  0.95830652487E+03  0.95830652487E+03  0.25500000920E-02 0. -1.
        2   -1    0    0  501    0  0.00000000000E+00  0.00000000000E+00 -0.25258384579E+04  0.25258384579E+04  0.25500000920E-02 0.  1.
    10030    2    1    2    0    0  0.00000000000E+00  0.00000000000E+00 -0.15675319330E+04  0.34841449827E+04  0.31116088925E+04 0.  0.
        4    1    3    3  502    0 -0.50077660326E+03  0.97924040103E+03 -0.20158888885E+04  0.22964099358E+04  0.12699999809E+01 0.  1.
       -4    1    3    3    0  502  0.50077660326E+03 -0.97924040103E+03  0.44835695550E+03  0.11877350470E+04  0.12699999809E+01 0. -1.
</event>
<event>
 5   0  0.1198763E-06  0.2960791E+04  0.7818609E-02  0.8255017E-01
        1   -1    0    0  501    0  0.00000000000E+00  0.00000000000E+00  0.11445685627E+04  0.11445685627E+04  0.50400001928E-02 0.  1.
       -1   -1    0    0    0  501  0.00000000000E+00  0.00000000000E+00 -0.19147566225E+04  0.19147566225E+04  0.50400001928E-02 0. -1.
    10030    2    1    2    0    0  0.00000000000E+00  0.00000000000E+00 -0.77018805981E+03  0.30593251853E+04  0.29607905940E+04 0.  0.
        1    1    3    3  502    0 -0.14377106786E+04 -0.28063274793E+03 -0.60623402029E+03  0.15853347981E+04  0.50400001928E-02 0. -1.
       -1    1    3    3    0  502  0.14377106786E+04  0.28063274793E+03 -0.16395403952E+03  0.14739903872E+04  0.50400001928E-02 0.  1.
</event>
<event>
 5   0  0.1198763E-06  0.3049942E+04  0.7818609E-02  0.8229612E-01
       -1   -1    0    0    0  501  0.00000000000E+00  0.00000000000E+00  0.15921781033E+04  0.15921781033E+04  0.50400001928E-02 0.  1.
        1   -1    0    0  501    0  0.00000000000E+00  0.00000000000E+00 -0.14606003358E+04  0.14606003358E+04  0.50400001928E-02 0. -1.
    10030    2    1    2    0    0  0.00000000000E+00  0.00000000000E+00  0.13157776753E+03  0.30527784391E+04  0.30499415550E+04 0.  0.
        1    1    3    3  502    0  0.73006419976E+02 -0.13750076404E+04 -0.59022895156E+03  0.14981142025E+04  0.50400001928E-02 0. -1.
       -1    1    3    3    0  502 -0.73006419976E+02  0.13750076404E+04  0.72180671909E+03  0.15546642365E+04  0.50400001928E-02 0.  1.
</event>
<event>
 5   0  0.3340899E-06  0.3082016E+04  0.7818609E-02  0.8220691E-01
       -2   -1    0    0    0  501  0.00000000000E+00  0.00000000000E+00  0.16650992410E+04  0.16650992410E+04  0.25500000920E-02 0. -1.
        2   -1    0    0  501    0  0.00000000000E+00  0.00000000000E+00 -0.14261649778E+04  0.14261649778E+04  0.25500000920E-02 0.  1.
    10030    2    1    2    0    0  0.00000000000E+00  0.00000000000E+00  0.23893426323E+03  0.30912642188E+04  0.30820163673E+04 0.  0.
        3    1    3    3  502    0 -0.51721117342E+03  0.15813063497E+03 -0.13278434293E+04  0.14337645827E+04  0.10100000352E+00 0.  1.
       -3    1    3    3    0  502  0.51721117342E+03 -0.15813063497E+03  0.15667776925E+04  0.16574996361E+04  0.10100000352E+00 0. -1.
</event>
<event>
 5   0  0.1235960E-06  0.3088617E+04  0.7818609E-02  0.8218869E-01
       -1   -1    0    0    0  501  0.00000000000E+00  0.00000000000E+00  0.18863125137E+04  0.18863125137E+04  0.50400001928E-02 0.  1.
        1   -1    0    0  501    0  0.00000000000E+00  0.00000000000E+00 -0.12643122683E+04  0.12643122683E+04  0.50400001928E-02 0. -1.
    10030    2    1    2    0    0  0.00000000000E+00  0.00000000000E+00  0.62200024541E+03  0.31506247820E+04  0.30886165531E+04 0.  0.
        4    1    3    3  502    0  0.73500801068E+03  0.12054643040E+04  0.94926597581E+03  0.17013196260E+04  0.12699999809E+01 0.  1.
       -4    1    3    3    0  502 -0.73500801068E+03 -0.12054643040E+04 -0.32726573041E+03  0.14493051560E+04  0.12699999809E+01 0. -1.
</event>
<event>
 5   0  0.1211008E-06  0.3030133E+04  0.7818609E-02  0.8235178E-01
        1   -1    0    0  501    0  0.00000000000E+00  0.00000000000E+00  0.21391760753E+04  0.21391760753E+04  0.50400001928E-02 0.  1.
       -1   -1    0    0    0  501  0.00000000000E+00  0.00000000000E+00 -0.10730425597E+04  0.10730425597E+04  0.50400001928E-02 0. -1.
    10030    2    1    2    0    0  0.00000000000E+00  0.00000000000E+00  0.10661335156E+04  0.32122186351E+04  0.30301333117E+04 0.  0.
        3    1    3    3  502    0 -0.79354532178E+03  0.64417753617E+03  0.17186397157E+04  0.19996002997E+04  0.10100000352E+00 0.  1.
       -3    1    3    3    0  502  0.79354532178E+03 -0.64417753617E+03 -0.65250620016E+03  0.12126183354E+04  0.10100000352E+00 0. -1.
</event>
<event>
 5   0  0.1198763E-06  0.3111740E+04  0.7818609E-02  0.8212523E-01
       -1   -1    0    0    0  501  0.00000000000E+00  0.00000000000E+00  0.15342422600E+04  0.15342422601E+04  0.50400001928E-02 0. -1.
        1   -1    0    0  501    0  0.00000000000E+00  0.00000000000E+00 -0.15778028781E+04  0.15778028781E+04  0.50400001928E-02 0.  1.
    10030    2    1    2    0    0  0.00000000000E+00  0.00000000000E+00 -0.43560618063E+02  0.31120451382E+04  0.31117402550E+04 0.  0.
        1    1    3    3  502    0 -0.60507651406E+03 -0.13088025303E+04  0.56278547363E+03  0.15478401535E+04  0.50400001928E-02 0. -1.
       -1    1    3    3    0  502  0.60507651406E+03  0.13088025303E+04 -0.60634609169E+03  0.15642049847E+04  0.50400001928E-02 0.  1.
</event>
<event>
 5   0  0.1211008E-06  0.3104535E+04  0.7818609E-02  0.8214494E-01
        1   -1    0    0  501    0  0.00000000000E+00  0.00000000000E+00  0.20770332878E+04  0.20770332878E+04  0.50400001928E-02 0.  1.
       -1   -1    0    0    0  501  0.00000000000E+00  0.00000000000E+00 -0.11600846625E+04  0.11600846625E+04  0.50400001928E-02 0. -1.
    10030    2    1    2    0    0  0.00000000000E+00  0.00000000000E+00  0.91694862528E+03  0.32371179503E+04  0.31045350445E+04 0.  0.
        3    1    3    3  502    0  0.14932952484E+04 -0.17960542596E+03  0.58224989912E+02  0.15051840312E+04  0.10100000352E+00 0. -1.
       -3    1    3    3    0  502 -0.14932952484E+04  0.17960542596E+03  0.85872363537E+03  0.17319339191E+04  0.10100000352E+00 0.  1.
</event>
<event>
 5   0  0.3441897E-06  0.3111012E+04  0.7818609E-02  0.8212722E-01
        2   -1    0    0  501    0  0.00000000000E+00  0.00000000000E+00  0.16688281492E+04  0.16688281492E+04  0.25500000920E-02 0.  1.
       -2   -1    0    0    0  501  0.00000000000E+00  0.00000000000E+00 -0.14498788161E+04  0.14498788161E+04  0.25500000920E-02 0. -1.
    10030    2    1    2    0    0  0.00000000000E+00  0.00000000000E+00  0.21894933311E+03  0.31187069653E+04  0.31110117848E+04 0.  0.
        5    1    3    3  502    0 -0.11689789156E+04  0.94951000510E+03  0.49966169948E+03  0.15867466272E+04  0.46999998093E+01 0.  1.
       -5    1    3    3    0  502  0.11689789156E+04 -0.94951000510E+03 -0.28071236637E+03  0.15319603381E+04  0.46999998093E+01 0. -1.
</event>
<event>
 5   0  0.1235960E-06  0.3117743E+04  0.7818609E-02  0.8210885E-01
        1   -1    0    0  501    0  0.00000000000E+00  0.00000000000E+00  0.15266596150E+04  0.15266596150E+04  0.50400001928E-02 0. -1.
       -1   -1    0    0    0  501  0.00000000000E+00  0.00000000000E+00 -0.15917630160E+04  0.15917630160E+04  0.50400001928E-02 0.  1.
    10030    2    1    2    0    0  0.00000000000E+00  0.00000000000E+00 -0.65103400964E+02  0.31184226310E+04  0.31177429741E+04 0.  0.
        4    1    3    3  502    0 -0.14369182685E+04 -0.55998639732E+03 -0.26010915317E+03  0.15639620391E+04  0.12699999809E+01 0. -1.
       -4    1    3    3    0  502  0.14369182685E+04  0.55998639732E+03  0.19500575220E+03  0.15544605919E+04  0.12699999809E+01 0.  1.
</event>
<event>
 5   0  0.1198763E-06  0.3121314E+04  0.7818609E-02  0.8209913E-01
        1   -1    0    0  501    0  0.00000000000E+00  0.00000000000E+00  0.20591859983E+04  0.20591859983E+04  0.50400001928E-02 0.  1.
       -1   -1    0    0    0  501  0.00000000000E+00  0.00000000000E+00 -0.11828221773E+04  0.11828221773E+04  0.50400001928E-02 0. -1.
    10030    2    1    2    0    0  0.00000000000E+00  0.00000000000E+00  0.87636382100E+03  0.32420081756E+04  0.31213143808E+04 0.  0.
        1    1    3    3  502    0  0.87122598883E+03 -0.11429664009E+04 -0.19382318097E+03  0.14501635572E+04  0.50400001928E-02 0. -1.
       -1    1    3    3    0  502 -0.87122598883E+03  0.11429664009E+04  0.10701870020E+04  0.17918446184E+04  0.50400001928E-02 0.  1.
</event>
<event>
 5   0  0.1211008E-06  0.3103316E+04  0.7818609E-02  0.8214828E-01
        1   -1    0    0  501    0  0.00000000000E+00  0.00000000000E+00  0.14272678322E+04  0.14272678322E+04  0.50400001928E-02 0.  1.
       -1   -1    0    0    0  501  0.00000000000E+00  0.00000000000E+00 -0.16868889352E+04  0.16868889353E+04  0.50400001928E-02 0. -1.
    10030    2    1    2    0    0  0.00000000000E+00  0.00000000000E+00 -0.25962110307E+03  0.31141567674E+04  0.31033158484E+04 0.  0.
        3    1    3    3  502    0  0.40560331951E+03  0.47509967902E+03 -0.15551274037E+04  0.16759042364E+04  0.10100000352E+00 0. -1.
       -3    1    3    3    0  502 -0.40560331951E+03 -0.47509967902E+03  0.12955063006E+04  0.14382525310E+04  0.10100000352E+00 0.  1.
</event>
<event>
 5   0  0.3441897E-06  0.3104996E+04  0.7818609E-02  0.8214368E-01
       -2   -1    0    0    0  501  0.00000000000E+00  0.00000000000E+00  0.87090266801E+03  0.87090266801E+03  0.25500000920E-02 0.  1.
        2   -1    0    0  501    0  0.00000000000E+00  0.00000000000E+00 -0.27675314394E+04  0.27675314394E+04  0.25500000920E-02 0. -1.
    10030    2    1    2    0    0  0.00000000000E+00  0.00000000000E+00 -0.18966287714E+04  0.36384341075E+04  0.31049963056E+04 0.  0.
        5    1    3    3  502    0 -0.23094072082E+03  0.11355837538E+04  0.26229964605E+03  0.11881528827E+04  0.46999998093E+01 0.  1.
       -5    1    3    3    0  502  0.23094072082E+03 -0.11355837538E+04 -0.21589284175E+04  0.24502812247E+04  0.46999998093E+01 0. -1.
</event>
<event>
 5   0  0.3445959E-06  0.3120034E+04  0.7818609E-02  0.8210261E-01
        2   -1    0    0  501    0  0.00000000000E+00  0.00000000000E+00  0.15821445273E+04  0.15821445273E+04  0.25500000920E-02 0.  1.
       -2   -1    0    0    0  501  0.00000000000E+00  0.00000000000E+00 -0.15381991582E+04  0.15381991582E+04  0.25500000920E-02 0. -1.
    10030    2    1    2    0    0  0.00000000000E+00  0.00000000000E+00  0.43945369043E+02  0.31203436855E+04  0.31200342178E+04 0.  0.
        4    1    3    3  502    0 -0.42111115667E+03  0.33737319149E+02  0.15238469624E+04  0.15813234934E+04  0.12699999809E+01 0.  1.
       -4    1    3    3    0  502  0.42111115667E+03 -0.33737319149E+02 -0.14799015934E+04  0.15390201922E+04  0.12699999809E+01 0. -1.
</event>
<event>
 5   0  0.1250276E-06  0.3075706E+04  0.7818609E-02  0.8222437E-01
        1   -1    0    0  501    0  0.00000000000E+00  0.00000000000E+00  0.27494695299E+04  0.27494695299E+04  0.50400001928E-02 0.  1.
       -1   -1    0    0    0  501  0.00000000000E+00  0.00000000000E+00 -0.86016277711E+03  0.86016277712E+03  0.50400001928E-02 0. -1.
    10030    2    1    2    0    0  0.00000000000E+00  0.00000000000E+00  0.18893067528E+04  0.36096323070E+04  0.30757056728E+04 0.  0.
        5    1    3    3  502    0 -0.36802422520E+03 -0.39814175286E+03 -0.74426767582E+03  0.92082308234E+03  0.46999998093E+01 0. -1.
       -5    1    3    3    0  502  0.36802422520E+03  0.39814175286E+03  0.26335744286E+04  0.26888092247E+04  0.46999998093E+01 0.  1.
</event>
<event>
 5   0  0.3445959E-06  0.3126675E+04  0.7818609E-02  0.8208455E-01
        2   -1    0    0  501    0  0.00000000000E+00  0.00000000000E+00  0.96028570574E+03  0.96028570574E+03  0.25500000920E-02 0.  1.
       -2   -1    0    0    0  501  0.00000000000E+00  0.00000000000E+00 -0.25451017315E+04  0.25451017315E+04  0.25500000920E-02 0. -1.
    10030    2    1    2    0    0  0.00000000000E+00  0.00000000000E+00 -0.15848160257E+04  0.35053874372E+04  0.31266754308E+04 0.  0.
        4    1    3    3  502    0 -0.93279844452E+03  0.12511300303E+04 -0.89627936045E+03  0.17996548546E+04  0.12699999809E+01 0. -1.
       -4    1    3    3    0  502  0.93279844452E+03 -0.12511300303E+04 -0.68853666526E+03  0.17057325826E+04  0.12699999809E+01 0.  1.
</event>
<event>
 5   0  0.1211008E-06  0.3115639E+04  0.7818609E-02  0.8211459E-01
        1   -1    0    0  501    0  0.00000000000E+00  0.00000000000E+00  0.17031129433E+04  0.17031129433E+04  0.50400001928E-02 0. -1.
       -1   -1    0    0    0  501  0.00000000000E+00  0.00000000000E+00 -0.14249209029E+04  0.14249209029E+04  0.50400001928E-02 0.  1.
    10030    2    1    2    0    0  0.00000000000E+00  0.00000000000E+00  0.27819204046E+03  0.31280338462E+04  0.31156387678E+04 0.  0.
        3    1    3    3  502    0 -0.12107939780E+04 -0.28485846436E+03 -0.80252371209E+03  0.14802738667E+04  0.10100000352E+00 0. -1.
       -3    1    3    3    0  502  0.12107939780E+04  0.28485846436E+03  0.10807157526E+04  0.16477599795E+04  0.10100000352E+00 0.  1.
</event>
<event>
 5   0  0.3374790E-06  0.2999166E+04  0.7818609E-02  0.8243969E-01
       -2   -1    0    0    0  501  0.00000000000E+00  0.00000000000E+00  0.16011242615E+04  0.16011242615E+04  0.25500000920E-02 0. -1.
        2   -1    0    0  501    0  0.00000000000E+00  0.00000000000E+00 -0.14044817584E+04  0.14044817584E+04  0.25500000920E-02 0.  1.
    10030    2    1    2    0    0  0.00000000000E+00  0.00000000000E+00  0.19664250310E+03  0.30056060199E+04  0.29991664296E+04 0.  0.
        2    1    3    3  502    0 -0.10069522876E+04  0.11058424953E+04  0.20768523331E+03  0.15099581750E+04  0.25500000920E-02 0. -1.
       -2    1    3    3    0  502  0.10069522876E+04 -0.11058424953E+04 -0.11042730209E+02  0.14956478449E+04  0.25500000920E-02 0.  1.
</event>
<event>
 5   0  0.3445410E-06  0.3063801E+04  0.7818609E-02  0.8225743E-01
        2   -1    0    0  501    0  0.00000000000E+00  0.00000000000E+00  0.95899604463E+03  0.95899604464E+03  0.25500000920E-02 0.  1.
       -2   -1    0    0    0  501  0.00000000000E+00  0.00000000000E+00 -0.24470574820E+04  0.24470574820E+04  0.25500000920E-02 0. -1.
    10030    2    1    2    0    0  0.00000000000E+00  0.00000000000E+00 -0.14880614373E+04  0.34060535266E+04  0.30638005459E+04 0.  0.
        1    1    3    3  502    0 -0.13510042828E+04  0.72212989344E+03 -0.73752070599E+03  0.17001826216E+04  0.50400001928E-02 0. -1.
       -1    1    3    3    0  502  0.13510042828E+04 -0.72212989344E+03 -0.75054073135E+03  0.17058709050E+04  0.50400001928E-02 0.  1.
</event>
<event>
 5   0  0.1235960E-06  0.3094035E+04  0.7818609E-02  0.8217377E-01
       -1   -1    0    0    0  501  0.00000000000E+00  0.00000000000E+00  0.10881967133E+04  0.10881967134E+04  0.50400001928E-02 0.  1.
        1   -1    0    0  501    0  0.00000000000E+00  0.00000000000E+00 -0.21992927539E+04  0.21992927539E+04  0.50400001928E-02 0. -1.
    10030    2    1    2    0    0  0.00000000000E+00  0.00000000000E+00 -0.11110960405E+04  0.32874894672E+04  0.30940350007E+04 0.  0.
        4    1    3    3  502    0  0.15181042832E+04  0.24593516504E+03 -0.73377629512E+03  0.17039818028E+04  0.12699999809E+01 0. -1.
       -4    1    3    3    0  502 -0.15181042832E+04 -0.24593516504E+03 -0.37731974539E+03  0.15835076644E+04  0.12699999809E+01 0.  1.
</event>
<event>
 5   0  0.3445410E-06  0.3090836E+04  0.7818609E-02  0.8218257E-01
        2   -1    0    0  501    0  0.00000000000E+00  0.00000000000E+00  0.22485044335E+04  0.22485044335E+04  0.25500000920E-02 0.  1.
       -2   -1    0    0    0  501  0.00000000000E+00  0.00000000000E+00 -0.10621801088E+04  0.10621801088E+04  0.25500000920E-02 0. -1.
    10030    2    1    2    0    0  0.00000000000E+00  0.00000000000E+00  0.11863243248E+04  0.33106845423E+04  0.30908359282E+04 0.  0.
        1    1    3    3  502    0 -0.50155887893E+03  0.14481097965E+04  0.37965144928E+03  0.15788345431E+04  0.50400001928E-02 0.  1.
       -1    1    3    3    0  502  0.50155887893E+03 -0.14481097965E+04  0.80667287549E+03  0.17318499992E+04  0.50400001928E-02 0. -1.
</event>
<event>
 5   0  0.1171915E-06  0.3107709E+04  0.7818609E-02  0.8213625E-01
        1   -1    0    0  501    0  0.00000000000E+00  0.00000000000E+00  0.11190972348E+04  0.11190972348E+04  0.50400001928E-02 0. -1.
       -1   -1    0    0    0  501  0.00000000000E+00  0.00000000000E+00 -0.21575104618E+04  0.21575104618E+04  0.50400001928E-02 0.  1.
    10030    2    1    2    0    0  0.00000000000E+00  0.00000000000E+00 -0.10384132270E+04  0.32766076966E+04  0.31077091189E+04 0.  0.
        2    1    3    3  502    0  0.79232832122E+03  0.35038530054E+03  0.84082497710E+03  0.12072864903E+04  0.25500000920E-02 0. -1.
       -2    1    3    3    0  502 -0.79232832122E+03 -0.35038530054E+03 -0.18792382041E+04  0.20693212064E+04  0.25500000920E-02 0.  1.
</event>
<event>
 5   0  0.3445959E-06  0.3156793E+04  0.7818609E-02  0.8200322E-01
       -2   -1    0    0    0  501  0.00000000000E+00  0.00000000000E+00  0.17049211075E+04  0.17049211076E+04  0.25500000920E-02 0. -1.
        2   -1    0    0  501    0  0.00000000000E+00  0.00000000000E+00 -0.14612613521E+04  0.14612613521E+04  0.25500000920E-02 0.  1.
    10030    2    1    2    0    0  0.00000000000E+00  0.00000000000E+00  0.24365975540E+03  0.31661824597E+04  0.31567928807E+04 0.  0.
        4    1    3    3  502    0  0.28608503532E+03  0.15082998495E+04 -0.24603158304E+03  0.15547817326E+04  0.12699999809E+01 0.  1.
       -4    1    3    3    0  502 -0.28608503532E+03 -0.15082998495E+04  0.48969133844E+03  0.16114007271E+04  0.12699999809E+01 0. -1.
</event>
<event>
 5   0  0.3340899E-06  0.3090128E+04  0.7818609E-02  0.8218453E-01
       -2   -1    0    0    0  501  0.00000000000E+00  0.00000000000E+00  0.11870853072E+04  0.11870853072E+04  0.25500000920E-02 0.  1.
        2   -1    0    0  501    0  0.00000000000E+00  0.00000000000E+00 -0.20109945789E+04  0.20109945789E+04  0.25500000920E-02 0. -1.
    10030    2    1    2    0    0  0.00000000000E+00  0.00000000000E+00 -0.82390927169E+03  0.31980798860E+04  0.30901275814E+04 0.  0.
        3    1    3    3  502    0 -0.56225126459E+03 -0.13325243844E+04  0.15061050548E+03  0.14541084052E+04  0.10100000352E+00 0.  1.
       -3    1    3    3    0  502  0.56225126459E+03  0.13325243844E+04 -0.97451977717E+03  0.17439714808E+04  0.10100000352E+00 0. -1.
</event>
<event>
 5   0  0.1171915E-06  0.3077829E+04  0.7818609E-02  0.8221849E-01
       -1   -1    0    0    0  501  0.00000000000E+00  0.00000000000E+00  0.99655802363E+03  0.99655802364E+03  0.50400001928E-02 0.  1.
        1   -1    0    0  501    0  0.00000000000E+00  0.00000000000E+00 -0.23764377309E+04  0.23764377309E+04  0.50400001928E-02 0. -1.
    10030    2    1    2    0    0  0.00000000000E+00  0.00000000000E+00 -0.13798797073E+04  0.33729957546E+04  0.30778291625E+04 0.  0.
        2    1    3    3  502    0 -0.28694587495E+03  0.54057465933E+03 -0.22373345379E+04  0.23195311448E+04  0.25500000920E-02 0. -1.
       -2    1    3    3    0  502  0.28694587495E+03 -0.54057465933E+03  0.85745483059E+03  0.10534646097E+04  0.25500000920E-02 0.  1.
</event>
<event>
 5   0  0.1235960E-06  0.2887557E+04  0.7818609E-02  0.8276589E-01
       -1   -1    0    0    0  501  0.00000000000E+00  0.00000000000E+00  0.12371639446E+04  0.12371639446E+04  0.50400001928E-02 0. -1.
        1   -1    0    0  501    0  0.00000000000E+00  0.00000000000E+00 -0.16848992089E+04  0.16848992089E+04  0.50400001928E-02 0.  1.
    10030    2    1    2    0    0  0.00000000000E+00  0.00000000000E+00 -0.44773526431E+03  0.29220631536E+04  0.28875571348E+04 0.  0.
        4    1    3    3  502    0  0.86269916040E+03 -0.11372769392E+04 -0.48412253793E+01  0.14274710954E+04  0.12699999809E+01 0. -1.
       -4    1    3    3    0  502 -0.86269916040E+03  0.11372769392E+04 -0.44289403893E+03  0.14945920582E+04  0.12699999809E+01 0.  1.
</event>
<event>
 5   0  0.1211008E-06  0.3097429E+04  0.7818609E-02  0.8216444E-01
       -1   -1    0    0    0  501  0.00000000000E+00  0.00000000000E+00  0.23456411568E+04  0.23456411568E+04  0.50400001928E-02 0. -1.
        1   -1    0    0  501    0  0.00000000000E+00  0.00000000000E+00 -0.10225417166E+04  0.10225417166E+04  0.50400001928E-02 0.  1.
    10030    2    1    2    0    0  0.00000000000E+00  0.00000000000E+00  0.13230994402E+04  0.33681828735E+04  0.30974285691E+04 0.  0.
        3    1    3    3  502    0  0.97578635901E+03 -0.88289551158E+03 -0.22644264132E+03  0.13352676821E+04  0.10100000352E+00 0.  1.
       -3    1    3    3    0  502 -0.97578635901E+03  0.88289551158E+03  0.15495420815E+04  0.20329151914E+04  0.10100000352E+00 0. -1.
</event>
<event>
 5   0  0.1211008E-06  0.2896582E+04  0.7818609E-02  0.8273895E-01
       -1   -1    0    0    0  501  0.00000000000E+00  0.00000000000E+00  0.22797333203E+04  0.22797333203E+04  0.50400001928E-02 0. -1.
        1   -1    0    0  501    0  0.00000000000E+00  0.00000000000E+00 -0.92008440551E+03  0.92008440553E+03  0.50400001928E-02 0.  1.
    10030    2    1    2    0    0  0.00000000000E+00  0.00000000000E+00  0.13596489148E+04  0.31998177259E+04  0.28965821768E+04 0.  0.
        3    1    3    3  502    0  0.70294637807E+03 -0.59842520408E+03 -0.55292978960E+03  0.10760937216E+04  0.10100000352E+00 0.  1.
       -3    1    3    3    0  502 -0.70294637807E+03  0.59842520408E+03  0.19125787044E+04  0.21237240042E+04  0.10100000352E+00 0. -1.
</event>
<event>
 5   0  0.3340899E-06  0.3097842E+04  0.7818609E-02  0.8216330E-01
        2   -1    0    0  501    0  0.00000000000E+00  0.00000000000E+00  0.20523300750E+04  0.20523300750E+04  0.25500000920E-02 0. -1.
       -2   -1    0    0    0  501  0.00000000000E+00  0.00000000000E+00 -0.11689917332E+04  0.11689917332E+04  0.25500000920E-02 0.  1.
    10030    2    1    2    0    0  0.00000000000E+00  0.00000000000E+00  0.88333834173E+03  0.32213218082E+04  0.30978424050E+04 0.  0.
        3    1    3    3  502    0 -0.91833305268E+03  0.83183005244E+03  0.14081684060E+04  0.18756905666E+04  0.10100000352E+00 0. -1.
       -3    1    3    3    0  502  0.91833305268E+03 -0.83183005244E+03 -0.52483006428E+03  0.13456312416E+04  0.10100000352E+00 0.  1.
</event>
<event>
 5   0  0.3441897E-06  0.2901829E+04  0.7818609E-02  0.8272334E-01
       -2   -1    0    0    0  501  0.00000000000E+00  0.00000000000E+00  0.16279957166E+04  0.16279957166E+04  0.25500000920E-02 0. -1.
        2   -1    0    0  501    0  0.00000000000E+00  0.00000000000E+00 -0.12930944314E+04  0.12930944314E+04  0.25500000920E-02 0.  1.
    10030    2    1    2    0    0  0.00000000000E+00  0.00000000000E+00  0.33490128520E+03  0.29210901480E+04  0.29018285239E+04 0.  0.
        5    1    3    3  502    0 -0.14202065066E+03  0.66891486807E+03 -0.11206969060E+04  0.13128597073E+04  0.46999998093E+01 0.  1.
       -5    1    3    3    0  502  0.14202065066E+03 -0.66891486807E+03  0.14555981912E+04  0.16082304407E+04  0.46999998093E+01 0. -1.
</event>
<event>
 5   0  0.3374790E-06  0.3070068E+04  0.7818609E-02  0.8224001E-01
       -2   -1    0    0    0  501  0.00000000000E+00  0.00000000000E+00  0.13007144036E+04  0.13007144036E+04  0.25500000920E-02 0. -1.
        2   -1    0    0  501    0  0.00000000000E+00  0.00000000000E+00 -0.18115661020E+04  0.18115661020E+04  0.25500000920E-02 0.  1.
    10030    2    1    2    0    0  0.00000000000E+00  0.00000000000E+00 -0.51085169841E+03  0.31122805055E+04  0.30700684825E+04 0.  0.
        2    1    3    3  502    0 -0.12416488035E+04  0.90151536597E+03 -0.21113978004E+03  0.15488711092E+04  0.25500000920E-02 0.  1.
       -2    1    3    3    0  502  0.12416488035E+04 -0.90151536597E+03 -0.29971191837E+03  0.15634093963E+04  0.25500000920E-02 0. -1.
</event>
<event>
 5   0  0.1198763E-06  0.3116137E+04  0.7818609E-02  0.8211323E-01
        1   -1    0    0  501    0  0.00000000000E+00  0.00000000000E+00  0.20955210930E+04  0.20955210930E+04  0.50400001928E-02 0. -1.
       -1   -1    0    0    0  501  0.00000000000E+00  0.00000000000E+00 -0.11584596799E+04  0.11584596799E+04  0.50400001928E-02 0.  1.
    10030    2    1    2    0    0  0.00000000000E+00  0.00000000000E+00  0.93706141312E+03  0.32539807729E+04  0.31161365148E+04 0.  0.
        1    1    3    3  502    0  0.26175654784E+03 -0.39243624096E+03 -0.10820990788E+04  0.11804495372E+04  0.50400001928E-02 0.  1.
       -1    1    3    3    0  502 -0.26175654784E+03  0.39243624096E+03  0.20191604919E+04  0.20735312357E+04  0.50400001928E-02 0. -1.
</event>
<event>
 5   0  0.3374790E-06  0.3087829E+04  0.7818609E-02  0.8219086E-01
        2   -1    0    0  501    0  0.00000000000E+00  0.00000000000E+00  0.19433490933E+04  0.19433490933E+04  0.25500000920E-02 0. -1.
       -2   -1    0    0    0  501  0.00000000000E+00  0.00000000000E+00 -0.12265792007E+04  0.12265792008E+04  0.25500000920E-02 0.  1.
    10030    2    1    2    0    0  0.00000000000E+00  0.00000000000E+00  0.71676989258E+03  0.31699282941E+04  0.30878287373E+04 0.  0.
        2    1    3    3  502    0 -0.61489257641E+03 -0.44378456835E+03 -0.10222268299E+04  0.12727864374E+04  0.25500000920E-02 0.  1.
       -2    1    3    3    0  502  0.61489257641E+03  0.44378456835E+03  0.17389967224E+04  0.18971418567E+04  0.25500000920E-02 0. -1.
</event>
<event>
 5   0  0.1198763E-06  0.3114856E+04  0.7818609E-02  0.8211673E-01
       -1   -1    0    0    0  501  0.00000000000E+00  0.00000000000E+00  0.12909957857E+04  0.12909957857E+04  0.50400001928E-02 0.  1.
        1   -1    0    0  501    0  0.00000000000E+00  0.00000000000E+00 -0.18788454999E+04  0.18788454999E+04  0.50400001928E-02 0. -1.
    10030    2    1    2    0    0  0.00000000000E+00  0.00000000000E+00 -0.58784971414E+03  0.31698412856E+04  0.31148557735E+04 0.  0.
        1    1    3    3  502    0  0.48454636758E+03 -0.31484147633E+03  0.11778666493E+04  0.13119756786E+04  0.50400001928E-02 0.  1.
       -1    1    3    3    0  502 -0.48454636758E+03  0.31484147633E+03 -0.17657163635E+04  0.18578656070E+04  0.50400001928E-02 0. -1.
</event>
<event>
 5   0  0.1250276E-06  0.3119251E+04  0.7818609E-02  0.8210474E-01
        1   -1    0    0  501    0  0.00000000000E+00  0.00000000000E+00  0.27169179782E+04  0.27169179782E+04  0.50400001928E-02 0.  1.
       -1   -1    0    0    0  501  0.00000000000E+00  0.00000000000E+00 -0.89529069407E+03  0.89529069408E+03  0.50400001928E-02 0. -1.
    10030    2    1    2    0    0  0.00000000000E+00  0.00000000000E+00  0.18216272841E+04  0.36122086723E+04  0.31192507962E+04 0.  0.
        5    1    3    3  502    0  0.13819599040E+04  0.52191902708E+03  0.33156732999E+03  0.15139919523E+04  0.46999998093E+01 0. -1.
       -5    1    3    3    0  502 -0.13819599040E+04 -0.52191902708E+03  0.14900599541E+04  0.20982167200E+04  0.46999998093E+01 0.  1.
</event>
<event>
 5   0  0.3445959E-06  0.3094540E+04  0.7818609E-02  0.8217238E-01
       -2   -1    0    0    0  501  0.00000000000E+00  0.00000000000E+00  0.98295675513E+03  0.98295675514E+03  0.25500000920E-02 0. -1.
        2   -1    0    0  501    0  0.00000000000E+00  0.00000000000E+00 -0.24355535208E+04  0.24355535208E+04  0.25500000920E-02 0.  1.
    10030    2    1    2    0    0  0.00000000000E+00  0.00000000000E+00 -0.14525967657E+04  0.34185102760E+04  0.30945395688E+04 0.  0.
        4    1    3    3  502    0  0.14609142972E+04 -0.46651882741E+03 -0.95304755821E+03  0.18056056217E+04  0.12699999809E+01 0. -1.
       -4    1    3    3    0  502 -0.14609142972E+04  0.46651882741E+03 -0.49954920748E+03  0.16129046542E+04  0.12699999809E+01 0.  1.
</event>
<event>
 5   0  0.1211008E-06  0.3266375E+04  0.7818609E-02  0.8171504E-01
       -1   -1    0    0    0  501  0.00000000000E+00  0.00000000000E+00  0.30898751611E+04  0.30898751612E+04  0.50400001928E-02 0. -1.
        1   -1    0    0  501    0  0.00000000000E+00  0.00000000000E+00 -0.86323940506E+03  0.86323940508E+03  0.50400001928E-02 0.  1.
    10030    2    1    2    0    0  0.00000000000E+00  0.00000000000E+00  0.22266357561E+04  0.39531145662E+04  0.32663753586E+04 0.  0.
        3    1    3    3  502    0 -0.13174791656E+04  0.44573405885E+03  0.21493836124E+04  0.25601328337E+04  0.10100000352E+00 0. -1.
       -3    1    3    3    0  502  0.13174791656E+04 -0.44573405885E+03  0.77252143736E+02  0.13929817325E+04  0.10100000352E+00 0.  1.
</event>
<event>
 5   0  0.1198763E-06  0.3083680E+04  0.7818609E-02  0.8220231E-01
        1   -1    0    0  501    0  0.00000000000E+00  0.00000000000E+00  0.94451681797E+03  0.94451681798E+03  0.50400001928E-02 0.  1.
       -1   -1    0    0    0  501  0.00000000000E+00  0.00000000000E+00 -0.25169179690E+04  0.25169179690E+04  0.50400001928E-02 0. -1.
    10030    2    1    2    0    0  0.00000000000E+00  0.00000000000E+00 -0.15724011510E+04  0.34614347869E+04  0.30836804965E+04 0.  0.
        1    1    3    3  502    0  0.10548547221E+04 -0.75030897673E+03 -0.17264179238E+04  0.21578231839E+04  0.50400001928E-02 0. -1.
       -1    1    3    3    0  502 -0.10548547221E+04  0.75030897673E+03  0.15401677278E+03  0.13036116031E+04  0.50400001928E-02 0.  1.
</event>
<event>
 5   0  0.1171915E-06  0.3095529E+04  0.7818609E-02  0.8216966E-01
        1   -1    0    0  501    0  0.00000000000E+00  0.00000000000E+00  0.28052878311E+04  0.28052878311E+04  0.50400001928E-02 0. -1.
       -1   -1    0    0    0  501  0.00000000000E+00  0.00000000000E+00 -0.85394959705E+03  0.85394959706E+03  0.50400001928E-02 0.  1.
    10030    2    1    2    0    0  0.00000000000E+00  0.00000000000E+00  0.19513382341E+04  0.36592374282E+04  0.30955286547E+04 0.  0.
        2    1    3    3  502    0 -0.38921808545E+03  0.80532879501E+03 -0.51749705687E+03  0.10333675000E+04  0.25500000920E-02 0.  1.
       -2    1    3    3    0  502  0.38921808545E+03 -0.80532879501E+03  0.24688352910E+04  0.26258699282E+04  0.25500000920E-02 0. -1.
</event>
<event>
 5   0  0.1235960E-06  0.3107176E+04  0.7818609E-02  0.8213771E-01
        1   -1    0    0  501    0  0.00000000000E+00  0.00000000000E+00  0.19163232234E+04  0.19163232234E+04  0.50400001928E-02 0. -1.
       -1   -1    0    0    0  501  0.00000000000E+00  0.00000000000E+00 -0.12595136695E+04  0.12595136696E+04  0.50400001928E-02 0.  1.
    10030    2    1    2    0    0  0.00000000000E+00  0.00000000000E+00  0.65680955390E+03  0.31758368930E+04  0.31071757564E+04 0.  0.
        4    1    3    3  502    0  0.17955928904E+03 -0.10214288324E+04 -0.85390871157E+03  0.13433987117E+04  0.12699999809E+01 0.  1.
       -4    1    3    3    0  502 -0.17955928904E+03  0.10214288324E+04  0.15107182655E+04  0.18324381813E+04  0.12699999809E+01 0. -1.
</event>
<event>
 5   0  0.1109562E-06  0.3095945E+04  0.7818609E-02  0.8216852E-01
       -3   -1    0    0    0  501  0.00000000000E+00  0.00000000000E+00  0.17435029604E+04  0.17435029633E+04  0.10100000352E+00 0.  1.
        3   -1    0    0  501    0  0.00000000000E+00  0.00000000000E+00 -0.13743703396E+04  0.13743703433E+04  0.10100000352E+00 0. -1.
    10030    2    1    2    0    0  0.00000000000E+00  0.00000000000E+00  0.36913262080E+03  0.31178733066E+04  0.30959449389E+04 0.  0.
        4    1    3    3  502    0 -0.33655915937E+03 -0.10428477971E+04  0.12856601280E+04  0.16892978344E+04  0.12699999809E+01 0.  1.
       -4    1    3    3    0  502  0.33655915937E+03  0.10428477971E+04 -0.91652750716E+03  0.14285754723E+04  0.12699999809E+01 0. -1.
</event>
<event>
 5   0  0.3445410E-06  0.3024140E+04  0.7818609E-02  0.8236871E-01
       -2   -1    0    0    0  501  0.00000000000E+00  0.00000000000E+00  0.17945122819E+04  0.17945122819E+04  0.25500000920E-02 0.  1.
        2   -1    0    0  501    0  0.00000000000E+00  0.00000000000E+00 -0.12740815820E+04  0.12740815820E+04  0.25500000920E-02 0. -1.
    10030    2    1    2    0    0  0.00000000000E+00  0.00000000000E+00  0.52043069990E+03  0.30685938639E+04  0.30241395782E+04 0.  0.
        1    1    3    3  502    0  0.47369159220E+03  0.69609088681E+03  0.15346350116E+04  0.17504373356E+04  0.50400001928E-02 0.  1.
       -1    1    3    3    0  502 -0.47369159220E+03 -0.69609088681E+03 -0.10142043117E+04  0.13181565283E+04  0.50400001928E-02 0. -1.
</event>
<event>
 5   0  0.1171915E-06  0.3077771E+04  0.7818609E-02  0.8221865E-01
        1   -1    0    0  501    0  0.00000000000E+00  0.00000000000E+00  0.28298086124E+04  0.28298086124E+04  0.50400001928E-02 0. -1.
       -1   -1    0    0    0  501  0.00000000000E+00  0.00000000000E+00 -0.83686545710E+03  0.83686545712E+03  0.50400001928E-02 0.  1.
    10030    2    1    2    0    0  0.00000000000E+00  0.00000000000E+00  0.19929431553E+04  0.36666740695E+04  0.30777713222E+04 0.  0.
        2    1    3    3  502    0 -0.29121148009E+03 -0.14690291125E+04  0.57473292006E+03  0.16041099055E+04  0.25500000920E-02 0.  1.
       -2    1    3    3    0  502  0.29121148009E+03  0.14690291125E+04  0.14182102353E+04  0.20625641641E+04  0.25500000920E-02 0. -1.
</event>
<event>
 5   0  0.3340899E-06  0.3089778E+04  0.7818609E-02  0.8218549E-01
       -2   -1    0    0    0  501  0.00000000000E+00  0.00000000000E+00  0.14690567655E+04  0.14690567655E+04  0.25500000920E-02 0. -1.
        2   -1    0    0  501    0  0.00000000000E+00  0.00000000000E+00 -0.16246352763E+04  0.16246352763E+04  0.25500000920E-02 0.  1.
    10030    2    1    2    0    0  0.00000000000E+00  0.00000000000E+00 -0.15557851081E+03  0.30936920418E+04  0.30897776257E+04 0.  0.
        3    1    3    3  502    0 -0.87406050474E+03  0.58754073030E+03 -0.12094846683E+04  0.16037577900E+04  0.10100000352E+00 0.  1.
       -3    1    3    3    0  502  0.87406050474E+03 -0.58754073030E+03  0.10539061575E+04  0.14899342518E+04  0.10100000352E+00 0. -1.
</event>
<event>
 5   0  0.1235960E-06  0.3105574E+04  0.7818609E-02  0.8214210E-01
        1   -1    0    0  501    0  0.00000000000E+00  0.00000000000E+00  0.19402491247E+04  0.19402491247E+04  0.50400001928E-02 0. -1.
       -1   -1    0    0    0  501  0.00000000000E+00  0.00000000000E+00 -0.12427000994E+04  0.12427000994E+04  0.50400001928E-02 0.  1.
    10030    2    1    2    0    0  0.00000000000E+00  0.00000000000E+00  0.69754902525E+03  0.31829492241E+04  0.31055742014E+04 0.  0.
        4    1    3    3  502    0 -0.11316568641E+04  0.64949203217E+03  0.12115672022E+04  0.17805571758E+04  0.12699999809E+01 0. -1.
       -4    1    3    3    0  502  0.11316568641E+04 -0.64949203217E+03 -0.51401817695E+03  0.14023920483E+04  0.12699999809E+01 0.  1.
</event>
<event>
 5   0  0.3445410E-06  0.3073464E+04  0.7818609E-02  0.8223058E-01
       -2   -1    0    0    0  501  0.00000000000E+00  0.00000000000E+00  0.14834027166E+04  0.14834027166E+04  0.25500000920E-02 0.  1.
        2   -1    0    0  501    0  0.00000000000E+00  0.00000000000E+00 -0.15919784286E+04  0.15919784286E+04  0.25500000920E-02 0. -1.
    10030    2    1    2    0    0  0.00000000000E+00  0.00000000000E+00 -0.10857571209E+03  0.30753811452E+04  0.30734639258E+04 0.  0.
        1    1    3    3  502    0 -0.86018775332E+03 -0.77316258657E+03 -0.10667697117E+04  0.15734360406E+04  0.50400001928E-02 0. -1.
       -1    1    3    3    0  502  0.86018775332E+03  0.77316258657E+03  0.95819399960E+03  0.15019451046E+04  0.50400001928E-02 0.  1.
</event>
<event>
 5   0  0.1211008E-06  0.3101438E+04  0.7818609E-02  0.8215343E-01
       -1   -1    0    0    0  501  0.00000000000E+00  0.00000000000E+00  0.11641039161E+04  0.11641039161E+04  0.50400001928E-02 0.  1.
        1   -1    0    0  501    0  0.00000000000E+00  0.00000000000E+00 -0.20657339843E+04  0.20657339843E+04  0.50400001928E-02 0. -1.
    10030    2    1    2    0    0  0.00000000000E+00  0.00000000000E+00 -0.90163006821E+03  0.32298379004E+04  0.31014377445E+04 0.  0.
        3    1    3    3  502    0 -0.98454232633E+03 -0.85420585175E+03 -0.13256766093E+04  0.18591421979E+04  0.10100000352E+00 0. -1.
       -3    1    3    3    0  502  0.98454232633E+03  0.85420585175E+03  0.42404654109E+03  0.13706957024E+04  0.10100000352E+00 0.  1.
</event>
<event>
 5   0  0.3445959E-06  0.3123192E+04  0.7818609E-02  0.8209402E-01
       -2   -1    0    0    0  501  0.00000000000E+00  0.00000000000E+00  0.18022240752E+04  0.18022240752E+04  0.25500000920E-02 0. -1.
        2   -1    0    0  501    0  0.00000000000E+00  0.00000000000E+00 -0.13530963388E+04  0.13530963388E+04  0.25500000920E-02 0.  1.
    10030    2    1    2    0    0  0.00000000000E+00  0.00000000000E+00  0.44912773644E+03  0.31553204140E+04  0.31231924679E+04 0.  0.
        4    1    3    3  502    0  0.64893073404E+03 -0.11236427738E+04  0.11023497059E+04  0.17026040842E+04  0.12699999809E+01 0. -1.
       -4    1    3    3    0  502 -0.64893073404E+03  0.11236427738E+04 -0.65322196944E+03  0.14527163298E+04  0.12699999809E+01 0.  1.
</event>
<event>
 5   0  0.3445959E-06  0.3126368E+04  0.7818609E-02  0.8208539E-01
       -2   -1    0    0    0  501  0.00000000000E+00  0.00000000000E+00  0.19443253496E+04  0.19443253496E+04  0.25500000920E-02 0. -1.
        2   -1    0    0  501    0  0.00000000000E+00  0.00000000000E+00 -0.12567565985E+04  0.12567565985E+04  0.25500000920E-02 0.  1.
    10030    2    1    2    0    0  0.00000000000E+00  0.00000000000E+00  0.68756875116E+03  0.32010819481E+04  0.31263676769E+04 0.  0.
        4    1    3    3  502    0  0.14827355155E+04  0.43228449180E+03  0.59072773193E+03  0.16535825825E+04  0.12699999809E+01 0.  1.
       -4    1    3    3    0  502 -0.14827355155E+04 -0.43228449180E+03  0.96841019222E+02  0.15474993657E+04  0.12699999809E+01 0. -1.
</event>
<event>
 5   0  0.3441897E-06  0.3101942E+04  0.7818609E-02  0.8215205E-01
       -2   -1    0    0    0  501  0.00000000000E+00  0.00000000000E+00  0.81467335529E+03  0.81467335530E+03  0.25500000920E-02 0. -1.
        2   -1    0    0  501    0  0.00000000000E+00  0.00000000000E+00 -0.29527306828E+04  0.29527306828E+04  0.25500000920E-02 0.  1.
    10030    2    1    2    0    0  0.00000000000E+00  0.00000000000E+00 -0.21380573275E+04  0.37674040381E+04  0.31019419805E+04 0.  0.
        5    1    3    3  502    0  0.41965214796E+02 -0.56347476876E+03 -0.28232686257E+04  0.28792590570E+04  0.46999998093E+01 0.  1.
       -5    1    3    3    0  502 -0.41965214796E+02  0.56347476876E+03  0.68521129821E+03  0.88814498111E+03  0.46999998093E+01 0. -1.
</event>
<event>
 5   0  0.3374790E-06  0.3093739E+04  0.7818609E-02  0.8217458E-01
       -2   -1    0    0    0  501  0.00000000000E+00  0.00000000000E+00  0.18513826235E+04  0.18513826235E+04  0.25500000920E-02 0.  1.
        2   -1    0    0  501    0  0.00000000000E+00  0.00000000000E+00 -0.12924419080E+04  0.12924419080E+04  0.25500000920E-02 0. -1.
    10030    2    1    2    0    0  0.00000000000E+00  0.00000000000E+00  0.55894071556E+03  0.31438245315E+04  0.30937385088E+04 0.  0.
        2    1    3    3  502    0  0.79206610985E+03  0.10533684204E+04  0.11024274671E+04  0.17182258500E+04  0.25500000920E-02 0.  1.
       -2    1    3    3    0  502 -0.79206610985E+03 -0.10533684204E+04 -0.54348675158E+03  0.14255986814E+04  0.25500000920E-02 0. -1.
</event>
<event>
 5   0  0.3340899E-06  0.3001316E+04  0.7818609E-02  0.8243355E-01
       -2   -1    0    0    0  501  0.00000000000E+00  0.00000000000E+00  0.12532438328E+04  0.12532438328E+04  0.25500000920E-02 0. -1.
        2   -1    0    0  501    0  0.00000000000E+00  0.00000000000E+00 -0.17969161792E+04  0.17969161792E+04  0.25500000920E-02 0.  1.
    10030    2    1    2    0    0  0.00000000000E+00  0.00000000000E+00 -0.54367234640E+03  0.30501600120E+04  0.30013157912E+04 0.  0.
        3    1    3    3  502    0  0.33879813170E+02  0.14993214170E+04 -0.32620025681E+03  0.15347700710E+04  0.10100000352E+00 0.  1.
       -3    1    3    3    0  502 -0.33879813170E+02 -0.14993214170E+04 -0.21747208960E+03  0.15153899410E+04  0.10100000352E+00 0. -1.
</event>
<event>
 5   0  0.3340899E-06  0.3061090E+04  0.7818609E-02  0.8226498E-01
        2   -1    0    0  501    0  0.00000000000E+00  0.00000000000E+00  0.21259784235E+04  0.21259784235E+04  0.25500000920E-02 0.  1.
       -2   -1    0    0    0  501  0.00000000000E+00  0.00000000000E+00 -0.11018777370E+04  0.11018777370E+04  0.25500000920E-02 0. -1.
    10030    2    1    2    0    0  0.00000000000E+00  0.00000000000E+00  0.10241006865E+04  0.32278561606E+04  0.30610901942E+04 0.  0.
        3    1    3    3  502    0  0.13706399150E+04  0.65893230553E+03  0.33025516789E+03  0.15562499947E+04  0.10100000352E+00 0.  1.
       -3    1    3    3    0  502 -0.13706399150E+04 -0.65893230553E+03  0.69384551861E+03  0.16716061659E+04  0.10100000352E+00 0. -1.
</event>
<event>
 5   0  0.3374790E-06  0.3082684E+04  0.7818609E-02  0.8220506E-01
       -2   -1    0    0    0  501  0.00000000000E+00  0.00000000000E+00  0.11209174318E+04  0.11209174318E+04  0.25500000920E-02 0.  1.
        2   -1    0    0  501    0  0.00000000000E+00  0.00000000000E+00 -0.21194559731E+04  0.21194559731E+04  0.25500000920E-02 0. -1.
    10030    2    1    2    0    0  0.00000000000E+00  0.00000000000E+00 -0.99853854134E+03  0.32403734049E+04  0.30826839903E+04 0.  0.
        2    1    3    3  502    0  0.10782807802E+04  0.95806878954E+03 -0.10703366750E+04  0.17961642031E+04  0.25500000920E-02 0. -1.
       -2    1    3    3    0  502 -0.10782807802E+04 -0.95806878954E+03  0.71798133684E+02  0.14442092018E+04  0.25500000920E-02 0.  1.
</event>
<event>
 5   0  0.1109562E-06  0.3131216E+04  0.7818609E-02  0.8207223E-01
       -4   -1    0    0    0  501  0.00000000000E+00  0.00000000000E+00  0.20370845588E+04  0.20370849547E+04  0.12699999809E+01 0. -1.
        4   -1    0    0  501    0  0.00000000000E+00  0.00000000000E+00 -0.12032522862E+04  0.12032529564E+04  0.12699999809E+01 0.  1.
    10030    2    1    2    0    0  0.00000000000E+00  0.00000000000E+00  0.83383227259E+03  0.32403379111E+04  0.31312159810E+04 0.  0.
        3    1    3    3  502    0 -0.15442667873E+04 -0.99450351265E+02  0.17098287691E+03  0.15568832446E+04  0.10100000352E+00 0. -1.
       -3    1    3    3    0  502  0.15442667873E+04  0.99450351265E+02  0.66284939568E+03  0.16834546666E+04  0.10100000352E+00 0.  1.
</event>
<event>
 5   0  0.3340899E-06  0.3002395E+04  0.7818609E-02  0.8243047E-01
        2   -1    0    0  501    0  0.00000000000E+00  0.00000000000E+00  0.23925309276E+04  0.23925309276E+04  0.25500000920E-02 0.  1.
       -2   -1    0    0    0  501  0.00000000000E+00  0.00000000000E+00 -0.94192881882E+03  0.94192881882E+03  0.25500000920E-02 0. -1.
    10030    2    1    2    0    0  0.00000000000E+00  0.00000000000E+00  0.14506021088E+04  0.33344597464E+04  0.30023949311E+04 0.  0.
        3    1    3    3  502    0  0.72087337797E+03 -0.26883148716E+03  0.21569264713E+04  0.22900350671E+04  0.10100000352E+00 0.  1.
       -3    1    3    3    0  502 -0.72087337797E+03  0.26883148716E+03 -0.70632436253E+03  0.10444246794E+04  0.10100000352E+00 0. -1.
</event>
<event>
 5   0  0.1198763E-06  0.3195358E+04  0.7818609E-02  0.8190044E-01
       -1   -1    0    0    0  501  0.00000000000E+00  0.00000000000E+00  0.93835733478E+03  0.93835733479E+03  0.50400001928E-02 0.  1.
        1   -1    0    0  501    0  0.00000000000E+00  0.00000000000E+00 -0.27202622036E+04  0.27202622036E+04  0.50400001928E-02 0. -1.
    10030    2    1    2    0    0  0.00000000000E+00  0.00000000000E+00 -0.17819048688E+04  0.36586195384E+04  0.31953578775E+04 0.  0.
        1    1    3    3  502    0  0.10716923551E+04  0.27744094349E+03  0.42805212633E+03  0.11868978911E+04  0.50400001928E-02 0.  1.
       -1    1    3    3    0  502 -0.10716923551E+04 -0.27744094349E+03 -0.22099569952E+04  0.24717216473E+04  0.50400001928E-02 0. -1.
</event>
<event>
 5   0  0.3445410E-06  0.3030527E+04  0.7818609E-02  0.8235067E-01
       -2   -1    0    0    0  501  0.00000000000E+00  0.00000000000E+00  0.11811129551E+04  0.11811129551E+04  0.25500000920E-02 0.  1.
        2   -1    0    0  501    0  0.00000000000E+00  0.00000000000E+00 -0.19439490881E+04  0.19439490881E+04  0.25500000920E-02 0. -1.
    10030    2    1    2    0    0  0.00000000000E+00  0.00000000000E+00 -0.76283613292E+03  0.31250620432E+04  0.30305269852E+04 0.  0.
        1    1    3    3  502    0  0.75764939389E+03 -0.23568609978E+03  0.94975863680E+03  0.12375871726E+04  0.50400001928E-02 0.  1.
       -1    1    3    3    0  502 -0.75764939389E+03  0.23568609978E+03 -0.17125947697E+04  0.18874748706E+04  0.50400001928E-02 0. -1.
</event>
<event>
 5   0  0.3374790E-06  0.3126294E+04  0.7818609E-02  0.8208559E-01
        2   -1    0    0  501    0  0.00000000000E+00  0.00000000000E+00  0.20949348221E+04  0.20949348221E+04  0.25500000920E-02 0.  1.
       -2   -1    0    0    0  501  0.00000000000E+00  0.00000000000E+00 -0.11663504361E+04  0.11663504361E+04  0.25500000920E-02 0. -1.
    10030    2    1    2    0    0  0.00000000000E+00  0.00000000000E+00  0.92858438607E+03  0.32612852582E+04  0.31262937439E+04 0.  0.
        2    1    3    3  502    0 -0.18604737482E+01  0.14265689622E+04 -0.20230326740E+03  0.14408431828E+04  0.25500000920E-02 0.  1.
       -2    1    3    3    0  502  0.18604737482E+01 -0.14265689622E+04  0.11308876535E+04  0.18204420754E+04  0.25500000920E-02 0. -1.
</event>
<event>
 5   0  0.1171915E-06  0.3087649E+04  0.7818609E-02  0.8219136E-01
       -1   -1    0    0    0  501  0.00000000000E+00  0.00000000000E+00  0.10160276902E+04  0.10160276902E+04  0.50400001928E-02 0.  1.
        1   -1    0    0  501    0  0.00000000000E+00  0.00000000000E+00 -0.23457970353E+04  0.23457970353E+04  0.50400001928E-02 0. -1.
    10030    2    1    2    0    0  0.00000000000E+00  0.00000000000E+00 -0.13297693451E+04  0.33618247255E+04  0.30876494253E+04 0.  0.
        2    1    3    3  502    0  0.14718041212E+02  0.13317250689E+04 -0.15150440688E+04  0.20171928044E+04  0.25500000920E-02 0. -1.
       -2    1    3    3    0  502 -0.14718041212E+02 -0.13317250689E+04  0.18527472366E+03  0.13446319211E+04  0.25500000920E-02 0.  1.
</event>
<event>
 5   0  0.3441897E-06  0.3091732E+04  0.7818609E-02  0.8218011E-01
        2   -1    0    0  501    0  0.00000000000E+00  0.00000000000E+00  0.17803755871E+04  0.17803755871E+04  0.25500000920E-02 0.  1.
       -2   -1    0    0    0  501  0.00000000000E+00  0.00000000000E+00 -0.13422458312E+04  0.13422458312E+04  0.25500000920E-02 0. -1.
    10030    2    1    2    0    0  0.00000000000E+00  0.00000000000E+00  0.43812975587E+03  0.31226214182E+04  0.30917320127E+04 0.  0.
        5    1    3    3  502    0  0.64016522888E+03  0.90837117153E+03  0.13043846121E+04  0.17135900944E+04  0.46999998093E+01 0.  1.
       -5    1    3    3    0  502 -0.64016522888E+03 -0.90837117153E+03 -0.86625485621E+03  0.14090313238E+04  0.46999998093E+01 0. -1.
</event>
<event>
 5   0  0.1211008E-06  0.3081016E+04  0.7818609E-02  0.8220967E-01
        1   -1    0    0  501    0  0.00000000000E+00  0.00000000000E+00  0.16329364599E+04  0.16329364599E+04  0.50400001928E-02 0.  1.
       -1   -1    0    0    0  501  0.00000000000E+00  0.00000000000E+00 -0.14533111204E+04  0.14533111204E+04  0.50400001928E-02 0. -1.
    10030    2    1    2    0    0  0.00000000000E+00  0.00000000000E+00  0.17962533953E+03  0.30862475803E+04  0.30810158819E+04 0.  0.
        3    1    3    3  502    0 -0.40538068312E+03  0.36567877958E+03  0.15327830351E+04  0.16271073446E+04  0.10100000352E+00 0.  1.
       -3    1    3    3    0  502  0.40538068312E+03 -0.36567877958E+03 -0.13531576956E+04  0.14591402357E+04  0.10100000352E+00 0. -1.
</event>
<event>
 5   0  0.1211008E-06  0.3121811E+04  0.7818609E-02  0.8209777E-01
       -1   -1    0    0    0  501  0.00000000000E+00  0.00000000000E+00  0.12700186176E+04  0.12700186176E+04  0.50400001928E-02 0.  1.
        1   -1    0    0  501    0  0.00000000000E+00  0.00000000000E+00 -0.19184178765E+04  0.19184178765E+04  0.50400001928E-02 0. -1.
    10030    2    1    2    0    0  0.00000000000E+00  0.00000000000E+00 -0.64839925894E+03  0.31884364941E+04  0.31218112816E+04 0.  0.
        3    1    3    3  502    0 -0.75495297228E+03 -0.10414546884E+04  0.57889099257E+03  0.14105660742E+04  0.10100000352E+00 0.  1.
       -3    1    3    3    0  502  0.75495297228E+03  0.10414546884E+04 -0.12272902515E+04  0.17778704199E+04  0.10100000352E+00 0. -1.
</event>
<event>
 5   0  0.1235960E-06  0.3193370E+04  0.7818609E-02  0.8190570E-01
        1   -1    0    0  501    0  0.00000000000E+00  0.00000000000E+00  0.13619603791E+04  0.13619603791E+04  0.50400001928E-02 0. -1.
       -1   -1    0    0    0  501  0.00000000000E+00  0.00000000000E+00 -0.18718627018E+04  0.18718627018E+04  0.50400001928E-02 0.  1.
    10030    2    1    2    0    0  0.00000000000E+00  0.00000000000E+00 -0.50990232273E+03  0.32338230810E+04  0.31933699034E+04 0.  0.
        4    1    3    3  502    0 -0.11440608397E+04  0.41706904521E+03 -0.13007872649E+04  0.17818167456E+04  0.12699999809E+01 0.  1.
       -4    1    3    3    0  502  0.11440608397E+04 -0.41706904521E+03  0.79088494217E+03  0.14520063354E+04  0.12699999809E+01 0. -1.
</event>
<event>
 5   0  0.3445959E-06  0.3096134E+04  0.7818609E-02  0.8216800E-01
       -2   -1    0    0    0  501  0.00000000000E+00  0.00000000000E+00  0.17523077375E+04  0.17523077375E+04  0.25500000920E-02 0. -1.
        2   -1    0    0  501    0  0.00000000000E+00  0.00000000000E+00 -0.13676315752E+04  0.13676315752E+04  0.25500000920E-02 0.  1.
    10030    2    1    2    0    0  0.00000000000E+00  0.00000000000E+00  0.38467616229E+03  0.31199393126E+04  0.30961339707E+04 0.  0.
        4    1    3    3  502    0 -0.39235927572E+03 -0.37135753049E+01 -0.13166905765E+04  0.13739123986E+04  0.12699999809E+01 0.  1.
       -4    1    3    3    0  502  0.39235927572E+03  0.37135753049E+01  0.17013667388E+04  0.17460269140E+04  0.12699999809E+01 0. -1.
</event>
<event>
 5   0  0.3374790E-06  0.3145300E+04  0.7818609E-02  0.8203415E-01
        2   -1    0    0  501    0  0.00000000000E+00  0.00000000000E+00  0.93633300701E+03  0.93633300702E+03  0.25500000920E-02 0.  1.
       -2   -1    0    0    0  501  0.00000000000E+00  0.00000000000E+00 -0.26413970622E+04  0.26413970622E+04  0.25500000920E-02 0. -1.
    10030    2    1    2    0    0  0.00000000000E+00  0.00000000000E+00 -0.17050640552E+04  0.35777300693E+04  0.31452995113E+04 0.  0.
        2    1    3    3  502    0 -0.44973481265E+02  0.10317506670E+04  0.49657239668E+03  0.11459128230E+04  0.25500000920E-02 0.  1.
       -2    1    3    3    0  502  0.44973481265E+02 -0.10317506670E+04 -0.22016364519E+04  0.24318172462E+04  0.25500000920E-02 0. -1.
</event>
<event>
 5   0  0.3445959E-06  0.3014312E+04  0.7818609E-02  0.8239656E-01
        2   -1    0    0  501    0  0.00000000000E+00  0.00000000000E+00  0.17476522072E+04  0.17476522072E+04  0.25500000920E-02 0. -1.
       -2   -1    0    0    0  501  0.00000000000E+00  0.00000000000E+00 -0.12997547972E+04  0.12997547972E+04  0.25500000920E-02 0.  1.
    10030    2    1    2    0    0  0.00000000000E+00  0.00000000000E+00  0.44789741002E+03  0.30474070043E+04  0.30143120874E+04 0.  0.
        4    1    3    3  502    0 -0.31024477181E+02  0.14909224704E+04  0.44476239706E+03  0.15561579399E+04  0.12699999809E+01 0.  1.
       -4    1    3    3    0  502  0.31024477181E+02 -0.14909224704E+04  0.31350129597E+01  0.14912490645E+04  0.12699999809E+01 0. -1.
</event>
<event>
 5   0  0.3445410E-06  0.3127818E+04  0.7818609E-02  0.8208145E-01
        2   -1    0    0  501    0  0.00000000000E+00  0.00000000000E+00  0.17182561629E+04  0.17182561629E+04  0.25500000920E-02 0.  1.
       -2   -1    0    0    0  501  0.00000000000E+00  0.00000000000E+00 -0.14234267784E+04  0.14234267784E+04  0.25500000920E-02 0. -1.
    10030    2    1    2    0    0  0.00000000000E+00  0.00000000000E+00  0.29482938449E+03  0.31416829413E+04  0.31278183032E+04 0.  0.
        1    1    3    3  502    0 -0.53812945898E+03  0.73693572767E+03  0.14231447435E+04  0.16905616056E+04  0.50400001928E-02 0.  1.
       -1    1    3    3    0  502  0.53812945898E+03 -0.73693572767E+03 -0.11283153590E+04  0.14511213357E+04  0.50400001928E-02 0. -1.
</event>
<event>
 5   0  0.3340899E-06  0.3075731E+04  0.7818609E-02  0.8222430E-01
        2   -1    0    0  501    0  0.00000000000E+00  0.00000000000E+00  0.13393607489E+04  0.13393607490E+04  0.25500000920E-02 0.  1.
       -2   -1    0    0    0  501  0.00000000000E+00  0.00000000000E+00 -0.17657903089E+04  0.17657903089E+04  0.25500000920E-02 0. -1.
    10030    2    1    2    0    0  0.00000000000E+00  0.00000000000E+00 -0.42642955999E+03  0.31051510579E+04  0.30757309575E+04 0.  0.
        3    1    3    3  502    0  0.14502044704E+04  0.40845994481E+03 -0.52454363006E+03  0.15953302362E+04  0.10100000352E+00 0. -1.
       -3    1    3    3    0  502 -0.14502044704E+04 -0.40845994481E+03  0.98114070068E+02  0.15098208217E+04  0.10100000352E+00 0.  1.
</event>
<event>
 5   0  0.1198763E-06  0.3099778E+04  0.7818609E-02  0.8215799E-01
        1   -1    0    0  501    0  0.00000000000E+00  0.00000000000E+00  0.10943899008E+04  0.10943899008E+04  0.50400001928E-02 0.  1.
       -1   -1    0    0    0  501  0.00000000000E+00  0.00000000000E+00 -0.21949725223E+04  0.21949725223E+04  0.50400001928E-02 0. -1.
    10030    2    1    2    0    0  0.00000000000E+00  0.00000000000E+00 -0.11005826215E+04  0.32893624231E+04  0.30997779023E+04 0.  0.
        1    1    3    3  502    0 -0.73269956778E+03 -0.36776547131E+03 -0.19460527215E+04  0.21116868360E+04  0.50400001928E-02 0. -1.
       -1    1    3    3    0  502  0.73269956778E+03  0.36776547131E+03  0.84547009997E+03  0.11776755871E+04  0.50400001928E-02 0.  1.
</event>
<event>
 5   0  0.3374790E-06  0.3102669E+04  0.7818609E-02  0.8215006E-01
       -2   -1    0    0    0  501  0.00000000000E+00  0.00000000000E+00  0.93103698115E+03  0.93103698115E+03  0.25500000920E-02 0.  1.
        2   -1    0    0  501    0  0.00000000000E+00  0.00000000000E+00 -0.25849012512E+04  0.25849012512E+04  0.25500000920E-02 0. -1.
    10030    2    1    2    0    0  0.00000000000E+00  0.00000000000E+00 -0.16538642701E+04  0.35159382324E+04  0.31026689527E+04 0.  0.
        2    1    3    3  502    0 -0.52032760575E+03  0.10593213401E+04  0.31402219637E+03  0.12212749317E+04  0.25500000920E-02 0.  1.
       -2    1    3    3    0  502  0.52032760575E+03 -0.10593213401E+04 -0.19678864665E+04  0.22946633007E+04  0.25500000920E-02 0. -1.
</event>
<event>
 5   0  0.1171915E-06  0.3082492E+04  0.7818609E-02  0.8220559E-01
       -1   -1    0    0    0  501  0.00000000000E+00  0.00000000000E+00  0.11334650959E+04  0.11334650959E+04  0.50400001928E-02 0.  1.
        1   -1    0    0  501    0  0.00000000000E+00  0.00000000000E+00 -0.20957322316E+04  0.20957322316E+04  0.50400001928E-02 0. -1.
    10030    2    1    2    0    0  0.00000000000E+00  0.00000000000E+00 -0.96226713565E+03  0.32291973275E+04  0.30824920665E+04 0.  0.
        2    1    3    3  502    0  0.97379083293E+03 -0.50044113754E+03  0.65526563930E+03  0.12759635483E+04  0.25500000920E-02 0.  1.
       -2    1    3    3    0  502 -0.97379083293E+03  0.50044113754E+03 -0.16175327749E+04  0.19532337793E+04  0.25500000920E-02 0. -1.
</event>
<event>
 5   0  0.3374790E-06  0.3210307E+04  0.7818609E-02  0.8186100E-01
       -2   -1    0    0    0  501  0.00000000000E+00  0.00000000000E+00  0.11883419407E+04  0.11883419407E+04  0.25500000920E-02 0. -1.
        2   -1    0    0  501    0  0.00000000000E+00  0.00000000000E+00 -0.21681620348E+04  0.21681620348E+04  0.25500000920E-02 0.  1.
    10030    2    1    2    0    0  0.00000000000E+00  0.00000000000E+00 -0.97982009405E+03  0.33565039755E+04  0.32103070758E+04 0.  0.
        2    1    3    3  502    0 -0.11083733586E+04 -0.39986414371E+02 -0.17031091230E+04  0.20324052500E+04  0.25500000920E-02 0.  1.
       -2    1    3    3    0  502  0.11083733586E+04  0.39986414371E+02  0.72328902893E+03  0.13240987255E+04  0.25500000920E-02 0. -1.
</event>
<event>
 5   0  0.3445959E-06  0.3064771E+04  0.7818609E-02  0.8225473E-01
       -2   -1    0    0    0  501  0.00000000000E+00  0.00000000000E+00  0.18899444401E+04  0.18899444401E+04  0.25500000920E-02 0.  1.
        2   -1    0    0  501    0  0.00000000000E+00  0.00000000000E+00 -0.12424728502E+04  0.12424728502E+04  0.25500000920E-02 0. -1.
    10030    2    1    2    0    0  0.00000000000E+00  0.00000000000E+00  0.64747158991E+03  0.31324172904E+04  0.30647705658E+04 0.  0.
        4    1    3    3  502    0 -0.10659589537E+04 -0.74670395530E+03 -0.50304920672E+03  0.13953119383E+04  0.12699999809E+01 0. -1.
       -4    1    3    3    0  502  0.10659589537E+04  0.74670395530E+03  0.11505207966E+04  0.17371053521E+04  0.12699999809E+01 0.  1.
</event>
<event>
 5   0  0.1198763E-06  0.3190445E+04  0.7818609E-02  0.8191345E-01
       -1   -1    0    0    0  501  0.00000000000E+00  0.00000000000E+00  0.14387612221E+04  0.14387612221E+04  0.50400001928E-02 0.  1.
        1   -1    0    0  501    0  0.00000000000E+00  0.00000000000E+00 -0.17686984656E+04  0.17686984656E+04  0.50400001928E-02 0. -1.
    10030    2    1    2    0    0  0.00000000000E+00  0.00000000000E+00 -0.32993724346E+03  0.32074596877E+04  0.31904449633E+04 0.  0.
        1    1    3    3  502    0 -0.84581962489E+03 -0.10249774077E+04 -0.10521402661E+04  0.16949892813E+04  0.50400001928E-02 0. -1.
       -1    1    3    3    0  502  0.84581962489E+03  0.10249774077E+04  0.72220302265E+03  0.15124704064E+04  0.50400001928E-02 0.  1.
</event>
<event>
 5   0  0.1211008E-06  0.3224276E+04  0.7818609E-02  0.8182435E-01
        1   -1    0    0  501    0  0.00000000000E+00  0.00000000000E+00  0.17183228236E+04  0.17183228236E+04  0.50400001928E-02 0. -1.
       -1   -1    0    0    0  501  0.00000000000E+00  0.00000000000E+00 -0.15125153497E+04  0.15125153498E+04  0.50400001928E-02 0.  1.
    10030    2    1    2    0    0  0.00000000000E+00  0.00000000000E+00  0.20580747382E+03  0.32308381733E+04  0.32242764438E+04 0.  0.
        3    1    3    3  502    0  0.84188618180E+03  0.13410946788E+04  0.40631089111E+03  0.16347464118E+04  0.10100000352E+00 0. -1.
       -3    1    3    3    0  502 -0.84188618180E+03 -0.13410946788E+04 -0.20050341729E+03  0.15960917615E+04  0.10100000352E+00 0.  1.
</event>
<event>
 5   0  0.3340899E-06  0.3074234E+04  0.7818609E-02  0.8222845E-01
       -2   -1    0    0    0  501  0.00000000000E+00  0.00000000000E+00  0.18359111564E+04  0.18359111564E+04  0.25500000920E-02 0. -1.
        2   -1    0    0  501    0  0.00000000000E+00  0.00000000000E+00 -0.12869515003E+04  0.12869515003E+04  0.25500000920E-02 0.  1.
    10030    2    1    2    0    0  0.00000000000E+00  0.00000000000E+00  0.54895965608E+03  0.31228626567E+04  0.30742339646E+04 0.  0.
        3    1    3    3  502    0  0.92773179321E+02  0.13882981971E+04 -0.38911449452E+03  0.14447798611E+04  0.10100000352E+00 0.  1.
       -3    1    3    3    0  502 -0.92773179321E+02 -0.13882981971E+04  0.93807415060E+03  0.16780827957E+04  0.10100000352E+00 0. -1.
</event>
<event>
 5   0  0.1250276E-06  0.3114659E+04  0.7818609E-02  0.8211726E-01
        1   -1    0    0  501    0  0.00000000000E+00  0.00000000000E+00  0.17792058549E+04  0.17792058549E+04  0.50400001928E-02 0.  1.
       -1   -1    0    0    0  501  0.00000000000E+00  0.00000000000E+00 -0.13631220957E+04  0.13631220957E+04  0.50400001928E-02 0. -1.
    10030    2    1    2    0    0  0.00000000000E+00  0.00000000000E+00  0.41608375920E+03  0.31423279506E+04  0.31146587701E+04 0.  0.
        5    1    3    3  502    0  0.77376531442E+03  0.82260363132E+03 -0.87380084103E+03  0.14279143867E+04  0.46999998093E+01 0. -1.
       -5    1    3    3    0  502 -0.77376531442E+03 -0.82260363132E+03  0.12898846002E+04  0.17144135639E+04  0.46999998093E+01 0.  1.
</event>
<event>
 5   0  0.1235960E-06  0.3113066E+04  0.7818609E-02  0.8212161E-01
       -1   -1    0    0    0  501  0.00000000000E+00  0.00000000000E+00  0.11570433929E+04  0.11570433929E+04  0.50400001928E-02 0. -1.
        1   -1    0    0  501    0  0.00000000000E+00  0.00000000000E+00 -0.20939538626E+04  0.20939538626E+04  0.50400001928E-02 0.  1.
    10030    2    1    2    0    0  0.00000000000E+00  0.00000000000E+00 -0.93691046975E+03  0.32509972555E+04  0.31130663223E+04 0.  0.
        4    1    3    3  502    0  0.22324013458E+02 -0.88530237549E+03 -0.18052234756E+04  0.20107441576E+04  0.12699999809E+01 0.  1.
       -4    1    3    3    0  502 -0.22324013458E+02  0.88530237549E+03  0.86831300587E+03  0.12402530978E+04  0.12699999809E+01 0. -1.
</event>
<event>
 5   0  0.3445959E-06  0.3057663E+04  0.7818609E-02  0.8227454E-01
       -2   -1    0    0    0  501  0.00000000000E+00  0.00000000000E+00  0.13786137838E+04  0.13786137838E+04  0.25500000920E-02 0.  1.
        2   -1    0    0  501    0  0.00000000000E+00  0.00000000000E+00 -0.16954179110E+04  0.16954179110E+04  0.25500000920E-02 0. -1.
    10030    2    1    2    0    0  0.00000000000E+00  0.00000000000E+00 -0.31680412719E+03  0.30740316947E+04  0.30576634879E+04 0.  0.
        4    1    3    3  502    0  0.12302088544E+04 -0.90533230403E+03 -0.22420841647E+03  0.15437977307E+04  0.12699999809E+01 0. -1.
       -4    1    3    3    0  502 -0.12302088544E+04  0.90533230403E+03 -0.92595710719E+02  0.15302339641E+04  0.12699999809E+01 0.  1.
</event>
<event>
 5   0  0.3445410E-06  0.3095499E+04  0.7818609E-02  0.8216974E-01
        2   -1    0    0  501    0  0.00000000000E+00  0.00000000000E+00  0.96086385936E+03  0.96086385937E+03  0.25500000920E-02 0. -1.
       -2   -1    0    0    0  501  0.00000000000E+00  0.00000000000E+00 -0.24930987753E+04  0.24930987753E+04  0.25500000920E-02 0.  1.
    10030    2    1    2    0    0  0.00000000000E+00  0.00000000000E+00 -0.15322349159E+04  0.34539626346E+04  0.30954989976E+04 0.  0.
        1    1    3    3  502    0 -0.42755874328E+03 -0.14848909575E+03  0.88537177698E+03  0.99435339493E+03  0.50400001928E-02 0. -1.
       -1    1    3    3    0  502  0.42755874328E+03  0.14848909575E+03 -0.24176066929E+04  0.24596092397E+04  0.50400001928E-02 0.  1.
</event>
<event>
 5   0  0.1171915E-06  0.2941287E+04  0.7818609E-02  0.8260698E-01
       -1   -1    0    0    0  501  0.00000000000E+00  0.00000000000E+00  0.15124935773E+04  0.15124935773E+04  0.50400001928E-02 0. -1.
        1   -1    0    0  501    0  0.00000000000E+00  0.00000000000E+00 -0.14299513900E+04  0.14299513900E+04  0.50400001928E-02 0.  1.
    10030    2    1    2    0    0  0.00000000000E+00  0.00000000000E+00  0.82542187303E+02  0.29424449673E+04  0.29412869927E+04 0.  0.
        2    1    3    3  502    0  0.12083843157E+04  0.69088304341E+03  0.51609493293E+03  0.14845423584E+04  0.25500000920E-02 0. -1.
       -2    1    3    3    0  502 -0.12083843157E+04 -0.69088304341E+03 -0.43355274563E+03  0.14579026090E+04  0.25500000920E-02 0.  1.
</event>
<event>
 5   0  0.3374790E-06  0.3100877E+04  0.7818609E-02  0.8215497E-01
        2   -1    0    0  501    0  0.00000000000E+00  0.00000000000E+00  0.16701611496E+04  0.16701611496E+04  0.25500000920E-02 0. -1.
       -2   -1    0    0    0  501  0.00000000000E+00  0.00000000000E+00 -0.14392983977E+04  0.14392983977E+04  0.25500000920E-02 0.  1.
    10030    2    1    2    0    0  0.00000000000E+00  0.00000000000E+00  0.23086275193E+03  0.31094595473E+04  0.31008774671E+04 0.  0.
        2    1    3    3  502    0 -0.11155929231E+04  0.66311215408E+03  0.96606856305E+03  0.16178855854E+04  0.25500000920E-02 0. -1.
       -2    1    3    3    0  502  0.11155929231E+04 -0.66311215408E+03 -0.73520581112E+03  0.14915739619E+04  0.25500000920E-02 0.  1.
</event>
<event>
 5   0  0.3445410E-06  0.3138874E+04  0.7818609E-02  0.8205149E-01
       -2   -1    0    0    0  501  0.00000000000E+00  0.00000000000E+00  0.18008476146E+04  0.18008476146E+04  0.25500000920E-02 0.  1.
        2   -1    0    0  501    0  0.00000000000E+00  0.00000000000E+00 -0.13677631584E+04  0.13677631584E+04  0.25500000920E-02 0. -1.
    10030    2    1    2    0    0  0.00000000000E+00  0.00000000000E+00  0.43308445625E+03  0.31686107730E+04  0.31388743340E+04 0.  0.
        1    1    3    3  502    0  0.11644257078E+04 -0.21661642532E+03 -0.82293284766E+03  0.14422303479E+04  0.50400001928E-02 0. -1.
       -1    1    3    3    0  502 -0.11644257078E+04  0.21661642532E+03  0.12560173039E+04  0.17263804252E+04  0.50400001928E-02 0.  1.
</event>
<event>
 5   0  0.3340899E-06  0.3054343E+04  0.7818609E-02  0.8228381E-01
       -2   -1    0    0    0  501  0.00000000000E+00  0.00000000000E+00  0.14270597630E+04  0.14270597630E+04  0.25500000920E-02 0.  1.
        2   -1    0    0  501    0  0.00000000000E+00  0.00000000000E+00 -0.16343061369E+04  0.16343061369E+04  0.25500000920E-02 0. -1.
    10030    2    1    2    0    0  0.00000000000E+00  0.00000000000E+00 -0.20724637390E+03  0.30613658998E+04  0.30543428284E+04 0.  0.
        3    1    3    3  502    0  0.64178655587E+03 -0.43725149666E+03  0.12143809231E+04  0.14414575579E+04  0.10100000352E+00 0.  1.
       -3    1    3    3    0  502 -0.64178655587E+03  0.43725149666E+03 -0.14216272970E+04  0.16199083420E+04  0.10100000352E+00 0. -1.
</event>
<event>
 5   0  0.3374790E-06  0.3086898E+04  0.7818609E-02  0.8219343E-01
       -2   -1    0    0    0  501  0.00000000000E+00  0.00000000000E+00  0.14996025173E+04  0.14996025173E+04  0.25500000920E-02 0. -1.
        2   -1    0    0  501    0  0.00000000000E+00  0.00000000000E+00 -0.15885777776E+04  0.15885777776E+04  0.25500000920E-02 0.  1.
    10030    2    1    2    0    0  0.00000000000E+00  0.00000000000E+00 -0.88975260303E+02  0.30881802950E+04  0.30868982713E+04 0.  0.
        2    1    3    3  502    0  0.10822727757E+04 -0.10789362163E+04  0.17197578560E+03  0.15378535010E+04  0.25500000920E-02 0.  1.
       -2    1    3    3    0  502 -0.10822727757E+04  0.10789362163E+04 -0.26095104590E+03  0.15503267940E+04  0.25500000920E-02 0. -1.
</event>
<event>
 5   0  0.1250276E-06  0.3115090E+04  0.7818609E-02  0.8211609E-01
        1   -1    0    0  501    0  0.00000000000E+00  0.00000000000E+00  0.89226905794E+03  0.89226905795E+03  0.50400001928E-02 0.  1.
       -1   -1    0    0    0  501  0.00000000000E+00  0.00000000000E+00 -0.27188504316E+04  0.27188504316E+04  0.50400001928E-02 0. -1.
    10030    2    1    2    0    0  0.00000000000E+00  0.00000000000E+00 -0.18265813736E+04  0.36111194895E+04  0.31150897986E+04 0.  0.
        5    1    3    3  502    0  0.26085392251E+03  0.14401485624E+04 -0.29567717594E+03  0.14931576383E+04  0.46999998093E+01 0. -1.
       -5    1    3    3    0  502 -0.26085392251E+03 -0.14401485624E+04 -0.15309041977E+04  0.21179618512E+04  0.46999998093E+01 0.  1.
</event>
<event>
 5   0  0.3445959E-06  0.3097148E+04  0.7818609E-02  0.8216521E-01
       -2   -1    0    0    0  501  0.00000000000E+00  0.00000000000E+00  0.13284181306E+04  0.13284181306E+04  0.25500000920E-02 0.  1.
        2   -1    0    0  501    0  0.00000000000E+00  0.00000000000E+00 -0.18052161349E+04  0.18052161349E+04  0.25500000920E-02 0. -1.
    10030    2    1    2    0    0  0.00000000000E+00  0.00000000000E+00 -0.47679800435E+03  0.31336342655E+04  0.30971482646E+04 0.  0.
        4    1    3    3  502    0  0.41995786914E+03 -0.10934145562E+04  0.78653027800E+03  0.14108690565E+04  0.12699999809E+01 0.  1.
       -4    1    3    3    0  502 -0.41995786914E+03  0.10934145562E+04 -0.12633282824E+04  0.17227652090E+04  0.12699999809E+01 0. -1.
</event>
<event>
 5   0  0.1211008E-06  0.3091915E+04  0.7818609E-02  0.8217960E-01
       -1   -1    0    0    0  501  0.00000000000E+00  0.00000000000E+00  0.20834636796E+04  0.20834636796E+04  0.50400001928E-02 0. -1.
        1   -1    0    0  501    0  0.00000000000E+00  0.00000000000E+00 -0.11471205115E+04  0.11471205116E+04  0.50400001928E-02 0.  1.
    10030    2    1    2    0    0  0.00000000000E+00  0.00000000000E+00  0.93634316806E+03  0.32305841912E+04  0.30919145667E+04 0.  0.
        3    1    3    3  502    0 -0.33559797789E+03  0.78290300097E+03 -0.87981368261E+03  0.12245959489E+04  0.10100000352E+00 0.  1.
       -3    1    3    3    0  502  0.33559797789E+03 -0.78290300097E+03  0.18161568507E+04  0.20059882423E+04  0.10100000352E+00 0. -1.
</event>
<event>
 5   0  0.1211008E-06  0.3109385E+04  0.7818609E-02  0.8213167E-01
       -1   -1    0    0    0  501  0.00000000000E+00  0.00000000000E+00  0.76452819216E+03  0.76452819217E+03  0.50400001928E-02 0.  1.
        1   -1    0    0  501    0  0.00000000000E+00  0.00000000000E+00 -0.31615176304E+04  0.31615176304E+04  0.50400001928E-02 0. -1.
    10030    2    1    2    0    0  0.00000000000E+00  0.00000000000E+00 -0.23969894383E+04  0.39260458226E+04  0.31093853788E+04 0.  0.
        3    1    3    3  502    0  0.50065646371E+03  0.14551373483E+04 -0.14779578785E+04  0.21336450262E+04  0.10100000352E+00 0. -1.
       -3    1    3    3    0  502 -0.50065646371E+03 -0.14551373483E+04 -0.91903155974E+03  0.17924007964E+04  0.10100000352E+00 0.  1.
</event>
<event>
 5   0  0.3340899E-06  0.3104421E+04  0.7818609E-02  0.8214526E-01
        2   -1    0    0  501    0  0.00000000000E+00  0.00000000000E+00  0.20063165177E+04  0.20063165177E+04  0.25500000920E-02 0. -1.
       -2   -1    0    0    0  501  0.00000000000E+00  0.00000000000E+00 -0.12008859312E+04  0.12008859312E+04  0.25500000920E-02 0.  1.
    10030    2    1    2    0    0  0.00000000000E+00  0.00000000000E+00  0.80543058652E+03  0.32072024489E+04  0.31044208991E+04 0.  0.
        3    1    3    3  502    0 -0.58736009121E+03  0.11013041651E+04  0.13560309095E+04  0.18430091097E+04  0.10100000352E+00 0. -1.
       -3    1    3    3    0  502  0.58736009121E+03 -0.11013041651E+04 -0.55060032301E+03  0.13641933392E+04  0.10100000352E+00 0.  1.
</event>
<event>
 5   0  0.1211008E-06  0.3117731E+04  0.7818609E-02  0.8210889E-01
        1   -1    0    0  501    0  0.00000000000E+00  0.00000000000E+00  0.25022460867E+04  0.25022460867E+04  0.50400001928E-02 0.  1.
       -1   -1    0    0    0  501  0.00000000000E+00  0.00000000000E+00 -0.97115222057E+03  0.97115222059E+03  0.50400001928E-02 0. -1.
    10030    2    1    2    0    0  0.00000000000E+00  0.00000000000E+00  0.15310938661E+04  0.34733983073E+04  0.31177311260E+04 0.  0.
        3    1    3    3  502    0 -0.15857737271E+03 -0.13195260798E+04  0.16732074053E+04  0.21368010880E+04  0.10100000352E+00 0.  1.
       -3    1    3    3    0  502  0.15857737271E+03  0.13195260798E+04 -0.14211353919E+03  0.13365972193E+04  0.10100000352E+00 0. -1.
</event>
<event>
 5   0  0.1235960E-06  0.3077777E+04  0.7818609E-02  0.8221863E-01
        1   -1    0    0  501    0  0.00000000000E+00  0.00000000000E+00  0.15447708308E+04  0.15447708308E+04  0.50400001928E-02 0.  1.
       -1   -1    0    0    0  501  0.00000000000E+00  0.00000000000E+00 -0.15330289042E+04  0.15330289042E+04  0.50400001928E-02 0. -1.
    10030    2    1    2    0    0  0.00000000000E+00  0.00000000000E+00  0.11741926619E+02  0.30777997350E+04  0.30777773370E+04 0.  0.
        4    1    3    3  502    0 -0.18786749540E+03 -0.10837486392E+04 -0.10704135121E+04  0.15347938000E+04  0.12699999809E+01 0. -1.
       -4    1    3    3    0  502  0.18786749540E+03  0.10837486392E+04  0.10821554388E+04  0.15430059350E+04  0.12699999809E+01 0.  1.
</event>
<event>
 5   0  0.1250276E-06  0.3150319E+04  0.7818609E-02  0.8202062E-01
       -1   -1    0    0    0  501  0.00000000000E+00  0.00000000000E+00  0.10575424810E+04  0.10575424810E+04  0.50400001928E-02 0.  1.
        1   -1    0    0  501    0  0.00000000000E+00  0.00000000000E+00 -0.23461255345E+04  0.23461255345E+04  0.50400001928E-02 0. -1.
    10030    2    1    2    0    0  0.00000000000E+00  0.00000000000E+00 -0.12885830535E+04  0.34036680156E+04  0.31503189798E+04 0.  0.
        5    1    3    3  502    0  0.13641183064E+04 -0.66838389551E+03 -0.19419630649E+03  0.15314339950E+04  0.46999998093E+01 0.  1.
       -5    1    3    3    0  502 -0.13641183064E+04  0.66838389551E+03 -0.10943867470E+04  0.18722340205E+04  0.46999998093E+01 0. -1.
</event>
<event>
 5   0  0.1235960E-06  0.3100117E+04  0.7818609E-02  0.8215706E-01
       -1   -1    0    0    0  501  0.00000000000E+00  0.00000000000E+00  0.12011955665E+04  0.12011955665E+04  0.50400001928E-02 0.  1.
        1   -1    0    0  501    0  0.00000000000E+00  0.00000000000E+00 -0.20002420365E+04  0.20002420365E+04  0.50400001928E-02 0. -1.
    10030    2    1    2    0    0  0.00000000000E+00  0.00000000000E+00 -0.79904646995E+03  0.32014376030E+04  0.31001173308E+04 0.  0.
        4    1    3    3  502    0 -0.28892624064E+03 -0.82802390050E+03  0.92036418245E+03  0.12712882417E+04  0.12699999809E+01 0.  1.
       -4    1    3    3    0  502  0.28892624064E+03  0.82802390050E+03 -0.17194106524E+04  0.19301493613E+04  0.12699999809E+01 0. -1.
</event>
<event>
 5   0  0.3340899E-06  0.3000647E+04  0.7818609E-02  0.8243546E-01
        2   -1    0    0  501    0  0.00000000000E+00  0.00000000000E+00  0.14662653502E+04  0.14662653502E+04  0.25500000920E-02 0. -1.
       -2   -1    0    0    0  501  0.00000000000E+00  0.00000000000E+00 -0.15351725130E+04  0.15351725130E+04  0.25500000920E-02 0.  1.
    10030    2    1    2    0    0  0.00000000000E+00  0.00000000000E+00 -0.68907162881E+02  0.30014378632E+04  0.30006467719E+04 0.  0.
        3    1    3    3  502    0 -0.87375660452E+03 -0.55725993402E+03 -0.11196271598E+04  0.15256324017E+04  0.10100000352E+00 0.  1.
       -3    1    3    3    0  502  0.87375660452E+03  0.55725993402E+03  0.10507199969E+04  0.14758054615E+04  0.10100000352E+00 0. -1.
</event>
<event>
 5   0  0.1198763E-06  0.3153258E+04  0.7818609E-02  0.8201272E-01
       -1   -1    0    0    0  501  0.00000000000E+00  0.00000000000E+00  0.13024971252E+04  0.13024971252E+04  0.50400001928E-02 0.  1.
        1   -1    0    0  501    0  0.00000000000E+00  0.00000000000E+00 -0.19084560162E+04  0.19084560162E+04  0.50400001928E-02 0. -1.
    10030    2    1    2    0    0  0.00000000000E+00  0.00000000000E+00 -0.60595889094E+03  0.32109531414E+04  0.31532576645E+04 0.  0.
        1    1    3    3  502    0  0.94679631100E+03 -0.12208785787E+04 -0.62304031076E+03  0.16658772425E+04  0.50400001928E-02 0.  1.
       -1    1    3    3    0  502 -0.94679631100E+03  0.12208785787E+04  0.17081419815E+02  0.15450758989E+04  0.50400001928E-02 0. -1.
</event>
<event>
 5   0  0.3340899E-06  0.3056492E+04  0.7818609E-02  0.8227781E-01
        2   -1    0    0  501    0  0.00000000000E+00  0.00000000000E+00  0.24271302176E+04  0.24271302176E+04  0.25500000920E-02 0.  1.
       -2   -1    0    0    0  501  0.00000000000E+00  0.00000000000E+00 -0.96226229921E+03  0.96226229922E+03  0.25500000920E-02 0. -1.
    10030    2    1    2    0    0  0.00000000000E+00  0.00000000000E+00  0.14648679184E+04  0.33893925168E+04  0.30564920439E+04 0.  0.
        3    1    3    3  502    0 -0.65556438456E+03  0.65089464301E+03  0.20824484610E+04  0.22781615618E+04  0.10100000352E+00 0.  1.
       -3    1    3    3    0  502  0.65556438456E+03 -0.65089464301E+03 -0.61758054262E+03  0.11112309550E+04  0.10100000352E+00 0. -1.
</event>
<event>
 5   0  0.3445959E-06  0.3085656E+04  0.7818609E-02  0.8219685E-01
        2   -1    0    0  501    0  0.00000000000E+00  0.00000000000E+00  0.15371278830E+04  0.15371278830E+04  0.25500000920E-02 0.  1.
       -2   -1    0    0    0  501  0.00000000000E+00  0.00000000000E+00 -0.15485494279E+04  0.15485494279E+04  0.25500000920E-02 0. -1.
    10030    2    1    2    0    0  0.00000000000E+00  0.00000000000E+00 -0.11421544884E+02  0.30856773110E+04  0.30856561726E+04 0.  0.
        4    1    3    3  502    0 -0.13534104256E+04  0.12011255602E+03  0.72516363768E+03  0.15401333451E+04  0.12699999809E+01 0.  1.
       -4    1    3    3    0  502  0.13534104256E+04 -0.12011255602E+03 -0.73658518257E+03  0.15455439659E+04  0.12699999809E+01 0. -1.
</event>
<event>
 5   0  0.1235960E-06  0.3093969E+04  0.7818609E-02  0.8217395E-01
        1   -1    0    0  501    0  0.00000000000E+00  0.00000000000E+00  0.18470977431E+04  0.18470977431E+04  0.50400001928E-02 0.  1.
       -1   -1    0    0    0  501  0.00000000000E+00  0.00000000000E+00 -0.12956329906E+04  0.12956329906E+04  0.50400001928E-02 0. -1.
    10030    2    1    2    0    0  0.00000000000E+00  0.00000000000E+00  0.55146475252E+03  0.31427307337E+04  0.30939688252E+04 0.  0.
        4    1    3    3  502    0 -0.95895869143E+02 -0.13881975094E+04  0.96230731730E+03  0.16918408107E+04  0.12699999809E+01 0.  1.
       -4    1    3    3    0  502  0.95895869143E+02  0.13881975094E+04 -0.41084256479E+03  0.14508899230E+04  0.12699999809E+01 0. -1.
</event>
<event>
 5   0  0.1198763E-06  0.2964479E+04  0.7818609E-02  0.8253947E-01
        1   -1    0    0  501    0  0.00000000000E+00  0.00000000000E+00  0.16173383505E+04  0.16173383505E+04  0.50400001928E-02 0. -1.
       -1   -1    0    0    0  501  0.00000000000E+00  0.00000000000E+00 -0.13584258392E+04  0.13584258392E+04  0.50400001928E-02 0.  1.
    10030    2    1    2    0    0  0.00000000000E+00  0.00000000000E+00  0.25891251134E+03  0.29757641897E+04  0.29644791826E+04 0.  0.
        1    1    3    3  502    0 -0.13201596142E+03  0.58782883038E+03 -0.12299750397E+04  0.13696019664E+04  0.50400001928E-02 0.  1.
       -1    1    3    3    0  502  0.13201596142E+03 -0.58782883038E+03  0.14888875511E+04  0.16061622233E+04  0.50400001928E-02 0. -1.
</event>
<event>
 5   0  0.3374790E-06  0.2723515E+04  0.7818609E-02  0.8327415E-01
       -2   -1    0    0    0  501  0.00000000000E+00  0.00000000000E+00  0.16860991677E+04  0.16860991677E+04  0.25500000920E-02 0. -1.
        2   -1    0    0  501    0  0.00000000000E+00  0.00000000000E+00 -0.10998067691E+04  0.10998067691E+04  0.25500000920E-02 0.  1.
    10030    2    1    2    0    0  0.00000000000E+00  0.00000000000E+00  0.58629239852E+03  0.27859059368E+04  0.27235148452E+04 0.  0.
        2    1    3    3  502    0 -0.28116593045E+02  0.11898788006E+04  0.96995382493E+03  0.15353867674E+04  0.25500000920E-02 0. -1.
       -2    1    3    3    0  502  0.28116593045E+02 -0.11898788006E+04 -0.38366142640E+03  0.12505191694E+04  0.25500000920E-02 0.  1.
</event>
<event>
 5   0  0.3340899E-06  0.3080301E+04  0.7818609E-02  0.8221165E-01
       -2   -1    0    0    0  501  0.00000000000E+00  0.00000000000E+00  0.89042843111E+03  0.89042843111E+03  0.25500000920E-02 0. -1.
        2   -1    0    0  501    0  0.00000000000E+00  0.00000000000E+00 -0.26639575423E+04  0.26639575423E+04  0.25500000920E-02 0.  1.
    10030    2    1    2    0    0  0.00000000000E+00  0.00000000000E+00 -0.17735291112E+04  0.35543859734E+04  0.30803009820E+04 0.  0.
        3    1    3    3  502    0  0.69984788619E+01  0.14794726927E+04 -0.39290365074E+03  0.15307716081E+04  0.10100000352E+00 0. -1.
       -3    1    3    3    0  502 -0.69984788619E+01 -0.14794726927E+04 -0.13806254605E+04  0.20236143653E+04  0.10100000352E+00 0.  1.
</event>
<event>
 5   0  0.1235960E-06  0.3047852E+04  0.7818609E-02  0.8230197E-01
        1   -1    0    0  501    0  0.00000000000E+00  0.00000000000E+00  0.21000668758E+04  0.21000668758E+04  0.50400001928E-02 0.  1.
       -1   -1    0    0    0  501  0.00000000000E+00  0.00000000000E+00 -0.11058456772E+04  0.11058456772E+04  0.50400001928E-02 0. -1.
    10030    2    1    2    0    0  0.00000000000E+00  0.00000000000E+00  0.99422119861E+03  0.32059125530E+04  0.30478516213E+04 0.  0.
        4    1    3    3  502    0 -0.71278617124E+03 -0.12900746975E+04  0.89738717751E+02  0.14766216514E+04  0.12699999809E+01 0. -1.
       -4    1    3    3    0  502  0.71278617124E+03  0.12900746975E+04  0.90448248086E+03  0.17292909015E+04  0.12699999809E+01 0.  1.
</event>
<event>
 5   0  0.1171915E-06  0.2853463E+04  0.7818609E-02  0.8286860E-01
       -1   -1    0    0    0  501  0.00000000000E+00  0.00000000000E+00  0.11319874870E+04  0.11319874870E+04  0.50400001928E-02 0.  1.
        1   -1    0    0  501    0  0.00000000000E+00  0.00000000000E+00 -0.17982196166E+04  0.17982196166E+04  0.50400001928E-02 0. -1.
    10030    2    1    2    0    0  0.00000000000E+00  0.00000000000E+00 -0.66623212954E+03  0.29302071036E+04  0.28534625316E+04 0.  0.
        2    1    3    3  502    0 -0.13300165278E+04  0.10236114367E+03 -0.85283092032E+03  0.15832695116E+04  0.25500000920E-02 0. -1.
       -2    1    3    3    0  502  0.13300165278E+04 -0.10236114367E+03  0.18659879079E+03  0.13469375919E+04  0.25500000920E-02 0.  1.
</event>
<event>
 5   0  0.1198763E-06  0.2659967E+04  0.7818609E-02  0.8348112E-01
       -1   -1    0    0    0  501  0.00000000000E+00  0.00000000000E+00  0.81467263304E+03  0.81467263305E+03  0.50400001928E-02 0.  1.
        1   -1    0    0  501    0  0.00000000000E+00  0.00000000000E+00 -0.21712484197E+04  0.21712484197E+04  0.50400001928E-02 0. -1.
    10030    2    1    2    0    0  0.00000000000E+00  0.00000000000E+00 -0.13565757866E+04  0.29859210527E+04  0.26599674186E+04 0.  0.
        1    1    3    3  502    0 -0.10822221041E+04 -0.33580481459E+03  0.10338008983E+03  0.11378299518E+04  0.50400001928E-02 0.  1.
       -1    1    3    3    0  502  0.10822221041E+04  0.33580481459E+03 -0.14599558765E+04  0.18480911009E+04  0.50400001928E-02 0. -1.
</event>
<event>
 5   0  0.3374790E-06  0.3078933E+04  0.7818609E-02  0.8221543E-01
       -2   -1    0    0    0  501  0.00000000000E+00  0.00000000000E+00  0.15477913064E+04  0.15477913064E+04  0.25500000920E-02 0.  1.
        2   -1    0    0  501    0  0.00000000000E+00  0.00000000000E+00 -0.15311865766E+04  0.15311865766E+04  0.25500000920E-02 0. -1.
    10030    2    1    2    0    0  0.00000000000E+00  0.00000000000E+00  0.16604729852E+02  0.30789778830E+04  0.30789331085E+04 0.  0.
        2    1    3    3  502    0 -0.85568144153E+03  0.17851352171E+03  0.12755616801E+04  0.15463231895E+04  0.25500000920E-02 0.  1.
       -2    1    3    3    0  502  0.85568144153E+03 -0.17851352171E+03 -0.12589569502E+04  0.15326546934E+04  0.25500000920E-02 0. -1.
</event>
<event>
 5   0  0.1250276E-06  0.2870051E+04  0.7818609E-02  0.8281844E-01
       -1   -1    0    0    0  501  0.00000000000E+00  0.00000000000E+00  0.10217267248E+04  0.10217267249E+04  0.50400001928E-02 0. -1.
        1   -1    0    0  501    0  0.00000000000E+00  0.00000000000E+00 -0.20155072615E+04  0.20155072615E+04  0.50400001928E-02 0.  1.
    10030    2    1    2    0    0  0.00000000000E+00  0.00000000000E+00 -0.99378053664E+03  0.30372339863E+04  0.28700506150E+04 0.  0.
        5    1    3    3  502    0  0.41024422411E+02  0.70284902350E+03  0.82638727185E+03  0.10856416380E+04  0.46999998093E+01 0. -1.
       -5    1    3    3    0  502 -0.41024422411E+02 -0.70284902350E+03 -0.18201678085E+04  0.19515923483E+04  0.46999998093E+01 0.  1.
</event>
<event>
 5   0  0.1211008E-06  0.3114830E+04  0.7818609E-02  0.8211680E-01
       -1   -1    0    0    0  501  0.00000000000E+00  0.00000000000E+00  0.10695417389E+04  0.10695417389E+04  0.50400001928E-02 0. -1.
        1   -1    0    0  501    0  0.00000000000E+00  0.00000000000E+00 -0.22678323615E+04  0.22678323615E+04  0.50400001928E-02 0.  1.
    10030    2    1    2    0    0  0.00000000000E+00  0.00000000000E+00 -0.11982906226E+04  0.33373741004E+04  0.31148299263E+04 0.  0.
        3    1    3    3  502    0  0.12782338111E+04  0.87725822094E+03 -0.43994371489E+03  0.16115254092E+04  0.10100000352E+00 0.  1.
       -3    1    3    3    0  502 -0.12782338111E+04 -0.87725822094E+03 -0.75834690768E+03  0.17258486911E+04  0.10100000352E+00 0. -1.
</event>
<event>
 5   0  0.3340899E-06  0.3113476E+04  0.7818609E-02  0.8212049E-01
       -2   -1    0    0    0  501  0.00000000000E+00  0.00000000000E+00  0.16452760461E+04  0.16452760461E+04  0.25500000920E-02 0. -1.
        2   -1    0    0  501    0  0.00000000000E+00  0.00000000000E+00 -0.14729642343E+04  0.14729642343E+04  0.25500000920E-02 0.  1.
    10030    2    1    2    0    0  0.00000000000E+00  0.00000000000E+00  0.17231181186E+03  0.31182402804E+04  0.31134757243E+04 0.  0.
        3    1    3    3  502    0 -0.18094089454E+03  0.33072310068E+03 -0.14265578565E+04  0.14755286188E+04  0.10100000352E+00 0.  1.
       -3    1    3    3    0  502  0.18094089454E+03 -0.33072310068E+03  0.15988696684E+04  0.16427116616E+04  0.10100000352E+00 0. -1.
</event>
<event>
 5   0  0.3340899E-06  0.3137911E+04  0.7818609E-02  0.8205410E-01
        2   -1    0    0  501    0  0.00000000000E+00  0.00000000000E+00  0.22166371272E+04  0.22166371272E+04  0.25500000920E-02 0.  1.
       -2   -1    0    0    0  501  0.00000000000E+00  0.00000000000E+00 -0.11105205192E+04  0.11105205192E+04  0.25500000920E-02 0. -1.
    10030    2    1    2    0    0  0.00000000000E+00  0.00000000000E+00  0.11061166080E+04  0.33271576464E+04  0.31379107785E+04 0.  0.
        3    1    3    3  502    0 -0.71571931576E+03  0.12752779784E+04  0.11556958617E+04  0.18639262314E+04  0.10100000352E+00 0. -1.
       -3    1    3    3    0  502  0.71571931576E+03 -0.12752779784E+04 -0.49579253738E+02  0.14632314150E+04  0.10100000352E+00 0.  1.
</event>
<event>
 5   0  0.1198763E-06  0.3089206E+04  0.7818609E-02  0.8218707E-01
       -1   -1    0    0    0  501  0.00000000000E+00  0.00000000000E+00  0.13043901768E+04  0.13043901768E+04  0.50400001928E-02 0.  1.
        1   -1    0    0  501    0  0.00000000000E+00  0.00000000000E+00 -0.18290522109E+04  0.18290522109E+04  0.50400001928E-02 0. -1.
    10030    2    1    2    0    0  0.00000000000E+00  0.00000000000E+00 -0.52466203403E+03  0.31334423877E+04  0.30892055528E+04 0.  0.
        1    1    3    3  502    0  0.14704010921E+04 -0.22297390862E+03 -0.68543857277E+03  0.16375661124E+04  0.50400001928E-02 0.  1.
       -1    1    3    3    0  502 -0.14704010921E+04  0.22297390862E+03  0.16077653874E+03  0.14958762753E+04  0.50400001928E-02 0. -1.
</event>
<event>
 5   0  0.3445410E-06  0.2922833E+04  0.7818609E-02  0.8266116E-01
        2   -1    0    0  501    0  0.00000000000E+00  0.00000000000E+00  0.27006099543E+04  0.27006099543E+04  0.25500000920E-02 0. -1.
       -2   -1    0    0    0  501  0.00000000000E+00  0.00000000000E+00 -0.79083525919E+03  0.79083525920E+03  0.25500000920E-02 0.  1.
    10030    2    1    2    0    0  0.00000000000E+00  0.00000000000E+00  0.19097746951E+04  0.34914452135E+04  0.29228325803E+04 0.  0.
        1    1    3    3  502    0 -0.14077802095E+04 -0.17316543730E+03  0.13753697129E+04  0.19757209404E+04  0.50400001928E-02 0. -1.
       -1    1    3    3    0  502  0.14077802095E+04  0.17316543730E+03  0.53440498214E+03  0.15157242731E+04  0.50400001928E-02 0.  1.
</event>
<event>
 5   0  0.1171915E-06  0.2865532E+04  0.7818609E-02  0.8283207E-01
        1   -1    0    0  501    0  0.00000000000E+00  0.00000000000E+00  0.13417498213E+04  0.13417498213E+04  0.50400001928E-02 0. -1.
       -1   -1    0    0    0  501  0.00000000000E+00  0.00000000000E+00 -0.15299561339E+04  0.15299561339E+04  0.50400001928E-02 0.  1.
    10030    2    1    2    0    0  0.00000000000E+00  0.00000000000E+00 -0.18820631251E+03  0.28717059552E+04  0.28655319710E+04 0.  0.
        2    1    3    3  502    0  0.83779948625E+03  0.84860685105E+03 -0.89002892788E+03  0.14880164849E+04  0.25500000920E-02 0.  1.
       -2    1    3    3    0  502 -0.83779948625E+03 -0.84860685105E+03  0.70182261537E+03  0.13836894703E+04  0.25500000920E-02 0. -1.
</event>
<event>
 5   0  0.1198763E-06  0.3110387E+04  0.7818609E-02  0.8212893E-01
       -1   -1    0    0    0  501  0.00000000000E+00  0.00000000000E+00  0.13143397501E+04  0.13143397501E+04  0.50400001928E-02 0. -1.
        1   -1    0    0  501    0  0.00000000000E+00  0.00000000000E+00 -0.18401838195E+04  0.18401838195E+04  0.50400001928E-02 0.  1.
    10030    2    1    2    0    0  0.00000000000E+00  0.00000000000E+00 -0.52584406939E+03  0.31545235697E+04  0.31103869480E+04 0.  0.
        1    1    3    3  502    0 -0.42790711784E+03 -0.34125717118E+03  0.12134356035E+04  0.13311599913E+04  0.50400001928E-02 0. -1.
       -1    1    3    3    0  502  0.42790711784E+03  0.34125717118E+03 -0.17392796729E+04  0.18233635784E+04  0.50400001928E-02 0.  1.
</event>
<event>
 5   0  0.1171915E-06  0.3075411E+04  0.7818609E-02  0.8222519E-01
        1   -1    0    0  501    0  0.00000000000E+00  0.00000000000E+00  0.27999543485E+04  0.27999543485E+04  0.50400001928E-02 0. -1.
       -1   -1    0    0    0  501  0.00000000000E+00  0.00000000000E+00 -0.84449168111E+03  0.84449168113E+03  0.50400001928E-02 0.  1.
    10030    2    1    2    0    0  0.00000000000E+00  0.00000000000E+00  0.19554626674E+04  0.36444460296E+04  0.30754109675E+04 0.  0.
        2    1    3    3  502    0 -0.12746655272E+03  0.30420115760E+03 -0.80208032960E+03  0.86724790083E+03  0.25500000920E-02 0.  1.
       -2    1    3    3    0  502  0.12746655272E+03 -0.30420115760E+03  0.27575429970E+04  0.27771981288E+04  0.25500000920E-02 0. -1.
</event>
<event>
 5   0  0.3445410E-06  0.2992366E+04  0.7818609E-02  0.8245914E-01
       -2   -1    0    0    0  501  0.00000000000E+00  0.00000000000E+00  0.10142313820E+04  0.10142313820E+04  0.25500000920E-02 0. -1.
        2   -1    0    0  501    0  0.00000000000E+00  0.00000000000E+00 -0.22071524190E+04  0.22071524190E+04  0.25500000920E-02 0.  1.
    10030    2    1    2    0    0  0.00000000000E+00  0.00000000000E+00 -0.11929210370E+04  0.32213838010E+04  0.29923657853E+04 0.  0.
        1    1    3    3  502    0 -0.10334570816E+04  0.40552518246E+03 -0.16762618027E+04  0.20105566007E+04  0.50400001928E-02 0.  1.
       -1    1    3    3    0  502  0.10334570816E+04 -0.40552518246E+03  0.48334076574E+03  0.12108272003E+04  0.50400001928E-02 0. -1.
</event>
<event>
 5   0  0.1235960E-06  0.3104272E+04  0.7818609E-02  0.8214566E-01
        1   -1    0    0  501    0  0.00000000000E+00  0.00000000000E+00  0.22737079891E+04  0.22737079891E+04  0.50400001928E-02 0.  1.
       -1   -1    0    0    0  501  0.00000000000E+00  0.00000000000E+00 -0.10595583804E+04  0.10595583804E+04  0.50400001928E-02 0. -1.
    10030    2    1    2    0    0  0.00000000000E+00  0.00000000000E+00  0.12141496087E+04  0.33332663695E+04  0.31042721237E+04 0.  0.
        4    1    3    3  502    0  0.84023149565E+03  0.37617973655E+02 -0.79365500733E+03  0.11564142691E+04  0.12699999809E+01 0. -1.
       -4    1    3    3    0  502 -0.84023149565E+03 -0.37617973655E+02  0.20078046160E+04  0.21768521004E+04  0.12699999809E+01 0.  1.
</event>
<event>
 5   0  0.1171915E-06  0.2998151E+04  0.7818609E-02  0.8244259E-01
       -1   -1    0    0    0  501  0.00000000000E+00  0.00000000000E+00  0.15162260949E+04  0.15162260949E+04  0.50400001928E-02 0. -1.
        1   -1    0    0  501    0  0.00000000000E+00  0.00000000000E+00 -0.14821188376E+04  0.14821188376E+04  0.50400001928E-02 0.  1.
    10030    2    1    2    0    0  0.00000000000E+00  0.00000000000E+00  0.34107257314E+02  0.29983449325E+04  0.29981509351E+04 0.  0.
        2    1    3    3  502    0  0.13419563311E+04  0.28843000969E+03 -0.58563666877E+03  0.14923166463E+04  0.25500000920E-02 0.  1.
       -2    1    3    3    0  502 -0.13419563311E+04 -0.28843000969E+03  0.61974392608E+03  0.15060282862E+04  0.25500000920E-02 0. -1.
</event>
<event>
 5   0  0.3374790E-06  0.3109044E+04  0.7818609E-02  0.8213260E-01
        2   -1    0    0  501    0  0.00000000000E+00  0.00000000000E+00  0.14870262543E+04  0.14870262543E+04  0.25500000920E-02 0.  1.
       -2   -1    0    0    0  501  0.00000000000E+00  0.00000000000E+00 -0.16250812383E+04  0.16250812383E+04  0.25500000920E-02 0. -1.
    10030    2    1    2    0    0  0.00000000000E+00  0.00000000000E+00 -0.13805498403E+03  0.31121074926E+04  0.31090438831E+04 0.  0.
        2    1    3    3  502    0  0.46043102684E+01 -0.41033217028E+03  0.14318314429E+04  0.14894747298E+04  0.25500000920E-02 0.  1.
       -2    1    3    3    0  502 -0.46043102684E+01  0.41033217028E+03 -0.15698864270E+04  0.16226327629E+04  0.25500000920E-02 0. -1.
</event>
<event>
 5   0  0.1211008E-06  0.3110601E+04  0.7818609E-02  0.8212835E-01
        1   -1    0    0  501    0  0.00000000000E+00  0.00000000000E+00  0.25860742778E+04  0.25860742778E+04  0.50400001928E-02 0.  1.
       -1   -1    0    0    0  501  0.00000000000E+00  0.00000000000E+00 -0.93537883036E+03  0.93537883038E+03  0.50400001928E-02 0. -1.
    10030    2    1    2    0    0  0.00000000000E+00  0.00000000000E+00  0.16506954474E+04  0.35214531082E+04  0.31106006708E+04 0.  0.
        3    1    3    3  502    0  0.11312785747E+04 -0.47227702687E+03 -0.25821580870E+03  0.12528017472E+04  0.10100000352E+00 0. -1.
       -3    1    3    3    0  502 -0.11312785747E+04  0.47227702687E+03  0.19089112561E+04  0.22686513610E+04  0.10100000352E+00 0.  1.
</event>
<event>
 5   0  0.3441897E-06  0.3108500E+04  0.7818609E-02  0.8213409E-01
        2   -1    0    0  501    0  0.00000000000E+00  0.00000000000E+00  0.16989501896E+04  0.16989501896E+04  0.25500000920E-02 0.  1.
       -2   -1    0    0    0  501  0.00000000000E+00  0.00000000000E+00 -0.14218741877E+04  0.14218741877E+04  0.25500000920E-02 0. -1.
    10030    2    1    2    0    0  0.00000000000E+00  0.00000000000E+00  0.27707600197E+03  0.31208243773E+04  0.31085002305E+04 0.  0.
        5    1    3    3  502    0  0.21359454144E+03  0.10434843463E+04  0.12749218353E+04  0.16613037005E+04  0.46999998093E+01 0.  1.
       -5    1    3    3    0  502 -0.21359454144E+03 -0.10434843463E+04 -0.99784583332E+03  0.14595206769E+04  0.46999998093E+01 0. -1.
</event>
<event>
 5   0  0.1211008E-06  0.3049769E+04  0.7818609E-02  0.8229660E-01
        1   -1    0    0  501    0  0.00000000000E+00  0.00000000000E+00  0.29795832945E+04  0.29795832945E+04  0.50400001928E-02 0.  1.
       -1   -1    0    0    0  501  0.00000000000E+00  0.00000000000E+00 -0.78040182133E+03  0.78040182135E+03  0.50400001928E-02 0. -1.
    10030    2    1    2    0    0  0.00000000000E+00  0.00000000000E+00  0.21991814731E+04  0.37599851158E+04  0.30497686665E+04 0.  0.
        3    1    3    3  502    0  0.78675800762E+03  0.88807562601E+03  0.22805836409E+04  0.25707446846E+04  0.10100000352E+00 0.  1.
       -3    1    3    3    0  502 -0.78675800762E+03 -0.88807562601E+03 -0.81402167789E+02  0.11892404312E+04  0.10100000352E+00 0. -1.
</event>
<event>
 5   0  0.3374790E-06  0.3112395E+04  0.7818609E-02  0.8212345E-01
       -2   -1    0    0    0  501  0.00000000000E+00  0.00000000000E+00  0.12602370223E+04  0.12602370223E+04  0.25500000920E-02 0.  1.
        2   -1    0    0  501    0  0.00000000000E+00  0.00000000000E+00 -0.19216624841E+04  0.19216624841E+04  0.25500000920E-02 0. -1.
    10030    2    1    2    0    0  0.00000000000E+00  0.00000000000E+00 -0.66142546181E+03  0.31818995063E+04  0.31123947094E+04 0.  0.
        2    1    3    3  502    0  0.32686585833E+03 -0.88811462603E+03 -0.15936797604E+04  0.18534843018E+04  0.25500000920E-02 0. -1.
       -2    1    3    3    0  502 -0.32686585833E+03  0.88811462603E+03  0.93225429862E+03  0.13284152045E+04  0.25500000920E-02 0.  1.
</event>
<event>
 5   0  0.3374790E-06  0.3027362E+04  0.7818609E-02  0.8235960E-01
       -2   -1    0    0    0  501  0.00000000000E+00  0.00000000000E+00  0.12042084641E+04  0.12042084641E+04  0.25500000920E-02 0.  1.
        2   -1    0    0  501    0  0.00000000000E+00  0.00000000000E+00 -0.19026861325E+04  0.19026861325E+04  0.25500000920E-02 0. -1.
    10030    2    1    2    0    0  0.00000000000E+00  0.00000000000E+00 -0.69847766838E+03  0.31068945966E+04  0.30273623802E+04 0.  0.
        2    1    3    3  502    0  0.36862153592E+03 -0.61737274779E+02  0.11561079586E+04  0.12150221972E+04  0.25500000920E-02 0.  1.
       -2    1    3    3    0  502 -0.36862153592E+03  0.61737274779E+02 -0.18545856269E+04  0.18918723994E+04  0.25500000920E-02 0. -1.
</event>
<event>
 5   0  0.1198763E-06  0.2913575E+04  0.7818609E-02  0.8268850E-01
        1   -1    0    0  501    0  0.00000000000E+00  0.00000000000E+00  0.13588451930E+04  0.13588451930E+04  0.50400001928E-02 0. -1.
       -1   -1    0    0    0  501  0.00000000000E+00  0.00000000000E+00 -0.15617889485E+04  0.15617889485E+04  0.50400001928E-02 0.  1.
    10030    2    1    2    0    0  0.00000000000E+00  0.00000000000E+00 -0.20294375549E+03  0.29206341415E+04  0.29135747152E+04 0.  0.
        1    1    3    3  502    0  0.63385870297E+03  0.16186139980E+03 -0.14062605746E+04  0.15509818735E+04  0.50400001928E-02 0.  1.
       -1    1    3    3    0  502 -0.63385870297E+03 -0.16186139980E+03  0.12033168192E+04  0.13696522680E+04  0.50400001928E-02 0. -1.
</event>
<event>
 5   0  0.3340899E-06  0.2999153E+04  0.7818609E-02  0.8243973E-01
       -2   -1    0    0    0  501  0.00000000000E+00  0.00000000000E+00  0.13507595843E+04  0.13507595843E+04  0.25500000920E-02 0.  1.
        2   -1    0    0  501    0  0.00000000000E+00  0.00000000000E+00 -0.16647885422E+04  0.16647885422E+04  0.25500000920E-02 0. -1.
    10030    2    1    2    0    0  0.00000000000E+00  0.00000000000E+00 -0.31402895788E+03  0.30155481264E+04  0.29991525997E+04 0.  0.
        3    1    3    3  502    0 -0.29496065973E+03  0.59635451476E+03  0.11942402365E+04  0.13670589785E+04  0.10100000352E+00 0.  1.
       -3    1    3    3    0  502  0.29496065973E+03 -0.59635451476E+03 -0.15082691943E+04  0.16484891479E+04  0.10100000352E+00 0. -1.
</event>
<event>
 5   0  0.3374790E-06  0.2937095E+04  0.7818609E-02  0.8261925E-01
        2   -1    0    0  501    0  0.00000000000E+00  0.00000000000E+00  0.21468948467E+04  0.21468948467E+04  0.25500000920E-02 0. -1.
       -2   -1    0    0    0  501  0.00000000000E+00  0.00000000000E+00 -0.10045353363E+04  0.10045353363E+04  0.25500000920E-02 0.  1.
    10030    2    1    2    0    0  0.00000000000E+00  0.00000000000E+00  0.11423595104E+04  0.31514301830E+04  0.29370949844E+04 0.  0.
        2    1    3    3  502    0 -0.96493525929E+03 -0.65688730677E+03 -0.38493134180E+03  0.12291351131E+04  0.25500000920E-02 0.  1.
       -2    1    3    3    0  502  0.96493525929E+03  0.65688730677E+03  0.15272908522E+04  0.19222950699E+04  0.25500000920E-02 0. -1.
</event>
<event>
 5   0  0.1211008E-06  0.3092336E+04  0.7818609E-02  0.8217844E-01
       -1   -1    0    0    0  501  0.00000000000E+00  0.00000000000E+00  0.14271239545E+04  0.14271239545E+04  0.50400001928E-02 0.  1.
        1   -1    0    0  501    0  0.00000000000E+00  0.00000000000E+00 -0.16751420137E+04  0.16751420137E+04  0.50400001928E-02 0. -1.
    10030    2    1    2    0    0  0.00000000000E+00  0.00000000000E+00 -0.24801805921E+03  0.31022659683E+04  0.30923358776E+04 0.  0.
        3    1    3    3  502    0 -0.11538489652E+04 -0.10172462322E+03  0.90344770363E+03  0.14689905026E+04  0.10100000352E+00 0.  1.
       -3    1    3    3    0  502  0.11538489652E+04  0.10172462322E+03 -0.11514657628E+04  0.16332754656E+04  0.10100000352E+00 0. -1.
</event>
<event>
 5   0  0.1211008E-06  0.3168795E+04  0.7818609E-02  0.8197107E-01
        1   -1    0    0  501    0  0.00000000000E+00  0.00000000000E+00  0.13246261058E+04  0.13246261058E+04  0.50400001928E-02 0.  1.
       -1   -1    0    0    0  501  0.00000000000E+00  0.00000000000E+00 -0.18951128348E+04  0.18951128349E+04  0.50400001928E-02 0. -1.
    10030    2    1    2    0    0  0.00000000000E+00  0.00000000000E+00 -0.57048672901E+03  0.32197389407E+04  0.31687953134E+04 0.  0.
        3    1    3    3  502    0  0.40086438293E+03  0.18532536955E+03  0.12608227521E+04  0.13359310493E+04  0.10100000352E+00 0.  1.
       -3    1    3    3    0  502 -0.40086438293E+03 -0.18532536955E+03 -0.18313094811E+04  0.18838078914E+04  0.10100000352E+00 0. -1.
</event>
<event>
 5   0  0.1235960E-06  0.3054008E+04  0.7818609E-02  0.8228475E-01
       -1   -1    0    0    0  501  0.00000000000E+00  0.00000000000E+00  0.14878148442E+04  0.14878148442E+04  0.50400001928E-02 0.  1.
        1   -1    0    0  501    0  0.00000000000E+00  0.00000000000E+00 -0.15672254592E+04  0.15672254593E+04  0.50400001928E-02 0. -1.
    10030    2    1    2    0    0  0.00000000000E+00  0.00000000000E+00 -0.79410615082E+02  0.30550403034E+04  0.30540080566E+04 0.  0.
        4    1    3    3  502    0  0.34557473261E+03 -0.10386736412E+04 -0.11047129194E+04  0.15552032266E+04  0.12699999809E+01 0. -1.
       -4    1    3    3    0  502 -0.34557473261E+03  0.10386736412E+04  0.10253023044E+04  0.14998370768E+04  0.12699999809E+01 0.  1.
</event>
<event>
 5   0  0.3340899E-06  0.3155816E+04  0.7818609E-02  0.8200584E-01
       -2   -1    0    0    0  501  0.00000000000E+00  0.00000000000E+00  0.95133777638E+03  0.95133777638E+03  0.25500000920E-02 0.  1.
        2   -1    0    0  501    0  0.00000000000E+00  0.00000000000E+00 -0.26171508042E+04  0.26171508042E+04  0.25500000920E-02 0. -1.
    10030    2    1    2    0    0  0.00000000000E+00  0.00000000000E+00 -0.16658130278E+04  0.35684885806E+04  0.31558164880E+04 0.  0.
        3    1    3    3  502    0  0.11833496301E+04 -0.87232384897E+03 -0.14810326573E+04  0.20867973037E+04  0.10100000352E+00 0. -1.
       -3    1    3    3    0  502 -0.11833496301E+04  0.87232384897E+03 -0.18478037050E+03  0.14816912769E+04  0.10100000352E+00 0.  1.
</event>
<event>
 5   0  0.3374790E-06  0.3103799E+04  0.7818609E-02  0.8214696E-01
       -2   -1    0    0    0  501  0.00000000000E+00  0.00000000000E+00  0.11815151491E+04  0.11815151491E+04  0.25500000920E-02 0. -1.
        2   -1    0    0  501    0  0.00000000000E+00  0.00000000000E+00 -0.20383925354E+04  0.20383925354E+04  0.25500000920E-02 0.  1.
    10030    2    1    2    0    0  0.00000000000E+00  0.00000000000E+00 -0.85687738628E+03  0.32199076846E+04  0.31037987438E+04 0.  0.
        2    1    3    3  502    0  0.11066562749E+04  0.32516318529E+03  0.64865553559E+03  0.13233190136E+04  0.25500000920E-02 0. -1.
       -2    1    3    3    0  502 -0.11066562749E+04 -0.32516318529E+03 -0.15055329219E+04  0.18965886709E+04  0.25500000920E-02 0.  1.
</event>
<event>
 5   0  0.3445959E-06  0.3071022E+04  0.7818609E-02  0.8223736E-01
        2   -1    0    0  501    0  0.00000000000E+00  0.00000000000E+00  0.17925242497E+04  0.17925242497E+04  0.25500000920E-02 0.  1.
       -2   -1    0    0    0  501  0.00000000000E+00  0.00000000000E+00 -0.13153484519E+04  0.13153484519E+04  0.25500000920E-02 0. -1.
    10030    2    1    2    0    0  0.00000000000E+00  0.00000000000E+00  0.47717579773E+03  0.31078727016E+04  0.30710219777E+04 0.  0.
        4    1    3    3  502    0 -0.60134258747E+02 -0.26863928433E+02 -0.13139178188E+04  0.13155681081E+04  0.12699999809E+01 0. -1.
       -4    1    3    3    0  502  0.60134258747E+02  0.26863928433E+02  0.17910936165E+04  0.17923045935E+04  0.12699999809E+01 0.  1.
</event>
<event>
 5   0  0.1171915E-06  0.2718622E+04  0.7818609E-02  0.8328988E-01
        1   -1    0    0  501    0  0.00000000000E+00  0.00000000000E+00  0.32791965902E+04  0.32791965902E+04  0.50400001928E-02 0. -1.
       -1   -1    0    0    0  501  0.00000000000E+00  0.00000000000E+00 -0.56346906595E+03  0.56346906598E+03  0.50400001928E-02 0.  1.
    10030    2    1    2    0    0  0.00000000000E+00  0.00000000000E+00  0.27157275242E+04  0.38426656562E+04  0.27186215918E+04 0.  0.
        2    1    3    3  502    0 -0.24813581465E+03  0.11725782105E+04  0.45146729474E+03  0.12807551524E+04  0.25500000920E-02 0.  1.
       -2    1    3    3    0  502  0.24813581465E+03 -0.11725782105E+04  0.22642602295E+04  0.25619105037E+04  0.25500000920E-02 0. -1.
</event>
<event>
 5   0  0.3340899E-06  0.3098432E+04  0.7818609E-02  0.8216168E-01
        2   -1    0    0  501    0  0.00000000000E+00  0.00000000000E+00  0.18726987089E+04  0.18726987089E+04  0.25500000920E-02 0.  1.
       -2   -1    0    0    0  501  0.00000000000E+00  0.00000000000E+00 -0.12816101927E+04  0.12816101927E+04  0.25500000920E-02 0. -1.
    10030    2    1    2    0    0  0.00000000000E+00  0.00000000000E+00  0.59108851628E+03  0.31543089016E+04  0.30984317021E+04 0.  0.
        3    1    3    3  502    0 -0.58524534859E+03  0.10273587622E+04 -0.72355387152E+03  0.13861848216E+04  0.10100000352E+00 0. -1.
       -3    1    3    3    0  502  0.58524534859E+03 -0.10273587622E+04  0.13146423878E+04  0.17681240800E+04  0.10100000352E+00 0.  1.
</event>
<event>
 5   0  0.3374790E-06  0.3101084E+04  0.7818609E-02  0.8215440E-01
        2   -1    0    0  501    0  0.00000000000E+00  0.00000000000E+00  0.22756763401E+04  0.22756763401E+04  0.25500000920E-02 0. -1.
       -2   -1    0    0    0  501  0.00000000000E+00  0.00000000000E+00 -0.10564685361E+04  0.10564685361E+04  0.25500000920E-02 0.  1.
    10030    2    1    2    0    0  0.00000000000E+00  0.00000000000E+00  0.12192078040E+04  0.33321448762E+04  0.31010839728E+04 0.  0.
        2    1    3    3  502    0 -0.42959937553E+02  0.15383224743E+04  0.81319120065E+03  0.17405635639E+04  0.25500000920E-02 0.  1.
       -2    1    3    3    0  502  0.42959937553E+02 -0.15383224743E+04  0.40601660338E+03  0.15915813123E+04  0.25500000920E-02 0. -1.
</event>
<event>
 5   0  0.1198763E-06  0.3099178E+04  0.7818609E-02  0.8215964E-01
        1   -1    0    0  501    0  0.00000000000E+00  0.00000000000E+00  0.16741501650E+04  0.16741501650E+04  0.50400001928E-02 0. -1.
       -1   -1    0    0    0  501  0.00000000000E+00  0.00000000000E+00 -0.14342951822E+04  0.14342951822E+04  0.50400001928E-02 0.  1.
    10030    2    1    2    0    0  0.00000000000E+00  0.00000000000E+00  0.23985498282E+03  0.31084453472E+04  0.30991776432E+04 0.  0.
        1    1    3    3  502    0  0.48943044267E+03 -0.13501964978E+04 -0.46375153085E+03  0.15091846220E+04  0.50400001928E-02 0.  1.
       -1    1    3    3    0  502 -0.48943044267E+03  0.13501964978E+04  0.70360651366E+03  0.15992607252E+04  0.50400001928E-02 0. -1.
</event>
<event>
 5   0  0.1211008E-06  0.3059434E+04  0.7818609E-02  0.8226960E-01
        1   -1    0    0  501    0  0.00000000000E+00  0.00000000000E+00  0.16472505259E+04  0.16472505259E+04  0.50400001928E-02 0.  1.
       -1   -1    0    0    0  501  0.00000000000E+00  0.00000000000E+00 -0.14205696554E+04  0.14205696554E+04  0.50400001928E-02 0. -1.
    10030    2    1    2    0    0  0.00000000000E+00  0.00000000000E+00  0.22668087049E+03  0.30678201814E+04  0.30594340078E+04 0.  0.
        3    1    3    3  502    0  0.55034327801E+03  0.14236855267E+04  0.21498840951E+03  0.15414208475E+04  0.10100000352E+00 0.  1.
       -3    1    3    3    0  502 -0.55034327801E+03 -0.14236855267E+04  0.11692460979E+02  0.15263993339E+04  0.10100000352E+00 0. -1.
</event>
<event>
 5   0  0.1235960E-06  0.3047796E+04  0.7818609E-02  0.8230213E-01
       -1   -1    0    0    0  501  0.00000000000E+00  0.00000000000E+00  0.19238203650E+04  0.19238203650E+04  0.50400001928E-02 0.  1.
        1   -1    0    0  501    0  0.00000000000E+00  0.00000000000E+00 -0.12071110300E+04  0.12071110300E+04  0.50400001928E-02 0. -1.
    10030    2    1    2    0    0  0.00000000000E+00  0.00000000000E+00  0.71670933502E+03  0.31309313950E+04  0.30477957821E+04 0.  0.
        4    1    3    3  502    0 -0.13081808827E+04  0.49799870089E+03 -0.26050913054E+03  0.14238000379E+04  0.12699999809E+01 0. -1.
       -4    1    3    3    0  502  0.13081808827E+04 -0.49799870089E+03  0.97721846555E+03  0.17071313571E+04  0.12699999809E+01 0.  1.
</event>
<event>
 5   0  0.1211008E-06  0.3111380E+04  0.7818609E-02  0.8212622E-01
        1   -1    0    0  501    0  0.00000000000E+00  0.00000000000E+00  0.27000957487E+04  0.27000957487E+04  0.50400001928E-02 0. -1.
       -1   -1    0    0    0  501  0.00000000000E+00  0.00000000000E+00 -0.89632775991E+03  0.89632775992E+03  0.50400001928E-02 0.  1.
    10030    2    1    2    0    0  0.00000000000E+00  0.00000000000E+00  0.18037679888E+04  0.35964235086E+04  0.31113796130E+04 0.  0.
        3    1    3    3  502    0 -0.10915680128E+04  0.60671192276E+03  0.19741586775E+04  0.23360056887E+04  0.10100000352E+00 0. -1.
       -3    1    3    3    0  502  0.10915680128E+04 -0.60671192276E+03 -0.17039068870E+03  0.12604178199E+04  0.10100000352E+00 0.  1.
</event>
<event>
 5   0  0.3340899E-06  0.3002306E+04  0.7818609E-02  0.8243073E-01
        2   -1    0    0  501    0  0.00000000000E+00  0.00000000000E+00  0.20392852263E+04  0.20392852263E+04  0.25500000920E-02 0. -1.
       -2   -1    0    0    0  501  0.00000000000E+00  0.00000000000E+00 -0.11050245011E+04  0.11050245011E+04  0.25500000920E-02 0.  1.
    10030    2    1    2    0    0  0.00000000000E+00  0.00000000000E+00  0.93426072516E+03  0.31443097274E+04  0.30023058737E+04 0.  0.
        3    1    3    3  502    0  0.35566894049E+03 -0.14541750603E+04  0.35081598021E+03  0.15375946681E+04  0.10100000352E+00 0. -1.
       -3    1    3    3    0  502 -0.35566894049E+03  0.14541750603E+04  0.58344474495E+03  0.16067150593E+04  0.10100000352E+00 0.  1.
</event>
<event>
 5   0  0.1171915E-06  0.3090828E+04  0.7818609E-02  0.8218260E-01
        1   -1    0    0  501    0  0.00000000000E+00  0.00000000000E+00  0.21166957990E+04  0.21166957991E+04  0.50400001928E-02 0.  1.
       -1   -1    0    0    0  501  0.00000000000E+00  0.00000000000E+00 -0.11283173702E+04  0.11283173702E+04  0.50400001928E-02 0. -1.
    10030    2    1    2    0    0  0.00000000000E+00  0.00000000000E+00  0.98837842889E+03  0.32450131692E+04  0.30908281333E+04 0.  0.
        2    1    3    3  502    0  0.85761417826E+03  0.26914738282E+03 -0.82564666355E+03  0.12205059629E+04  0.25500000920E-02 0. -1.
       -2    1    3    3    0  502 -0.85761417826E+03 -0.26914738282E+03  0.18140250924E+04  0.20245072063E+04  0.25500000920E-02 0.  1.
</event>
<event>
 5   0  0.3445410E-06  0.3155868E+04  0.7818609E-02  0.8200570E-01
        2   -1    0    0  501    0  0.00000000000E+00  0.00000000000E+00  0.13155791487E+04  0.13155791487E+04  0.25500000920E-02 0. -1.
       -2   -1    0    0    0  501  0.00000000000E+00  0.00000000000E+00 -0.18926081836E+04  0.18926081836E+04  0.25500000920E-02 0.  1.
    10030    2    1    2    0    0  0.00000000000E+00  0.00000000000E+00 -0.57702903487E+03  0.32081873323E+04  0.31558680980E+04 0.  0.
        1    1    3    3  502    0 -0.22701414673E+03  0.88618772873E+02  0.12963332097E+04  0.13190407501E+04  0.50400001928E-02 0. -1.
       -1    1    3    3    0  502  0.22701414673E+03 -0.88618772873E+02 -0.18733622446E+04  0.18891465822E+04  0.50400001928E-02 0.  1.
</event>
<event>
 5   0  0.1171915E-06  0.3048117E+04  0.7818609E-02  0.8230123E-01
       -1   -1    0    0    0  501  0.00000000000E+00  0.00000000000E+00  0.13699810349E+04  0.13699810350E+04  0.50400001928E-02 0.  1.
        1   -1    0    0  501    0  0.00000000000E+00  0.00000000000E+00 -0.16954643165E+04  0.16954643166E+04  0.50400001928E-02 0. -1.
    10030    2    1    2    0    0  0.00000000000E+00  0.00000000000E+00 -0.32548328160E+03  0.30654453515E+04  0.30481167688E+04 0.  0.
        2    1    3    3  502    0  0.89498635969E+03 -0.49303211964E+03 -0.12999542732E+04  0.16534697963E+04  0.25500000920E-02 0. -1.
       -2    1    3    3    0  502 -0.89498635969E+03  0.49303211964E+03  0.97447099157E+03  0.14119755552E+04  0.25500000920E-02 0.  1.
</event>
<event>
 5   0  0.1211008E-06  0.3260861E+04  0.7818609E-02  0.8172926E-01
       -1   -1    0    0    0  501  0.00000000000E+00  0.00000000000E+00  0.25591227118E+04  0.25591227118E+04  0.50400001928E-02 0.  1.
        1   -1    0    0  501    0  0.00000000000E+00  0.00000000000E+00 -0.10387559768E+04  0.10387559768E+04  0.50400001928E-02 0. -1.
    10030    2    1    2    0    0  0.00000000000E+00  0.00000000000E+00  0.15203667351E+04  0.35978786886E+04  0.32608612434E+04 0.  0.
        3    1    3    3  502    0 -0.52168631182E+03  0.13118287524E+04 -0.13974413795E+03  0.14186541925E+04  0.10100000352E+00 0. -1.
       -3    1    3    3    0  502  0.52168631182E+03 -0.13118287524E+04  0.16601108730E+04  0.21792244961E+04  0.10100000352E+00 0.  1.
</event>
<event>
 5   0  0.3445410E-06  0.3121724E+04  0.7818609E-02  0.8209801E-01
        2   -1    0    0  501    0  0.00000000000E+00  0.00000000000E+00  0.22807652700E+04  0.22807652700E+04  0.25500000920E-02 0.  1.
       -2   -1    0    0    0  501  0.00000000000E+00  0.00000000000E+00 -0.10681900574E+04  0.10681900574E+04  0.25500000920E-02 0. -1.
    10030    2    1    2    0    0  0.00000000000E+00  0.00000000000E+00  0.12125752126E+04  0.33489553274E+04  0.31217243855E+04 0.  0.
        1    1    3    3  502    0  0.10032670080E+04  0.11382193191E+04  0.21328474678E+03  0.15321808937E+04  0.50400001928E-02 0. -1.
       -1    1    3    3    0  502 -0.10032670080E+04 -0.11382193191E+04  0.99929046584E+03  0.18167744337E+04  0.50400001928E-02 0.  1.
</event>
<event>
 5   0  0.1235960E-06  0.3106031E+04  0.7818609E-02  0.8214085E-01
        1   -1    0    0  501    0  0.00000000000E+00  0.00000000000E+00  0.22585851845E+04  0.22585851845E+04  0.50400001928E-02 0. -1.
       -1   -1    0    0    0  501  0.00000000000E+00  0.00000000000E+00 -0.10678620614E+04  0.10678620614E+04  0.50400001928E-02 0.  1.
    10030    2    1    2    0    0  0.00000000000E+00  0.00000000000E+00  0.11907231231E+04  0.33264472459E+04  0.31060311853E+04 0.  0.
        4    1    3    3  502    0  0.22072800506E+03  0.11996951639E+02  0.22416497636E+04  0.22525230420E+04  0.12699999809E+01 0. -1.
       -4    1    3    3    0  502 -0.22072800506E+03 -0.11996951639E+02 -0.10509266406E+04  0.10739242039E+04  0.12699999809E+01 0.  1.
</event>
<event>
 5   0  0.3374790E-06  0.3108818E+04  0.7818609E-02  0.8213322E-01
        2   -1    0    0  501    0  0.00000000000E+00  0.00000000000E+00  0.26879901912E+04  0.26879901912E+04  0.25500000920E-02 0.  1.
       -2   -1    0    0    0  501  0.00000000000E+00  0.00000000000E+00 -0.89888256706E+03  0.89888256706E+03  0.25500000920E-02 0. -1.
    10030    2    1    2    0    0  0.00000000000E+00  0.00000000000E+00  0.17891076241E+04  0.35868727583E+04  0.31088181184E+04 0.  0.
        2    1    3    3  502    0 -0.15366660274E+04 -0.16759384316E+03  0.70582327110E+03  0.16992988748E+04  0.25500000920E-02 0. -1.
       -2    1    3    3    0  502  0.15366660274E+04  0.16759384316E+03  0.10832843531E+04  0.18875738835E+04  0.25500000920E-02 0.  1.
</event>
<event>
 5   0  0.1250276E-06  0.3119040E+04  0.7818609E-02  0.8210532E-01
       -1   -1    0    0    0  501  0.00000000000E+00  0.00000000000E+00  0.16518884306E+04  0.16518884306E+04  0.50400001928E-02 0. -1.
        1   -1    0    0  501    0  0.00000000000E+00  0.00000000000E+00 -0.14723160832E+04  0.14723160832E+04  0.50400001928E-02 0.  1.
    10030    2    1    2    0    0  0.00000000000E+00  0.00000000000E+00  0.17957234733E+03  0.31242045138E+04  0.31190395342E+04 0.  0.
        5    1    3    3  502    0  0.59452490237E+03 -0.10396204811E+04 -0.91077196763E+03  0.15045923937E+04  0.46999998093E+01 0.  1.
       -5    1    3    3    0  502 -0.59452490237E+03  0.10396204811E+04  0.10903443150E+04  0.16196121201E+04  0.46999998093E+01 0. -1.
</event>
<event>
 5   0  0.3340899E-06  0.3116858E+04  0.7818609E-02  0.8211126E-01
        2   -1    0    0  501    0  0.00000000000E+00  0.00000000000E+00  0.21785280669E+04  0.21785280669E+04  0.25500000920E-02 0. -1.
       -2   -1    0    0    0  501  0.00000000000E+00  0.00000000000E+00 -0.11148360311E+04  0.11148360311E+04  0.25500000920E-02 0.  1.
    10030    2    1    2    0    0  0.00000000000E+00  0.00000000000E+00  0.10636920358E+04  0.32933640979E+04  0.31168584078E+04 0.  0.
        3    1    3    3  502    0 -0.12458834594E+04 -0.63479624913E+03 -0.19524221096E+03  0.14118468059E+04  0.10100000352E+00 0.  1.
       -3    1    3    3    0  502  0.12458834594E+04  0.63479624913E+03  0.12589342467E+04  0.18815172920E+04  0.10100000352E+00 0. -1.
</event>
<event>
 5   0  0.1171915E-06  0.3114248E+04  0.7818609E-02  0.8211839E-01
       -1   -1    0    0    0  501  0.00000000000E+00  0.00000000000E+00  0.19933028848E+04  0.19933028848E+04  0.50400001928E-02 0. -1.
        1   -1    0    0  501    0  0.00000000000E+00  0.00000000000E+00 -0.12163906309E+04  0.12163906309E+04  0.50400001928E-02 0.  1.
    10030    2    1    2    0    0  0.00000000000E+00  0.00000000000E+00  0.77691225390E+03  0.32096935156E+04  0.31142478729E+04 0.  0.
        2    1    3    3  502    0 -0.11783174034E+04 -0.65137075600E+03  0.11946832868E+04  0.17999955335E+04  0.25500000920E-02 0.  1.
       -2    1    3    3    0  502  0.11783174034E+04  0.65137075600E+03 -0.41777103289E+03  0.14096979821E+04  0.25500000920E-02 0. -1.
</event>
<event>
 5   0  0.3374790E-06  0.3077358E+04  0.7818609E-02  0.8221979E-01
       -2   -1    0    0    0  501  0.00000000000E+00  0.00000000000E+00  0.19954332971E+04  0.19954332971E+04  0.25500000920E-02 0.  1.
        2   -1    0    0  501    0  0.00000000000E+00  0.00000000000E+00 -0.11864759246E+04  0.11864759246E+04  0.25500000920E-02 0. -1.
    10030    2    1    2    0    0  0.00000000000E+00  0.00000000000E+00  0.80895737249E+03  0.31819092218E+04  0.30773583257E+04 0.  0.
        2    1    3    3  502    0  0.83227376936E+02  0.14451153163E+04 -0.13502256833E+03  0.14537937157E+04  0.25500000920E-02 0. -1.
       -2    1    3    3    0  502 -0.83227376936E+02 -0.14451153163E+04  0.94397994082E+03  0.17281155061E+04  0.25500000920E-02 0.  1.
</event>
<event>
 5   0  0.3445410E-06  0.3085587E+04  0.7818609E-02  0.8219705E-01
        2   -1    0    0  501    0  0.00000000000E+00  0.00000000000E+00  0.14496197084E+04  0.14496197084E+04  0.25500000920E-02 0.  1.
       -2   -1    0    0    0  501  0.00000000000E+00  0.00000000000E+00 -0.16419561532E+04  0.16419561532E+04  0.25500000920E-02 0. -1.
    10030    2    1    2    0    0  0.00000000000E+00  0.00000000000E+00 -0.19233644478E+03  0.30915758616E+04  0.30855871402E+04 0.  0.
        1    1    3    3  502    0  0.77809591541E+03 -0.40110076099E+03 -0.13690263179E+04  0.16249763485E+04  0.50400001928E-02 0. -1.
       -1    1    3    3    0  502 -0.77809591541E+03  0.40110076099E+03  0.11766898731E+04  0.14665995130E+04  0.50400001928E-02 0.  1.
</event>
<event>
 5   0  0.1211008E-06  0.3047117E+04  0.7818609E-02  0.8230403E-01
       -1   -1    0    0    0  501  0.00000000000E+00  0.00000000000E+00  0.12689323035E+04  0.12689323035E+04  0.50400001928E-02 0.  1.
        1   -1    0    0  501    0  0.00000000000E+00  0.00000000000E+00 -0.18292786243E+04  0.18292786244E+04  0.50400001928E-02 0. -1.
    10030    2    1    2    0    0  0.00000000000E+00  0.00000000000E+00 -0.56034632083E+03  0.30982109279E+04  0.30471171547E+04 0.  0.
        3    1    3    3  502    0  0.11870323288E+04  0.84790314470E+03  0.16679462952E+03  0.14682663079E+04  0.10100000352E+00 0.  1.
       -3    1    3    3    0  502 -0.11870323288E+04 -0.84790314470E+03 -0.72714095035E+03  0.16299446200E+04  0.10100000352E+00 0. -1.
</event>
<event>
 5   0  0.1235960E-06  0.3055606E+04  0.7818609E-02  0.8228028E-01
       -1   -1    0    0    0  501  0.00000000000E+00  0.00000000000E+00  0.16254364894E+04  0.16254364894E+04  0.50400001928E-02 0. -1.
        1   -1    0    0  501    0  0.00000000000E+00  0.00000000000E+00 -0.14360339263E+04  0.14360339263E+04  0.50400001928E-02 0.  1.
    10030    2    1    2    0    0  0.00000000000E+00  0.00000000000E+00  0.18940256311E+03  0.30614704156E+04  0.30556059587E+04 0.  0.
        4    1    3    3  502    0 -0.71745036384E+03 -0.56503405887E+03  0.13218711059E+04  0.16066559513E+04  0.12699999809E+01 0. -1.
       -4    1    3    3    0  502  0.71745036384E+03  0.56503405887E+03 -0.11324685428E+04  0.14548144643E+04  0.12699999809E+01 0.  1.
</event>
<event>
 5   0  0.3374790E-06  0.3133242E+04  0.7818609E-02  0.8206674E-01
        2   -1    0    0  501    0  0.00000000000E+00  0.00000000000E+00  0.17113614464E+04  0.17113614464E+04  0.25500000920E-02 0.  1.
       -2   -1    0    0    0  501  0.00000000000E+00  0.00000000000E+00 -0.14341222687E+04  0.14341222687E+04  0.25500000920E-02 0. -1.
    10030    2    1    2    0    0  0.00000000000E+00  0.00000000000E+00  0.27723917770E+03  0.31454837150E+04  0.31332421291E+04 0.  0.
        2    1    3    3  502    0 -0.41702243409E+03  0.12851368706E+04 -0.65745845519E+03  0.15025764895E+04  0.25500000920E-02 0. -1.
       -2    1    3    3    0  502  0.41702243409E+03 -0.12851368706E+04  0.93469763289E+03  0.16429072255E+04  0.25500000920E-02 0.  1.
</event>
<event>
 5   0  0.3445959E-06  0.3106422E+04  0.7818609E-02  0.8213978E-01
        2   -1    0    0  501    0  0.00000000000E+00  0.00000000000E+00  0.19303282529E+04  0.19303282529E+04  0.25500000920E-02 0.  1.
       -2   -1    0    0    0  501  0.00000000000E+00  0.00000000000E+00 -0.12497693023E+04  0.12497693023E+04  0.25500000920E-02 0. -1.
    10030    2    1    2    0    0  0.00000000000E+00  0.00000000000E+00  0.68055895064E+03  0.31800975552E+04  0.31064223756E+04 0.  0.
        4    1    3    3  502    0  0.93700308135E+03 -0.81075630944E+03  0.12990618528E+04  0.17952336556E+04  0.12699999809E+01 0.  1.
       -4    1    3    3    0  502 -0.93700308135E+03  0.81075630944E+03 -0.61850290216E+03  0.13848638997E+04  0.12699999809E+01 0. -1.
</event>
<event>
 5   0  0.3340899E-06  0.3108465E+04  0.7818609E-02  0.8213419E-01
        2   -1    0    0  501    0  0.00000000000E+00  0.00000000000E+00  0.10161116850E+04  0.10161116850E+04  0.25500000920E-02 0.  1.
       -2   -1    0    0    0  501  0.00000000000E+00  0.00000000000E+00 -0.23773354915E+04  0.23773354915E+04  0.25500000920E-02 0. -1.
    10030    2    1    2    0    0  0.00000000000E+00  0.00000000000E+00 -0.13612238066E+04  0.33934471765E+04  0.31084648122E+04 0.  0.
        3    1    3    3  502    0 -0.14584649886E+04  0.51041147342E+03 -0.49794431824E+03  0.16234495833E+04  0.10100000352E+00 0.  1.
       -3    1    3    3    0  502  0.14584649886E+04 -0.51041147342E+03 -0.86327948831E+03  0.17699975933E+04  0.10100000352E+00 0. -1.
</event>
<event>
 5   0  0.3441897E-06  0.3063568E+04  0.7818609E-02  0.8225808E-01
       -2   -1    0    0    0  501  0.00000000000E+00  0.00000000000E+00  0.10324914893E+04  0.10324914893E+04  0.25500000920E-02 0.  1.
        2   -1    0    0  501    0  0.00000000000E+00  0.00000000000E+00 -0.22725251365E+04  0.22725251365E+04  0.25500000920E-02 0. -1.
    10030    2    1    2    0    0  0.00000000000E+00  0.00000000000E+00 -0.12400336472E+04  0.33050166258E+04  0.30635684178E+04 0.  0.
        5    1    3    3  502    0 -0.25863923331E+03 -0.23914491680E+03  0.98819455598E+03  0.10491115835E+04  0.46999998093E+01 0.  1.
       -5    1    3    3    0  502  0.25863923331E+03  0.23914491680E+03 -0.22282282032E+04  0.22559050422E+04  0.46999998093E+01 0. -1.
</event>
<event>
 5   0  0.1235960E-06  0.3123991E+04  0.7818609E-02  0.8209185E-01
       -1   -1    0    0    0  501  0.00000000000E+00  0.00000000000E+00  0.99980619355E+03  0.99980619356E+03  0.50400001928E-02 0.  1.
        1   -1    0    0  501    0  0.00000000000E+00  0.00000000000E+00 -0.24403023240E+04  0.24403023240E+04  0.50400001928E-02 0. -1.
    10030    2    1    2    0    0  0.00000000000E+00  0.00000000000E+00 -0.14404961304E+04  0.34401085175E+04  0.31239906387E+04 0.  0.
        4    1    3    3  502    0 -0.10711074821E+04 -0.63113448875E+03 -0.17615723883E+04  0.21560938925E+04  0.12699999809E+01 0. -1.
       -4    1    3    3    0  502  0.10711074821E+04  0.63113448875E+03  0.32107625793E+03  0.12840146250E+04  0.12699999809E+01 0.  1.
</event>
<event>
 5   0  0.1250276E-06  0.3116011E+04  0.7818609E-02  0.8211357E-01
       -1   -1    0    0    0  501  0.00000000000E+00  0.00000000000E+00  0.17434948187E+04  0.17434948187E+04  0.50400001928E-02 0.  1.
        1   -1    0    0  501    0  0.00000000000E+00  0.00000000000E+00 -0.13922505362E+04  0.13922505362E+04  0.50400001928E-02 0. -1.
    10030    2    1    2    0    0  0.00000000000E+00  0.00000000000E+00  0.35124428252E+03  0.31357453549E+04  0.31160112941E+04 0.  0.
        5    1    3    3  502    0  0.10054949284E+04  0.28545413716E+03  0.13382985870E+04  0.16981075683E+04  0.46999998093E+01 0.  1.
       -5    1    3    3    0  502 -0.10054949284E+04 -0.28545413716E+03 -0.98705430450E+03  0.14376377866E+04  0.46999998093E+01 0. -1.
</event>
<event>
 5   0  0.1198763E-06  0.2876380E+04  0.7818609E-02  0.8279940E-01
       -1   -1    0    0    0  501  0.00000000000E+00  0.00000000000E+00  0.73495595982E+03  0.73495595984E+03  0.50400001928E-02 0.  1.
        1   -1    0    0  501    0  0.00000000000E+00  0.00000000000E+00 -0.28143056497E+04  0.28143056497E+04  0.50400001928E-02 0. -1.
    10030    2    1    2    0    0  0.00000000000E+00  0.00000000000E+00 -0.20793496898E+04  0.35492616095E+04  0.28763801626E+04 0.  0.
        1    1    3    3  502    0  0.10365836065E+04  0.48251043248E+03 -0.21161492081E+04  0.24052877919E+04  0.50400001928E-02 0. -1.
       -1    1    3    3    0  502 -0.10365836065E+04 -0.48251043248E+03  0.36799518312E+02  0.11439738176E+04  0.50400001928E-02 0.  1.
</event>
<event>
 5   0  0.3445959E-06  0.3081758E+04  0.7818609E-02  0.8220762E-01
        2   -1    0    0  501    0  0.00000000000E+00  0.00000000000E+00  0.24935691026E+04  0.24935691026E+04  0.25500000920E-02 0.  1.
       -2   -1    0    0    0  501  0.00000000000E+00  0.00000000000E+00 -0.95217226319E+03  0.95217226320E+03  0.25500000920E-02 0. -1.
    10030    2    1    2    0    0  0.00000000000E+00  0.00000000000E+00  0.15413968394E+04  0.34457413658E+04  0.30817575089E+04 0.  0.
        4    1    3    3  502    0  0.10826613469E+04  0.97559853397E+03  0.13301527385E+04  0.19731335515E+04  0.12699999809E+01 0. -1.
       -4    1    3    3    0  502 -0.10826613469E+04 -0.97559853397E+03  0.21124410098E+03  0.14726078143E+04  0.12699999809E+01 0.  1.
</event>
<event>
 5   0  0.3445959E-06  0.3116078E+04  0.7818609E-02  0.8211339E-01
        2   -1    0    0  501    0  0.00000000000E+00  0.00000000000E+00  0.15046163385E+04  0.15046163385E+04  0.25500000920E-02 0.  1.
       -2   -1    0    0    0  501  0.00000000000E+00  0.00000000000E+00 -0.16133586961E+04  0.16133586961E+04  0.25500000920E-02 0. -1.
    10030    2    1    2    0    0  0.00000000000E+00  0.00000000000E+00 -0.10874235759E+03  0.31179750346E+04  0.31160782108E+04 0.  0.
        4    1    3    3  502    0 -0.99920590553E+03  0.10744867258E+04 -0.57866539599E+03  0.15772727789E+04  0.12699999809E+01 0. -1.
       -4    1    3    3    0  502  0.99920590553E+03 -0.10744867258E+04  0.46992303840E+03  0.15407022557E+04  0.12699999809E+01 0.  1.
</event>
<event>
 5   0  0.1109562E-06  0.3100147E+04  0.7818609E-02  0.8215698E-01
       -3   -1    0    0    0  501  0.00000000000E+00  0.00000000000E+00  0.13990072496E+04  0.13990072533E+04  0.10100000352E+00 0. -1.
        3   -1    0    0  501    0  0.00000000000E+00  0.00000000000E+00 -0.17174515020E+04  0.17174515049E+04  0.10100000352E+00 0.  1.
    10030    2    1    2    0    0  0.00000000000E+00  0.00000000000E+00 -0.31844425236E+03  0.31164587582E+04  0.31001465207E+04 0.  0.
        3    1    3    3  502    0  0.31431188353E+03  0.14193409742E+04 -0.70001777070E+03  0.16134886583E+04  0.10100000352E+00 0.  1.
       -3    1    3    3    0  502 -0.31431188353E+03 -0.14193409742E+04  0.38157351833E+03  0.15029700999E+04  0.10100000352E+00 0. -1.
</event>
<event>
 5   0  0.3374790E-06  0.3045559E+04  0.7818609E-02  0.8230840E-01
       -2   -1    0    0    0  501  0.00000000000E+00  0.00000000000E+00  0.13092675360E+04  0.13092675360E+04  0.25500000920E-02 0.  1.
        2   -1    0    0  501    0  0.00000000000E+00  0.00000000000E+00 -0.17711104363E+04  0.17711104363E+04  0.25500000920E-02 0. -1.
    10030    2    1    2    0    0  0.00000000000E+00  0.00000000000E+00 -0.46184290037E+03  0.30803779723E+04  0.30455589943E+04 0.  0.
        2    1    3    3  502    0  0.81414359905E+03  0.15988567933E+03 -0.15224161313E+04  0.17338235514E+04  0.25500000920E-02 0. -1.
       -2    1    3    3    0  502 -0.81414359905E+03 -0.15988567933E+03  0.10605732310E+04  0.13465544209E+04  0.25500000920E-02 0.  1.
</event>
<event>
 5   0  0.1171915E-06  0.3147391E+04  0.7818609E-02  0.8202851E-01
       -1   -1    0    0    0  501  0.00000000000E+00  0.00000000000E+00  0.13463297709E+04  0.13463297709E+04  0.50400001928E-02 0. -1.
        1   -1    0    0  501    0  0.00000000000E+00  0.00000000000E+00 -0.18394580065E+04  0.18394580065E+04  0.50400001928E-02 0.  1.
    10030    2    1    2    0    0  0.00000000000E+00  0.00000000000E+00 -0.49312823559E+03  0.31857877775E+04  0.31473907140E+04 0.  0.
        2    1    3    3  502    0  0.12048042907E+04  0.93176345445E+03  0.15422165085E+03  0.15308562413E+04  0.25500000920E-02 0.  1.
       -2    1    3    3    0  502 -0.12048042907E+04 -0.93176345445E+03 -0.64734988645E+03  0.16549315362E+04  0.25500000920E-02 0. -1.
</event>
<event>
 5   0  0.1211008E-06  0.3048122E+04  0.7818609E-02  0.8230121E-01
        1   -1    0    0  501    0  0.00000000000E+00  0.00000000000E+00  0.15350263225E+04  0.15350263225E+04  0.50400001928E-02 0. -1.
       -1   -1    0    0    0  501  0.00000000000E+00  0.00000000000E+00 -0.15131740123E+04  0.15131740123E+04  0.50400001928E-02 0.  1.
    10030    2    1    2    0    0  0.00000000000E+00  0.00000000000E+00  0.21852310186E+02  0.30482003348E+04  0.30481220050E+04 0.  0.
        3    1    3    3  502    0 -0.14429521097E+04  0.10629363346E+02 -0.47953334139E+03  0.15205841015E+04  0.10100000352E+00 0.  1.
       -3    1    3    3    0  502  0.14429521097E+04 -0.10629363346E+02  0.50138565158E+03  0.15276162332E+04  0.10100000352E+00 0. -1.
</event>
<event>
 5   0  0.3441897E-06  0.3131071E+04  0.7818609E-02  0.8207262E-01
       -2   -1    0    0    0  501  0.00000000000E+00  0.00000000000E+00  0.10714776613E+04  0.10714776613E+04  0.25500000920E-02 0.  1.
        2   -1    0    0  501    0  0.00000000000E+00  0.00000000000E+00 -0.22874038823E+04  0.22874038823E+04  0.25500000920E-02 0. -1.
    10030    2    1    2    0    0  0.00000000000E+00  0.00000000000E+00 -0.12159262210E+04  0.33588815435E+04  0.31310714857E+04 0.  0.
        5    1    3    3  502    0 -0.12777677087E+04  0.84974998249E+03 -0.27538270234E+03  0.15590455647E+04  0.46999998093E+01 0.  1.
       -5    1    3    3    0  502  0.12777677087E+04 -0.84974998249E+03 -0.94054351867E+03  0.17998359788E+04  0.46999998093E+01 0. -1.
</event>
<event>
 5   0  0.3445410E-06  0.3103057E+04  0.7818609E-02  0.8214899E-01
       -2   -1    0    0    0  501  0.00000000000E+00  0.00000000000E+00  0.93735571586E+03  0.93735571586E+03  0.25500000920E-02 0.  1.
        2   -1    0    0  501    0  0.00000000000E+00  0.00000000000E+00 -0.25681185214E+04  0.25681185214E+04  0.25500000920E-02 0. -1.
    10030    2    1    2    0    0  0.00000000000E+00  0.00000000000E+00 -0.16307628055E+04  0.35054742372E+04  0.31030569283E+04 0.  0.
        1    1    3    3  502    0  0.90650035721E+03  0.19053398936E+03  0.59069851805E+03  0.10986222453E+04  0.50400001928E-02 0.  1.
       -1    1    3    3    0  502 -0.90650035721E+03 -0.19053398936E+03 -0.22214613236E+04  0.24068519919E+04  0.50400001928E-02 0. -1.
</event>
<event>
 5   0  0.1235960E-06  0.3081692E+04  0.7818609E-02  0.8220780E-01
       -1   -1    0    0    0  501  0.00000000000E+00  0.00000000000E+00  0.15455278859E+04  0.15455278859E+04  0.50400001928E-02 0.  1.
        1   -1    0    0  501    0  0.00000000000E+00  0.00000000000E+00 -0.15361779636E+04  0.15361779636E+04  0.50400001928E-02 0. -1.
    10030    2    1    2    0    0  0.00000000000E+00  0.00000000000E+00  0.93499223105E+01  0.30817058495E+04  0.30816916656E+04 0.  0.
        4    1    3    3  502    0 -0.53508480216E+03 -0.11704633811E+04  0.85197101576E+03  0.15434236283E+04  0.12699999809E+01 0. -1.
       -4    1    3    3    0  502  0.53508480216E+03  0.11704633811E+04 -0.84262109345E+03  0.15382822212E+04  0.12699999809E+01 0.  1.
</event>
<event>
 5   0  0.1235960E-06  0.3057191E+04  0.7818609E-02  0.8227586E-01
       -1   -1    0    0    0  501  0.00000000000E+00  0.00000000000E+00  0.10214961280E+04  0.10214961280E+04  0.50400001928E-02 0.  1.
        1   -1    0    0  501    0  0.00000000000E+00  0.00000000000E+00 -0.22874332156E+04  0.22874332156E+04  0.50400001928E-02 0. -1.
    10030    2    1    2    0    0  0.00000000000E+00  0.00000000000E+00 -0.12659370876E+04  0.33089293437E+04  0.30571909806E+04 0.  0.
        4    1    3    3  502    0 -0.62769532907E+03  0.10733162486E+04  0.32940019354E+03  0.12862796337E+04  0.12699999809E+01 0.  1.
       -4    1    3    3    0  502  0.62769532907E+03 -0.10733162486E+04 -0.15953372812E+04  0.20226497100E+04  0.12699999809E+01 0. -1.
</event>
<event>
 5   0  0.1250276E-06  0.3108457E+04  0.7818609E-02  0.8213421E-01
        1   -1    0    0  501    0  0.00000000000E+00  0.00000000000E+00  0.18889826805E+04  0.18889826805E+04  0.50400001928E-02 0. -1.
       -1   -1    0    0    0  501  0.00000000000E+00  0.00000000000E+00 -0.12787977624E+04  0.12787977624E+04  0.50400001928E-02 0.  1.
    10030    2    1    2    0    0  0.00000000000E+00  0.00000000000E+00  0.61018491809E+03  0.31677804429E+04  0.31084573827E+04 0.  0.
        5    1    3    3  502    0 -0.20759866675E+03  0.80332785803E+03  0.16443926637E+04  0.18418692072E+04  0.46999998093E+01 0. -1.
       -5    1    3    3    0  502  0.20759866675E+03 -0.80332785803E+03 -0.10342077456E+04  0.13259112357E+04  0.46999998093E+01 0.  1.
</event>
<event>
 5   0  0.3445959E-06  0.3088052E+04  0.7818609E-02  0.8219024E-01
        2   -1    0    0  501    0  0.00000000000E+00  0.00000000000E+00  0.12157442349E+04  0.12157442349E+04  0.25500000920E-02 0.  1.
       -2   -1    0    0    0  501  0.00000000000E+00  0.00000000000E+00 -0.19609527699E+04  0.19609527699E+04  0.25500000920E-02 0. -1.
    10030    2    1    2    0    0  0.00000000000E+00  0.00000000000E+00 -0.74520853498E+03  0.31766970048E+04  0.30880524769E+04 0.  0.
        4    1    3    3  502    0 -0.37660190833E+03 -0.16145001087E+03  0.11587927201E+04  0.12291042610E+04  0.12699999809E+01 0.  1.
       -4    1    3    3    0  502  0.37660190833E+03  0.16145001087E+03 -0.19040012551E+04  0.19475927438E+04  0.12699999809E+01 0. -1.
</event>
<event>
 5   0  0.1250276E-06  0.3095083E+04  0.7818609E-02  0.8217089E-01
       -1   -1    0    0    0  501  0.00000000000E+00  0.00000000000E+00  0.13162147085E+04  0.13162147086E+04  0.50400001928E-02 0. -1.
        1   -1    0    0  501    0  0.00000000000E+00  0.00000000000E+00 -0.18195244088E+04  0.18195244088E+04  0.50400001928E-02 0.  1.
    10030    2    1    2    0    0  0.00000000000E+00  0.00000000000E+00 -0.50330970023E+03  0.31357391173E+04  0.30950830615E+04 0.  0.
        5    1    3    3  502    0 -0.12815380030E+04  0.41897191658E+03 -0.10212283328E+04  0.16913918877E+04  0.46999998093E+01 0.  1.
       -5    1    3    3    0  502  0.12815380030E+04 -0.41897191658E+03  0.51791863255E+03  0.14443472297E+04  0.46999998093E+01 0. -1.
</event>
<event>
 5   0  0.3340899E-06  0.3104321E+04  0.7818609E-02  0.8214553E-01
        2   -1    0    0  501    0  0.00000000000E+00  0.00000000000E+00  0.15018945901E+04  0.15018945901E+04  0.25500000920E-02 0. -1.
       -2   -1    0    0    0  501  0.00000000000E+00  0.00000000000E+00 -0.16041087287E+04  0.16041087287E+04  0.25500000920E-02 0.  1.
    10030    2    1    2    0    0  0.00000000000E+00  0.00000000000E+00 -0.10221413858E+03  0.31060033188E+04  0.31043210025E+04 0.  0.
        3    1    3    3  502    0  0.13679536035E+04  0.67747528022E+03  0.22999428127E+03  0.15437510150E+04  0.10100000352E+00 0.  1.
       -3    1    3    3    0  502 -0.13679536035E+04 -0.67747528022E+03 -0.33220841986E+03  0.15622523039E+04  0.10100000352E+00 0. -1.
</event>
<event>
 5   0  0.3340899E-06  0.3089436E+04  0.7818609E-02  0.8218643E-01
        2   -1    0    0  501    0  0.00000000000E+00  0.00000000000E+00  0.90237861686E+03  0.90237861686E+03  0.25500000920E-02 0. -1.
       -2   -1    0    0    0  501  0.00000000000E+00  0.00000000000E+00 -0.26442933358E+04  0.26442933358E+04  0.25500000920E-02 0.  1.
    10030    2    1    2    0    0  0.00000000000E+00  0.00000000000E+00 -0.17419147189E+04  0.35466719526E+04  0.30894360410E+04 0.  0.
        3    1    3    3  502    0  0.14208391628E+04  0.38773472342E+03 -0.33614269328E+03  0.15106667610E+04  0.10100000352E+00 0. -1.
       -3    1    3    3    0  502 -0.14208391628E+04 -0.38773472342E+03 -0.14057720256E+04  0.20360051917E+04  0.10100000352E+00 0.  1.
</event>
<event>
 5   0  0.1250276E-06  0.3118466E+04  0.7818609E-02  0.8210688E-01
       -1   -1    0    0    0  501  0.00000000000E+00  0.00000000000E+00  0.12340336066E+04  0.12340336066E+04  0.50400001928E-02 0. -1.
        1   -1    0    0  501    0  0.00000000000E+00  0.00000000000E+00 -0.19701303275E+04  0.19701303275E+04  0.50400001928E-02 0.  1.
    10030    2    1    2    0    0  0.00000000000E+00  0.00000000000E+00 -0.73609672093E+03  0.32041639341E+04  0.31184656698E+04 0.  0.
        5    1    3    3  502    0 -0.51127815290E+03 -0.76144509240E+03  0.92754801047E+03  0.13044429386E+04  0.46999998093E+01 0. -1.
       -5    1    3    3    0  502  0.51127815290E+03  0.76144509240E+03 -0.16636447314E+04  0.18997209955E+04  0.46999998093E+01 0.  1.
</event>
<event>
 5   0  0.3340899E-06  0.3059392E+04  0.7818609E-02  0.8226972E-01
        2   -1    0    0  501    0  0.00000000000E+00  0.00000000000E+00  0.13697559121E+04  0.13697559121E+04  0.25500000920E-02 0. -1.
       -2   -1    0    0    0  501  0.00000000000E+00  0.00000000000E+00 -0.17083112215E+04  0.17083112215E+04  0.25500000920E-02 0.  1.
    10030    2    1    2    0    0  0.00000000000E+00  0.00000000000E+00 -0.33855530936E+03  0.30780671336E+04  0.30593917012E+04 0.  0.
        3    1    3    3  502    0  0.43493607256E+03  0.19514793186E+03 -0.16316692954E+04  0.16998814083E+04  0.10100000352E+00 0.  1.
       -3    1    3    3    0  502 -0.43493607256E+03 -0.19514793186E+03  0.12931139860E+04  0.13781857253E+04  0.10100000352E+00 0. -1.
</event>
<event>
 5   0  0.3374790E-06  0.3038868E+04  0.7818609E-02  0.8232718E-01
       -2   -1    0    0    0  501  0.00000000000E+00  0.00000000000E+00  0.10693839821E+04  0.10693839821E+04  0.25500000920E-02 0.  1.
        2   -1    0    0  501    0  0.00000000000E+00  0.00000000000E+00 -0.21588872422E+04  0.21588872422E+04  0.25500000920E-02 0. -1.
    10030    2    1    2    0    0  0.00000000000E+00  0.00000000000E+00 -0.10895032601E+04  0.32282712242E+04  0.30388678391E+04 0.  0.
        2    1    3    3  502    0 -0.84791097134E+03 -0.11598448941E+04 -0.19478222546E+02  0.14368620653E+04  0.25500000920E-02 0.  1.
       -2    1    3    3    0  502  0.84791097134E+03  0.11598448941E+04 -0.10700250376E+04  0.17914091589E+04  0.25500000920E-02 0. -1.
</event>
<event>
 5   0  0.3445410E-06  0.3127895E+04  0.7818609E-02  0.8208124E-01
        2   -1    0    0  501    0  0.00000000000E+00  0.00000000000E+00  0.20830047599E+04  0.20830047600E+04  0.25500000920E-02 0. -1.
       -2   -1    0    0    0  501  0.00000000000E+00  0.00000000000E+00 -0.11742321738E+04  0.11742321738E+04  0.25500000920E-02 0.  1.
    10030    2    1    2    0    0  0.00000000000E+00  0.00000000000E+00  0.90877258613E+03  0.32572369338E+04  0.31278946321E+04 0.  0.
        1    1    3    3  502    0 -0.11484366490E+04  0.57392152144E+03  0.13844234624E+04  0.18880998312E+04  0.50400001928E-02 0. -1.
       -1    1    3    3    0  502  0.11484366490E+04 -0.57392152144E+03 -0.47565087623E+03  0.13691371025E+04  0.50400001928E-02 0.  1.
</event>
<event>
 5   0  0.1198763E-06  0.3101069E+04  0.7818609E-02  0.8215445E-01
       -1   -1    0    0    0  501  0.00000000000E+00  0.00000000000E+00  0.13942197089E+04  0.13942197089E+04  0.50400001928E-02 0. -1.
        1   -1    0    0  501    0  0.00000000000E+00  0.00000000000E+00 -0.17243750503E+04  0.17243750503E+04  0.50400001928E-02 0.  1.
    10030    2    1    2    0    0  0.00000000000E+00  0.00000000000E+00 -0.33015534132E+03  0.31185947592E+04  0.31010692870E+04 0.  0.
        1    1    3    3  502    0  0.39557725424E+02  0.23323185219E+03  0.13759648630E+04  0.13961522893E+04  0.50400001928E-02 0. -1.
       -1    1    3    3    0  502 -0.39557725424E+02 -0.23323185219E+03 -0.17061202043E+04  0.17224424699E+04  0.50400001928E-02 0.  1.
</event>
<event>
 5   0  0.3445959E-06  0.3102528E+04  0.7818609E-02  0.8215044E-01
       -2   -1    0    0    0  501  0.00000000000E+00  0.00000000000E+00  0.12469414717E+04  0.12469414717E+04  0.25500000920E-02 0. -1.
        2   -1    0    0  501    0  0.00000000000E+00  0.00000000000E+00 -0.19298584050E+04  0.19298584050E+04  0.25500000920E-02 0.  1.
    10030    2    1    2    0    0  0.00000000000E+00  0.00000000000E+00 -0.68291693329E+03  0.31767998767E+04  0.31025283108E+04 0.  0.
        4    1    3    3  502    0 -0.11303453517E+04  0.10619478636E+04 -0.37391891418E+03  0.15953779635E+04  0.12699999809E+01 0. -1.
       -4    1    3    3    0  502  0.11303453517E+04 -0.10619478636E+04 -0.30899801911E+03  0.15814219133E+04  0.12699999809E+01 0.  1.
</event>
<event>
 5   0  0.3445959E-06  0.3087096E+04  0.7818609E-02  0.8219288E-01
       -2   -1    0    0    0  501  0.00000000000E+00  0.00000000000E+00  0.11343805290E+04  0.11343805290E+04  0.25500000920E-02 0. -1.
        2   -1    0    0  501    0  0.00000000000E+00  0.00000000000E+00 -0.21003005640E+04  0.21003005640E+04  0.25500000920E-02 0.  1.
    10030    2    1    2    0    0  0.00000000000E+00  0.00000000000E+00 -0.96592003500E+03  0.32346810929E+04  0.30870957644E+04 0.  0.
        4    1    3    3  502    0 -0.92711738589E+03  0.37554973376E+03  0.74880592943E+03  0.12495183803E+04  0.12699999809E+01 0. -1.
       -4    1    3    3    0  502  0.92711738589E+03 -0.37554973376E+03 -0.17147259644E+04  0.19851627127E+04  0.12699999809E+01 0.  1.
</event>
<event>
 5   0  0.3441897E-06  0.3032803E+04  0.7818609E-02  0.8234425E-01
        2   -1    0    0  501    0  0.00000000000E+00  0.00000000000E+00  0.19302376420E+04  0.19302376420E+04  0.25500000920E-02 0.  1.
       -2   -1    0    0    0  501  0.00000000000E+00  0.00000000000E+00 -0.11912905432E+04  0.11912905432E+04  0.25500000920E-02 0. -1.
    10030    2    1    2    0    0  0.00000000000E+00  0.00000000000E+00  0.73894709886E+03  0.31215281852E+04  0.30328032241E+04 0.  0.
        5    1    3    3  502    0 -0.58449969129E+03 -0.39718963432E+03 -0.10114371197E+04  0.12338665372E+04  0.46999998093E+01 0. -1.
       -5    1    3    3    0  502  0.58449969129E+03  0.39718963432E+03  0.17503842185E+04  0.18876616480E+04  0.46999998093E+01 0.  1.
</event>
<event>
 5   0  0.1235960E-06  0.3068071E+04  0.7818609E-02  0.8224555E-01
        1   -1    0    0  501    0  0.00000000000E+00  0.00000000000E+00  0.19868739974E+04  0.19868739975E+04  0.50400001928E-02 0. -1.
       -1   -1    0    0    0  501  0.00000000000E+00  0.00000000000E+00 -0.11844059694E+04  0.11844059694E+04  0.50400001928E-02 0.  1.
    10030    2    1    2    0    0  0.00000000000E+00  0.00000000000E+00  0.80246802805E+03  0.31712799669E+04  0.30680713310E+04 0.  0.
        4    1    3    3  502    0  0.17186673305E+03  0.65778505389E+03 -0.10201780636E+04  0.12259625791E+04  0.12699999809E+01 0.  1.
       -4    1    3    3    0  502 -0.17186673305E+03 -0.65778505389E+03  0.18226460916E+04  0.19453173878E+04  0.12699999809E+01 0. -1.
</event>
<event>
 5   0  0.1171915E-06  0.3010431E+04  0.7818609E-02  0.8240758E-01
       -1   -1    0    0    0  501  0.00000000000E+00  0.00000000000E+00  0.12126750401E+04  0.12126750401E+04  0.50400001928E-02 0. -1.
        1   -1    0    0  501    0  0.00000000000E+00  0.00000000000E+00 -0.18683274813E+04  0.18683274813E+04  0.50400001928E-02 0.  1.
    10030    2    1    2    0    0  0.00000000000E+00  0.00000000000E+00 -0.65565244115E+03  0.30810025214E+04  0.30104312670E+04 0.  0.
        2    1    3    3  502    0 -0.12764688668E+03  0.10517685922E+04 -0.14220784906E+04  0.17733635083E+04  0.25500000920E-02 0.  1.
       -2    1    3    3    0  502  0.12764688668E+03 -0.10517685922E+04  0.76642604948E+03  0.13076390131E+04  0.25500000920E-02 0. -1.
</event>
<event>
 5   0  0.3340899E-06  0.3095450E+04  0.7818609E-02  0.8216988E-01
       -2   -1    0    0    0  501  0.00000000000E+00  0.00000000000E+00  0.16241961497E+04  0.16241961497E+04  0.25500000920E-02 0.  1.
        2   -1    0    0  501    0  0.00000000000E+00  0.00000000000E+00 -0.14748543684E+04  0.14748543684E+04  0.25500000920E-02 0. -1.
    10030    2    1    2    0    0  0.00000000000E+00  0.00000000000E+00  0.14934178134E+03  0.30990505181E+04  0.30954500716E+04 0.  0.
        3    1    3    3  502    0 -0.36194699809E+03  0.12404094300E+03 -0.14267604219E+04  0.14771719929E+04  0.10100000352E+00 0. -1.
       -3    1    3    3    0  502  0.36194699809E+03 -0.12404094300E+03  0.15761022033E+04  0.16218785251E+04  0.10100000352E+00 0.  1.
</event>
<event>
 5   0  0.3445959E-06  0.3121921E+04  0.7818609E-02  0.8209747E-01
       -2   -1    0    0    0  501  0.00000000000E+00  0.00000000000E+00  0.19995248700E+04  0.19995248700E+04  0.25500000920E-02 0.  1.
        2   -1    0    0  501    0  0.00000000000E+00  0.00000000000E+00 -0.12185884908E+04  0.12185884908E+04  0.25500000920E-02 0. -1.
    10030    2    1    2    0    0  0.00000000000E+00  0.00000000000E+00  0.78093637921E+03  0.32181133608E+04  0.31219211992E+04 0.  0.
        4    1    3    3  502    0  0.10060642130E+04  0.14001564062E+03 -0.83130557032E+03  0.13125700532E+04  0.12699999809E+01 0. -1.
       -4    1    3    3    0  502 -0.10060642130E+04 -0.14001564062E+03  0.16122419495E+04  0.19055433076E+04  0.12699999809E+01 0.  1.
</event>
<event>
 5   0  0.3445959E-06  0.3075526E+04  0.7818609E-02  0.8222487E-01
       -2   -1    0    0    0  501  0.00000000000E+00  0.00000000000E+00  0.11663168620E+04  0.11663168621E+04  0.25500000920E-02 0.  1.
        2   -1    0    0  501    0  0.00000000000E+00  0.00000000000E+00 -0.20275070924E+04  0.20275070924E+04  0.25500000920E-02 0. -1.
    10030    2    1    2    0    0  0.00000000000E+00  0.00000000000E+00 -0.86119023035E+03  0.31938239545E+04  0.30755264329E+04 0.  0.
        4    1    3    3  502    0  0.31762024479E+03  0.55050136845E+03 -0.18847340844E+04  0.19890094415E+04  0.12699999809E+01 0. -1.
       -4    1    3    3    0  502 -0.31762024479E+03 -0.55050136845E+03  0.10235438541E+04  0.12048145130E+04  0.12699999809E+01 0.  1.
</event>
<event>
 5   0  0.1211008E-06  0.3212490E+04  0.7818609E-02  0.8185526E-01
        1   -1    0    0  501    0  0.00000000000E+00  0.00000000000E+00  0.81648726284E+03  0.81648726286E+03  0.50400001928E-02 0.  1.
       -1   -1    0    0    0  501  0.00000000000E+00  0.00000000000E+00 -0.31599056350E+04  0.31599056350E+04  0.50400001928E-02 0. -1.
    10030    2    1    2    0    0  0.00000000000E+00  0.00000000000E+00 -0.23434183721E+04  0.39763928978E+04  0.32124898149E+04 0.  0.
        3    1    3    3  502    0 -0.91962999533E+03 -0.11447307903E+04 -0.36581770440E+03  0.15132582442E+04  0.10100000352E+00 0.  1.
       -3    1    3    3    0  502  0.91962999533E+03  0.11447307903E+04 -0.19776006677E+04  0.24631346536E+04  0.10100000352E+00 0. -1.
</event>
<event>
 5   0  0.1198763E-06  0.3119639E+04  0.7818609E-02  0.8210369E-01
       -1   -1    0    0    0  501  0.00000000000E+00  0.00000000000E+00  0.17223740713E+04  0.17223740713E+04  0.50400001928E-02 0.  1.
        1   -1    0    0  501    0  0.00000000000E+00  0.00000000000E+00 -0.14126069764E+04  0.14126069764E+04  0.50400001928E-02 0. -1.
    10030    2    1    2    0    0  0.00000000000E+00  0.00000000000E+00  0.30976709492E+03  0.31349810477E+04  0.31196394850E+04 0.  0.
        1    1    3    3  502    0 -0.15405418679E+04 -0.14078549689E+02  0.40015384382E+03  0.15917256519E+04  0.50400001928E-02 0.  1.
       -1    1    3    3    0  502  0.15405418679E+04  0.14078549689E+02 -0.90386748904E+02  0.15432553958E+04  0.50400001928E-02 0. -1.
</event>
<event>
 5   0  0.1235960E-06  0.3126238E+04  0.7818609E-02  0.8208574E-01
       -1   -1    0    0    0  501  0.00000000000E+00  0.00000000000E+00  0.12620969371E+04  0.12620969371E+04  0.50400001928E-02 0. -1.
        1   -1    0    0  501    0  0.00000000000E+00  0.00000000000E+00 -0.19359381965E+04  0.19359381965E+04  0.50400001928E-02 0.  1.
    10030    2    1    2    0    0  0.00000000000E+00  0.00000000000E+00 -0.67384125940E+03  0.31980351337E+04  0.31262384224E+04 0.  0.
        4    1    3    3  502    0  0.51097190758E+03 -0.11952373142E+04 -0.12249914054E+04  0.17861383160E+04  0.12699999809E+01 0.  1.
       -4    1    3    3    0  502 -0.51097190758E+03  0.11952373142E+04  0.55115014596E+03  0.14118968177E+04  0.12699999809E+01 0. -1.
</event>
<event>
 5   0  0.3445410E-06  0.3096119E+04  0.7818609E-02  0.8216804E-01
        2   -1    0    0  501    0  0.00000000000E+00  0.00000000000E+00  0.12554147718E+04  0.12554147718E+04  0.25500000920E-02 0.  1.
       -2   -1    0    0    0  501  0.00000000000E+00  0.00000000000E+00 -0.19089218696E+04  0.19089218696E+04  0.25500000920E-02 0. -1.
    10030    2    1    2    0    0  0.00000000000E+00  0.00000000000E+00 -0.65350709776E+03  0.31643366414E+04  0.30961193216E+04 0.  0.
        1    1    3    3  502    0 -0.26986507203E+03  0.47680122198E+03 -0.18065228122E+04  0.18877741478E+04  0.50400001928E-02 0. -1.
       -1    1    3    3    0  502  0.26986507203E+03 -0.47680122198E+03  0.11530157144E+04  0.12765624936E+04  0.50400001928E-02 0.  1.
</event>
<event>
 5   0  0.3445959E-06  0.3095477E+04  0.7818609E-02  0.8216980E-01
        2   -1    0    0  501    0  0.00000000000E+00  0.00000000000E+00  0.15983915562E+04  0.15983915562E+04  0.25500000920E-02 0.  1.
       -2   -1    0    0    0  501  0.00000000000E+00  0.00000000000E+00 -0.14986906335E+04  0.14986906335E+04  0.25500000920E-02 0. -1.
    10030    2    1    2    0    0  0.00000000000E+00  0.00000000000E+00  0.99700922782E+02  0.30970821897E+04  0.30954769933E+04 0.  0.
        4    1    3    3  502    0 -0.15236089723E+03 -0.84266924460E+03  0.13397775460E+04  0.15900662830E+04  0.12699999809E+01 0.  1.
       -4    1    3    3    0  502  0.15236089723E+03  0.84266924460E+03 -0.12400766232E+04  0.15070159067E+04  0.12699999809E+01 0. -1.
</event>
<event>
 5   0  0.1250276E-06  0.3079437E+04  0.7818609E-02  0.8221404E-01
       -1   -1    0    0    0  501  0.00000000000E+00  0.00000000000E+00  0.19441561863E+04  0.19441561863E+04  0.50400001928E-02 0. -1.
        1   -1    0    0  501    0  0.00000000000E+00  0.00000000000E+00 -0.12194151253E+04  0.12194151253E+04  0.50400001928E-02 0.  1.
    10030    2    1    2    0    0  0.00000000000E+00  0.00000000000E+00  0.72474106098E+03  0.31635713117E+04  0.30794372600E+04 0.  0.
        5    1    3    3  502    0  0.37811639399E+03 -0.83801932080E+03 -0.90647018054E+03  0.12911075353E+04  0.46999998093E+01 0.  1.
       -5    1    3    3    0  502 -0.37811639399E+03  0.83801932080E+03  0.16312112415E+04  0.18724637764E+04  0.46999998093E+01 0. -1.
</event>
<event>
 5   0  0.3445410E-06  0.3084175E+04  0.7818609E-02  0.8220094E-01
       -2   -1    0    0    0  501  0.00000000000E+00  0.00000000000E+00  0.88019372066E+03  0.88019372066E+03  0.25500000920E-02 0.  1.
        2   -1    0    0  501    0  0.00000000000E+00  0.00000000000E+00 -0.27017161744E+04  0.27017161744E+04  0.25500000920E-02 0. -1.
    10030    2    1    2    0    0  0.00000000000E+00  0.00000000000E+00 -0.18215224537E+04  0.35819098950E+04  0.30841748405E+04 0.  0.
        1    1    3    3  502    0 -0.52701438674E+03 -0.11029105357E+04  0.18111089921E+03  0.12357010041E+04  0.50400001928E-02 0.  1.
       -1    1    3    3    0  502  0.52701438674E+03  0.11029105357E+04 -0.20026333529E+04  0.23462088910E+04  0.50400001928E-02 0. -1.
</event>
<event>
 5   0  0.1211008E-06  0.3073475E+04  0.7818609E-02  0.8223055E-01
       -1   -1    0    0    0  501  0.00000000000E+00  0.00000000000E+00  0.11683487788E+04  0.11683487788E+04  0.50400001928E-02 0.  1.
        1   -1    0    0  501    0  0.00000000000E+00  0.00000000000E+00 -0.20212818274E+04  0.20212818274E+04  0.50400001928E-02 0. -1.
    10030    2    1    2    0    0  0.00000000000E+00  0.00000000000E+00 -0.85293304865E+03  0.31896306062E+04  0.30734750070E+04 0.  0.
        3    1    3    3  502    0 -0.84363056149E+03  0.12563677355E+04 -0.14918011478E+03  0.15206666722E+04  0.10100000352E+00 0.  1.
       -3    1    3    3    0  502  0.84363056149E+03 -0.12563677355E+04 -0.70375293387E+03  0.16689639340E+04  0.10100000352E+00 0. -1.
</event>
<event>
 5   0  0.1109562E-06  0.3095579E+04  0.7818609E-02  0.8216952E-01
        3   -1    0    0  501    0  0.00000000000E+00  0.00000000000E+00  0.11240976097E+04  0.11240976142E+04  0.10100000352E+00 0.  1.
       -3   -1    0    0    0  501  0.00000000000E+00  0.00000000000E+00 -0.21311777053E+04  0.21311777077E+04  0.10100000352E+00 0. -1.
    10030    2    1    2    0    0  0.00000000000E+00  0.00000000000E+00 -0.10070800956E+04  0.32552753219E+04  0.30955786377E+04 0.  0.
        4    1    3    3  502    0  0.92218216833E+03  0.80567637965E+03 -0.14990095241E+04  0.19356046979E+04  0.12699999809E+01 0. -1.
       -4    1    3    3    0  502 -0.92218216833E+03 -0.80567637965E+03  0.49192942847E+03  0.13196706240E+04  0.12699999809E+01 0.  1.
</event>
<event>
 5   0  0.1250276E-06  0.3058957E+04  0.7818609E-02  0.8227093E-01
       -1   -1    0    0    0  501  0.00000000000E+00  0.00000000000E+00  0.15633172619E+04  0.15633172619E+04  0.50400001928E-02 0.  1.
        1   -1    0    0  501    0  0.00000000000E+00  0.00000000000E+00 -0.14963718020E+04  0.14963718020E+04  0.50400001928E-02 0. -1.
    10030    2    1    2    0    0  0.00000000000E+00  0.00000000000E+00  0.66945459910E+02  0.30596890638E+04  0.30589565987E+04 0.  0.
        5    1    3    3  502    0  0.13502301798E+04  0.58836148169E+03  0.44587111126E+03  0.15388677362E+04  0.46999998093E+01 0. -1.
       -5    1    3    3    0  502 -0.13502301798E+04 -0.58836148169E+03 -0.37892565135E+03  0.15208213277E+04  0.46999998093E+01 0.  1.
</event>
<event>
 5   0  0.1109562E-06  0.3077775E+04  0.7818609E-02  0.8221864E-01
        4   -1    0    0  501    0  0.00000000000E+00  0.00000000000E+00  0.22566043598E+04  0.22566047172E+04  0.12699999809E+01 0. -1.
       -4   -1    0    0    0  501  0.00000000000E+00  0.00000000000E+00 -0.10494405715E+04  0.10494413399E+04  0.12699999809E+01 0.  1.
    10030    2    1    2    0    0  0.00000000000E+00  0.00000000000E+00  0.12071637883E+04  0.33060460571E+04  0.30777745402E+04 0.  0.
        1    1    3    3  502    0  0.12065555280E+04  0.39803061151E+03 -0.32913310904E+03  0.13124531281E+04  0.50400001928E-02 0.  1.
       -1    1    3    3    0  502 -0.12065555280E+04 -0.39803061151E+03  0.15362968974E+04  0.19935929291E+04  0.50400001928E-02 0. -1.
</event>
<event>
 5   0  0.3441897E-06  0.2813255E+04  0.7818609E-02  0.8299165E-01
        2   -1    0    0  501    0  0.00000000000E+00  0.00000000000E+00  0.76968798883E+03  0.76968798884E+03  0.25500000920E-02 0. -1.
       -2   -1    0    0    0  501  0.00000000000E+00  0.00000000000E+00 -0.25706532274E+04  0.25706532274E+04  0.25500000920E-02 0.  1.
    10030    2    1    2    0    0  0.00000000000E+00  0.00000000000E+00 -0.18009652385E+04  0.33403412162E+04  0.28132549920E+04 0.  0.
        5    1    3    3  502    0  0.93003338371E+03 -0.57723258322E+03  0.14844549777E+03  0.11046346481E+04  0.46999998093E+01 0. -1.
       -5    1    3    3    0  502 -0.93003338371E+03  0.57723258322E+03 -0.19494107363E+04  0.22357065681E+04  0.46999998093E+01 0.  1.
</event>
<event>
 5   0  0.3445959E-06  0.3125363E+04  0.7818609E-02  0.8208812E-01
        2   -1    0    0  501    0  0.00000000000E+00  0.00000000000E+00  0.12833110800E+04  0.12833110800E+04  0.25500000920E-02 0.  1.
       -2   -1    0    0    0  501  0.00000000000E+00  0.00000000000E+00 -0.19028690482E+04  0.19028690482E+04  0.25500000920E-02 0. -1.
    10030    2    1    2    0    0  0.00000000000E+00  0.00000000000E+00 -0.61955796822E+03  0.31861801282E+04  0.31253626562E+04 0.  0.
        4    1    3    3  502    0  0.12271512171E+04  0.55367437134E+03  0.49908082834E+03  0.14358059427E+04  0.12699999809E+01 0.  1.
       -4    1    3    3    0  502 -0.12271512171E+04 -0.55367437134E+03 -0.11186387966E+04  0.17503741854E+04  0.12699999809E+01 0. -1.
</event>
<event>
 5   0  0.1198763E-06  0.3075611E+04  0.7818609E-02  0.8222463E-01
       -1   -1    0    0    0  501  0.00000000000E+00  0.00000000000E+00  0.17639223302E+04  0.17639223302E+04  0.50400001928E-02 0.  1.
        1   -1    0    0  501    0  0.00000000000E+00  0.00000000000E+00 -0.13406749404E+04  0.13406749404E+04  0.50400001928E-02 0. -1.
    10030    2    1    2    0    0  0.00000000000E+00  0.00000000000E+00  0.42324738979E+03  0.31045972707E+04  0.30756114612E+04 0.  0.
        1    1    3    3  502    0  0.15174319504E+02 -0.97508077614E+02  0.17607229660E+04  0.17634861633E+04  0.50400001928E-02 0.  1.
       -1    1    3    3    0  502 -0.15174319504E+02  0.97508077614E+02 -0.13374755762E+04  0.13411111073E+04  0.50400001928E-02 0. -1.
</event>
<event>
 5   0  0.3441897E-06  0.3065948E+04  0.7818609E-02  0.8225146E-01
        2   -1    0    0  501    0  0.00000000000E+00  0.00000000000E+00  0.19745921849E+04  0.19745921849E+04  0.25500000920E-02 0. -1.
       -2   -1    0    0    0  501  0.00000000000E+00  0.00000000000E+00 -0.11901241762E+04  0.11901241762E+04  0.25500000920E-02 0.  1.
    10030    2    1    2    0    0  0.00000000000E+00  0.00000000000E+00  0.78446800872E+03  0.31647163612E+04  0.30659483997E+04 0.  0.
        5    1    3    3  502    0 -0.14183539965E+04 -0.51951803757E+03  0.66211567012E+03  0.16492562873E+04  0.46999998093E+01 0. -1.
       -5    1    3    3    0  502  0.14183539965E+04  0.51951803757E+03  0.12235233859E+03  0.15154600738E+04  0.46999998093E+01 0.  1.
</event>
<event>
 5   0  0.1250276E-06  0.3068118E+04  0.7818609E-02  0.8224543E-01
       -1   -1    0    0    0  501  0.00000000000E+00  0.00000000000E+00  0.20945571608E+04  0.20945571608E+04  0.50400001928E-02 0.  1.
        1   -1    0    0  501    0  0.00000000000E+00  0.00000000000E+00 -0.11235486790E+04  0.11235486790E+04  0.50400001928E-02 0. -1.
    10030    2    1    2    0    0  0.00000000000E+00  0.00000000000E+00  0.97100848177E+03  0.32181058398E+04  0.30681179450E+04 0.  0.
        5    1    3    3  502    0 -0.38697622528E+03 -0.88479859299E+03  0.17357022542E+04  0.19862788209E+04  0.46999998093E+01 0.  1.
       -5    1    3    3    0  502  0.38697622528E+03  0.88479859299E+03 -0.76469377240E+03  0.12318270190E+04  0.46999998093E+01 0. -1.
</event>
<event>
 5   0  0.3340899E-06  0.3091175E+04  0.7818609E-02  0.8218164E-01
       -2   -1    0    0    0  501  0.00000000000E+00  0.00000000000E+00  0.17844694458E+04  0.17844694458E+04  0.25500000920E-02 0.  1.
        2   -1    0    0  501    0  0.00000000000E+00  0.00000000000E+00 -0.13386844204E+04  0.13386844204E+04  0.25500000920E-02 0. -1.
    10030    2    1    2    0    0  0.00000000000E+00  0.00000000000E+00  0.44578502537E+03  0.31231538663E+04  0.30911754695E+04 0.  0.
        3    1    3    3  502    0 -0.34066854939E+03 -0.82347286140E+03 -0.10529772228E+04  0.13794649890E+04  0.10100000352E+00 0. -1.
       -3    1    3    3    0  502  0.34066854939E+03  0.82347286140E+03  0.14987622481E+04  0.17436888773E+04  0.10100000352E+00 0.  1.
</event>
<event>
 5   0  0.3441897E-06  0.3060442E+04  0.7818609E-02  0.8226679E-01
       -2   -1    0    0    0  501  0.00000000000E+00  0.00000000000E+00  0.10314826919E+04  0.10314826919E+04  0.25500000920E-02 0.  1.
        2   -1    0    0  501    0  0.00000000000E+00  0.00000000000E+00 -0.22701078991E+04  0.22701078991E+04  0.25500000920E-02 0. -1.
    10030    2    1    2    0    0  0.00000000000E+00  0.00000000000E+00 -0.12386252072E+04  0.33015905910E+04  0.30604424560E+04 0.  0.
        5    1    3    3  502    0  0.41604211236E+03  0.37198002416E+03  0.91776980761E+03  0.10741432341E+04  0.46999998093E+01 0.  1.
       -5    1    3    3    0  502 -0.41604211236E+03 -0.37198002416E+03 -0.21563950148E+04  0.22274473569E+04  0.46999998093E+01 0. -1.
</event>
<event>
 5   0  0.1235960E-06  0.3079375E+04  0.7818609E-02  0.8221421E-01
       -1   -1    0    0    0  501  0.00000000000E+00  0.00000000000E+00  0.14853107219E+04  0.14853107219E+04  0.50400001928E-02 0.  1.
        1   -1    0    0  501    0  0.00000000000E+00  0.00000000000E+00 -0.15960554395E+04  0.15960554395E+04  0.50400001928E-02 0. -1.
    10030    2    1    2    0    0  0.00000000000E+00  0.00000000000E+00 -0.11074471757E+03  0.30813661615E+04  0.30793754283E+04 0.  0.
        4    1    3    3  502    0 -0.14191701219E+04 -0.55806916903E+03  0.15725409655E+03  0.15330412571E+04  0.12699999809E+01 0.  1.
       -4    1    3    3    0  502  0.14191701219E+04  0.55806916903E+03 -0.26799881412E+03  0.15483249044E+04  0.12699999809E+01 0. -1.
</event>
<event>
 5   0  0.3340899E-06  0.2977442E+04  0.7818609E-02  0.8250202E-01
       -2   -1    0    0    0  501  0.00000000000E+00  0.00000000000E+00  0.11798783373E+04  0.11798783373E+04  0.25500000920E-02 0.  1.
        2   -1    0    0  501    0  0.00000000000E+00  0.00000000000E+00 -0.18784060435E+04  0.18784060435E+04  0.25500000920E-02 0. -1.
    10030    2    1    2    0    0  0.00000000000E+00  0.00000000000E+00 -0.69852770612E+03  0.30582843808E+04  0.29774422576E+04 0.  0.
        3    1    3    3  502    0 -0.18143177288E+03  0.14422294283E+04 -0.67946931198E+03  0.16045627965E+04  0.10100000352E+00 0.  1.
       -3    1    3    3    0  502  0.18143177288E+03 -0.14422294283E+04 -0.19058394142E+02  0.14537215843E+04  0.10100000352E+00 0. -1.
</event>
<event>
 5   0  0.3374790E-06  0.3096642E+04  0.7818609E-02  0.8216660E-01
       -2   -1    0    0    0  501  0.00000000000E+00  0.00000000000E+00  0.11510078501E+04  0.11510078501E+04  0.25500000920E-02 0.  1.
        2   -1    0    0  501    0  0.00000000000E+00  0.00000000000E+00 -0.20827811667E+04  0.20827811667E+04  0.25500000920E-02 0. -1.
    10030    2    1    2    0    0  0.00000000000E+00  0.00000000000E+00 -0.93177331660E+03  0.32337890168E+04  0.30966417119E+04 0.  0.
        2    1    3    3  502    0 -0.51754615997E+03  0.70027544111E+03  0.87107160638E+03  0.12316677574E+04  0.25500000920E-02 0.  1.
       -2    1    3    3    0  502  0.51754615997E+03 -0.70027544111E+03 -0.18028449230E+04  0.20021212594E+04  0.25500000920E-02 0. -1.
</event>
<event>
 5   0  0.3445959E-06  0.3139849E+04  0.7818609E-02  0.8204886E-01
       -2   -1    0    0    0  501  0.00000000000E+00  0.00000000000E+00  0.11978415679E+04  0.11978415679E+04  0.25500000920E-02 0.  1.
        2   -1    0    0  501    0  0.00000000000E+00  0.00000000000E+00 -0.20575873873E+04  0.20575873873E+04  0.25500000920E-02 0. -1.
    10030    2    1    2    0    0  0.00000000000E+00  0.00000000000E+00 -0.85974581944E+03  0.32554289553E+04  0.31398494882E+04 0.  0.
        4    1    3    3  502    0 -0.47041674991E+03 -0.44403203285E+03 -0.19129852190E+04  0.20193985307E+04  0.12699999809E+01 0. -1.
       -4    1    3    3    0  502  0.47041674991E+03  0.44403203285E+03  0.10532393996E+04  0.12360304246E+04  0.12699999809E+01 0.  1.
</event>
<event>
 5   0  0.3441897E-06  0.3112648E+04  0.7818609E-02  0.8212275E-01
       -2   -1    0    0    0  501  0.00000000000E+00  0.00000000000E+00  0.26989090962E+04  0.26989090962E+04  0.25500000920E-02 0.  1.
        2   -1    0    0  501    0  0.00000000000E+00  0.00000000000E+00 -0.89745294056E+03  0.89745294057E+03  0.25500000920E-02 0. -1.
    10030    2    1    2    0    0  0.00000000000E+00  0.00000000000E+00  0.18014561556E+04  0.35963620367E+04  0.31126476863E+04 0.  0.
        5    1    3    3  502    0  0.48860374476E+03  0.93063165242E+03 -0.42537692696E+03  0.11339208578E+04  0.46999998093E+01 0. -1.
       -5    1    3    3    0  502 -0.48860374476E+03 -0.93063165242E+03  0.22268330826E+04  0.24624411789E+04  0.46999998093E+01 0.  1.
</event>
<event>
 5   0  0.3445410E-06  0.3095098E+04  0.7818609E-02  0.8217084E-01
        2   -1    0    0  501    0  0.00000000000E+00  0.00000000000E+00  0.10772947257E+04  0.10772947257E+04  0.25500000920E-02 0. -1.
       -2   -1    0    0    0  501  0.00000000000E+00  0.00000000000E+00 -0.22230759003E+04  0.22230759003E+04  0.25500000920E-02 0.  1.
    10030    2    1    2    0    0  0.00000000000E+00  0.00000000000E+00 -0.11457811746E+04  0.33003706260E+04  0.30950980225E+04 0.  0.
        1    1    3    3  502    0 -0.77785229661E+03  0.13363188650E+04 -0.50456574667E+03  0.16264651540E+04  0.50400001928E-02 0.  1.
       -1    1    3    3    0  502  0.77785229661E+03 -0.13363188650E+04 -0.64121542796E+03  0.16739054721E+04  0.50400001928E-02 0. -1.
</event>
<event>
 5   0  0.3445410E-06  0.3147458E+04  0.7818609E-02  0.8202833E-01
        2   -1    0    0  501    0  0.00000000000E+00  0.00000000000E+00  0.22398434490E+04  0.22398434490E+04  0.25500000920E-02 0.  1.
       -2   -1    0    0    0  501  0.00000000000E+00  0.00000000000E+00 -0.11057125978E+04  0.11057125978E+04  0.25500000920E-02 0. -1.
    10030    2    1    2    0    0  0.00000000000E+00  0.00000000000E+00  0.11341308513E+04  0.33455560468E+04  0.31474580973E+04 0.  0.
        1    1    3    3  502    0  0.78067923621E+03  0.13466519709E+04  0.81336360066E+03  0.17562721735E+04  0.50400001928E-02 0.  1.
       -1    1    3    3    0  502 -0.78067923621E+03 -0.13466519709E+04  0.32076725060E+03  0.15892838732E+04  0.50400001928E-02 0. -1.
</event>
<event>
 5   0  0.1198763E-06  0.2906307E+04  0.7818609E-02  0.8271003E-01
        1   -1    0    0  501    0  0.00000000000E+00  0.00000000000E+00  0.21488802410E+04  0.21488802410E+04  0.50400001928E-02 0. -1.
       -1   -1    0    0    0  501  0.00000000000E+00  0.00000000000E+00 -0.98267684921E+03  0.98267684923E+03  0.50400001928E-02 0.  1.
    10030    2    1    2    0    0  0.00000000000E+00  0.00000000000E+00  0.11662033918E+04  0.31315570902E+04  0.29063068417E+04 0.  0.
        1    1    3    3  502    0  0.65963168890E+03 -0.49138800776E+03 -0.70769169300E+03  0.10850823340E+04  0.50400001928E-02 0.  1.
       -1    1    3    3    0  502 -0.65963168890E+03  0.49138800776E+03  0.18738950848E+04  0.20464747562E+04  0.50400001928E-02 0. -1.
</event>
<event>
 5   0  0.1171915E-06  0.3515913E+04  0.7818609E-02  0.8110029E-01
        1   -1    0    0  501    0  0.00000000000E+00  0.00000000000E+00  0.14122134908E+04  0.14122134908E+04  0.50400001928E-02 0. -1.
       -1   -1    0    0    0  501  0.00000000000E+00  0.00000000000E+00 -0.21883460121E+04  0.21883460121E+04  0.50400001928E-02 0.  1.
    10030    2    1    2    0    0  0.00000000000E+00  0.00000000000E+00 -0.77613252123E+03  0.36005595029E+04  0.35159134010E+04 0.  0.
        2    1    3    3  502    0 -0.11843683808E+04  0.60200348803E+02 -0.17170219545E+04  0.20867479330E+04  0.25500000920E-02 0. -1.
       -2    1    3    3    0  502  0.11843683808E+04 -0.60200348803E+02  0.94088943330E+03  0.15138115699E+04  0.25500000920E-02 0.  1.
</event>
<event>
 5   0  0.3445410E-06  0.3083260E+04  0.7818609E-02  0.8220347E-01
       -2   -1    0    0    0  501  0.00000000000E+00  0.00000000000E+00  0.12164009878E+04  0.12164009878E+04  0.25500000920E-02 0. -1.
        2   -1    0    0  501    0  0.00000000000E+00  0.00000000000E+00 -0.19538153589E+04  0.19538153589E+04  0.25500000920E-02 0.  1.
    10030    2    1    2    0    0  0.00000000000E+00  0.00000000000E+00 -0.73741437111E+03  0.31702163466E+04  0.30832599192E+04 0.  0.
        1    1    3    3  502    0  0.10100691370E+04 -0.35408260543E+03 -0.15095067292E+04  0.18504660814E+04  0.50400001928E-02 0.  1.
       -1    1    3    3    0  502 -0.10100691370E+04  0.35408260543E+03  0.77209235806E+03  0.13197502652E+04  0.50400001928E-02 0. -1.
</event>
<event>
 5   0  0.1250276E-06  0.3078639E+04  0.7818609E-02  0.8221625E-01
        1   -1    0    0  501    0  0.00000000000E+00  0.00000000000E+00  0.18333831719E+04  0.18333831719E+04  0.50400001928E-02 0.  1.
       -1   -1    0    0    0  501  0.00000000000E+00  0.00000000000E+00 -0.12924222082E+04  0.12924222083E+04  0.50400001928E-02 0. -1.
    10030    2    1    2    0    0  0.00000000000E+00  0.00000000000E+00  0.54096096366E+03  0.31258053802E+04  0.30786393927E+04 0.  0.
        5    1    3    3  502    0  0.76786150629E+03  0.30461787236E+03  0.15892561076E+04  0.17911338326E+04  0.46999998093E+01 0.  1.
       -5    1    3    3    0  502 -0.76786150629E+03 -0.30461787236E+03 -0.10482951439E+04  0.13346715475E+04  0.46999998093E+01 0. -1.
</event>
<event>
 5   0  0.3441897E-06  0.3067195E+04  0.7818609E-02  0.8224799E-01
       -2   -1    0    0    0  501  0.00000000000E+00  0.00000000000E+00  0.12931327264E+04  0.12931327264E+04  0.25500000920E-02 0.  1.
        2   -1    0    0  501    0  0.00000000000E+00  0.00000000000E+00 -0.18187781836E+04  0.18187781837E+04  0.25500000920E-02 0. -1.
    10030    2    1    2    0    0  0.00000000000E+00  0.00000000000E+00 -0.52564545725E+03  0.31119109101E+04  0.30671951952E+04 0.  0.
        5    1    3    3  502    0 -0.77503311880E+03 -0.58470863908E+03  0.94164029239E+03  0.13525047350E+04  0.46999998093E+01 0.  1.
       -5    1    3    3    0  502  0.77503311880E+03  0.58470863908E+03 -0.14672857496E+04  0.17594061751E+04  0.46999998093E+01 0. -1.
</event>
<event>
 5   0  0.1211008E-06  0.3132082E+04  0.7818609E-02  0.8206988E-01
        1   -1    0    0  501    0  0.00000000000E+00  0.00000000000E+00  0.23764903850E+04  0.23764903850E+04  0.50400001928E-02 0. -1.
       -1   -1    0    0    0  501  0.00000000000E+00  0.00000000000E+00 -0.10319774984E+04  0.10319774984E+04  0.50400001928E-02 0.  1.
    10030    2    1    2    0    0  0.00000000000E+00  0.00000000000E+00  0.13445128865E+04  0.34084678834E+04  0.31320821206E+04 0.  0.
        3    1    3    3  502    0 -0.13860947375E+04 -0.65281866363E+03  0.10249778953E+04  0.18433693403E+04  0.10100000352E+00 0.  1.
       -3    1    3    3    0  502  0.13860947375E+04  0.65281866363E+03  0.31953499125E+03  0.15650985431E+04  0.10100000352E+00 0. -1.
</event>
<event>
 5   0  0.3374790E-06  0.3129701E+04  0.7818609E-02  0.8207634E-01
        2   -1    0    0  501    0  0.00000000000E+00  0.00000000000E+00  0.16768139310E+04  0.16768139310E+04  0.25500000920E-02 0.  1.
       -2   -1    0    0    0  501  0.00000000000E+00  0.00000000000E+00 -0.14603630040E+04  0.14603630040E+04  0.25500000920E-02 0. -1.
    10030    2    1    2    0    0  0.00000000000E+00  0.00000000000E+00  0.21645092696E+03  0.31371769350E+04  0.31297009630E+04 0.  0.
        2    1    3    3  502    0 -0.41431660275E+03 -0.14724594766E+04 -0.22265676900E+03  0.15457590997E+04  0.25500000920E-02 0. -1.
       -2    1    3    3    0  502  0.41431660275E+03  0.14724594766E+04  0.43910769596E+03  0.15914178352E+04  0.25500000920E-02 0.  1.
</event>
<event>
 5   0  0.1235960E-06  0.3083888E+04  0.7818609E-02  0.8220174E-01
       -1   -1    0    0    0  501  0.00000000000E+00  0.00000000000E+00  0.11212212504E+04  0.11212212504E+04  0.50400001928E-02 0. -1.
        1   -1    0    0  501    0  0.00000000000E+00  0.00000000000E+00 -0.21205372652E+04  0.21205372652E+04  0.50400001928E-02 0.  1.
    10030    2    1    2    0    0  0.00000000000E+00  0.00000000000E+00 -0.99931601477E+03  0.32417585157E+04  0.30838880940E+04 0.  0.
        4    1    3    3  502    0 -0.45610119199E+03 -0.11879727118E+04 -0.14150298085E+04  0.19030550263E+04  0.12699999809E+01 0.  1.
       -4    1    3    3    0  502  0.45610119199E+03  0.11879727118E+04  0.41571379370E+03  0.13387034894E+04  0.12699999809E+01 0. -1.
</event>
<event>
 5   0  0.1250276E-06  0.3177904E+04  0.7818609E-02  0.8194677E-01
        1   -1    0    0  501    0  0.00000000000E+00  0.00000000000E+00  0.10478736677E+04  0.10478736677E+04  0.50400001928E-02 0.  1.
       -1   -1    0    0    0  501  0.00000000000E+00  0.00000000000E+00 -0.24094209608E+04  0.24094209608E+04  0.50400001928E-02 0. -1.
    10030    2    1    2    0    0  0.00000000000E+00  0.00000000000E+00 -0.13615472931E+04  0.34572946285E+04  0.31779042020E+04 0.  0.
        5    1    3    3  502    0  0.10871996474E+04 -0.10991764897E+04 -0.28170743109E+03  0.15714875741E+04  0.46999998093E+01 0.  1.
       -5    1    3    3    0  502 -0.10871996474E+04  0.10991764897E+04 -0.10798398620E+04  0.18858070544E+04  0.46999998093E+01 0. -1.
</event>
<event>
 5   0  0.1198763E-06  0.3116073E+04  0.7818609E-02  0.8211341E-01
        1   -1    0    0  501    0  0.00000000000E+00  0.00000000000E+00  0.17532292525E+04  0.17532292525E+04  0.50400001928E-02 0.  1.
       -1   -1    0    0    0  501  0.00000000000E+00  0.00000000000E+00 -0.13845754313E+04  0.13845754313E+04  0.50400001928E-02 0. -1.
    10030    2    1    2    0    0  0.00000000000E+00  0.00000000000E+00  0.36865382123E+03  0.31378046838E+04  0.31160732651E+04 0.  0.
        1    1    3    3  502    0  0.71682109309E+03  0.80566802105E+03  0.13166890520E+04  0.17019410975E+04  0.50400001928E-02 0.  1.
       -1    1    3    3    0  502 -0.71682109309E+03 -0.80566802105E+03 -0.94803523075E+03  0.14358635863E+04  0.50400001928E-02 0. -1.
</event>
<event>
 5   0  0.1171915E-06  0.3119136E+04  0.7818609E-02  0.8210506E-01
        1   -1    0    0  501    0  0.00000000000E+00  0.00000000000E+00  0.19447321760E+04  0.19447321760E+04  0.50400001928E-02 0.  1.
       -1   -1    0    0    0  501  0.00000000000E+00  0.00000000000E+00 -0.12506877423E+04  0.12506877423E+04  0.50400001928E-02 0. -1.
    10030    2    1    2    0    0  0.00000000000E+00  0.00000000000E+00  0.69404443364E+03  0.31954199183E+04  0.31191362232E+04 0.  0.
        2    1    3    3  502    0  0.60923721308E+03 -0.12592251050E+04 -0.35935893273E+03  0.14442841443E+04  0.25500000920E-02 0. -1.
       -2    1    3    3    0  502 -0.60923721308E+03  0.12592251050E+04  0.10534033664E+04  0.17511357741E+04  0.25500000920E-02 0.  1.
</event>
<event>
 5   0  0.3340899E-06  0.3066636E+04  0.7818609E-02  0.8224955E-01
        2   -1    0    0  501    0  0.00000000000E+00  0.00000000000E+00  0.15888252756E+04  0.15888252756E+04  0.25500000920E-02 0. -1.
       -2   -1    0    0    0  501  0.00000000000E+00  0.00000000000E+00 -0.14797496786E+04  0.14797496786E+04  0.25500000920E-02 0.  1.
    10030    2    1    2    0    0  0.00000000000E+00  0.00000000000E+00  0.10907559699E+03  0.30685749541E+04  0.30666357402E+04 0.  0.
        3    1    3    3  502    0  0.99766290854E+03  0.68358533418E+03 -0.88863105049E+03  0.15007615874E+04  0.10100000352E+00 0.  1.
       -3    1    3    3    0  502 -0.99766290854E+03 -0.68358533418E+03  0.99770664748E+03  0.15678133667E+04  0.10100000352E+00 0. -1.
</event>
<event>
 5   0  0.3445410E-06  0.3130959E+04  0.7818609E-02  0.8207293E-01
       -2   -1    0    0    0  501  0.00000000000E+00  0.00000000000E+00  0.11657089326E+04  0.11657089326E+04  0.25500000920E-02 0.  1.
        2   -1    0    0  501    0  0.00000000000E+00  0.00000000000E+00 -0.21023476744E+04  0.21023476744E+04  0.25500000920E-02 0. -1.
    10030    2    1    2    0    0  0.00000000000E+00  0.00000000000E+00 -0.93663874182E+03  0.32680566069E+04  0.31309586157E+04 0.  0.
        1    1    3    3  502    0  0.23240231803E+03  0.86219792010E+03 -0.18104411809E+04  0.20186860480E+04  0.50400001928E-02 0. -1.
       -1    1    3    3    0  502 -0.23240231803E+03 -0.86219792010E+03  0.87380243912E+03  0.12493705589E+04  0.50400001928E-02 0.  1.
</event>
<event>
 5   0  0.1171915E-06  0.3086288E+04  0.7818609E-02  0.8219511E-01
       -1   -1    0    0    0  501  0.00000000000E+00  0.00000000000E+00  0.13164188927E+04  0.13164188927E+04  0.50400001928E-02 0. -1.
        1   -1    0    0  501    0  0.00000000000E+00  0.00000000000E+00 -0.18089172684E+04  0.18089172684E+04  0.50400001928E-02 0.  1.
    10030    2    1    2    0    0  0.00000000000E+00  0.00000000000E+00 -0.49249837575E+03  0.31253361611E+04  0.30862876518E+04 0.  0.
        2    1    3    3  502    0 -0.64081030686E+03 -0.11317755605E+04  0.59476390753E+03  0.14301391102E+04  0.25500000920E-02 0. -1.
       -2    1    3    3    0  502  0.64081030686E+03  0.11317755605E+04 -0.10872622833E+04  0.16951970509E+04  0.25500000920E-02 0.  1.
</event>
<event>
 5   0  0.1235960E-06  0.3180350E+04  0.7818609E-02  0.8194026E-01
        1   -1    0    0  501    0  0.00000000000E+00  0.00000000000E+00  0.18742433477E+04  0.18742433477E+04  0.50400001928E-02 0. -1.
       -1   -1    0    0    0  501  0.00000000000E+00  0.00000000000E+00 -0.13491612153E+04  0.13491612153E+04  0.50400001928E-02 0.  1.
    10030    2    1    2    0    0  0.00000000000E+00  0.00000000000E+00  0.52508213239E+03  0.32234045630E+04  0.31803499385E+04 0.  0.
        4    1    3    3  502    0 -0.10890272319E+03  0.10910058612E+04 -0.90478917280E+03  0.14215479775E+04  0.12699999809E+01 0.  1.
       -4    1    3    3    0  502  0.10890272319E+03 -0.10910058612E+04  0.14298713052E+04  0.18018565855E+04  0.12699999809E+01 0. -1.
</event>
<event>
 5   0  0.1211008E-06  0.3120490E+04  0.7818609E-02  0.8210137E-01
        1   -1    0    0  501    0  0.00000000000E+00  0.00000000000E+00  0.18040483280E+04  0.18040483280E+04  0.50400001928E-02 0. -1.
       -1   -1    0    0    0  501  0.00000000000E+00  0.00000000000E+00 -0.13493900766E+04  0.13493900766E+04  0.50400001928E-02 0.  1.
    10030    2    1    2    0    0  0.00000000000E+00  0.00000000000E+00  0.45465825141E+03  0.31534384047E+04  0.31204902895E+04 0.  0.
        3    1    3    3  502    0 -0.11027395702E+04  0.69241003585E+02  0.13405666932E+04  0.17372242070E+04  0.10100000352E+00 0.  1.
       -3    1    3    3    0  502  0.11027395702E+04 -0.69241003585E+02 -0.88590844184E+03  0.14162141977E+04  0.10100000352E+00 0. -1.
</event>
<event>
 5   0  0.1235960E-06  0.3087110E+04  0.7818609E-02  0.8219284E-01
        1   -1    0    0  501    0  0.00000000000E+00  0.00000000000E+00  0.32247979037E+04  0.32247979037E+04  0.50400001928E-02 0. -1.
       -1   -1    0    0    0  501  0.00000000000E+00  0.00000000000E+00 -0.73882508155E+03  0.73882508157E+03  0.50400001928E-02 0.  1.
    10030    2    1    2    0    0  0.00000000000E+00  0.00000000000E+00  0.24859728221E+04  0.39636229853E+04  0.30871096995E+04 0.  0.
        4    1    3    3  502    0 -0.94915239524E+03  0.45912438921E+03  0.26903965371E+04  0.28896229190E+04  0.12699999809E+01 0. -1.
       -4    1    3    3    0  502  0.94915239524E+03 -0.45912438921E+03 -0.20442371499E+03  0.10740000663E+04  0.12699999809E+01 0.  1.
</event>
<event>
 5   0  0.3374790E-06  0.3069037E+04  0.7818609E-02  0.8224287E-01
        2   -1    0    0  501    0  0.00000000000E+00  0.00000000000E+00  0.33114155914E+04  0.33114155914E+04  0.25500000920E-02 0. -1.
       -2   -1    0    0    0  501  0.00000000000E+00  0.00000000000E+00 -0.71110000908E+03  0.71110000908E+03  0.25500000920E-02 0.  1.
    10030    2    1    2    0    0  0.00000000000E+00  0.00000000000E+00  0.26003155823E+04  0.40225156005E+04  0.30690374107E+04 0.  0.
        2    1    3    3  502    0 -0.77389323520E+02  0.11595421940E+04  0.26135973282E+04  0.28603178497E+04  0.25500000920E-02 0. -1.
       -2    1    3    3    0  502  0.77389323520E+02 -0.11595421940E+04 -0.13281745904E+02  0.11621977508E+04  0.25500000920E-02 0.  1.
</event>
<event>
 5   0  0.3445410E-06  0.3137685E+04  0.7818609E-02  0.8205471E-01
        2   -1    0    0  501    0  0.00000000000E+00  0.00000000000E+00  0.17907268617E+04  0.17907268617E+04  0.25500000920E-02 0.  1.
       -2   -1    0    0    0  501  0.00000000000E+00  0.00000000000E+00 -0.13744509568E+04  0.13744509568E+04  0.25500000920E-02 0. -1.
    10030    2    1    2    0    0  0.00000000000E+00  0.00000000000E+00  0.41627590484E+03  0.31651778185E+04  0.31376846549E+04 0.  0.
        1    1    3    3  502    0 -0.65145433319E+03 -0.13296672821E+04  0.73119690538E+03  0.16513802541E+04  0.50400001928E-02 0. -1.
       -1    1    3    3    0  502  0.65145433319E+03  0.13296672821E+04 -0.31492100055E+03  0.15137975644E+04  0.50400001928E-02 0.  1.
</event>
<event>
 5   0  0.1198763E-06  0.3221886E+04  0.7818609E-02  0.8183061E-01
        1   -1    0    0  501    0  0.00000000000E+00  0.00000000000E+00  0.23226327834E+04  0.23226327834E+04  0.50400001928E-02 0. -1.
       -1   -1    0    0    0  501  0.00000000000E+00  0.00000000000E+00 -0.11173253901E+04  0.11173253901E+04  0.50400001928E-02 0.  1.
    10030    2    1    2    0    0  0.00000000000E+00  0.00000000000E+00  0.12053073933E+04  0.34399581734E+04  0.32218855229E+04 0.  0.
        1    1    3    3  502    0 -0.13636737284E+04  0.85580921640E+03  0.54300528821E+03  0.16990792199E+04  0.50400001928E-02 0. -1.
       -1    1    3    3    0  502  0.13636737284E+04 -0.85580921640E+03  0.66230210511E+03  0.17408789535E+04  0.50400001928E-02 0.  1.
</event>
<event>
 5   0  0.3374790E-06  0.3055984E+04  0.7818609E-02  0.8227923E-01
        2   -1    0    0  501    0  0.00000000000E+00  0.00000000000E+00  0.22007578604E+04  0.22007578604E+04  0.25500000920E-02 0. -1.
       -2   -1    0    0    0  501  0.00000000000E+00  0.00000000000E+00 -0.10608886619E+04  0.10608886619E+04  0.25500000920E-02 0.  1.
    10030    2    1    2    0    0  0.00000000000E+00  0.00000000000E+00  0.11398691985E+04  0.32616465224E+04  0.30559836791E+04 0.  0.
        2    1    3    3  502    0 -0.64744730162E+03 -0.40527519670E+03 -0.84250211089E+03  0.11372096554E+04  0.25500000920E-02 0.  1.
       -2    1    3    3    0  502  0.64744730162E+03  0.40527519670E+03  0.19823713094E+04  0.21244368670E+04  0.25500000920E-02 0. -1.
</event>
<event>
 5   0  0.1211008E-06  0.3101127E+04  0.7818609E-02  0.8215429E-01
        1   -1    0    0  501    0  0.00000000000E+00  0.00000000000E+00  0.98326701143E+03  0.98326701145E+03  0.50400001928E-02 0. -1.
       -1   -1    0    0    0  501  0.00000000000E+00  0.00000000000E+00 -0.24451619140E+04  0.24451619140E+04  0.50400001928E-02 0.  1.
    10030    2    1    2    0    0  0.00000000000E+00  0.00000000000E+00 -0.14618949025E+04  0.34284289254E+04  0.31011269227E+04 0.  0.
        3    1    3    3  502    0 -0.11266487577E+04  0.10621039330E+04 -0.82241300443E+03  0.17532157163E+04  0.10100000352E+00 0. -1.
       -3    1    3    3    0  502  0.11266487577E+04 -0.10621039330E+04 -0.63948189810E+03  0.16752132091E+04  0.10100000352E+00 0.  1.
</event>
<event>
 5   0  0.3445410E-06  0.3094353E+04  0.7818609E-02  0.8217289E-01
       -2   -1    0    0    0  501  0.00000000000E+00  0.00000000000E+00  0.16533329287E+04  0.16533329287E+04  0.25500000920E-02 0. -1.
        2   -1    0    0  501    0  0.00000000000E+00  0.00000000000E+00 -0.14478364545E+04  0.14478364545E+04  0.25500000920E-02 0.  1.
    10030    2    1    2    0    0  0.00000000000E+00  0.00000000000E+00  0.20549647418E+03  0.31011693832E+04  0.30943533642E+04 0.  0.
        1    1    3    3  502    0  0.34399589834E+01  0.35466394680E+03  0.16120393713E+04  0.16505966446E+04  0.50400001928E-02 0. -1.
       -1    1    3    3    0  502 -0.34399589834E+01 -0.35466394680E+03 -0.14065428971E+04  0.14505727386E+04  0.50400001928E-02 0.  1.
</event>
<event>
 5   0  0.1211008E-06  0.3108900E+04  0.7818609E-02  0.8213300E-01
        1   -1    0    0  501    0  0.00000000000E+00  0.00000000000E+00  0.16914570448E+04  0.16914570448E+04  0.50400001928E-02 0. -1.
       -1   -1    0    0    0  501  0.00000000000E+00  0.00000000000E+00 -0.14285404445E+04  0.14285404445E+04  0.50400001928E-02 0.  1.
    10030    2    1    2    0    0  0.00000000000E+00  0.00000000000E+00  0.26291660033E+03  0.31199974894E+04  0.31088999976E+04 0.  0.
        3    1    3    3  502    0  0.13447063879E+04 -0.61550944690E+02  0.91159472384E+03  0.16257394438E+04  0.10100000352E+00 0. -1.
       -3    1    3    3    0  502 -0.13447063879E+04  0.61550944690E+02 -0.64867812351E+03  0.14942580455E+04  0.10100000352E+00 0.  1.
</event>
<event>
 5   0  0.3441897E-06  0.3052609E+04  0.7818609E-02  0.8228866E-01
       -2   -1    0    0    0  501  0.00000000000E+00  0.00000000000E+00  0.15479031176E+04  0.15479031176E+04  0.25500000920E-02 0. -1.
        2   -1    0    0  501    0  0.00000000000E+00  0.00000000000E+00 -0.15050072501E+04  0.15050072501E+04  0.25500000920E-02 0.  1.
    10030    2    1    2    0    0  0.00000000000E+00  0.00000000000E+00  0.42895867539E+02  0.30529103676E+04  0.30526089919E+04 0.  0.
        5    1    3    3  502    0  0.10292049812E+04 -0.29357401461E+03  0.11097349149E+04  0.15417464989E+04  0.46999998093E+01 0. -1.
       -5    1    3    3    0  502 -0.10292049812E+04  0.29357401461E+03 -0.10668390474E+04  0.15111638688E+04  0.46999998093E+01 0.  1.
</event>
<event>
 5   0  0.3445410E-06  0.3068151E+04  0.7818609E-02  0.8224533E-01
       -2   -1    0    0    0  501  0.00000000000E+00  0.00000000000E+00  0.22047334549E+04  0.22047334549E+04  0.25500000920E-02 0.  1.
        2   -1    0    0  501    0  0.00000000000E+00  0.00000000000E+00 -0.10674248786E+04  0.10674248786E+04  0.25500000920E-02 0. -1.
    10030    2    1    2    0    0  0.00000000000E+00  0.00000000000E+00  0.11373085763E+04  0.32721583335E+04  0.30681508049E+04 0.  0.
        1    1    3    3  502    0 -0.14583299981E+03  0.15235783600E+04  0.45767218817E+03  0.15975049655E+04  0.50400001928E-02 0.  1.
       -1    1    3    3    0  502  0.14583299981E+03 -0.15235783600E+04  0.67963638811E+03  0.16746533680E+04  0.50400001928E-02 0. -1.
</event>
<event>
 5   0  0.1171915E-06  0.3186603E+04  0.7818609E-02  0.8192364E-01
        1   -1    0    0  501    0  0.00000000000E+00  0.00000000000E+00  0.18388737511E+04  0.18388737511E+04  0.50400001928E-02 0. -1.
       -1   -1    0    0    0  501  0.00000000000E+00  0.00000000000E+00 -0.13805238202E+04  0.13805238203E+04  0.50400001928E-02 0.  1.
    10030    2    1    2    0    0  0.00000000000E+00  0.00000000000E+00  0.45834993086E+03  0.32193975714E+04  0.31866025895E+04 0.  0.
        2    1    3    3  502    0  0.33764371235E+03  0.12346602225E+04 -0.72938879448E+03  0.14732267833E+04  0.25500000920E-02 0.  1.
       -2    1    3    3    0  502 -0.33764371235E+03 -0.12346602225E+04  0.11877387253E+04  0.17461707881E+04  0.25500000920E-02 0. -1.
</event>
<event>
 5   0  0.3374790E-06  0.3102790E+04  0.7818609E-02  0.8214973E-01
        2   -1    0    0  501    0  0.00000000000E+00  0.00000000000E+00  0.15221666648E+04  0.15221666648E+04  0.25500000920E-02 0. -1.
       -2   -1    0    0    0  501  0.00000000000E+00  0.00000000000E+00 -0.15811840747E+04  0.15811840747E+04  0.25500000920E-02 0.  1.
    10030    2    1    2    0    0  0.00000000000E+00  0.00000000000E+00 -0.59017409870E+02  0.31033507396E+04  0.31027895124E+04 0.  0.
        2    1    3    3  502    0 -0.15112076552E+04 -0.31139640216E+03 -0.19112194477E+03  0.15547488203E+04  0.25500000920E-02 0. -1.
       -2    1    3    3    0  502  0.15112076552E+04  0.31139640216E+03  0.13210453490E+03  0.15486019193E+04  0.25500000920E-02 0.  1.
</event>
<event>
 5   0  0.3445410E-06  0.3110734E+04  0.7818609E-02  0.8212798E-01
        2   -1    0    0  501    0  0.00000000000E+00  0.00000000000E+00  0.22773732866E+04  0.22773732866E+04  0.25500000920E-02 0.  1.
       -2   -1    0    0    0  501  0.00000000000E+00  0.00000000000E+00 -0.10622619027E+04  0.10622619027E+04  0.25500000920E-02 0. -1.
    10030    2    1    2    0    0  0.00000000000E+00  0.00000000000E+00  0.12151113839E+04  0.33396351894E+04  0.31107342417E+04 0.  0.
        1    1    3    3  502    0 -0.52121238772E+03  0.33003360407E+03 -0.92529639116E+03  0.11120961939E+04  0.50400001928E-02 0. -1.
       -1    1    3    3    0  502  0.52121238772E+03 -0.33003360407E+03  0.21404077750E+04  0.22275389955E+04  0.50400001928E-02 0.  1.
</event>
<event>
 5   0  0.1171915E-06  0.2787351E+04  0.7818609E-02  0.8307206E-01
        1   -1    0    0  501    0  0.00000000000E+00  0.00000000000E+00  0.29073346388E+04  0.29073346388E+04  0.50400001928E-02 0.  1.
       -1   -1    0    0    0  501  0.00000000000E+00  0.00000000000E+00 -0.66807965952E+03  0.66807965954E+03  0.50400001928E-02 0. -1.
    10030    2    1    2    0    0  0.00000000000E+00  0.00000000000E+00  0.22392549792E+04  0.35754142983E+04  0.27873508108E+04 0.  0.
        2    1    3    3  502    0 -0.26520162129E+03  0.12618678845E+04  0.44124881994E+03  0.13628437104E+04  0.25500000920E-02 0.  1.
       -2    1    3    3    0  502  0.26520162129E+03 -0.12618678845E+04  0.17980061593E+04  0.22125705879E+04  0.25500000920E-02 0. -1.
</event>
<event>
 5   0  0.1235960E-06  0.3100213E+04  0.7818609E-02  0.8215679E-01
       -1   -1    0    0    0  501  0.00000000000E+00  0.00000000000E+00  0.18468855350E+04  0.18468855351E+04  0.50400001928E-02 0. -1.
        1   -1    0    0  501    0  0.00000000000E+00  0.00000000000E+00 -0.13010175018E+04  0.13010175018E+04  0.50400001928E-02 0.  1.
    10030    2    1    2    0    0  0.00000000000E+00  0.00000000000E+00  0.54586803323E+03  0.31479030369E+04  0.31002131572E+04 0.  0.
        4    1    3    3  502    0 -0.80854503521E+03  0.62789011132E+03  0.14548141490E+04  0.17788976606E+04  0.12699999809E+01 0. -1.
       -4    1    3    3    0  502  0.80854503521E+03 -0.62789011132E+03 -0.90894611581E+03  0.13690053762E+04  0.12699999809E+01 0.  1.
</event>
<event>
 5   0  0.3441897E-06  0.2981383E+04  0.7818609E-02  0.8249067E-01
       -2   -1    0    0    0  501  0.00000000000E+00  0.00000000000E+00  0.17428982885E+04  0.17428982885E+04  0.25500000920E-02 0.  1.
        2   -1    0    0  501    0  0.00000000000E+00  0.00000000000E+00 -0.12749807019E+04  0.12749807019E+04  0.25500000920E-02 0. -1.
    10030    2    1    2    0    0  0.00000000000E+00  0.00000000000E+00  0.46791758661E+03  0.30178789904E+04  0.29813833589E+04 0.  0.
        5    1    3    3  502    0  0.26696049053E+03 -0.12379398335E+04  0.10299541652E+04  0.16323573773E+04  0.46999998093E+01 0.  1.
       -5    1    3    3    0  502 -0.26696049053E+03  0.12379398335E+04 -0.56203657856E+03  0.13855216131E+04  0.46999998093E+01 0. -1.
</event>
<event>
 5   0  0.1250276E-06  0.3058746E+04  0.7818609E-02  0.8227152E-01
        1   -1    0    0  501    0  0.00000000000E+00  0.00000000000E+00  0.14119268192E+04  0.14119268192E+04  0.50400001928E-02 0.  1.
       -1   -1    0    0    0  501  0.00000000000E+00  0.00000000000E+00 -0.16565887407E+04  0.16565887407E+04  0.50400001928E-02 0. -1.
    10030    2    1    2    0    0  0.00000000000E+00  0.00000000000E+00 -0.24466192152E+03  0.30685155599E+04  0.30587461950E+04 0.  0.
        5    1    3    3  502    0 -0.14383017325E+04 -0.51859781291E+02 -0.64124378354E+03  0.15756322511E+04  0.46999998093E+01 0. -1.
       -5    1    3    3    0  502  0.14383017325E+04  0.51859781291E+02  0.39658186202E+03  0.14928833089E+04  0.46999998093E+01 0.  1.
</event>
<event>
 5   0  0.1211008E-06  0.3101459E+04  0.7818609E-02  0.8215338E-01
       -1   -1    0    0    0  501  0.00000000000E+00  0.00000000000E+00  0.15109274163E+04  0.15109274163E+04  0.50400001928E-02 0. -1.
        1   -1    0    0  501    0  0.00000000000E+00  0.00000000000E+00 -0.15915798815E+04  0.15915798815E+04  0.50400001928E-02 0.  1.
    10030    2    1    2    0    0  0.00000000000E+00  0.00000000000E+00 -0.80652465203E+02  0.31025072978E+04  0.31014588040E+04 0.  0.
        3    1    3    3  502    0 -0.49585609578E+03  0.62575106950E+03  0.12895305796E+04  0.15166828260E+04  0.10100000352E+00 0. -1.
       -3    1    3    3    0  502  0.49585609578E+03 -0.62575106950E+03 -0.13701830448E+04  0.15858244718E+04  0.10100000352E+00 0.  1.
</event>
<event>
 5   0  0.3340899E-06  0.3123135E+04  0.7818609E-02  0.8209417E-01
       -2   -1    0    0    0  501  0.00000000000E+00  0.00000000000E+00  0.11499302631E+04  0.11499302631E+04  0.25500000920E-02 0. -1.
        2   -1    0    0  501    0  0.00000000000E+00  0.00000000000E+00 -0.21205573352E+04  0.21205573352E+04  0.25500000920E-02 0.  1.
    10030    2    1    2    0    0  0.00000000000E+00  0.00000000000E+00 -0.97062707215E+03  0.32704875983E+04  0.31231349982E+04 0.  0.
        3    1    3    3  502    0 -0.14242231196E+04  0.10446884825E+02 -0.11558139744E+04  0.18342373308E+04  0.10100000352E+00 0.  1.
       -3    1    3    3    0  502  0.14242231196E+04 -0.10446884825E+02  0.18518690225E+03  0.14362502675E+04  0.10100000352E+00 0. -1.
</event>
<event>
 5   0  0.3441897E-06  0.3104770E+04  0.7818609E-02  0.8214430E-01
        2   -1    0    0  501    0  0.00000000000E+00  0.00000000000E+00  0.82627023620E+03  0.82627023621E+03  0.25500000920E-02 0. -1.
       -2   -1    0    0    0  501  0.00000000000E+00  0.00000000000E+00 -0.29165998139E+04  0.29165998139E+04  0.25500000920E-02 0.  1.
    10030    2    1    2    0    0  0.00000000000E+00  0.00000000000E+00 -0.20903295777E+04  0.37428700501E+04  0.31047702763E+04 0.  0.
        5    1    3    3  502    0  0.38720377539E+03  0.12007717015E+04 -0.21355450093E+04  0.24803939243E+04  0.46999998093E+01 0.  1.
       -5    1    3    3    0  502 -0.38720377539E+03 -0.12007717015E+04  0.45215431683E+02  0.12624761258E+04  0.46999998093E+01 0. -1.
</event>
<event>
 5   0  0.1250276E-06  0.3060580E+04  0.7818609E-02  0.8226640E-01
       -1   -1    0    0    0  501  0.00000000000E+00  0.00000000000E+00  0.10315824933E+04  0.10315824933E+04  0.50400001928E-02 0. -1.
        1   -1    0    0  501    0  0.00000000000E+00  0.00000000000E+00 -0.22700920735E+04  0.22700920735E+04  0.50400001928E-02 0.  1.
    10030    2    1    2    0    0  0.00000000000E+00  0.00000000000E+00 -0.12385095802E+04  0.33016745669E+04  0.30605798413E+04 0.  0.
        5    1    3    3  502    0  0.12862429907E+04 -0.19139651223E+03  0.25095665402E+03  0.13244074102E+04  0.46999998093E+01 0.  1.
       -5    1    3    3    0  502 -0.12862429907E+04  0.19139651223E+03 -0.14894662342E+04  0.19772671567E+04  0.46999998093E+01 0. -1.
</event>
<event>
 5   0  0.1171915E-06  0.3091483E+04  0.7818609E-02  0.8218079E-01
       -1   -1    0    0    0  501  0.00000000000E+00  0.00000000000E+00  0.10728383558E+04  0.10728383558E+04  0.50400001928E-02 0. -1.
        1   -1    0    0  501    0  0.00000000000E+00  0.00000000000E+00 -0.22270990466E+04  0.22270990466E+04  0.50400001928E-02 0.  1.
    10030    2    1    2    0    0  0.00000000000E+00  0.00000000000E+00 -0.11542606908E+04  0.32999374024E+04  0.30914833199E+04 0.  0.
        2    1    3    3  502    0 -0.10564967269E+04  0.10565318672E+04 -0.15435270786E+03  0.15020884391E+04  0.25500000920E-02 0. -1.
       -2    1    3    3    0  502  0.10564967269E+04 -0.10565318672E+04 -0.99990798299E+03  0.17978489633E+04  0.25500000920E-02 0.  1.
</event>
<event>
 5   0  0.3445959E-06  0.3050015E+04  0.7818609E-02  0.8229591E-01
        2   -1    0    0  501    0  0.00000000000E+00  0.00000000000E+00  0.25675001917E+04  0.25675001917E+04  0.25500000920E-02 0. -1.
       -2   -1    0    0    0  501  0.00000000000E+00  0.00000000000E+00 -0.90580258112E+03  0.90580258112E+03  0.25500000920E-02 0.  1.
    10030    2    1    2    0    0  0.00000000000E+00  0.00000000000E+00  0.16616976106E+04  0.34733027728E+04  0.30500152791E+04 0.  0.
        4    1    3    3  502    0 -0.42451915542E+03  0.13034275888E+04  0.69901443368E+02  0.13725989280E+04  0.12699999809E+01 0. -1.
       -4    1    3    3    0  502  0.42451915542E+03 -0.13034275888E+04  0.15917961672E+04  0.21007038448E+04  0.12699999809E+01 0.  1.
</event>
<event>
 5   0  0.3441897E-06  0.3114400E+04  0.7818609E-02  0.8211797E-01
       -2   -1    0    0    0  501  0.00000000000E+00  0.00000000000E+00  0.10238650320E+04  0.10238650320E+04  0.25500000920E-02 0. -1.
        2   -1    0    0  501    0  0.00000000000E+00  0.00000000000E+00 -0.23683513539E+04  0.23683513539E+04  0.25500000920E-02 0.  1.
    10030    2    1    2    0    0  0.00000000000E+00  0.00000000000E+00 -0.13444863219E+04  0.33922163860E+04  0.31144001893E+04 0.  0.
        5    1    3    3  502    0 -0.43008605471E+03  0.27212903967E+03 -0.22751950681E+04  0.23314293720E+04  0.46999998093E+01 0.  1.
       -5    1    3    3    0  502  0.43008605471E+03 -0.27212903967E+03  0.93070874621E+03  0.10607870139E+04  0.46999998093E+01 0. -1.
</event>
<event>
 5   0  0.1198763E-06  0.3116435E+04  0.7818609E-02  0.8211242E-01
       -1   -1    0    0    0  501  0.00000000000E+00  0.00000000000E+00  0.25447921882E+04  0.25447921882E+04  0.50400001928E-02 0. -1.
        1   -1    0    0  501    0  0.00000000000E+00  0.00000000000E+00 -0.95412176024E+03  0.95412176026E+03  0.50400001928E-02 0.  1.
    10030    2    1    2    0    0  0.00000000000E+00  0.00000000000E+00  0.15906704280E+04  0.34989139485E+04  0.31164348876E+04 0.  0.
        1    1    3    3  502    0 -0.29059498354E+03 -0.97818713261E+03 -0.52679332356E+03  0.11483931020E+04  0.50400001928E-02 0.  1.
       -1    1    3    3    0  502  0.29059498354E+03  0.97818713261E+03  0.21174637515E+04  0.23505208465E+04  0.50400001928E-02 0. -1.
</event>
<event>
 5   0  0.3374790E-06  0.3104722E+04  0.7818609E-02  0.8214443E-01
       -2   -1    0    0    0  501  0.00000000000E+00  0.00000000000E+00  0.14326079316E+04  0.14326079316E+04  0.25500000920E-02 0.  1.
        2   -1    0    0  501    0  0.00000000000E+00  0.00000000000E+00 -0.16821239086E+04  0.16821239086E+04  0.25500000920E-02 0. -1.
    10030    2    1    2    0    0  0.00000000000E+00  0.00000000000E+00 -0.24951597693E+03  0.31147318402E+04  0.31047216000E+04 0.  0.
        2    1    3    3  502    0 -0.39887162166E+03  0.10795105392E+03  0.13764194683E+04  0.14371090958E+04  0.25500000920E-02 0.  1.
       -2    1    3    3    0  502  0.39887162166E+03 -0.10795105392E+03 -0.16259354452E+04  0.16776227444E+04  0.25500000920E-02 0. -1.
</event>
<event>
 5   0  0.1171915E-06  0.3087051E+04  0.7818609E-02  0.8219301E-01
       -1   -1    0    0    0  501  0.00000000000E+00  0.00000000000E+00  0.18570993305E+04  0.18570993305E+04  0.50400001928E-02 0.  1.
        1   -1    0    0  501    0  0.00000000000E+00  0.00000000000E+00 -0.12828988675E+04  0.12828988675E+04  0.50400001928E-02 0. -1.
    10030    2    1    2    0    0  0.00000000000E+00  0.00000000000E+00  0.57420046300E+03  0.31399981981E+04  0.30870507790E+04 0.  0.
        2    1    3    3  502    0  0.96210062808E+03 -0.11444903545E+04  0.67704861168E+03  0.16413075923E+04  0.25500000920E-02 0.  1.
       -2    1    3    3    0  502 -0.96210062808E+03  0.11444903545E+04 -0.10284814868E+03  0.14986906057E+04  0.25500000920E-02 0. -1.
</event>
<event>
 5   0  0.3445410E-06  0.3098905E+04  0.7818609E-02  0.8216039E-01
        2   -1    0    0  501    0  0.00000000000E+00  0.00000000000E+00  0.21849162603E+04  0.21849162603E+04  0.25500000920E-02 0.  1.
       -2   -1    0    0    0  501  0.00000000000E+00  0.00000000000E+00 -0.10988077031E+04  0.10988077031E+04  0.25500000920E-02 0. -1.
    10030    2    1    2    0    0  0.00000000000E+00  0.00000000000E+00  0.10861085572E+04  0.32837239634E+04  0.30989048501E+04 0.  0.
        1    1    3    3  502    0 -0.74066908543E+03  0.58770637156E+03 -0.75767863400E+03  0.12116378938E+04  0.50400001928E-02 0. -1.
       -1    1    3    3    0  502  0.74066908543E+03 -0.58770637156E+03  0.18437871912E+04  0.20720860696E+04  0.50400001928E-02 0.  1.
</event>
<event>
 5   0  0.1211008E-06  0.3093372E+04  0.7818609E-02  0.8217559E-01
       -1   -1    0    0    0  501  0.00000000000E+00  0.00000000000E+00  0.14541186651E+04  0.14541186651E+04  0.50400001928E-02 0.  1.
        1   -1    0    0  501    0  0.00000000000E+00  0.00000000000E+00 -0.16451455219E+04  0.16451455219E+04  0.50400001928E-02 0. -1.
    10030    2    1    2    0    0  0.00000000000E+00  0.00000000000E+00 -0.19102685677E+03  0.30992641870E+04  0.30933715007E+04 0.  0.
        3    1    3    3  502    0 -0.14060417517E+04 -0.55100566206E+03  0.23930298549E+03  0.15289952832E+04  0.10100000352E+00 0.  1.
       -3    1    3    3    0  502  0.14060417517E+04  0.55100566206E+03 -0.43032984226E+03  0.15702689038E+04  0.10100000352E+00 0. -1.
</event>
<event>
 5   0  0.1211008E-06  0.2727294E+04  0.7818609E-02  0.8326203E-01
       -1   -1    0    0    0  501  0.00000000000E+00  0.00000000000E+00  0.10864967696E+04  0.10864967696E+04  0.50400001928E-02 0. -1.
        1   -1    0    0  501    0  0.00000000000E+00  0.00000000000E+00 -0.17114944333E+04  0.17114944333E+04  0.50400001928E-02 0.  1.
    10030    2    1    2    0    0  0.00000000000E+00  0.00000000000E+00 -0.62499766371E+03  0.27979912029E+04  0.27272940237E+04 0.  0.
        3    1    3    3  502    0 -0.12344130548E+04  0.43638044706E+02 -0.90527702224E+03  0.15314066625E+04  0.10100000352E+00 0.  1.
       -3    1    3    3    0  502  0.12344130548E+04 -0.43638044706E+02  0.28027935853E+03  0.12665845404E+04  0.10100000352E+00 0. -1.
</event>
<event>
 5   0  0.3445959E-06  0.3089734E+04  0.7818609E-02  0.8218561E-01
       -2   -1    0    0    0  501  0.00000000000E+00  0.00000000000E+00  0.16553082978E+04  0.16553082978E+04  0.25500000920E-02 0. -1.
        2   -1    0    0  501    0  0.00000000000E+00  0.00000000000E+00 -0.14417947369E+04  0.14417947369E+04  0.25500000920E-02 0.  1.
    10030    2    1    2    0    0  0.00000000000E+00  0.00000000000E+00  0.21351356089E+03  0.30971030346E+04  0.30897344815E+04 0.  0.
        4    1    3    3  502    0 -0.15107117093E+04 -0.29767551140E+02  0.42920266209E+03  0.15707808612E+04  0.12699999809E+01 0. -1.
       -4    1    3    3    0  502  0.15107117093E+04  0.29767551140E+02 -0.21568910121E+03  0.15263221734E+04  0.12699999809E+01 0.  1.
</event>
<event>
 5   0  0.3445410E-06  0.3090436E+04  0.7818609E-02  0.8218368E-01
        2   -1    0    0  501    0  0.00000000000E+00  0.00000000000E+00  0.24616853152E+04  0.24616853152E+04  0.25500000920E-02 0.  1.
       -2   -1    0    0    0  501  0.00000000000E+00  0.00000000000E+00 -0.96994476022E+03  0.96994476022E+03  0.25500000920E-02 0. -1.
    10030    2    1    2    0    0  0.00000000000E+00  0.00000000000E+00  0.14917405550E+04  0.34316300755E+04  0.30904360681E+04 0.  0.
        1    1    3    3  502    0  0.10951354195E+04 -0.89425098236E+03  0.14381533417E+04  0.20167526970E+04  0.50400001928E-02 0.  1.
       -1    1    3    3    0  502 -0.10951354195E+04  0.89425098236E+03  0.53587213294E+02  0.14148773784E+04  0.50400001928E-02 0. -1.
</event>
<event>
 5   0  0.1171915E-06  0.3066373E+04  0.7818609E-02  0.8225028E-01
        1   -1    0    0  501    0  0.00000000000E+00  0.00000000000E+00  0.15881830188E+04  0.15881830189E+04  0.50400001928E-02 0. -1.
       -1   -1    0    0    0  501  0.00000000000E+00  0.00000000000E+00 -0.14800940883E+04  0.14800940883E+04  0.50400001928E-02 0.  1.
    10030    2    1    2    0    0  0.00000000000E+00  0.00000000000E+00  0.10808893058E+03  0.30682771071E+04  0.30663726436E+04 0.  0.
        2    1    3    3  502    0  0.12742157350E+04  0.72367517670E+03 -0.39715553712E+03  0.15182437292E+04  0.25500000920E-02 0.  1.
       -2    1    3    3    0  502 -0.12742157350E+04 -0.72367517670E+03  0.50524446770E+03  0.15500333779E+04  0.25500000920E-02 0. -1.
</event>
<event>
 5   0  0.1235960E-06  0.3081186E+04  0.7818609E-02  0.8220920E-01
       -1   -1    0    0    0  501  0.00000000000E+00  0.00000000000E+00  0.10589748282E+04  0.10589748282E+04  0.50400001928E-02 0.  1.
        1   -1    0    0  501    0  0.00000000000E+00  0.00000000000E+00 -0.22412491207E+04  0.22412491207E+04  0.50400001928E-02 0. -1.
    10030    2    1    2    0    0  0.00000000000E+00  0.00000000000E+00 -0.11822742925E+04  0.33002239488E+04  0.30811857474E+04 0.  0.
        4    1    3    3  502    0  0.43333007302E+03  0.13505088194E+04 -0.12353735581E+04  0.18809036297E+04  0.12699999809E+01 0. -1.
       -4    1    3    3    0  502 -0.43333007302E+03 -0.13505088194E+04  0.53099265610E+02  0.14193203191E+04  0.12699999809E+01 0.  1.
</event>
<event>
 5   0  0.1250276E-06  0.3068844E+04  0.7818609E-02  0.8224341E-01
        1   -1    0    0  501    0  0.00000000000E+00  0.00000000000E+00  0.15960304827E+04  0.15960304827E+04  0.50400001928E-02 0.  1.
       -1   -1    0    0    0  501  0.00000000000E+00  0.00000000000E+00 -0.14751912655E+04  0.14751912655E+04  0.50400001928E-02 0. -1.
    10030    2    1    2    0    0  0.00000000000E+00  0.00000000000E+00  0.12083921714E+03  0.30712217482E+04  0.30688435787E+04 0.  0.
        5    1    3    3  502    0  0.72209743413E+03  0.62053760485E+03 -0.11438152155E+04  0.14882294718E+04  0.46999998093E+01 0. -1.
       -5    1    3    3    0  502 -0.72209743413E+03 -0.62053760485E+03  0.12646544326E+04  0.15829922765E+04  0.46999998093E+01 0.  1.
</event>
<event>
 5   0  0.3374790E-06  0.3085644E+04  0.7818609E-02  0.8219689E-01
       -2   -1    0    0    0  501  0.00000000000E+00  0.00000000000E+00  0.85118331944E+03  0.85118331944E+03  0.25500000920E-02 0.  1.
        2   -1    0    0  501    0  0.00000000000E+00  0.00000000000E+00 -0.27964594799E+04  0.27964594799E+04  0.25500000920E-02 0. -1.
    10030    2    1    2    0    0  0.00000000000E+00  0.00000000000E+00 -0.19452761605E+04  0.36476427994E+04  0.30856439605E+04 0.  0.
        2    1    3    3  502    0 -0.10580538579E+04  0.73877430676E+02 -0.22971360409E+04  0.25301718976E+04  0.25500000920E-02 0. -1.
       -2    1    3    3    0  502  0.10580538579E+04 -0.73877430676E+02  0.35185988042E+03  0.11174709018E+04  0.25500000920E-02 0.  1.
</event>
<event>
 5   0  0.1235960E-06  0.3106285E+04  0.7818609E-02  0.8214015E-01
       -1   -1    0    0    0  501  0.00000000000E+00  0.00000000000E+00  0.16752268414E+04  0.16752268414E+04  0.50400001928E-02 0. -1.
        1   -1    0    0  501    0  0.00000000000E+00  0.00000000000E+00 -0.14399556564E+04  0.14399556564E+04  0.50400001928E-02 0.  1.
    10030    2    1    2    0    0  0.00000000000E+00  0.00000000000E+00  0.23527118493E+03  0.31151824978E+04  0.31062854769E+04 0.  0.
        4    1    3    3  502    0 -0.30137328543E+03  0.99058318684E+03 -0.10433372183E+04  0.14699098854E+04  0.12699999809E+01 0.  1.
       -4    1    3    3    0  502  0.30137328543E+03 -0.99058318684E+03  0.12786084033E+04  0.16452726124E+04  0.12699999809E+01 0. -1.
</event>
<event>
 5   0  0.3441897E-06  0.3118236E+04  0.7818609E-02  0.8210751E-01
        2   -1    0    0  501    0  0.00000000000E+00  0.00000000000E+00  0.12736524022E+04  0.12736524022E+04  0.25500000920E-02 0.  1.
       -2   -1    0    0    0  501  0.00000000000E+00  0.00000000000E+00 -0.19085655815E+04  0.19085655815E+04  0.25500000920E-02 0. -1.
    10030    2    1    2    0    0  0.00000000000E+00  0.00000000000E+00 -0.63491317931E+03  0.31822179837E+04  0.31182361281E+04 0.  0.
        5    1    3    3  502    0 -0.83150365960E+03  0.10227726911E+04 -0.11672273846E+04  0.17606544724E+04  0.46999998093E+01 0. -1.
       -5    1    3    3    0  502  0.83150365960E+03 -0.10227726911E+04  0.53231420530E+03  0.14215635114E+04  0.46999998093E+01 0.  1.
</event>
<event>
 5   0  0.1250276E-06  0.3173161E+04  0.7818609E-02  0.8195941E-01
        1   -1    0    0  501    0  0.00000000000E+00  0.00000000000E+00  0.18485892175E+04  0.18485892175E+04  0.50400001928E-02 0. -1.
       -1   -1    0    0    0  501  0.00000000000E+00  0.00000000000E+00 -0.13617075379E+04  0.13617075379E+04  0.50400001928E-02 0.  1.
    10030    2    1    2    0    0  0.00000000000E+00  0.00000000000E+00  0.48688167959E+03  0.32102967554E+04  0.31731611191E+04 0.  0.
        5    1    3    3  502    0  0.13069670561E+04  0.11411600022E+03  0.11460877333E+04  0.17420460757E+04  0.46999998093E+01 0. -1.
       -5    1    3    3    0  502 -0.13069670561E+04 -0.11411600022E+03 -0.65920605373E+03  0.14682506797E+04  0.46999998093E+01 0.  1.
</event>
<event>
 5   0  0.1198763E-06  0.3080281E+04  0.7818609E-02  0.8221170E-01
        1   -1    0    0  501    0  0.00000000000E+00  0.00000000000E+00  0.16506825699E+04  0.16506825699E+04  0.50400001928E-02 0.  1.
       -1   -1    0    0    0  501  0.00000000000E+00  0.00000000000E+00 -0.14370012948E+04  0.14370012949E+04  0.50400001928E-02 0. -1.
    10030    2    1    2    0    0  0.00000000000E+00  0.00000000000E+00  0.21368127502E+03  0.30876838647E+04  0.30802811497E+04 0.  0.
        1    1    3    3  502    0 -0.55465850509E+03 -0.66484608588E+03 -0.11699420070E+04  0.14554829697E+04  0.50400001928E-02 0. -1.
       -1    1    3    3    0  502  0.55465850509E+03  0.66484608588E+03  0.13836232820E+04  0.16322008951E+04  0.50400001928E-02 0.  1.
</event>
<event>
 5   0  0.3374790E-06  0.3114381E+04  0.7818609E-02  0.8211802E-01
       -2   -1    0    0    0  501  0.00000000000E+00  0.00000000000E+00  0.12417922266E+04  0.12417922266E+04  0.25500000920E-02 0. -1.
        2   -1    0    0  501    0  0.00000000000E+00  0.00000000000E+00 -0.19526953613E+04  0.19526953613E+04  0.25500000920E-02 0.  1.
    10030    2    1    2    0    0  0.00000000000E+00  0.00000000000E+00 -0.71090313472E+03  0.31944875879E+04  0.31143807864E+04 0.  0.
        2    1    3    3  502    0 -0.11190301907E+04 -0.89822500581E+03  0.26492362973E+03  0.14591851350E+04  0.25500000920E-02 0.  1.
       -2    1    3    3    0  502  0.11190301907E+04  0.89822500581E+03 -0.97582676445E+03  0.17353024529E+04  0.25500000920E-02 0. -1.
</event>
<event>
 5   0  0.1250276E-06  0.2890088E+04  0.7818609E-02  0.8275833E-01
       -1   -1    0    0    0  501  0.00000000000E+00  0.00000000000E+00  0.13576574912E+04  0.13576574912E+04  0.50400001928E-02 0. -1.
        1   -1    0    0  501    0  0.00000000000E+00  0.00000000000E+00 -0.15380551130E+04  0.15380551130E+04  0.50400001928E-02 0.  1.
    10030    2    1    2    0    0  0.00000000000E+00  0.00000000000E+00 -0.18039762183E+03  0.28957126043E+04  0.28900879199E+04 0.  0.
        5    1    3    3  502    0 -0.21118590395E+03  0.82990124633E+03 -0.12564204538E+04  0.15205097867E+04  0.46999998093E+01 0.  1.
       -5    1    3    3    0  502  0.21118590395E+03 -0.82990124633E+03  0.10760228319E+04  0.13752028176E+04  0.46999998093E+01 0. -1.
</event>
<event>
 5   0  0.3445410E-06  0.3113964E+04  0.7818609E-02  0.8211916E-01
        2   -1    0    0  501    0  0.00000000000E+00  0.00000000000E+00  0.16406414165E+04  0.16406414165E+04  0.25500000920E-02 0.  1.
       -2   -1    0    0    0  501  0.00000000000E+00  0.00000000000E+00 -0.14775886267E+04  0.14775886267E+04  0.25500000920E-02 0. -1.
    10030    2    1    2    0    0  0.00000000000E+00  0.00000000000E+00  0.16305278980E+03  0.31182300432E+04  0.31139640958E+04 0.  0.
        1    1    3    3  502    0 -0.13150273932E+04 -0.34696018193E+03  0.84053223518E+03  0.15988035686E+04  0.50400001928E-02 0.  1.
       -1    1    3    3    0  502  0.13150273932E+04  0.34696018193E+03 -0.67747944538E+03  0.15194264746E+04  0.50400001928E-02 0. -1.
</event>
<event>
 5   0  0.1198763E-06  0.2994606E+04  0.7818609E-02  0.8245273E-01
       -1   -1    0    0    0  501  0.00000000000E+00  0.00000000000E+00  0.15630275568E+04  0.15630275568E+04  0.50400001928E-02 0. -1.
        1   -1    0    0  501    0  0.00000000000E+00  0.00000000000E+00 -0.14343423197E+04  0.14343423197E+04  0.50400001928E-02 0.  1.
    10030    2    1    2    0    0  0.00000000000E+00  0.00000000000E+00  0.12868523707E+03  0.29973698766E+04  0.29946061989E+04 0.  0.
        1    1    3    3  502    0  0.11790953659E+04 -0.64050397209E+03  0.72933920520E+03  0.15272350495E+04  0.50400001928E-02 0.  1.
       -1    1    3    3    0  502 -0.11790953659E+04  0.64050397209E+03 -0.60065396813E+03  0.14701348270E+04  0.50400001928E-02 0. -1.
</event>
<event>
 5   0  0.1171915E-06  0.3085049E+04  0.7818609E-02  0.8219853E-01
       -1   -1    0    0    0  501  0.00000000000E+00  0.00000000000E+00  0.20370070315E+04  0.20370070315E+04  0.50400001928E-02 0. -1.
        1   -1    0    0  501    0  0.00000000000E+00  0.00000000000E+00 -0.11680775041E+04  0.11680775041E+04  0.50400001928E-02 0.  1.
    10030    2    1    2    0    0  0.00000000000E+00  0.00000000000E+00  0.86892952745E+03  0.32050845356E+04  0.30850491660E+04 0.  0.
        2    1    3    3  502    0  0.11506013072E+04 -0.79268607337E+03 -0.24452986483E+03  0.14184602334E+04  0.25500000920E-02 0.  1.
       -2    1    3    3    0  502 -0.11506013072E+04  0.79268607337E+03  0.11134593923E+04  0.17866243022E+04  0.25500000920E-02 0. -1.
</event>
<event>
 5   0  0.3445959E-06  0.3117299E+04  0.7818609E-02  0.8211006E-01
       -2   -1    0    0    0  501  0.00000000000E+00  0.00000000000E+00  0.15021876874E+04  0.15021876874E+04  0.25500000920E-02 0. -1.
        2   -1    0    0  501    0  0.00000000000E+00  0.00000000000E+00 -0.16172331627E+04  0.16172331627E+04  0.25500000920E-02 0.  1.
    10030    2    1    2    0    0  0.00000000000E+00  0.00000000000E+00 -0.11504547535E+03  0.31194208501E+04  0.31172986669E+04 0.  0.
        4    1    3    3  502    0 -0.14394972515E+04  0.52200725581E+03 -0.34882608413E+03  0.15704538077E+04  0.12699999809E+01 0.  1.
       -4    1    3    3    0  502  0.14394972515E+04 -0.52200725581E+03  0.23378060878E+03  0.15489670423E+04  0.12699999809E+01 0. -1.
</event>
<event>
 5   0  0.3374790E-06  0.3095617E+04  0.7818609E-02  0.8216942E-01
       -2   -1    0    0    0  501  0.00000000000E+00  0.00000000000E+00  0.99316686934E+03  0.99316686934E+03  0.25500000920E-02 0. -1.
        2   -1    0    0  501    0  0.00000000000E+00  0.00000000000E+00 -0.24121937030E+04  0.24121937030E+04  0.25500000920E-02 0.  1.
    10030    2    1    2    0    0  0.00000000000E+00  0.00000000000E+00 -0.14190268337E+04  0.34053605724E+04  0.30956168163E+04 0.  0.
        2    1    3    3  502    0 -0.66784699762E+03 -0.10815516888E+04  0.26199311273E+03  0.12978497828E+04  0.25500000920E-02 0. -1.
       -2    1    3    3    0  502  0.66784699762E+03  0.10815516888E+04 -0.16810199464E+04  0.21075107895E+04  0.25500000920E-02 0.  1.
</event>
<event>
 5   0  0.3445959E-06  0.3112362E+04  0.7818609E-02  0.8212354E-01
        2   -1    0    0  501    0  0.00000000000E+00  0.00000000000E+00  0.18094293307E+04  0.18094293307E+04  0.25500000920E-02 0. -1.
       -2   -1    0    0    0  501  0.00000000000E+00  0.00000000000E+00 -0.13383770544E+04  0.13383770544E+04  0.25500000920E-02 0.  1.
    10030    2    1    2    0    0  0.00000000000E+00  0.00000000000E+00  0.47105227632E+03  0.31478063851E+04  0.31123616099E+04 0.  0.
        4    1    3    3  502    0 -0.11875672516E+04  0.88981225965E+03  0.70949434373E+03  0.16448299824E+04  0.12699999809E+01 0. -1.
       -4    1    3    3    0  502  0.11875672516E+04 -0.88981225965E+03 -0.23844206741E+03  0.15029764026E+04  0.12699999809E+01 0.  1.
</event>
<event>
 5   0  0.1171915E-06  0.3067020E+04  0.7818609E-02  0.8224848E-01
        1   -1    0    0  501    0  0.00000000000E+00  0.00000000000E+00  0.14502390618E+04  0.14502390618E+04  0.50400001928E-02 0.  1.
       -1   -1    0    0    0  501  0.00000000000E+00  0.00000000000E+00 -0.16215617766E+04  0.16215617766E+04  0.50400001928E-02 0. -1.
    10030    2    1    2    0    0  0.00000000000E+00  0.00000000000E+00 -0.17132271486E+03  0.30718008384E+04  0.30670195497E+04 0.  0.
        2    1    3    3  502    0 -0.11802112150E+04 -0.95819261421E+03  0.11619844614E+03  0.15246421471E+04  0.25500000920E-02 0.  1.
       -2    1    3    3    0  502  0.11802112150E+04  0.95819261421E+03 -0.28752116100E+03  0.15471586913E+04  0.25500000920E-02 0. -1.
</event>
<event>
 5   0  0.3445410E-06  0.3030981E+04  0.7818609E-02  0.8234939E-01
       -2   -1    0    0    0  501  0.00000000000E+00  0.00000000000E+00  0.10384967233E+04  0.10384967233E+04  0.25500000920E-02 0. -1.
        2   -1    0    0  501    0  0.00000000000E+00  0.00000000000E+00 -0.22115724768E+04  0.22115724768E+04  0.25500000920E-02 0.  1.
    10030    2    1    2    0    0  0.00000000000E+00  0.00000000000E+00 -0.11730757535E+04  0.32500692001E+04  0.30309805479E+04 0.  0.
        1    1    3    3  502    0  0.12711970070E+04 -0.45610598088E+02 -0.14699121361E+04  0.19438785573E+04  0.50400001928E-02 0.  1.
       -1    1    3    3    0  502 -0.12711970070E+04  0.45610598088E+02  0.29683638264E+03  0.13061906428E+04  0.50400001928E-02 0. -1.
</event>
<event>
 5   0  0.1235960E-06  0.3067296E+04  0.7818609E-02  0.8224771E-01
       -1   -1    0    0    0  501  0.00000000000E+00  0.00000000000E+00  0.12755138116E+04  0.12755138116E+04  0.50400001928E-02 0. -1.
        1   -1    0    0  501    0  0.00000000000E+00  0.00000000000E+00 -0.18440229345E+04  0.18440229345E+04  0.50400001928E-02 0.  1.
    10030    2    1    2    0    0  0.00000000000E+00  0.00000000000E+00 -0.56850912284E+03  0.31195367461E+04  0.30672963482E+04 0.  0.
        4    1    3    3  502    0 -0.11882125751E+04 -0.70068400778E+03 -0.96594478581E+03  0.16840006367E+04  0.12699999809E+01 0.  1.
       -4    1    3    3    0  502  0.11882125751E+04  0.70068400778E+03  0.39743566297E+03  0.14355361094E+04  0.12699999809E+01 0. -1.
</event>
<event>
 5   0  0.1171915E-06  0.3075775E+04  0.7818609E-02  0.8222418E-01
       -1   -1    0    0    0  501  0.00000000000E+00  0.00000000000E+00  0.16748956489E+04  0.16748956489E+04  0.50400001928E-02 0.  1.
        1   -1    0    0  501    0  0.00000000000E+00  0.00000000000E+00 -0.14120870261E+04  0.14120870261E+04  0.50400001928E-02 0. -1.
    10030    2    1    2    0    0  0.00000000000E+00  0.00000000000E+00  0.26280862282E+03  0.30869826750E+04  0.30757752947E+04 0.  0.
        2    1    3    3  502    0  0.88344016611E+02 -0.87750195820E+03 -0.11330609889E+04  0.14358417589E+04  0.25500000920E-02 0. -1.
       -2    1    3    3    0  502 -0.88344016611E+02  0.87750195820E+03  0.13958696117E+04  0.16511409161E+04  0.25500000920E-02 0.  1.
</event>
<event>
 5   0  0.1198763E-06  0.3111261E+04  0.7818609E-02  0.8212654E-01
       -1   -1    0    0    0  501  0.00000000000E+00  0.00000000000E+00  0.25902785751E+04  0.25902785751E+04  0.50400001928E-02 0. -1.
        1   -1    0    0  501    0  0.00000000000E+00  0.00000000000E+00 -0.93425689773E+03  0.93425689774E+03  0.50400001928E-02 0.  1.
    10030    2    1    2    0    0  0.00000000000E+00  0.00000000000E+00  0.16560216774E+04  0.35245354729E+04  0.31112605972E+04 0.  0.
        1    1    3    3  502    0  0.97206279681E+03  0.77539988391E+03  0.18869721820E+04  0.22598263377E+04  0.50400001928E-02 0. -1.
       -1    1    3    3    0  502 -0.97206279681E+03 -0.77539988391E+03 -0.23095050463E+03  0.12647091351E+04  0.50400001928E-02 0.  1.
</event>
<event>
 5   0  0.3445410E-06  0.3102222E+04  0.7818609E-02  0.8215128E-01
        2   -1    0    0  501    0  0.00000000000E+00  0.00000000000E+00  0.84652101663E+03  0.84652101664E+03  0.25500000920E-02 0.  1.
       -2   -1    0    0    0  501  0.00000000000E+00  0.00000000000E+00 -0.28421566864E+04  0.28421566864E+04  0.25500000920E-02 0. -1.
    10030    2    1    2    0    0  0.00000000000E+00  0.00000000000E+00 -0.19956356697E+04  0.36886777030E+04  0.31022220215E+04 0.  0.
        1    1    3    3  502    0  0.12334704887E+04 -0.76665262876E+03 -0.16455353442E+04  0.21947647411E+04  0.50400001928E-02 0. -1.
       -1    1    3    3    0  502 -0.12334704887E+04  0.76665262876E+03 -0.35010032551E+03  0.14939129619E+04  0.50400001928E-02 0.  1.
</event>
<event>
 5   0  0.1211008E-06  0.3076801E+04  0.7818609E-02  0.8222134E-01
        1   -1    0    0  501    0  0.00000000000E+00  0.00000000000E+00  0.16323343099E+04  0.16323343099E+04  0.50400001928E-02 0. -1.
       -1   -1    0    0    0  501  0.00000000000E+00  0.00000000000E+00 -0.14498722252E+04  0.14498722252E+04  0.50400001928E-02 0.  1.
    10030    2    1    2    0    0  0.00000000000E+00  0.00000000000E+00  0.18246208471E+03  0.30822065352E+04  0.30768010519E+04 0.  0.
        3    1    3    3  502    0  0.56609143489E+03  0.41917653017E+02 -0.13411269788E+04  0.14563097836E+04  0.10100000352E+00 0.  1.
       -3    1    3    3    0  502 -0.56609143489E+03 -0.41917653017E+02  0.15235890635E+04  0.16258967516E+04  0.10100000352E+00 0. -1.
</event>
<event>
 5   0  0.1250276E-06  0.3443322E+04  0.7818609E-02  0.8127355E-01
        1   -1    0    0  501    0  0.00000000000E+00  0.00000000000E+00  0.25735790601E+04  0.25735790602E+04  0.50400001928E-02 0. -1.
       -1   -1    0    0    0  501  0.00000000000E+00  0.00000000000E+00 -0.11517490631E+04  0.11517490631E+04  0.50400001928E-02 0.  1.
    10030    2    1    2    0    0  0.00000000000E+00  0.00000000000E+00  0.14218299970E+04  0.37253281233E+04  0.34433223906E+04 0.  0.
        5    1    3    3  502    0  0.16100847239E+04 -0.56462374114E+03  0.95980450502E+03  0.19576566514E+04  0.46999998093E+01 0. -1.
       -5    1    3    3    0  502 -0.16100847239E+04  0.56462374114E+03  0.46202549201E+03  0.17676714718E+04  0.46999998093E+01 0.  1.
</event>
<event>
 5   0  0.1211008E-06  0.3096629E+04  0.7818609E-02  0.8216664E-01
       -1   -1    0    0    0  501  0.00000000000E+00  0.00000000000E+00  0.14662189072E+04  0.14662189072E+04  0.50400001928E-02 0.  1.
        1   -1    0    0  501    0  0.00000000000E+00  0.00000000000E+00 -0.16350065089E+04  0.16350065089E+04  0.50400001928E-02 0. -1.
    10030    2    1    2    0    0  0.00000000000E+00  0.00000000000E+00 -0.16878760173E+03  0.31012254161E+04  0.30966287841E+04 0.  0.
        3    1    3    3  502    0 -0.55560493632E+03 -0.10106713396E+04  0.95015657055E+03  0.14943061670E+04  0.10100000352E+00 0.  1.
       -3    1    3    3    0  502  0.55560493632E+03  0.10106713396E+04 -0.11189441723E+04  0.16069192490E+04  0.10100000352E+00 0. -1.
</event>
<event>
 5   0  0.3374790E-06  0.3153720E+04  0.7818609E-02  0.8201148E-01
       -2   -1    0    0    0  501  0.00000000000E+00  0.00000000000E+00  0.15260211755E+04  0.15260211755E+04  0.25500000920E-02 0. -1.
        2   -1    0    0  501    0  0.00000000000E+00  0.00000000000E+00 -0.16293928143E+04  0.16293928143E+04  0.25500000920E-02 0.  1.
    10030    2    1    2    0    0  0.00000000000E+00  0.00000000000E+00 -0.10337163884E+03  0.31554139898E+04  0.31537203032E+04 0.  0.
        2    1    3    3  502    0  0.14125555434E+04  0.69402093902E+03  0.45884297983E+02  0.15745105893E+04  0.25500000920E-02 0. -1.
       -2    1    3    3    0  502 -0.14125555434E+04 -0.69402093902E+03 -0.14925593683E+03  0.15809034005E+04  0.25500000920E-02 0.  1.
</event>
<event>
 5   0  0.3374790E-06  0.3157265E+04  0.7818609E-02  0.8200195E-01
        2   -1    0    0  501    0  0.00000000000E+00  0.00000000000E+00  0.11454933816E+04  0.11454933816E+04  0.25500000920E-02 0.  1.
       -2   -1    0    0    0  501  0.00000000000E+00  0.00000000000E+00 -0.21755527802E+04  0.21755527802E+04  0.25500000920E-02 0. -1.
    10030    2    1    2    0    0  0.00000000000E+00  0.00000000000E+00 -0.10300593986E+04  0.33210461619E+04  0.31572654694E+04 0.  0.
        2    1    3    3  502    0 -0.12173354753E+03 -0.10823197536E+04  0.68698513698E+03  0.12877048125E+04  0.25500000920E-02 0.  1.
       -2    1    3    3    0  502  0.12173354753E+03  0.10823197536E+04 -0.17170445356E+04  0.20333413493E+04  0.25500000920E-02 0. -1.
</event>
<event>
 5   0  0.3445959E-06  0.2761260E+04  0.7818609E-02  0.8315398E-01
       -2   -1    0    0    0  501  0.00000000000E+00  0.00000000000E+00  0.68034765386E+03  0.68034765386E+03  0.25500000920E-02 0.  1.
        2   -1    0    0  501    0  0.00000000000E+00  0.00000000000E+00 -0.28017131756E+04  0.28017131756E+04  0.25500000920E-02 0. -1.
    10030    2    1    2    0    0  0.00000000000E+00  0.00000000000E+00 -0.21213655218E+04  0.34820608295E+04  0.27612598471E+04 0.  0.
        4    1    3    3  502    0  0.76859963506E+03 -0.86159504194E+03 -0.10607754565E+03  0.11594591299E+04  0.12699999809E+01 0.  1.
       -4    1    3    3    0  502 -0.76859963506E+03  0.86159504194E+03 -0.20152879761E+04  0.23226016996E+04  0.12699999809E+01 0. -1.
</event>
<event>
 5   0  0.1109562E-06  0.3090939E+04  0.7818609E-02  0.8218229E-01
       -3   -1    0    0    0  501  0.00000000000E+00  0.00000000000E+00  0.19883444227E+04  0.19883444253E+04  0.10100000352E+00 0.  1.
        3   -1    0    0  501    0  0.00000000000E+00  0.00000000000E+00 -0.12012383356E+04  0.12012383399E+04  0.10100000352E+00 0. -1.
    10030    2    1    2    0    0  0.00000000000E+00  0.00000000000E+00  0.78710608707E+03  0.31895827651E+04  0.30909387285E+04 0.  0.
        5    1    3    3  502    0  0.15122145990E+04 -0.26607695476E+03  0.57483987306E+03  0.16395282581E+04  0.46999998093E+01 0. -1.
       -5    1    3    3    0  502 -0.15122145990E+04  0.26607695476E+03  0.21226621401E+03  0.15500545071E+04  0.46999998093E+01 0.  1.
</event>
<event>
 5   0  0.1211008E-06  0.3106374E+04  0.7818609E-02  0.8213991E-01
       -1   -1    0    0    0  501  0.00000000000E+00  0.00000000000E+00  0.13416053073E+04  0.13416053073E+04  0.50400001928E-02 0. -1.
        1   -1    0    0  501    0  0.00000000000E+00  0.00000000000E+00 -0.17981363503E+04  0.17981363503E+04  0.50400001928E-02 0.  1.
    10030    2    1    2    0    0  0.00000000000E+00  0.00000000000E+00 -0.45653104299E+03  0.31397416577E+04  0.31063736227E+04 0.  0.
        3    1    3    3  502    0 -0.17831713630E+03  0.30813407684E+02  0.13309139586E+04  0.13431598724E+04  0.10100000352E+00 0. -1.
       -3    1    3    3    0  502  0.17831713630E+03 -0.30813407684E+02 -0.17874450016E+04  0.17965817853E+04  0.10100000352E+00 0.  1.
</event>
<event>
 5   0  0.1235960E-06  0.3099595E+04  0.7818609E-02  0.8215849E-01
       -1   -1    0    0    0  501  0.00000000000E+00  0.00000000000E+00  0.17019389926E+04  0.17019389927E+04  0.50400001928E-02 0. -1.
        1   -1    0    0  501    0  0.00000000000E+00  0.00000000000E+00 -0.14112564799E+04  0.14112564799E+04  0.50400001928E-02 0.  1.
    10030    2    1    2    0    0  0.00000000000E+00  0.00000000000E+00  0.29068251273E+03  0.31131954726E+04  0.30995950909E+04 0.  0.
        4    1    3    3  502    0 -0.10510311232E+04 -0.31399156283E+03  0.12449572392E+04  0.16592700997E+04  0.12699999809E+01 0. -1.
       -4    1    3    3    0  502  0.10510311232E+04  0.31399156283E+03 -0.95427472650E+03  0.14539253729E+04  0.12699999809E+01 0.  1.
</event>
<event>
 5   0  0.3441897E-06  0.3109272E+04  0.7818609E-02  0.8213198E-01
       -2   -1    0    0    0  501  0.00000000000E+00  0.00000000000E+00  0.19581961119E+04  0.19581961119E+04  0.25500000920E-02 0.  1.
        2   -1    0    0  501    0  0.00000000000E+00  0.00000000000E+00 -0.12342443927E+04  0.12342443927E+04  0.25500000920E-02 0. -1.
    10030    2    1    2    0    0  0.00000000000E+00  0.00000000000E+00  0.72395171921E+03  0.31924405045E+04  0.31092716644E+04 0.  0.
        5    1    3    3  502    0 -0.77320748284E+03 -0.67670513911E+03  0.15598403653E+04  0.18678607314E+04  0.46999998093E+01 0.  1.
       -5    1    3    3    0  502  0.77320748284E+03  0.67670513911E+03 -0.83588864604E+03  0.13245797731E+04  0.46999998093E+01 0. -1.
</event>
<event>
 5   0  0.1250276E-06  0.3074323E+04  0.7818609E-02  0.8222820E-01
       -1   -1    0    0    0  501  0.00000000000E+00  0.00000000000E+00  0.10927479592E+04  0.10927479592E+04  0.50400001928E-02 0. -1.
        1   -1    0    0  501    0  0.00000000000E+00  0.00000000000E+00 -0.21623152126E+04  0.21623152126E+04  0.50400001928E-02 0.  1.
    10030    2    1    2    0    0  0.00000000000E+00  0.00000000000E+00 -0.10695672534E+04  0.32550631719E+04  0.30743230382E+04 0.  0.
        5    1    3    3  502    0 -0.78642013123E+03  0.51512998135E+03 -0.18224344470E+04  0.20506352489E+04  0.46999998093E+01 0.  1.
       -5    1    3    3    0  502  0.78642013123E+03 -0.51512998135E+03  0.75286719355E+03  0.12044279230E+04  0.46999998093E+01 0. -1.
</event>
<event>
 5   0  0.1171915E-06  0.3078885E+04  0.7818609E-02  0.8221557E-01
       -1   -1    0    0    0  501  0.00000000000E+00  0.00000000000E+00  0.19204174998E+04  0.19204174998E+04  0.50400001928E-02 0.  1.
        1   -1    0    0  501    0  0.00000000000E+00  0.00000000000E+00 -0.12340457529E+04  0.12340457529E+04  0.50400001928E-02 0. -1.
    10030    2    1    2    0    0  0.00000000000E+00  0.00000000000E+00  0.68637174693E+03  0.31544632528E+04  0.30788849017E+04 0.  0.
        2    1    3    3  502    0  0.50484792942E+03  0.12660469609E+04 -0.39001838153E+03  0.14176955516E+04  0.25500000920E-02 0. -1.
       -2    1    3    3    0  502 -0.50484792942E+03 -0.12660469609E+04  0.10763901285E+04  0.17367677012E+04  0.25500000920E-02 0.  1.
</event>
<event>
 5   0  0.3340899E-06  0.3099360E+04  0.7818609E-02  0.8215913E-01
       -2   -1    0    0    0  501  0.00000000000E+00  0.00000000000E+00  0.13960949444E+04  0.13960949444E+04  0.25500000920E-02 0.  1.
        2   -1    0    0  501    0  0.00000000000E+00  0.00000000000E+00 -0.17201615507E+04  0.17201615507E+04  0.25500000920E-02 0. -1.
    10030    2    1    2    0    0  0.00000000000E+00  0.00000000000E+00 -0.32406660635E+03  0.31162564951E+04  0.30993604789E+04 0.  0.
        3    1    3    3  502    0  0.70619421610E+03 -0.45108328028E+03  0.11486537265E+04  0.14218269199E+04  0.10100000352E+00 0.  1.
       -3    1    3    3    0  502 -0.70619421610E+03  0.45108328028E+03 -0.14727203328E+04  0.16944295753E+04  0.10100000352E+00 0. -1.
</event>
<event>
 5   0  0.1211008E-06  0.2986892E+04  0.7818609E-02  0.8247484E-01
        1   -1    0    0  501    0  0.00000000000E+00  0.00000000000E+00  0.24665813702E+04  0.24665813702E+04  0.50400001928E-02 0. -1.
       -1   -1    0    0    0  501  0.00000000000E+00  0.00000000000E+00 -0.90423959471E+03  0.90423959473E+03  0.50400001928E-02 0.  1.
    10030    2    1    2    0    0  0.00000000000E+00  0.00000000000E+00  0.15623417755E+04  0.33708209649E+04  0.29868917212E+04 0.  0.
        3    1    3    3  502    0 -0.94721233625E+03 -0.11462098424E+03 -0.51543601627E+03  0.10844461614E+04  0.10100000352E+00 0.  1.
       -3    1    3    3    0  502  0.94721233625E+03  0.11462098424E+03  0.20777777917E+04  0.22863748035E+04  0.10100000352E+00 0. -1.
</event>
<event>
 5   0  0.1211008E-06  0.3072235E+04  0.7818609E-02  0.8223399E-01
       -1   -1    0    0    0  501  0.00000000000E+00  0.00000000000E+00  0.23561389214E+04  0.23561389214E+04  0.50400001928E-02 0. -1.
        1   -1    0    0  501    0  0.00000000000E+00  0.00000000000E+00 -0.10014928445E+04  0.10014928445E+04  0.50400001928E-02 0.  1.
    10030    2    1    2    0    0  0.00000000000E+00  0.00000000000E+00  0.13546460770E+04  0.33576317659E+04  0.30722345421E+04 0.  0.
        3    1    3    3  502    0 -0.79617451283E+03 -0.12429166308E+03  0.21066007493E+04  0.22554620368E+04  0.10100000352E+00 0. -1.
       -3    1    3    3    0  502  0.79617451283E+03  0.12429166308E+03 -0.75195467230E+03  0.11021697291E+04  0.10100000352E+00 0.  1.
</event>
<event>
 5   0  0.1211008E-06  0.2995993E+04  0.7818609E-02  0.8244876E-01
        1   -1    0    0  501    0  0.00000000000E+00  0.00000000000E+00  0.13564248172E+04  0.13564248172E+04  0.50400001928E-02 0.  1.
       -1   -1    0    0    0  501  0.00000000000E+00  0.00000000000E+00 -0.16543445676E+04  0.16543445676E+04  0.50400001928E-02 0. -1.
    10030    2    1    2    0    0  0.00000000000E+00  0.00000000000E+00 -0.29791975040E+03  0.30107693848E+04  0.29959933429E+04 0.  0.
        3    1    3    3  502    0 -0.49389260808E+03 -0.13918171723E+04 -0.40101368905E+03  0.15303257622E+04  0.10100000352E+00 0. -1.
       -3    1    3    3    0  502  0.49389260808E+03  0.13918171723E+04  0.10309393865E+03  0.14804436226E+04  0.10100000352E+00 0.  1.
</event>
<event>
 5   0  0.1171915E-06  0.3094244E+04  0.7818609E-02  0.8217319E-01
        1   -1    0    0  501    0  0.00000000000E+00  0.00000000000E+00  0.20010319557E+04  0.20010319557E+04  0.50400001928E-02 0. -1.
       -1   -1    0    0    0  501  0.00000000000E+00  0.00000000000E+00 -0.11961757181E+04  0.11961757182E+04  0.50400001928E-02 0.  1.
    10030    2    1    2    0    0  0.00000000000E+00  0.00000000000E+00  0.80485623759E+03  0.31972076739E+04  0.30942435823E+04 0.  0.
        2    1    3    3  502    0 -0.63030268380E+03 -0.84027413493E+03 -0.77125870325E+03  0.13031431550E+04  0.25500000920E-02 0.  1.
       -2    1    3    3    0  502  0.63030268380E+03  0.84027413493E+03  0.15761149408E+04  0.18940645189E+04  0.25500000920E-02 0. -1.
</event>
<event>
 5   0  0.1235960E-06  0.3122462E+04  0.7818609E-02  0.8209600E-01
        1   -1    0    0  501    0  0.00000000000E+00  0.00000000000E+00  0.19878413894E+04  0.19878413894E+04  0.50400001928E-02 0. -1.
       -1   -1    0    0    0  501  0.00000000000E+00  0.00000000000E+00 -0.12261751088E+04  0.12261751088E+04  0.50400001928E-02 0.  1.
    10030    2    1    2    0    0  0.00000000000E+00  0.00000000000E+00  0.76166628060E+03  0.32140164981E+04  0.31224616134E+04 0.  0.
        4    1    3    3  502    0 -0.58459081972E+03  0.75568986564E+03  0.16517955745E+04  0.19082043477E+04  0.12699999809E+01 0. -1.
       -4    1    3    3    0  502  0.58459081972E+03 -0.75568986564E+03 -0.89012929391E+03  0.13058121505E+04  0.12699999809E+01 0.  1.
</event>
<event>
 5   0  0.1235960E-06  0.3108589E+04  0.7818609E-02  0.8213385E-01
        1   -1    0    0  501    0  0.00000000000E+00  0.00000000000E+00  0.13422946273E+04  0.13422946273E+04  0.50400001928E-02 0.  1.
       -1   -1    0    0    0  501  0.00000000000E+00  0.00000000000E+00 -0.17997777060E+04  0.17997777060E+04  0.50400001928E-02 0. -1.
    10030    2    1    2    0    0  0.00000000000E+00  0.00000000000E+00 -0.45748307873E+03  0.31420723333E+04  0.31085893553E+04 0.  0.
        4    1    3    3  502    0 -0.81587805890E+03 -0.26021840708E+03 -0.15398093631E+04  0.17619265348E+04  0.12699999809E+01 0. -1.
       -4    1    3    3    0  502  0.81587805890E+03  0.26021840708E+03  0.10823262844E+04  0.13801457985E+04  0.12699999809E+01 0.  1.
</event>
<event>
 5   0  0.3340899E-06  0.3143918E+04  0.7818609E-02  0.8203787E-01
       -2   -1    0    0    0  501  0.00000000000E+00  0.00000000000E+00  0.10125921087E+04  0.10125921087E+04  0.25500000920E-02 0.  1.
        2   -1    0    0  501    0  0.00000000000E+00  0.00000000000E+00 -0.24403259311E+04  0.24403259312E+04  0.25500000920E-02 0. -1.
    10030    2    1    2    0    0  0.00000000000E+00  0.00000000000E+00 -0.14277338224E+04  0.34529180399E+04  0.31439177983E+04 0.  0.
        3    1    3    3  502    0 -0.83534787151E+03  0.56031350586E+03 -0.20406105182E+04  0.22750491398E+04  0.10100000352E+00 0. -1.
       -3    1    3    3    0  502  0.83534787151E+03 -0.56031350586E+03  0.61287669580E+03  0.11778689001E+04  0.10100000352E+00 0.  1.
</event>
<event>
 5   0  0.3445959E-06  0.2921716E+04  0.7818609E-02  0.8266445E-01
        2   -1    0    0  501    0  0.00000000000E+00  0.00000000000E+00  0.22253579894E+04  0.22253579894E+04  0.25500000920E-02 0. -1.
       -2   -1    0    0    0  501  0.00000000000E+00  0.00000000000E+00 -0.95899483484E+03  0.95899483484E+03  0.25500000920E-02 0.  1.
    10030    2    1    2    0    0  0.00000000000E+00  0.00000000000E+00  0.12663631546E+04  0.31843528243E+04  0.29217164938E+04 0.  0.
        4    1    3    3  502    0 -0.11809589840E+04  0.29665675480E+03  0.15128498682E+04  0.19420055841E+04  0.12699999809E+01 0.  1.
       -4    1    3    3    0  502  0.11809589840E+04 -0.29665675480E+03 -0.24648671367E+03  0.12423472401E+04  0.12699999809E+01 0. -1.
</event>
<event>
 5   0  0.3445959E-06  0.3092182E+04  0.7818609E-02  0.8217887E-01
        2   -1    0    0  501    0  0.00000000000E+00  0.00000000000E+00  0.15547894547E+04  0.15547894547E+04  0.25500000920E-02 0.  1.
       -2   -1    0    0    0  501  0.00000000000E+00  0.00000000000E+00 -0.15374407527E+04  0.15374407527E+04  0.25500000920E-02 0. -1.
    10030    2    1    2    0    0  0.00000000000E+00  0.00000000000E+00  0.17348701957E+02  0.30922302074E+04  0.30921815403E+04 0.  0.
        4    1    3    3  502    0 -0.12583022044E+04 -0.20515024801E+03 -0.86597304931E+03  0.15412079668E+04  0.12699999809E+01 0. -1.
       -4    1    3    3    0  502  0.12583022044E+04  0.20515024801E+03  0.88332175127E+03  0.15510222406E+04  0.12699999809E+01 0.  1.
</event>
<event>
 5   0  0.1250276E-06  0.3086779E+04  0.7818609E-02  0.8219376E-01
       -1   -1    0    0    0  501  0.00000000000E+00  0.00000000000E+00  0.13742799697E+04  0.13742799697E+04  0.50400001928E-02 0. -1.
        1   -1    0    0  501    0  0.00000000000E+00  0.00000000000E+00 -0.17333085963E+04  0.17333085963E+04  0.50400001928E-02 0.  1.
    10030    2    1    2    0    0  0.00000000000E+00  0.00000000000E+00 -0.35902862663E+03  0.31075885661E+04  0.30867790885E+04 0.  0.
        5    1    3    3  502    0 -0.14245774112E+03 -0.49467581186E+03  0.12852965650E+04  0.13845604779E+04  0.46999998093E+01 0. -1.
       -5    1    3    3    0  502  0.14245774112E+03  0.49467581186E+03 -0.16443251916E+04  0.17230280882E+04  0.46999998093E+01 0.  1.
</event>
<event>
 5   0  0.1211008E-06  0.3100328E+04  0.7818609E-02  0.8215648E-01
        1   -1    0    0  501    0  0.00000000000E+00  0.00000000000E+00  0.23287449095E+04  0.23287449095E+04  0.50400001928E-02 0. -1.
       -1   -1    0    0    0  501  0.00000000000E+00  0.00000000000E+00 -0.10318899082E+04  0.10318899082E+04  0.50400001928E-02 0.  1.
    10030    2    1    2    0    0  0.00000000000E+00  0.00000000000E+00  0.12968550013E+04  0.33606348177E+04  0.31003279639E+04 0.  0.
        3    1    3    3  502    0 -0.53065192577E+03  0.13679362044E+04  0.11905894983E+04  0.18895354692E+04  0.10100000352E+00 0. -1.
       -3    1    3    3    0  502  0.53065192577E+03 -0.13679362044E+04  0.10626550298E+03  0.14710993485E+04  0.10100000352E+00 0.  1.
</event>
<event>
 5   0  0.3445959E-06  0.3117698E+04  0.7818609E-02  0.8210897E-01
        2   -1    0    0  501    0  0.00000000000E+00  0.00000000000E+00  0.27471157408E+04  0.27471157408E+04  0.25500000920E-02 0. -1.
       -2   -1    0    0    0  501  0.00000000000E+00  0.00000000000E+00 -0.88456805809E+03  0.88456805809E+03  0.25500000920E-02 0.  1.
    10030    2    1    2    0    0  0.00000000000E+00  0.00000000000E+00  0.18625476827E+04  0.36316837989E+04  0.31176984050E+04 0.  0.
        4    1    3    3  502    0 -0.78087828757E+03  0.13418730704E+04  0.76813103372E+03  0.17321723745E+04  0.12699999809E+01 0. -1.
       -4    1    3    3    0  502  0.78087828757E+03 -0.13418730704E+04  0.10944166490E+04  0.18995114244E+04  0.12699999809E+01 0.  1.
</event>
<event>
 5   0  0.3441897E-06  0.3121557E+04  0.7818609E-02  0.8209846E-01
        2   -1    0    0  501    0  0.00000000000E+00  0.00000000000E+00  0.23217225513E+04  0.23217225513E+04  0.25500000920E-02 0.  1.
       -2   -1    0    0    0  501  0.00000000000E+00  0.00000000000E+00 -0.10492339978E+04  0.10492339978E+04  0.25500000920E-02 0. -1.
    10030    2    1    2    0    0  0.00000000000E+00  0.00000000000E+00  0.12724885535E+04  0.33709565491E+04  0.31215574538E+04 0.  0.
        5    1    3    3  502    0 -0.14791042135E+04  0.49776102523E+03  0.61227079239E+03  0.16764286223E+04  0.46999998093E+01 0. -1.
       -5    1    3    3    0  502  0.14791042135E+04 -0.49776102523E+03  0.66021776109E+03  0.16945279268E+04  0.46999998093E+01 0.  1.
</event>
<event>
 5   0  0.1250276E-06  0.3052596E+04  0.7818609E-02  0.8228869E-01
       -1   -1    0    0    0  501  0.00000000000E+00  0.00000000000E+00  0.84011105360E+03  0.84011105361E+03  0.50400001928E-02 0. -1.
        1   -1    0    0  501    0  0.00000000000E+00  0.00000000000E+00 -0.27729500796E+04  0.27729500796E+04  0.50400001928E-02 0.  1.
    10030    2    1    2    0    0  0.00000000000E+00  0.00000000000E+00 -0.19328390260E+04  0.36130611332E+04  0.30525962805E+04 0.  0.
        5    1    3    3  502    0 -0.45139455583E+03 -0.71349390033E+03  0.53854110472E+03  0.10014385664E+04  0.46999998093E+01 0. -1.
       -5    1    3    3    0  502  0.45139455583E+03  0.71349390033E+03 -0.24713801307E+04  0.26116225668E+04  0.46999998093E+01 0.  1.
</event>
<event>
 5   0  0.1211008E-06  0.3074238E+04  0.7818609E-02  0.8222844E-01
        1   -1    0    0  501    0  0.00000000000E+00  0.00000000000E+00  0.22223917789E+04  0.22223917789E+04  0.50400001928E-02 0.  1.
       -1   -1    0    0    0  501  0.00000000000E+00  0.00000000000E+00 -0.10631497536E+04  0.10631497536E+04  0.50400001928E-02 0. -1.
    10030    2    1    2    0    0  0.00000000000E+00  0.00000000000E+00  0.11592420253E+04  0.32855415325E+04  0.30742382941E+04 0.  0.
        3    1    3    3  502    0 -0.81598340715E+03  0.12940576040E+04  0.41994900914E+03  0.15864334791E+04  0.10100000352E+00 0.  1.
       -3    1    3    3    0  502  0.81598340715E+03 -0.12940576040E+04  0.73929301612E+03  0.16991080534E+04  0.10100000352E+00 0. -1.
</event>
<event>
 5   0  0.3374790E-06  0.3162933E+04  0.7818609E-02  0.8198676E-01
       -2   -1    0    0    0  501  0.00000000000E+00  0.00000000000E+00  0.17114935456E+04  0.17114935456E+04  0.25500000920E-02 0. -1.
        2   -1    0    0  501    0  0.00000000000E+00  0.00000000000E+00 -0.14613177456E+04  0.14613177456E+04  0.25500000920E-02 0.  1.
    10030    2    1    2    0    0  0.00000000000E+00  0.00000000000E+00  0.25017580007E+03  0.31728112912E+04  0.31629327465E+04 0.  0.
        2    1    3    3  502    0  0.15614682512E+01  0.43501526360E+03  0.16502955012E+04  0.17066680870E+04  0.25500000920E-02 0. -1.
       -2    1    3    3    0  502 -0.15614682512E+01 -0.43501526360E+03 -0.14001197012E+04  0.14661432042E+04  0.25500000920E-02 0.  1.
</event>
<event>
 5   0  0.3441897E-06  0.3094864E+04  0.7818609E-02  0.8217149E-01
        2   -1    0    0  501    0  0.00000000000E+00  0.00000000000E+00  0.20087243188E+04  0.20087243188E+04  0.25500000920E-02 0. -1.
       -2   -1    0    0    0  501  0.00000000000E+00  0.00000000000E+00 -0.11920732252E+04  0.11920732252E+04  0.25500000920E-02 0.  1.
    10030    2    1    2    0    0  0.00000000000E+00  0.00000000000E+00  0.81665109366E+03  0.32007975440E+04  0.30948644411E+04 0.  0.
        5    1    3    3  502    0 -0.43114131519E+03 -0.20260070870E+03  0.19309948581E+04  0.19888924337E+04  0.46999998093E+01 0. -1.
       -5    1    3    3    0  502  0.43114131519E+03  0.20260070870E+03 -0.11143437645E+04  0.12119051102E+04  0.46999998093E+01 0.  1.
</event>
<event>
 5   0  0.3445410E-06  0.3097045E+04  0.7818609E-02  0.8216549E-01
        2   -1    0    0  501    0  0.00000000000E+00  0.00000000000E+00  0.18709394297E+04  0.18709394297E+04  0.25500000920E-02 0. -1.
       -2   -1    0    0    0  501  0.00000000000E+00  0.00000000000E+00 -0.12816676632E+04  0.12816676632E+04  0.25500000920E-02 0.  1.
    10030    2    1    2    0    0  0.00000000000E+00  0.00000000000E+00  0.58927176653E+03  0.31526070929E+04  0.30970454093E+04 0.  0.
        1    1    3    3  502    0 -0.86261219019E+03  0.12797897820E+04  0.42323880265E+03  0.16003414513E+04  0.50400001928E-02 0. -1.
       -1    1    3    3    0  502  0.86261219019E+03 -0.12797897820E+04  0.16603296388E+03  0.15522656415E+04  0.50400001928E-02 0.  1.
</event>
<event>
 5   0  0.3445959E-06  0.3110535E+04  0.7818609E-02  0.8212853E-01
        2   -1    0    0  501    0  0.00000000000E+00  0.00000000000E+00  0.21828641729E+04  0.21828641729E+04  0.25500000920E-02 0.  1.
       -2   -1    0    0    0  501  0.00000000000E+00  0.00000000000E+00 -0.11081112146E+04  0.11081112146E+04  0.25500000920E-02 0. -1.
    10030    2    1    2    0    0  0.00000000000E+00  0.00000000000E+00  0.10747529583E+04  0.32909753875E+04  0.31105345327E+04 0.  0.
        4    1    3    3  502    0  0.11261125401E+04  0.74855422947E+03 -0.27556588159E+03  0.13800003824E+04  0.12699999809E+01 0. -1.
       -4    1    3    3    0  502 -0.11261125401E+04 -0.74855422947E+03  0.13503188399E+04  0.19109750050E+04  0.12699999809E+01 0.  1.
</event>
<event>
 5   0  0.3441897E-06  0.3079211E+04  0.7818609E-02  0.8221466E-01
       -2   -1    0    0    0  501  0.00000000000E+00  0.00000000000E+00  0.16521165734E+04  0.16521165734E+04  0.25500000920E-02 0. -1.
        2   -1    0    0  501    0  0.00000000000E+00  0.00000000000E+00 -0.14347569852E+04  0.14347569852E+04  0.25500000920E-02 0.  1.
    10030    2    1    2    0    0  0.00000000000E+00  0.00000000000E+00  0.21735958817E+03  0.30868735585E+04  0.30792114536E+04 0.  0.
        5    1    3    3  502    0  0.96148924602E+03 -0.83177219626E+03 -0.76184562631E+03  0.14821394688E+04  0.46999998093E+01 0.  1.
       -5    1    3    3    0  502 -0.96148924602E+03  0.83177219626E+03  0.97920521448E+03  0.16047340897E+04  0.46999998093E+01 0. -1.
</event>
<event>
 5   0  0.3340899E-06  0.3338439E+04  0.7818609E-02  0.8153183E-01
       -2   -1    0    0    0  501  0.00000000000E+00  0.00000000000E+00  0.17417066916E+04  0.17417066916E+04  0.25500000920E-02 0. -1.
        2   -1    0    0  501    0  0.00000000000E+00  0.00000000000E+00 -0.15997494431E+04  0.15997494431E+04  0.25500000920E-02 0.  1.
    10030    2    1    2    0    0  0.00000000000E+00  0.00000000000E+00  0.14195724848E+03  0.33414561347E+04  0.33384393419E+04 0.  0.
        3    1    3    3  502    0 -0.11078155003E+04 -0.12273382324E+03  0.13146695925E+04  0.17235645975E+04  0.10100000352E+00 0. -1.
       -3    1    3    3    0  502  0.11078155003E+04  0.12273382324E+03 -0.11727123440E+04  0.16178915372E+04  0.10100000352E+00 0.  1.
</event>
<event>
 5   0  0.1235960E-06  0.3124350E+04  0.7818609E-02  0.8209087E-01
       -1   -1    0    0    0  501  0.00000000000E+00  0.00000000000E+00  0.34194163405E+04  0.34194163405E+04  0.50400001928E-02 0.  1.
        1   -1    0    0  501    0  0.00000000000E+00  0.00000000000E+00 -0.71368615880E+03  0.71368615882E+03  0.50400001928E-02 0. -1.
    10030    2    1    2    0    0  0.00000000000E+00  0.00000000000E+00  0.27057301817E+04  0.41331024993E+04  0.31243496049E+04 0.  0.
        4    1    3    3  502    0  0.52272157596E+03 -0.14637214472E+04  0.11450855861E+04  0.19305286668E+04  0.12699999809E+01 0. -1.
       -4    1    3    3    0  502 -0.52272157596E+03  0.14637214472E+04  0.15606445955E+04  0.22025738325E+04  0.12699999809E+01 0.  1.
</event>
<event>
 5   0  0.3441897E-06  0.3055871E+04  0.7818609E-02  0.8227954E-01
        2   -1    0    0  501    0  0.00000000000E+00  0.00000000000E+00  0.22150450876E+04  0.22150450876E+04  0.25500000920E-02 0. -1.
       -2   -1    0    0    0  501  0.00000000000E+00  0.00000000000E+00 -0.10539683399E+04  0.10539683399E+04  0.25500000920E-02 0.  1.
    10030    2    1    2    0    0  0.00000000000E+00  0.00000000000E+00  0.11610767477E+04  0.32690134276E+04  0.30558713284E+04 0.  0.
        5    1    3    3  502    0  0.45887986031E+03 -0.86941222187E+03  0.18317859669E+04  0.20789204545E+04  0.46999998093E+01 0. -1.
       -5    1    3    3    0  502 -0.45887986031E+03  0.86941222187E+03 -0.67070921922E+03  0.11900929730E+04  0.46999998093E+01 0.  1.
</event>
<event>
 5   0  0.1250276E-06  0.3127797E+04  0.7818609E-02  0.8208150E-01
        1   -1    0    0  501    0  0.00000000000E+00  0.00000000000E+00  0.22693256400E+04  0.22693256400E+04  0.50400001928E-02 0. -1.
       -1   -1    0    0    0  501  0.00000000000E+00  0.00000000000E+00 -0.10777559658E+04  0.10777559658E+04  0.50400001928E-02 0.  1.
    10030    2    1    2    0    0  0.00000000000E+00  0.00000000000E+00  0.11915696742E+04  0.33470816058E+04  0.31277974659E+04 0.  0.
        5    1    3    3  502    0 -0.83704883542E+02 -0.10226141361E+03 -0.10717627804E+04  0.10798895553E+04  0.46999998093E+01 0.  1.
       -5    1    3    3    0  502  0.83704883542E+02  0.10226141361E+03  0.22633324546E+04  0.22671920506E+04  0.46999998093E+01 0. -1.
</event>
<event>
 5   0  0.1250276E-06  0.3081923E+04  0.7818609E-02  0.8220717E-01
       -1   -1    0    0    0  501  0.00000000000E+00  0.00000000000E+00  0.17639948870E+04  0.17639948870E+04  0.50400001928E-02 0. -1.
        1   -1    0    0  501    0  0.00000000000E+00  0.00000000000E+00 -0.13461277627E+04  0.13461277627E+04  0.50400001928E-02 0.  1.
    10030    2    1    2    0    0  0.00000000000E+00  0.00000000000E+00  0.41786712436E+03  0.31101226497E+04  0.30819230949E+04 0.  0.
        5    1    3    3  502    0 -0.46061439394E+03 -0.37817703403E+03  0.16429768509E+04  0.17477352521E+04  0.46999998093E+01 0. -1.
       -5    1    3    3    0  502  0.46061439394E+03  0.37817703403E+03 -0.12251097266E+04  0.13623873976E+04  0.46999998093E+01 0.  1.
</event>
<event>
 5   0  0.1250276E-06  0.3093746E+04  0.7818609E-02  0.8217456E-01
        1   -1    0    0  501    0  0.00000000000E+00  0.00000000000E+00  0.12961879938E+04  0.12961879938E+04  0.50400001928E-02 0. -1.
       -1   -1    0    0    0  501  0.00000000000E+00  0.00000000000E+00 -0.18460405492E+04  0.18460405492E+04  0.50400001928E-02 0.  1.
    10030    2    1    2    0    0  0.00000000000E+00  0.00000000000E+00 -0.54985255536E+03  0.31422285430E+04  0.30937456883E+04 0.  0.
        5    1    3    3  502    0  0.76210400007E+03  0.13375460714E+04 -0.12102106005E+03  0.15441826922E+04  0.46999998093E+01 0. -1.
       -5    1    3    3    0  502 -0.76210400007E+03 -0.13375460714E+04 -0.42883149531E+03  0.15980458508E+04  0.46999998093E+01 0.  1.
</event>
<event>
 5   0  0.1198763E-06  0.2947830E+04  0.7818609E-02  0.8258787E-01
        1   -1    0    0  501    0  0.00000000000E+00  0.00000000000E+00  0.13090409880E+04  0.13090409880E+04  0.50400001928E-02 0. -1.
       -1   -1    0    0    0  501  0.00000000000E+00  0.00000000000E+00 -0.16595546962E+04  0.16595546962E+04  0.50400001928E-02 0.  1.
    10030    2    1    2    0    0  0.00000000000E+00  0.00000000000E+00 -0.35051370823E+03  0.29685956842E+04  0.29478297910E+04 0.  0.
        1    1    3    3  502    0  0.12870288603E+04 -0.50360885476E+03  0.34056224739E+03  0.14233930624E+04  0.50400001928E-02 0. -1.
       -1    1    3    3    0  502 -0.12870288603E+04  0.50360885476E+03 -0.69107595563E+03  0.15452026218E+04  0.50400001928E-02 0.  1.
</event>
<event>
 5   0  0.3340899E-06  0.3052280E+04  0.7818609E-02  0.8228958E-01
       -2   -1    0    0    0  501  0.00000000000E+00  0.00000000000E+00  0.12728850619E+04  0.12728850619E+04  0.25500000920E-02 0.  1.
        2   -1    0    0  501    0  0.00000000000E+00  0.00000000000E+00 -0.18297825879E+04  0.18297825879E+04  0.25500000920E-02 0. -1.
    10030    2    1    2    0    0  0.00000000000E+00  0.00000000000E+00 -0.55689752601E+03  0.31026676498E+04  0.30522797530E+04 0.  0.
        3    1    3    3  502    0  0.27170815374E+02  0.18627645333E+03 -0.18179356205E+04  0.18276561768E+04  0.10100000352E+00 0. -1.
       -3    1    3    3    0  502 -0.27170815374E+02 -0.18627645333E+03  0.12610380945E+04  0.12750114730E+04  0.10100000352E+00 0.  1.
</event>
<event>
 5   0  0.1171915E-06  0.3071526E+04  0.7818609E-02  0.8223596E-01
        1   -1    0    0  501    0  0.00000000000E+00  0.00000000000E+00  0.25840248898E+04  0.25840248898E+04  0.50400001928E-02 0.  1.
       -1   -1    0    0    0  501  0.00000000000E+00  0.00000000000E+00 -0.91274998831E+03  0.91274998832E+03  0.50400001928E-02 0. -1.
    10030    2    1    2    0    0  0.00000000000E+00  0.00000000000E+00  0.16712749015E+04  0.34967748781E+04  0.30715264531E+04 0.  0.
        2    1    3    3  502    0  0.11462006998E+04 -0.62446184509E+03 -0.85620033742E+02  0.13080747037E+04  0.25500000920E-02 0. -1.
       -2    1    3    3    0  502 -0.11462006998E+04  0.62446184509E+03  0.17568949352E+04  0.21887001744E+04  0.25500000920E-02 0.  1.
</event>
<event>
 5   0  0.1235960E-06  0.3106948E+04  0.7818609E-02  0.8213834E-01
        1   -1    0    0  501    0  0.00000000000E+00  0.00000000000E+00  0.13421206176E+04  0.13421206176E+04  0.50400001928E-02 0.  1.
       -1   -1    0    0    0  501  0.00000000000E+00  0.00000000000E+00 -0.17981103994E+04  0.17981103994E+04  0.50400001928E-02 0. -1.
    10030    2    1    2    0    0  0.00000000000E+00  0.00000000000E+00 -0.45598978182E+03  0.31402310170E+04  0.31069477239E+04 0.  0.
        4    1    3    3  502    0 -0.92752375250E+03 -0.68497318091E+03  0.82421018929E+03  0.14173258690E+04  0.12699999809E+01 0.  1.
       -4    1    3    3    0  502  0.92752375250E+03  0.68497318091E+03 -0.12801999711E+04  0.17229051480E+04  0.12699999809E+01 0. -1.
</event>
<event>
 5   0  0.3374790E-06  0.3075463E+04  0.7818609E-02  0.8222504E-01
        2   -1    0    0  501    0  0.00000000000E+00  0.00000000000E+00  0.19274841468E+04  0.19274841468E+04  0.25500000920E-02 0.  1.
       -2   -1    0    0    0  501  0.00000000000E+00  0.00000000000E+00 -0.12267898516E+04  0.12267898516E+04  0.25500000920E-02 0. -1.
    10030    2    1    2    0    0  0.00000000000E+00  0.00000000000E+00  0.70069429517E+03  0.31542739984E+04  0.30754628857E+04 0.  0.
        2    1    3    3  502    0  0.34216502616E+03 -0.96924100419E+03  0.15233837129E+04  0.18377167807E+04  0.25500000920E-02 0.  1.
       -2    1    3    3    0  502 -0.34216502616E+03  0.96924100419E+03 -0.82268941774E+03  0.13165572177E+04  0.25500000920E-02 0. -1.
</event>
<event>
 5   0  0.3374790E-06  0.3107417E+04  0.7818609E-02  0.8213705E-01
       -2   -1    0    0    0  501  0.00000000000E+00  0.00000000000E+00  0.20484434027E+04  0.20484434027E+04  0.25500000920E-02 0. -1.
        2   -1    0    0  501    0  0.00000000000E+00  0.00000000000E+00 -0.11784607381E+04  0.11784607381E+04  0.25500000920E-02 0.  1.
    10030    2    1    2    0    0  0.00000000000E+00  0.00000000000E+00  0.86998266461E+03  0.32269041407E+04  0.31074170137E+04 0.  0.
        2    1    3    3  502    0 -0.13276979567E+04 -0.98576058443E+01 -0.40296375212E+03  0.13875369625E+04  0.25500000920E-02 0.  1.
       -2    1    3    3    0  502  0.13276979567E+04  0.98576058443E+01  0.12729464167E+04  0.18393671783E+04  0.25500000920E-02 0. -1.
</event>
<event>
 5   0  0.1198763E-06  0.3050283E+04  0.7818609E-02  0.8229516E-01
       -1   -1    0    0    0  501  0.00000000000E+00  0.00000000000E+00  0.20368087835E+04  0.20368087835E+04  0.50400001928E-02 0. -1.
        1   -1    0    0  501    0  0.00000000000E+00  0.00000000000E+00 -0.11420099303E+04  0.11420099303E+04  0.50400001928E-02 0.  1.
    10030    2    1    2    0    0  0.00000000000E+00  0.00000000000E+00  0.89479885320E+03  0.31788187138E+04  0.30502825161E+04 0.  0.
        1    1    3    3  502    0 -0.67094927007E+02 -0.31981146076E+03  0.19998980807E+04  0.20264188690E+04  0.50400001928E-02 0. -1.
       -1    1    3    3    0  502  0.67094927007E+02  0.31981146076E+03 -0.11050992275E+04  0.11523998448E+04  0.50400001928E-02 0.  1.
</event>
<event>
 5   0  0.3441897E-06  0.3059464E+04  0.7818609E-02  0.8226952E-01
       -2   -1    0    0    0  501  0.00000000000E+00  0.00000000000E+00  0.18218717566E+04  0.18218717566E+04  0.25500000920E-02 0.  1.
        2   -1    0    0  501    0  0.00000000000E+00  0.00000000000E+00 -0.12844370394E+04  0.12844370394E+04  0.25500000920E-02 0. -1.
    10030    2    1    2    0    0  0.00000000000E+00  0.00000000000E+00  0.53743471714E+03  0.31063087960E+04  0.30594637212E+04 0.  0.
        5    1    3    3  502    0  0.73704443539E+03  0.10249966697E+04 -0.60834069062E+03  0.14014111312E+04  0.46999998093E+01 0. -1.
       -5    1    3    3    0  502 -0.73704443539E+03 -0.10249966697E+04  0.11457754078E+04  0.17048976649E+04  0.46999998093E+01 0.  1.
</event>
<event>
 5   0  0.1211008E-06  0.3123283E+04  0.7818609E-02  0.8209377E-01
        1   -1    0    0  501    0  0.00000000000E+00  0.00000000000E+00  0.17228906280E+04  0.17228906280E+04  0.50400001928E-02 0. -1.
       -1   -1    0    0    0  501  0.00000000000E+00  0.00000000000E+00 -0.14154841135E+04  0.14154841135E+04  0.50400001928E-02 0.  1.
    10030    2    1    2    0    0  0.00000000000E+00  0.00000000000E+00  0.30740651451E+03  0.31383747415E+04  0.31232830889E+04 0.  0.
        3    1    3    3  502    0 -0.30261806328E+03 -0.75905160523E+03 -0.11835115286E+04  0.14382060284E+04  0.10100000352E+00 0.  1.
       -3    1    3    3    0  502  0.30261806328E+03  0.75905160523E+03  0.14909180431E+04  0.17001687131E+04  0.10100000352E+00 0. -1.
</event>
<event>
 5   0  0.3445959E-06  0.3103249E+04  0.7818609E-02  0.8214847E-01
       -2   -1    0    0    0  501  0.00000000000E+00  0.00000000000E+00  0.13282058891E+04  0.13282058891E+04  0.25500000920E-02 0.  1.
        2   -1    0    0  501    0  0.00000000000E+00  0.00000000000E+00 -0.18126248866E+04  0.18126248866E+04  0.25500000920E-02 0. -1.
    10030    2    1    2    0    0  0.00000000000E+00  0.00000000000E+00 -0.48441899753E+03  0.31408307758E+04  0.31032492966E+04 0.  0.
        4    1    3    3  502    0 -0.13572746741E+04  0.59305825175E+03  0.22558349419E+03  0.14982663837E+04  0.12699999809E+01 0.  1.
       -4    1    3    3    0  502  0.13572746741E+04 -0.59305825175E+03 -0.71000249172E+03  0.16425643920E+04  0.12699999809E+01 0. -1.
</event>
<event>
 5   0  0.1171915E-06  0.3089354E+04  0.7818609E-02  0.8218666E-01
       -1   -1    0    0    0  501  0.00000000000E+00  0.00000000000E+00  0.25643102996E+04  0.25643102996E+04  0.50400001928E-02 0. -1.
        1   -1    0    0  501    0  0.00000000000E+00  0.00000000000E+00 -0.93047524843E+03  0.93047524844E+03  0.50400001928E-02 0.  1.
    10030    2    1    2    0    0  0.00000000000E+00  0.00000000000E+00  0.16338350512E+04  0.34947855480E+04  0.30893541481E+04 0.  0.
        2    1    3    3  502    0 -0.10181408571E+04 -0.63879810902E+03  0.19144798486E+04  0.22605103229E+04  0.25500000920E-02 0. -1.
       -2    1    3    3    0  502  0.10181408571E+04  0.63879810902E+03 -0.28064479748E+03  0.12342752251E+04  0.25500000920E-02 0.  1.
</event>
<event>
 5   0  0.1198763E-06  0.3107459E+04  0.7818609E-02  0.8213694E-01
       -1   -1    0    0    0  501  0.00000000000E+00  0.00000000000E+00  0.14652672410E+04  0.14652672410E+04  0.50400001928E-02 0.  1.
        1   -1    0    0  501    0  0.00000000000E+00  0.00000000000E+00 -0.16475323088E+04  0.16475323088E+04  0.50400001928E-02 0. -1.
    10030    2    1    2    0    0  0.00000000000E+00  0.00000000000E+00 -0.18226506788E+03  0.31127995498E+04  0.31074588464E+04 0.  0.
        1    1    3    3  502    0  0.11636513017E+03  0.43415506302E+03 -0.15809827776E+04  0.16436356060E+04  0.50400001928E-02 0. -1.
       -1    1    3    3    0  502 -0.11636513017E+03 -0.43415506302E+03  0.13987177097E+04  0.14691639438E+04  0.50400001928E-02 0.  1.
</event>
<event>
 5   0  0.1198763E-06  0.2968111E+04  0.7818609E-02  0.8252896E-01
       -1   -1    0    0    0  501  0.00000000000E+00  0.00000000000E+00  0.11654631520E+04  0.11654631520E+04  0.50400001928E-02 0. -1.
        1   -1    0    0  501    0  0.00000000000E+00  0.00000000000E+00 -0.18897387955E+04  0.18897387955E+04  0.50400001928E-02 0.  1.
    10030    2    1    2    0    0  0.00000000000E+00  0.00000000000E+00 -0.72427564347E+03  0.30552019475E+04  0.29681111388E+04 0.  0.
        1    1    3    3  502    0  0.17060065702E+02 -0.38156749591E+03 -0.18382791367E+04  0.18775396093E+04  0.50400001928E-02 0.  1.
       -1    1    3    3    0  502 -0.17060065702E+02  0.38156749591E+03  0.11140034933E+04  0.11776623382E+04  0.50400001928E-02 0. -1.
</event>
<event>
 5   0  0.1211008E-06  0.3060021E+04  0.7818609E-02  0.8226796E-01
        1   -1    0    0  501    0  0.00000000000E+00  0.00000000000E+00  0.18770630450E+04  0.18770630450E+04  0.50400001928E-02 0.  1.
       -1   -1    0    0    0  501  0.00000000000E+00  0.00000000000E+00 -0.12471251365E+04  0.12471251365E+04  0.50400001928E-02 0. -1.
    10030    2    1    2    0    0  0.00000000000E+00  0.00000000000E+00  0.62993790853E+03  0.31241881816E+04  0.30600212459E+04 0.  0.
        3    1    3    3  502    0 -0.14761915120E+04 -0.30899295915E+03  0.57788487538E+03  0.16151064882E+04  0.10100000352E+00 0.  1.
       -3    1    3    3    0  502  0.14761915120E+04  0.30899295915E+03  0.52053033153E+02  0.15090816934E+04  0.10100000352E+00 0. -1.
</event>
<event>
 5   0  0.3445959E-06  0.3077632E+04  0.7818609E-02  0.8221904E-01
        2   -1    0    0  501    0  0.00000000000E+00  0.00000000000E+00  0.18197433796E+04  0.18197433796E+04  0.25500000920E-02 0.  1.
       -2   -1    0    0    0  501  0.00000000000E+00  0.00000000000E+00 -0.13012574351E+04  0.13012574351E+04  0.25500000920E-02 0. -1.
    10030    2    1    2    0    0  0.00000000000E+00  0.00000000000E+00  0.51848594447E+03  0.31210008147E+04  0.30776319486E+04 0.  0.
        4    1    3    3  502    0  0.63865879386E+03 -0.13317609769E+04  0.69716225646E+03  0.16332511073E+04  0.12699999809E+01 0.  1.
       -4    1    3    3    0  502 -0.63865879386E+03  0.13317609769E+04 -0.17867631199E+03  0.14877497074E+04  0.12699999809E+01 0. -1.
</event>
<event>
 5   0  0.3445410E-06  0.3038846E+04  0.7818609E-02  0.8232724E-01
        2   -1    0    0  501    0  0.00000000000E+00  0.00000000000E+00  0.16842686344E+04  0.16842686344E+04  0.25500000920E-02 0.  1.
       -2   -1    0    0    0  501  0.00000000000E+00  0.00000000000E+00 -0.13707116089E+04  0.13707116089E+04  0.25500000920E-02 0. -1.
    10030    2    1    2    0    0  0.00000000000E+00  0.00000000000E+00  0.31355702556E+03  0.30549802433E+04  0.30388462085E+04 0.  0.
        1    1    3    3  502    0  0.39181984921E+01 -0.72377156332E+03 -0.11862732542E+04  0.13896419905E+04  0.50400001928E-02 0. -1.
       -1    1    3    3    0  502 -0.39181984921E+01  0.72377156332E+03  0.14998302797E+04  0.16653382528E+04  0.50400001928E-02 0.  1.
</event>
<event>
 5   0  0.1171915E-06  0.3059988E+04  0.7818609E-02  0.8226806E-01
        1   -1    0    0  501    0  0.00000000000E+00  0.00000000000E+00  0.18418236526E+04  0.18418236526E+04  0.50400001928E-02 0. -1.
       -1   -1    0    0    0  501  0.00000000000E+00  0.00000000000E+00 -0.12709582834E+04  0.12709582834E+04  0.50400001928E-02 0.  1.
    10030    2    1    2    0    0  0.00000000000E+00  0.00000000000E+00  0.57086536920E+03  0.31127819360E+04  0.30599875998E+04 0.  0.
        2    1    3    3  502    0  0.11402137536E+04 -0.60287919947E+03  0.11226328033E+04  0.17099284032E+04  0.25500000920E-02 0. -1.
       -2    1    3    3    0  502 -0.11402137536E+04  0.60287919947E+03 -0.55176743406E+03  0.14028535328E+04  0.25500000920E-02 0.  1.
</event>
<event>
 5   0  0.1171915E-06  0.3105133E+04  0.7818609E-02  0.8214331E-01
        1   -1    0    0  501    0  0.00000000000E+00  0.00000000000E+00  0.17454625799E+04  0.17454625799E+04  0.50400001928E-02 0.  1.
       -1   -1    0    0    0  501  0.00000000000E+00  0.00000000000E+00 -0.13809876237E+04  0.13809876237E+04  0.50400001928E-02 0. -1.
    10030    2    1    2    0    0  0.00000000000E+00  0.00000000000E+00  0.36447495618E+03  0.31264502036E+04  0.31051326674E+04 0.  0.
        2    1    3    3  502    0  0.43337191800E+02  0.97416612144E+03 -0.10341893040E+04  0.14214166388E+04  0.25500000920E-02 0. -1.
       -2    1    3    3    0  502 -0.43337191800E+02 -0.97416612144E+03  0.13986642602E+04  0.17050335648E+04  0.25500000920E-02 0.  1.
</event>
<event>
 5   0  0.1109562E-06  0.3094156E+04  0.7818609E-02  0.8217344E-01
        3   -1    0    0  501    0  0.00000000000E+00  0.00000000000E+00  0.12160296402E+04  0.12160296444E+04  0.10100000352E+00 0.  1.
       -3   -1    0    0    0  501  0.00000000000E+00  0.00000000000E+00 -0.19682494097E+04  0.19682494123E+04  0.10100000352E+00 0. -1.
    10030    2    1    2    0    0  0.00000000000E+00  0.00000000000E+00 -0.75221976954E+03  0.31842790567E+04  0.30941555438E+04 0.  0.
        4    1    3    3  502    0 -0.58695642565E+03  0.10364384613E+04  0.63992855789E+03  0.13521215558E+04  0.12699999809E+01 0.  1.
       -4    1    3    3    0  502  0.58695642565E+03 -0.10364384613E+04 -0.13921483274E+04  0.18321575009E+04  0.12699999809E+01 0. -1.
</event>
<event>
 5   0  0.3445959E-06  0.3102640E+04  0.7818609E-02  0.8215014E-01
        2   -1    0    0  501    0  0.00000000000E+00  0.00000000000E+00  0.11659849797E+04  0.11659849797E+04  0.25500000920E-02 0.  1.
       -2   -1    0    0    0  501  0.00000000000E+00  0.00000000000E+00 -0.20640007187E+04  0.20640007187E+04  0.25500000920E-02 0. -1.
    10030    2    1    2    0    0  0.00000000000E+00  0.00000000000E+00 -0.89801573907E+03  0.32299856984E+04  0.31026400604E+04 0.  0.
        4    1    3    3  502    0  0.28958883287E+03  0.13851141068E+04 -0.11108610897E+04  0.17990043787E+04  0.12699999809E+01 0. -1.
       -4    1    3    3    0  502 -0.28958883287E+03 -0.13851141068E+04  0.21284535061E+03  0.14309813197E+04  0.12699999809E+01 0.  1.
</event>
<event>
 5   0  0.1211008E-06  0.3115971E+04  0.7818609E-02  0.8211368E-01
        1   -1    0    0  501    0  0.00000000000E+00  0.00000000000E+00  0.16214257947E+04  0.16214257947E+04  0.50400001928E-02 0.  1.
       -1   -1    0    0    0  501  0.00000000000E+00  0.00000000000E+00 -0.14970273855E+04  0.14970273855E+04  0.50400001928E-02 0. -1.
    10030    2    1    2    0    0  0.00000000000E+00  0.00000000000E+00  0.12439840914E+03  0.31184531802E+04  0.31159710000E+04 0.  0.
        3    1    3    3  502    0  0.27450422088E+03  0.15230443469E+04  0.24207038708E+03  0.15664018426E+04  0.10100000352E+00 0.  1.
       -3    1    3    3    0  502 -0.27450422088E+03 -0.15230443469E+04 -0.11767197793E+03  0.15520513376E+04  0.10100000352E+00 0. -1.
</event>
<event>
 5   0  0.3445959E-06  0.2906114E+04  0.7818609E-02  0.8271061E-01
       -2   -1    0    0    0  501  0.00000000000E+00  0.00000000000E+00  0.10283644614E+04  0.10283644614E+04  0.25500000920E-02 0. -1.
        2   -1    0    0  501    0  0.00000000000E+00  0.00000000000E+00 -0.20531378889E+04  0.20531378889E+04  0.25500000920E-02 0.  1.
    10030    2    1    2    0    0  0.00000000000E+00  0.00000000000E+00 -0.10247734276E+04  0.30815023503E+04  0.29061135829E+04 0.  0.
        4    1    3    3  502    0 -0.14014594772E+04 -0.23206942144E+03 -0.83649294791E+03  0.16485347880E+04  0.12699999809E+01 0. -1.
       -4    1    3    3    0  502  0.14014594772E+04  0.23206942144E+03 -0.18828047965E+03  0.14329675623E+04  0.12699999809E+01 0.  1.
</event>
<event>
 5   0  0.1211008E-06  0.3083846E+04  0.7818609E-02  0.8220185E-01
        1   -1    0    0  501    0  0.00000000000E+00  0.00000000000E+00  0.78543122890E+03  0.78543122891E+03  0.50400001928E-02 0. -1.
       -1   -1    0    0    0  501  0.00000000000E+00  0.00000000000E+00 -0.30270341122E+04  0.30270341122E+04  0.50400001928E-02 0.  1.
    10030    2    1    2    0    0  0.00000000000E+00  0.00000000000E+00 -0.22416028833E+04  0.38124653411E+04  0.30838463792E+04 0.  0.
        3    1    3    3  502    0  0.10458584369E+04 -0.96054775274E+03 -0.18636495213E+04  0.23430026470E+04  0.10100000352E+00 0.  1.
       -3    1    3    3    0  502 -0.10458584369E+04  0.96054775274E+03 -0.37795336196E+03  0.14694626941E+04  0.10100000352E+00 0. -1.
</event>
<event>
 5   0  0.1211008E-06  0.3197958E+04  0.7818609E-02  0.8189357E-01
       -1   -1    0    0    0  501  0.00000000000E+00  0.00000000000E+00  0.12335646552E+04  0.12335646553E+04  0.50400001928E-02 0.  1.
        1   -1    0    0  501    0  0.00000000000E+00  0.00000000000E+00 -0.20726383738E+04  0.20726383738E+04  0.50400001928E-02 0. -1.
    10030    2    1    2    0    0  0.00000000000E+00  0.00000000000E+00 -0.83907371852E+03  0.33062030290E+04  0.31979577490E+04 0.  0.
        3    1    3    3  502    0  0.72157874145E+03  0.53404742222E+03 -0.17875219996E+04  0.20002793401E+04  0.10100000352E+00 0. -1.
       -3    1    3    3    0  502 -0.72157874145E+03 -0.53404742222E+03  0.94844828105E+03  0.13059236889E+04  0.10100000352E+00 0.  1.
</event>
<event>
 5   0  0.3445959E-06  0.3091794E+04  0.7818609E-02  0.8217994E-01
        2   -1    0    0  501    0  0.00000000000E+00  0.00000000000E+00  0.24561142581E+04  0.24561142581E+04  0.25500000920E-02 0.  1.
       -2   -1    0    0    0  501  0.00000000000E+00  0.00000000000E+00 -0.97299918861E+03  0.97299918861E+03  0.25500000920E-02 0. -1.
    10030    2    1    2    0    0  0.00000000000E+00  0.00000000000E+00  0.14831150695E+04  0.34291134467E+04  0.30917937708E+04 0.  0.
        4    1    3    3  502    0 -0.54996168746E+03 -0.38318635374E+03 -0.80344366974E+03  0.10463331127E+04  0.12699999809E+01 0. -1.
       -4    1    3    3    0  502  0.54996168746E+03  0.38318635374E+03  0.22865587392E+04  0.23827803340E+04  0.12699999809E+01 0.  1.
</event>
<event>
 5   0  0.3445410E-06  0.3143303E+04  0.7818609E-02  0.8203953E-01
       -2   -1    0    0    0  501  0.00000000000E+00  0.00000000000E+00  0.14171012958E+04  0.14171012958E+04  0.25500000920E-02 0. -1.
        2   -1    0    0  501    0  0.00000000000E+00  0.00000000000E+00 -0.17430572111E+04  0.17430572111E+04  0.25500000920E-02 0.  1.
    10030    2    1    2    0    0  0.00000000000E+00  0.00000000000E+00 -0.32595591532E+03  0.31601585068E+04  0.31433031240E+04 0.  0.
        1    1    3    3  502    0 -0.12464981978E+04  0.93507554139E+03  0.42973174367E+02  0.15588363349E+04  0.50400001928E-02 0. -1.
       -1    1    3    3    0  502  0.12464981978E+04 -0.93507554139E+03 -0.36892908969E+03  0.16013221720E+04  0.50400001928E-02 0.  1.
</event>
<event>
 5   0  0.3374790E-06  0.3112475E+04  0.7818609E-02  0.8212323E-01
        2   -1    0    0  501    0  0.00000000000E+00  0.00000000000E+00  0.13128040393E+04  0.13128040393E+04  0.25500000920E-02 0.  1.
       -2   -1    0    0    0  501  0.00000000000E+00  0.00000000000E+00 -0.18448106545E+04  0.18448106545E+04  0.25500000920E-02 0. -1.
    10030    2    1    2    0    0  0.00000000000E+00  0.00000000000E+00 -0.53200661521E+03  0.31576146939E+04  0.31124748218E+04 0.  0.
        2    1    3    3  502    0  0.15247343387E+04 -0.18615035528E+03 -0.51944253703E+03  0.16215077267E+04  0.25500000920E-02 0.  1.
       -2    1    3    3    0  502 -0.15247343387E+04  0.18615035528E+03 -0.12564078181E+02  0.15361069672E+04  0.25500000920E-02 0. -1.
</event>
<event>
 5   0  0.3445959E-06  0.3074830E+04  0.7818609E-02  0.8222680E-01
       -2   -1    0    0    0  501  0.00000000000E+00  0.00000000000E+00  0.13217540524E+04  0.13217540524E+04  0.25500000920E-02 0. -1.
        2   -1    0    0  501    0  0.00000000000E+00  0.00000000000E+00 -0.17882636307E+04  0.17882636307E+04  0.25500000920E-02 0.  1.
    10030    2    1    2    0    0  0.00000000000E+00  0.00000000000E+00 -0.46650957828E+03  0.31100176831E+04  0.30748298819E+04 0.  0.
        4    1    3    3  502    0  0.10993906479E+04  0.95244798833E+03  0.27026356349E+03  0.14794799674E+04  0.12699999809E+01 0.  1.
       -4    1    3    3    0  502 -0.10993906479E+04 -0.95244798833E+03 -0.73677314177E+03  0.16305377158E+04  0.12699999809E+01 0. -1.
</event>
<event>
 5   0  0.1198763E-06  0.3154524E+04  0.7818609E-02  0.8200932E-01
       -1   -1    0    0    0  501  0.00000000000E+00  0.00000000000E+00  0.13311817093E+04  0.13311817093E+04  0.50400001928E-02 0.  1.
        1   -1    0    0  501    0  0.00000000000E+00  0.00000000000E+00 -0.18688325859E+04  0.18688325859E+04  0.50400001928E-02 0. -1.
    10030    2    1    2    0    0  0.00000000000E+00  0.00000000000E+00 -0.53765087659E+03  0.32000142952E+04  0.31545242153E+04 0.  0.
        1    1    3    3  502    0  0.20984822908E+03 -0.50353947155E+03 -0.17700882121E+04  0.18522420353E+04  0.50400001928E-02 0. -1.
       -1    1    3    3    0  502 -0.20984822908E+03  0.50353947155E+03  0.12324373355E+04  0.13477722599E+04  0.50400001928E-02 0.  1.
</event>
<event>
 5   0  0.1211008E-06  0.3038949E+04  0.7818609E-02  0.8232695E-01
       -1   -1    0    0    0  501  0.00000000000E+00  0.00000000000E+00  0.10317177846E+04  0.10317177846E+04  0.50400001928E-02 0.  1.
        1   -1    0    0  501    0  0.00000000000E+00  0.00000000000E+00 -0.22378246562E+04  0.22378246562E+04  0.50400001928E-02 0. -1.
    10030    2    1    2    0    0  0.00000000000E+00  0.00000000000E+00 -0.12061068716E+04  0.32695424407E+04  0.30389494873E+04 0.  0.
        3    1    3    3  502    0 -0.13364642827E+04 -0.72263486207E+03 -0.62626759322E+03  0.16433347290E+04  0.10100000352E+00 0.  1.
       -3    1    3    3    0  502  0.13364642827E+04  0.72263486207E+03 -0.57983927835E+03  0.16262077118E+04  0.10100000352E+00 0. -1.
</event>
<event>
 5   0  0.3374790E-06  0.3118637E+04  0.7818609E-02  0.8210642E-01
       -2   -1    0    0    0  501  0.00000000000E+00  0.00000000000E+00  0.13627715867E+04  0.13627715867E+04  0.25500000920E-02 0. -1.
        2   -1    0    0  501    0  0.00000000000E+00  0.00000000000E+00 -0.17842124750E+04  0.17842124750E+04  0.25500000920E-02 0.  1.
    10030    2    1    2    0    0  0.00000000000E+00  0.00000000000E+00 -0.42144088831E+03  0.31469840617E+04  0.31186369238E+04 0.  0.
        2    1    3    3  502    0  0.12842964751E+04 -0.25728418480E+03 -0.10644969962E+04  0.16878289139E+04  0.25500000920E-02 0.  1.
       -2    1    3    3    0  502 -0.12842964751E+04  0.25728418480E+03  0.64305610788E+03  0.14591551479E+04  0.25500000920E-02 0. -1.
</event>
<event>
 5   0  0.1171915E-06  0.3109667E+04  0.7818609E-02  0.8213090E-01
        1   -1    0    0  501    0  0.00000000000E+00  0.00000000000E+00  0.19109711459E+04  0.19109711459E+04  0.50400001928E-02 0.  1.
       -1   -1    0    0    0  501  0.00000000000E+00  0.00000000000E+00 -0.12650672119E+04  0.12650672119E+04  0.50400001928E-02 0. -1.
    10030    2    1    2    0    0  0.00000000000E+00  0.00000000000E+00  0.64590393398E+03  0.31760383578E+04  0.31096668243E+04 0.  0.
        2    1    3    3  502    0  0.11145931219E+03  0.43249544493E+03 -0.11981408957E+04  0.12786778696E+04  0.25500000920E-02 0. -1.
       -2    1    3    3    0  502 -0.11145931219E+03 -0.43249544493E+03  0.18440448297E+04  0.18973604882E+04  0.25500000920E-02 0.  1.
</event>
<event>
 5   0  0.1235960E-06  0.3117567E+04  0.7818609E-02  0.8210933E-01
        1   -1    0    0  501    0  0.00000000000E+00  0.00000000000E+00  0.20712344393E+04  0.20712344393E+04  0.50400001928E-02 0.  1.
       -1   -1    0    0    0  501  0.00000000000E+00  0.00000000000E+00 -0.11731194790E+04  0.11731194790E+04  0.50400001928E-02 0. -1.
    10030    2    1    2    0    0  0.00000000000E+00  0.00000000000E+00  0.89811496033E+03  0.32443539183E+04  0.31175666577E+04 0.  0.
        4    1    3    3  502    0 -0.30340004846E+01 -0.15293147477E+04  0.76297229779E+03  0.17090761080E+04  0.12699999809E+01 0.  1.
       -4    1    3    3    0  502  0.30340004846E+01  0.15293147477E+04  0.13514266254E+03  0.15352778103E+04  0.12699999809E+01 0. -1.
</event>
<event>
 5   0  0.1235960E-06  0.3179998E+04  0.7818609E-02  0.8194120E-01
       -1   -1    0    0    0  501  0.00000000000E+00  0.00000000000E+00  0.12313830575E+04  0.12313830575E+04  0.50400001928E-02 0. -1.
        1   -1    0    0  501    0  0.00000000000E+00  0.00000000000E+00 -0.20530553553E+04  0.20530553553E+04  0.50400001928E-02 0.  1.
    10030    2    1    2    0    0  0.00000000000E+00  0.00000000000E+00 -0.82167229781E+03  0.32844384129E+04  0.31799984785E+04 0.  0.
        4    1    3    3  502    0 -0.12000358024E+04 -0.97689100813E+03 -0.78848673908E+03  0.17366965536E+04  0.12699999809E+01 0.  1.
       -4    1    3    3    0  502  0.12000358024E+04  0.97689100813E+03 -0.33185558737E+02  0.15477418593E+04  0.12699999809E+01 0. -1.
</event>
<event>
 5   0  0.3374790E-06  0.3133727E+04  0.7818609E-02  0.8206542E-01
       -2   -1    0    0    0  501  0.00000000000E+00  0.00000000000E+00  0.97589604748E+03  0.97589604749E+03  0.25500000920E-02 0.  1.
        2   -1    0    0  501    0  0.00000000000E+00  0.00000000000E+00 -0.25156998677E+04  0.25156998677E+04  0.25500000920E-02 0. -1.
    10030    2    1    2    0    0  0.00000000000E+00  0.00000000000E+00 -0.15398038202E+04  0.34915959152E+04  0.31337272105E+04 0.  0.
        2    1    3    3  502    0  0.13207481494E+04  0.11518636206E+03 -0.17003868740E+04  0.21561444974E+04  0.25500000920E-02 0. -1.
       -2    1    3    3    0  502 -0.13207481494E+04 -0.11518636206E+03  0.16058305381E+03  0.13354514178E+04  0.25500000920E-02 0.  1.
</event>
<event>
 5   0  0.1198763E-06  0.3086018E+04  0.7818609E-02  0.8219586E-01
        1   -1    0    0  501    0  0.00000000000E+00  0.00000000000E+00  0.18972972388E+04  0.18972972388E+04  0.50400001928E-02 0. -1.
       -1   -1    0    0    0  501  0.00000000000E+00  0.00000000000E+00 -0.12548780314E+04  0.12548780314E+04  0.50400001928E-02 0.  1.
    10030    2    1    2    0    0  0.00000000000E+00  0.00000000000E+00  0.64241920746E+03  0.31521752702E+04  0.30860179027E+04 0.  0.
        1    1    3    3  502    0 -0.35249536574E+03  0.34894806554E+03  0.18136483081E+04  0.18802494305E+04  0.50400001928E-02 0. -1.
       -1    1    3    3    0  502  0.35249536574E+03 -0.34894806554E+03 -0.11712291007E+04  0.12719258397E+04  0.50400001928E-02 0.  1.
</event>
<event>
 5   0  0.3374790E-06  0.3105777E+04  0.7818609E-02  0.8214154E-01
        2   -1    0    0  501    0  0.00000000000E+00  0.00000000000E+00  0.12375947681E+04  0.12375947681E+04  0.25500000920E-02 0.  1.
       -2   -1    0    0    0  501  0.00000000000E+00  0.00000000000E+00 -0.19485075970E+04  0.19485075970E+04  0.25500000920E-02 0. -1.
    10030    2    1    2    0    0  0.00000000000E+00  0.00000000000E+00 -0.71091282891E+03  0.31861023650E+04  0.31057770735E+04 0.  0.
        2    1    3    3  502    0 -0.95763779152E+03  0.12167612017E+04 -0.47633795218E+03  0.16200233969E+04  0.25500000920E-02 0. -1.
       -2    1    3    3    0  502  0.95763779152E+03 -0.12167612017E+04 -0.23457487673E+03  0.15660789682E+04  0.25500000920E-02 0.  1.
</event>
<event>
 5   0  0.3374790E-06  0.3115857E+04  0.7818609E-02  0.8211399E-01
        2   -1    0    0  501    0  0.00000000000E+00  0.00000000000E+00  0.18292531909E+04  0.18292531909E+04  0.25500000920E-02 0. -1.
       -2   -1    0    0    0  501  0.00000000000E+00  0.00000000000E+00 -0.13268483112E+04  0.13268483112E+04  0.25500000920E-02 0.  1.
    10030    2    1    2    0    0  0.00000000000E+00  0.00000000000E+00  0.50240487969E+03  0.31561015021E+04  0.31158571900E+04 0.  0.
        2    1    3    3  502    0  0.36272443172E+03  0.99198026142E+03  0.14112223816E+04  0.17627088423E+04  0.25500000920E-02 0. -1.
       -2    1    3    3    0  502 -0.36272443172E+03 -0.99198026142E+03 -0.90881750194E+03  0.13933926598E+04  0.25500000920E-02 0.  1.
</event>
<event>
 5   0  0.3374790E-06  0.3109833E+04  0.7818609E-02  0.8213044E-01
        2   -1    0    0  501    0  0.00000000000E+00  0.00000000000E+00  0.22183913228E+04  0.22183913228E+04  0.25500000920E-02 0. -1.
       -2   -1    0    0    0  501  0.00000000000E+00  0.00000000000E+00 -0.10898733870E+04  0.10898733870E+04  0.25500000920E-02 0.  1.
    10030    2    1    2    0    0  0.00000000000E+00  0.00000000000E+00  0.11285179358E+04  0.33082647098E+04  0.31098332203E+04 0.  0.
        2    1    3    3  502    0  0.91233349291E+03 -0.65258786329E+03 -0.58127101247E+03  0.12633682407E+04  0.25500000920E-02 0.  1.
       -2    1    3    3    0  502 -0.91233349291E+03  0.65258786329E+03  0.17097889483E+04  0.20448964691E+04  0.25500000920E-02 0. -1.
</event>
<event>
 5   0  0.3445410E-06  0.3062601E+04  0.7818609E-02  0.8226077E-01
       -2   -1    0    0    0  501  0.00000000000E+00  0.00000000000E+00  0.18690354887E+04  0.18690354887E+04  0.25500000920E-02 0.  1.
        2   -1    0    0  501    0  0.00000000000E+00  0.00000000000E+00 -0.12545946167E+04  0.12545946167E+04  0.25500000920E-02 0. -1.
    10030    2    1    2    0    0  0.00000000000E+00  0.00000000000E+00  0.61444087207E+03  0.31236301054E+04  0.30626014188E+04 0.  0.
        1    1    3    3  502    0  0.19746044910E+02 -0.13853236487E+04 -0.35798030612E+03  0.14309652048E+04  0.50400001928E-02 0. -1.
       -1    1    3    3    0  502 -0.19746044910E+02  0.13853236487E+04  0.97242117819E+03  0.16926649006E+04  0.50400001928E-02 0.  1.
</event>
<event>
 5   0  0.1171915E-06  0.3094735E+04  0.7818609E-02  0.8217184E-01
        1   -1    0    0  501    0  0.00000000000E+00  0.00000000000E+00  0.21055843894E+04  0.21055843894E+04  0.50400001928E-02 0. -1.
       -1   -1    0    0    0  501  0.00000000000E+00  0.00000000000E+00 -0.11371405809E+04  0.11371405809E+04  0.50400001928E-02 0.  1.
    10030    2    1    2    0    0  0.00000000000E+00  0.00000000000E+00  0.96844380849E+03  0.32427249702E+04  0.30947345318E+04 0.  0.
        2    1    3    3  502    0 -0.89927014029E+03 -0.84482585254E+03  0.14626457180E+04  0.19135699628E+04  0.25500000920E-02 0. -1.
       -2    1    3    3    0  502  0.89927014029E+03  0.84482585254E+03 -0.49420190949E+03  0.13291550074E+04  0.25500000920E-02 0.  1.
</event>
<event>
 5   0  0.3445959E-06  0.3103809E+04  0.7818609E-02  0.8214693E-01
        2   -1    0    0  501    0  0.00000000000E+00  0.00000000000E+00  0.16678085318E+04  0.16678085318E+04  0.25500000920E-02 0. -1.
       -2   -1    0    0    0  501  0.00000000000E+00  0.00000000000E+00 -0.14440551466E+04  0.14440551466E+04  0.25500000920E-02 0.  1.
    10030    2    1    2    0    0  0.00000000000E+00  0.00000000000E+00  0.22375338522E+03  0.31118636784E+04  0.31038089463E+04 0.  0.
        4    1    3    3  502    0 -0.91514288815E+03  0.49874602991E+02 -0.11437438612E+04  0.14656485304E+04  0.12699999809E+01 0.  1.
       -4    1    3    3    0  502  0.91514288815E+03 -0.49874602991E+02  0.13674972464E+04  0.16462151480E+04  0.12699999809E+01 0. -1.
</event>
<event>
 5   0  0.3441897E-06  0.3125317E+04  0.7818609E-02  0.8208824E-01
       -2   -1    0    0    0  501  0.00000000000E+00  0.00000000000E+00  0.10252136565E+04  0.10252136565E+04  0.25500000920E-02 0.  1.
        2   -1    0    0  501    0  0.00000000000E+00  0.00000000000E+00 -0.23818458415E+04  0.23818458415E+04  0.25500000920E-02 0. -1.
    10030    2    1    2    0    0  0.00000000000E+00  0.00000000000E+00 -0.13566321850E+04  0.34070594981E+04  0.31253165500E+04 0.  0.
        5    1    3    3  502    0  0.14375634714E+04  0.50574923297E+03 -0.30145284706E+03  0.15534693206E+04  0.46999998093E+01 0.  1.
       -5    1    3    3    0  502 -0.14375634714E+04 -0.50574923297E+03 -0.10551793379E+04  0.18535901775E+04  0.46999998093E+01 0. -1.
</event>
<event>
 5   0  0.1211008E-06  0.3099697E+04  0.7818609E-02  0.8215821E-01
       -1   -1    0    0    0  501  0.00000000000E+00  0.00000000000E+00  0.93674863057E+03  0.93674863059E+03  0.50400001928E-02 0.  1.
        1   -1    0    0  501    0  0.00000000000E+00  0.00000000000E+00 -0.25642215981E+04  0.25642215982E+04  0.50400001928E-02 0. -1.
    10030    2    1    2    0    0  0.00000000000E+00  0.00000000000E+00 -0.16274729676E+04  0.35009702287E+04  0.30996974501E+04 0.  0.
        3    1    3    3  502    0  0.22598102132E+03  0.66977583034E+03 -0.23715516163E+04  0.24746563729E+04  0.10100000352E+00 0. -1.
       -3    1    3    3    0  502 -0.22598102132E+03 -0.66977583034E+03  0.74407864876E+03  0.10263138558E+04  0.10100000352E+00 0.  1.
</event>
<event>
 5   0  0.3441897E-06  0.2726006E+04  0.7818609E-02  0.8326616E-01
       -2   -1    0    0    0  501  0.00000000000E+00  0.00000000000E+00  0.88640797676E+03  0.88640797677E+03  0.25500000920E-02 0.  1.
        2   -1    0    0  501    0  0.00000000000E+00  0.00000000000E+00 -0.20958482231E+04  0.20958482231E+04  0.25500000920E-02 0. -1.
    10030    2    1    2    0    0  0.00000000000E+00  0.00000000000E+00 -0.12094402463E+04  0.29822561999E+04  0.27260055635E+04 0.  0.
        5    1    3    3  502    0 -0.51351864630E+03 -0.97658654711E+03 -0.14801487627E+04  0.18461541468E+04  0.46999998093E+01 0. -1.
       -5    1    3    3    0  502  0.51351864630E+03  0.97658654711E+03  0.27070851637E+03  0.11361020530E+04  0.46999998093E+01 0.  1.
</event>
<event>
 5   0  0.1250276E-06  0.3159472E+04  0.7818609E-02  0.8199603E-01
       -1   -1    0    0    0  501  0.00000000000E+00  0.00000000000E+00  0.27545364944E+04  0.27545364944E+04  0.50400001928E-02 0.  1.
        1   -1    0    0  501    0  0.00000000000E+00  0.00000000000E+00 -0.90598370829E+03  0.90598370831E+03  0.50400001928E-02 0. -1.
    10030    2    1    2    0    0  0.00000000000E+00  0.00000000000E+00  0.18485527861E+04  0.36605202027E+04  0.31594715937E+04 0.  0.
        5    1    3    3  502    0 -0.37597694569E+03  0.15268557515E+04  0.74896599649E+03  0.17417288260E+04  0.46999998093E+01 0. -1.
       -5    1    3    3    0  502  0.37597694569E+03 -0.15268557515E+04  0.10995867896E+04  0.19187913767E+04  0.46999998093E+01 0.  1.
</event>
<event>
 5   0  0.3441897E-06  0.3097354E+04  0.7818609E-02  0.8216464E-01
        2   -1    0    0  501    0  0.00000000000E+00  0.00000000000E+00  0.17212042178E+04  0.17212042178E+04  0.25500000920E-02 0.  1.
       -2   -1    0    0    0  501  0.00000000000E+00  0.00000000000E+00 -0.13934433667E+04  0.13934433667E+04  0.25500000920E-02 0. -1.
    10030    2    1    2    0    0  0.00000000000E+00  0.00000000000E+00  0.32776085110E+03  0.31146475846E+04  0.30973540967E+04 0.  0.
        5    1    3    3  502    0  0.59564040926E+03  0.11688224797E+04  0.99154636852E+03  0.16444208030E+04  0.46999998093E+01 0.  1.
       -5    1    3    3    0  502 -0.59564040926E+03 -0.11688224797E+04 -0.66378551742E+03  0.14702267816E+04  0.46999998093E+01 0. -1.
</event>
<event>
 5   0  0.3374790E-06  0.3078509E+04  0.7818609E-02  0.8221661E-01
        2   -1    0    0  501    0  0.00000000000E+00  0.00000000000E+00  0.19840324989E+04  0.19840324989E+04  0.25500000920E-02 0. -1.
       -2   -1    0    0    0  501  0.00000000000E+00  0.00000000000E+00 -0.11941862037E+04  0.11941862037E+04  0.25500000920E-02 0.  1.
    10030    2    1    2    0    0  0.00000000000E+00  0.00000000000E+00  0.78984629518E+03  0.31782187027E+04  0.30785088845E+04 0.  0.
        2    1    3    3  502    0 -0.99025826912E+03  0.28490549729E+03 -0.78558180396E+03  0.12957319756E+04  0.25500000920E-02 0.  1.
       -2    1    3    3    0  502  0.99025826912E+03 -0.28490549729E+03  0.15754280991E+04  0.18824867270E+04  0.25500000920E-02 0. -1.
</event>
<event>
 5   0  0.1198763E-06  0.3119689E+04  0.7818609E-02  0.8210355E-01
       -1   -1    0    0    0  501  0.00000000000E+00  0.00000000000E+00  0.16620799216E+04  0.16620799216E+04  0.50400001928E-02 0. -1.
        1   -1    0    0  501    0  0.00000000000E+00  0.00000000000E+00 -0.14638975173E+04  0.14638975173E+04  0.50400001928E-02 0.  1.
    10030    2    1    2    0    0  0.00000000000E+00  0.00000000000E+00  0.19818240423E+03  0.31259774389E+04  0.31196888760E+04 0.  0.
        1    1    3    3  502    0  0.48857884207E+03  0.41745883131E+03 -0.13250878426E+04  0.14726978480E+04  0.50400001928E-02 0.  1.
       -1    1    3    3    0  502 -0.48857884207E+03 -0.41745883131E+03  0.15232702469E+04  0.16532795909E+04  0.50400001928E-02 0. -1.
</event>
<event>
 5   0  0.1211008E-06  0.2903478E+04  0.7818609E-02  0.8271844E-01
        1   -1    0    0  501    0  0.00000000000E+00  0.00000000000E+00  0.12171547268E+04  0.12171547268E+04  0.50400001928E-02 0. -1.
       -1   -1    0    0    0  501  0.00000000000E+00  0.00000000000E+00 -0.17315347736E+04  0.17315347736E+04  0.50400001928E-02 0.  1.
    10030    2    1    2    0    0  0.00000000000E+00  0.00000000000E+00 -0.51438004683E+03  0.29486895003E+04  0.29034777314E+04 0.  0.
        3    1    3    3  502    0  0.64785426756E+03 -0.12081994953E+03  0.10564874990E+04  0.12451820983E+04  0.10100000352E+00 0. -1.
       -3    1    3    3    0  502 -0.64785426756E+03  0.12081994953E+03 -0.15708675458E+04  0.17035074021E+04  0.10100000352E+00 0.  1.
</event>
<event>
 5   0  0.3445959E-06  0.3113823E+04  0.7818609E-02  0.8211955E-01
        2   -1    0    0  501    0  0.00000000000E+00  0.00000000000E+00  0.22089777859E+04  0.22089777859E+04  0.25500000920E-02 0. -1.
       -2   -1    0    0    0  501  0.00000000000E+00  0.00000000000E+00 -0.10973279684E+04  0.10973279684E+04  0.25500000920E-02 0.  1.
    10030    2    1    2    0    0  0.00000000000E+00  0.00000000000E+00  0.11116498175E+04  0.33063057543E+04  0.31138227991E+04 0.  0.
        4    1    3    3  502    0 -0.98193891605E+02 -0.95165594274E+03 -0.74838575152E+03  0.12146497107E+04  0.12699999809E+01 0.  1.
       -4    1    3    3    0  502  0.98193891605E+02  0.95165594274E+03  0.18600355690E+04  0.20916560436E+04  0.12699999809E+01 0. -1.
</event>
<event>
 5   0  0.3445959E-06  0.3088294E+04  0.7818609E-02  0.8218958E-01
        2   -1    0    0  501    0  0.00000000000E+00  0.00000000000E+00  0.22815860102E+04  0.22815860102E+04  0.25500000920E-02 0. -1.
       -2   -1    0    0    0  501  0.00000000000E+00  0.00000000000E+00 -0.10450582940E+04  0.10450582940E+04  0.25500000920E-02 0.  1.
    10030    2    1    2    0    0  0.00000000000E+00  0.00000000000E+00  0.12365277162E+04  0.33266443042E+04  0.30882942758E+04 0.  0.
        4    1    3    3  502    0  0.14254520379E+04 -0.59325373905E+03  0.59357650549E+03  0.16541457590E+04  0.12699999809E+01 0. -1.
       -4    1    3    3    0  502 -0.14254520379E+04  0.59325373905E+03  0.64295121070E+03  0.16724985452E+04  0.12699999809E+01 0.  1.
</event>
<event>
 5   0  0.3445410E-06  0.3151403E+04  0.7818609E-02  0.8201771E-01
       -2   -1    0    0    0  501  0.00000000000E+00  0.00000000000E+00  0.12242654957E+04  0.12242654957E+04  0.25500000920E-02 0. -1.
        2   -1    0    0  501    0  0.00000000000E+00  0.00000000000E+00 -0.20280204726E+04  0.20280204726E+04  0.25500000920E-02 0.  1.
    10030    2    1    2    0    0  0.00000000000E+00  0.00000000000E+00 -0.80375497693E+03  0.32522859683E+04  0.31514031726E+04 0.  0.
        1    1    3    3  502    0 -0.10999510116E+04 -0.55421814160E+02 -0.15648372198E+04  0.19135514965E+04  0.50400001928E-02 0.  1.
       -1    1    3    3    0  502  0.10999510116E+04  0.55421814160E+02  0.76108224284E+03  0.13387344717E+04  0.50400001928E-02 0. -1.
</event>
<event>
 5   0  0.3441897E-06  0.3122614E+04  0.7818609E-02  0.8209559E-01
        2   -1    0    0  501    0  0.00000000000E+00  0.00000000000E+00  0.22799233154E+04  0.22799233154E+04  0.25500000920E-02 0.  1.
       -2   -1    0    0    0  501  0.00000000000E+00  0.00000000000E+00 -0.10691933302E+04  0.10691933302E+04  0.25500000920E-02 0. -1.
    10030    2    1    2    0    0  0.00000000000E+00  0.00000000000E+00  0.12107299853E+04  0.33491166456E+04  0.31226135221E+04 0.  0.
        5    1    3    3  502    0  0.98908136618E+03  0.19100819276E+03 -0.67400982463E+03  0.12120550368E+04  0.46999998093E+01 0. -1.
       -5    1    3    3    0  502 -0.98908136618E+03 -0.19100819276E+03  0.18847398099E+04  0.21370616087E+04  0.46999998093E+01 0.  1.
</event>
<event>
 5   0  0.1211008E-06  0.3102031E+04  0.7818609E-02  0.8215181E-01
        1   -1    0    0  501    0  0.00000000000E+00  0.00000000000E+00  0.13769342570E+04  0.13769342570E+04  0.50400001928E-02 0.  1.
       -1   -1    0    0    0  501  0.00000000000E+00  0.00000000000E+00 -0.17471053082E+04  0.17471053082E+04  0.50400001928E-02 0. -1.
    10030    2    1    2    0    0  0.00000000000E+00  0.00000000000E+00 -0.37017105117E+03  0.31240395652E+04  0.31020310439E+04 0.  0.
        3    1    3    3  502    0  0.12384378014E+04 -0.22868715998E+03  0.72666808066E+03  0.14539850462E+04  0.10100000352E+00 0.  1.
       -3    1    3    3    0  502 -0.12384378014E+04  0.22868715998E+03 -0.10968391318E+04  0.16700545190E+04  0.10100000352E+00 0. -1.
</event>
<event>
 5   0  0.1198763E-06  0.3088612E+04  0.7818609E-02  0.8218870E-01
        1   -1    0    0  501    0  0.00000000000E+00  0.00000000000E+00  0.15669886394E+04  0.15669886394E+04  0.50400001928E-02 0. -1.
       -1   -1    0    0    0  501  0.00000000000E+00  0.00000000000E+00 -0.15219512900E+04  0.15219512900E+04  0.50400001928E-02 0.  1.
    10030    2    1    2    0    0  0.00000000000E+00  0.00000000000E+00  0.45037349462E+02  0.30889399294E+04  0.30886115853E+04 0.  0.
        1    1    3    3  502    0  0.60441572525E+03  0.11903964136E+04 -0.75378442501E+03  0.15331513134E+04  0.50400001928E-02 0. -1.
       -1    1    3    3    0  502 -0.60441572525E+03 -0.11903964136E+04  0.79882177447E+03  0.15557886160E+04  0.50400001928E-02 0.  1.
</event>
<event>
 5   0  0.3374790E-06  0.3128978E+04  0.7818609E-02  0.8207830E-01
        2   -1    0    0  501    0  0.00000000000E+00  0.00000000000E+00  0.24068860084E+04  0.24068860084E+04  0.25500000920E-02 0. -1.
       -2   -1    0    0    0  501  0.00000000000E+00  0.00000000000E+00 -0.10169262388E+04  0.10169262388E+04  0.25500000920E-02 0.  1.
    10030    2    1    2    0    0  0.00000000000E+00  0.00000000000E+00  0.13899597696E+04  0.34238122472E+04  0.31289778112E+04 0.  0.
        2    1    3    3  502    0  0.78060590527E+02  0.17924553052E+03 -0.10035069770E+04  0.10223740357E+04  0.25500000920E-02 0.  1.
       -2    1    3    3    0  502 -0.78060590527E+02 -0.17924553052E+03  0.23934667467E+04  0.24014382115E+04  0.25500000920E-02 0. -1.
</event>
<event>
 5   0  0.1250276E-06  0.3224115E+04  0.7818609E-02  0.8182477E-01
        1   -1    0    0  501    0  0.00000000000E+00  0.00000000000E+00  0.17242594324E+04  0.17242594324E+04  0.50400001928E-02 0. -1.
       -1   -1    0    0    0  501  0.00000000000E+00  0.00000000000E+00 -0.15071571261E+04  0.15071571261E+04  0.50400001928E-02 0.  1.
    10030    2    1    2    0    0  0.00000000000E+00  0.00000000000E+00  0.21710230629E+03  0.32314165585E+04  0.32241153148E+04 0.  0.
        5    1    3    3  502    0  0.12114002537E+04 -0.95301469486E+03  0.58182831380E+03  0.16475053445E+04  0.46999998093E+01 0.  1.
       -5    1    3    3    0  502 -0.12114002537E+04  0.95301469486E+03 -0.36472600751E+03  0.15839112140E+04  0.46999998093E+01 0. -1.
</event>
<event>
 5   0  0.1211008E-06  0.3096084E+04  0.7818609E-02  0.8216813E-01
        1   -1    0    0  501    0  0.00000000000E+00  0.00000000000E+00  0.16428823880E+04  0.16428823881E+04  0.50400001928E-02 0.  1.
       -1   -1    0    0    0  501  0.00000000000E+00  0.00000000000E+00 -0.14586764322E+04  0.14586764322E+04  0.50400001928E-02 0. -1.
    10030    2    1    2    0    0  0.00000000000E+00  0.00000000000E+00  0.18420595582E+03  0.31015588203E+04  0.30960838622E+04 0.  0.
        3    1    3    3  502    0  0.14254219830E+04  0.52790462798E+03  0.38574704078E+03  0.15682193455E+04  0.10100000352E+00 0.  1.
       -3    1    3    3    0  502 -0.14254219830E+04 -0.52790462798E+03 -0.20154108496E+03  0.15333394748E+04  0.10100000352E+00 0. -1.
</event>
<event>
 5   0  0.1171915E-06  0.3119596E+04  0.7818609E-02  0.8210380E-01
        1   -1    0    0  501    0  0.00000000000E+00  0.00000000000E+00  0.15452308575E+04  0.15452308575E+04  0.50400001928E-02 0. -1.
       -1   -1    0    0    0  501  0.00000000000E+00  0.00000000000E+00 -0.15745026941E+04  0.15745026941E+04  0.50400001928E-02 0.  1.
    10030    2    1    2    0    0  0.00000000000E+00  0.00000000000E+00 -0.29271836541E+02  0.31197335516E+04  0.31195962227E+04 0.  0.
        2    1    3    3  502    0 -0.12652035498E+04  0.12930458672E+03  0.88846000737E+03  0.15513932072E+04  0.25500000920E-02 0. -1.
       -2    1    3    3    0  502  0.12652035498E+04 -0.12930458672E+03 -0.91773184391E+03  0.15683403444E+04  0.25500000920E-02 0.  1.
</event>
<event>
 5   0  0.3374790E-06  0.3103319E+04  0.7818609E-02  0.8214828E-01
       -2   -1    0    0    0  501  0.00000000000E+00  0.00000000000E+00  0.15515176551E+04  0.15515176551E+04  0.25500000920E-02 0. -1.
        2   -1    0    0  501    0  0.00000000000E+00  0.00000000000E+00 -0.15518014506E+04  0.15518014506E+04  0.25500000920E-02 0.  1.
    10030    2    1    2    0    0  0.00000000000E+00  0.00000000000E+00 -0.28379547429E+00  0.31033191057E+04  0.31033190927E+04 0.  0.
        2    1    3    3  502    0  0.62400868629E+03  0.12535193172E+04 -0.66868496478E+03  0.15517206905E+04  0.25500000920E-02 0.  1.
       -2    1    3    3    0  502 -0.62400868629E+03 -0.12535193172E+04  0.66840116930E+03  0.15515984153E+04  0.25500000920E-02 0. -1.
</event>
<event>
 5   0  0.3340899E-06  0.3092949E+04  0.7818609E-02  0.8217676E-01
        2   -1    0    0  501    0  0.00000000000E+00  0.00000000000E+00  0.26467730670E+04  0.26467730670E+04  0.25500000920E-02 0.  1.
       -2   -1    0    0    0  501  0.00000000000E+00  0.00000000000E+00 -0.90358454716E+03  0.90358454717E+03  0.25500000920E-02 0. -1.
    10030    2    1    2    0    0  0.00000000000E+00  0.00000000000E+00  0.17431885198E+04  0.35503576141E+04  0.30929489121E+04 0.  0.
        3    1    3    3  502    0 -0.83643721079E+03  0.35970124367E+03 -0.56329782226E+03  0.10706617762E+04  0.10100000352E+00 0. -1.
       -3    1    3    3    0  502  0.83643721079E+03 -0.35970124367E+03  0.23064863421E+04  0.24796958379E+04  0.10100000352E+00 0.  1.
</event>
<event>
 5   0  0.1250276E-06  0.3120203E+04  0.7818609E-02  0.8210215E-01
        1   -1    0    0  501    0  0.00000000000E+00  0.00000000000E+00  0.11829570263E+04  0.11829570263E+04  0.50400001928E-02 0.  1.
       -1   -1    0    0    0  501  0.00000000000E+00  0.00000000000E+00 -0.20574853219E+04  0.20574853219E+04  0.50400001928E-02 0. -1.
    10030    2    1    2    0    0  0.00000000000E+00  0.00000000000E+00 -0.87452829560E+03  0.32404423483E+04  0.31202030179E+04 0.  0.
        5    1    3    3  502    0  0.71237437389E+02  0.13257234071E+04 -0.12881522057E+04  0.18498582431E+04  0.46999998093E+01 0. -1.
       -5    1    3    3    0  502 -0.71237437389E+02 -0.13257234071E+04  0.41362391014E+03  0.13905841052E+04  0.46999998093E+01 0.  1.
</event>
<event>
 5   0  0.1198763E-06  0.3085137E+04  0.7818609E-02  0.8219829E-01
       -1   -1    0    0    0  501  0.00000000000E+00  0.00000000000E+00  0.14947159333E+04  0.14947159333E+04  0.50400001928E-02 0. -1.
        1   -1    0    0  501    0  0.00000000000E+00  0.00000000000E+00 -0.15919529724E+04  0.15919529724E+04  0.50400001928E-02 0.  1.
    10030    2    1    2    0    0  0.00000000000E+00  0.00000000000E+00 -0.97237039053E+02  0.30866689057E+04  0.30851369324E+04 0.  0.
        1    1    3    3  502    0  0.19789964898E+03 -0.12842881891E+04  0.78303250753E+03  0.15171355679E+04  0.50400001928E-02 0. -1.
       -1    1    3    3    0  502 -0.19789964898E+03  0.12842881891E+04 -0.88026954659E+03  0.15695333377E+04  0.50400001928E-02 0.  1.
</event>
<event>
 5   0  0.1250276E-06  0.3091781E+04  0.7818609E-02  0.8217997E-01
        1   -1    0    0  501    0  0.00000000000E+00  0.00000000000E+00  0.23477043317E+04  0.23477043318E+04  0.50400001928E-02 0.  1.
       -1   -1    0    0    0  501  0.00000000000E+00  0.00000000000E+00 -0.10179207589E+04  0.10179207589E+04  0.50400001928E-02 0. -1.
    10030    2    1    2    0    0  0.00000000000E+00  0.00000000000E+00  0.13297835729E+04  0.33656250907E+04  0.30917807005E+04 0.  0.
        5    1    3    3  502    0  0.42212922917E+03 -0.52314763908E+03  0.21802674551E+04  0.22815487731E+04  0.46999998093E+01 0.  1.
       -5    1    3    3    0  502 -0.42212922917E+03  0.52314763908E+03 -0.85048388222E+03  0.10840763176E+04  0.46999998093E+01 0. -1.
</event>
<event>
 5   0  0.3441897E-06  0.3155243E+04  0.7818609E-02  0.8200738E-01
       -2   -1    0    0    0  501  0.00000000000E+00  0.00000000000E+00  0.13688300438E+04  0.13688300438E+04  0.25500000920E-02 0. -1.
        2   -1    0    0  501    0  0.00000000000E+00  0.00000000000E+00 -0.18182603263E+04  0.18182603264E+04  0.25500000920E-02 0.  1.
    10030    2    1    2    0    0  0.00000000000E+00  0.00000000000E+00 -0.44943028259E+03  0.31870903701E+04  0.31552428509E+04 0.  0.
        5    1    3    3  502    0 -0.42080165256E+02  0.30368080552E+03  0.13384431790E+04  0.13731150736E+04  0.46999998093E+01 0. -1.
       -5    1    3    3    0  502  0.42080165256E+02 -0.30368080552E+03 -0.17878734616E+04  0.18139752965E+04  0.46999998093E+01 0.  1.
</event>
<event>
 5   0  0.3374790E-06  0.3119387E+04  0.7818609E-02  0.8210437E-01
        2   -1    0    0  501    0  0.00000000000E+00  0.00000000000E+00  0.17692034510E+04  0.17692034510E+04  0.25500000920E-02 0.  1.
       -2   -1    0    0    0  501  0.00000000000E+00  0.00000000000E+00 -0.13749942602E+04  0.13749942602E+04  0.25500000920E-02 0. -1.
    10030    2    1    2    0    0  0.00000000000E+00  0.00000000000E+00  0.39420919086E+03  0.31441977112E+04  0.31193874978E+04 0.  0.
        2    1    3    3  502    0  0.10021309473E+04 -0.33767162570E+03  0.13526766500E+04  0.17169806876E+04  0.25500000920E-02 0.  1.
       -2    1    3    3    0  502 -0.10021309473E+04  0.33767162570E+03 -0.95846745910E+03  0.14272170236E+04  0.25500000920E-02 0. -1.
</event>
<event>
 5   0  0.3374790E-06  0.3064464E+04  0.7818609E-02  0.8225559E-01
       -2   -1    0    0    0  501  0.00000000000E+00  0.00000000000E+00  0.14903218640E+04  0.14903218640E+04  0.25500000920E-02 0. -1.
        2   -1    0    0  501    0  0.00000000000E+00  0.00000000000E+00 -0.15753210452E+04  0.15753210452E+04  0.25500000920E-02 0.  1.
    10030    2    1    2    0    0  0.00000000000E+00  0.00000000000E+00 -0.84999181184E+02  0.30656429092E+04  0.30644643228E+04 0.  0.
        2    1    3    3  502    0  0.70661162820E+03 -0.40623048467E+03 -0.13404623478E+04  0.15688092636E+04  0.25500000920E-02 0.  1.
       -2    1    3    3    0  502 -0.70661162820E+03  0.40623048467E+03  0.12554631666E+04  0.14968336456E+04  0.25500000920E-02 0. -1.
</event>
<event>
 5   0  0.3441897E-06  0.3088572E+04  0.7818609E-02  0.8218881E-01
       -2   -1    0    0    0  501  0.00000000000E+00  0.00000000000E+00  0.96637464573E+03  0.96637464574E+03  0.25500000920E-02 0.  1.
        2   -1    0    0  501    0  0.00000000000E+00  0.00000000000E+00 -0.24678001622E+04  0.24678001622E+04  0.25500000920E-02 0. -1.
    10030    2    1    2    0    0  0.00000000000E+00  0.00000000000E+00 -0.15014255165E+04  0.34341748079E+04  0.30885721669E+04 0.  0.
        5    1    3    3  502    0 -0.64107347680E+03 -0.92260647008E+03 -0.19288094559E+04  0.22321527520E+04  0.46999998093E+01 0. -1.
       -5    1    3    3    0  502  0.64107347680E+03  0.92260647008E+03  0.42738393940E+03  0.12020220559E+04  0.46999998093E+01 0.  1.
</event>
<event>
 5   0  0.3445410E-06  0.3140611E+04  0.7818609E-02  0.8204680E-01
        2   -1    0    0  501    0  0.00000000000E+00  0.00000000000E+00  0.19790670942E+04  0.19790670942E+04  0.25500000920E-02 0.  1.
       -2   -1    0    0    0  501  0.00000000000E+00  0.00000000000E+00 -0.12459708479E+04  0.12459708479E+04  0.25500000920E-02 0. -1.
    10030    2    1    2    0    0  0.00000000000E+00  0.00000000000E+00  0.73309624625E+03  0.32250379421E+04  0.31406113452E+04 0.  0.
        1    1    3    3  502    0  0.12651504298E+04  0.36062367309E+03 -0.51394266851E+03  0.14123710950E+04  0.50400001928E-02 0. -1.
       -1    1    3    3    0  502 -0.12651504298E+04 -0.36062367309E+03  0.12470389148E+04  0.18126668471E+04  0.50400001928E-02 0.  1.
</event>
<event>
 5   0  0.3374790E-06  0.3097823E+04  0.7818609E-02  0.8216336E-01
        2   -1    0    0  501    0  0.00000000000E+00  0.00000000000E+00  0.21849610649E+04  0.21849610650E+04  0.25500000920E-02 0.  1.
       -2   -1    0    0    0  501  0.00000000000E+00  0.00000000000E+00 -0.10980179242E+04  0.10980179242E+04  0.25500000920E-02 0. -1.
    10030    2    1    2    0    0  0.00000000000E+00  0.00000000000E+00  0.10869431407E+04  0.32829789892E+04  0.30978227277E+04 0.  0.
        2    1    3    3  502    0 -0.63439399186E+03 -0.87087218016E+03 -0.63580621361E+03  0.12510490128E+04  0.25500000920E-02 0. -1.
       -2    1    3    3    0  502  0.63439399186E+03  0.87087218016E+03  0.17227493543E+04  0.20319299764E+04  0.25500000920E-02 0.  1.
</event>
<event>
 5   0  0.3445410E-06  0.2832332E+04  0.7818609E-02  0.8293300E-01
        2   -1    0    0  501    0  0.00000000000E+00  0.00000000000E+00  0.22049522542E+04  0.22049522542E+04  0.25500000920E-02 0.  1.
       -2   -1    0    0    0  501  0.00000000000E+00  0.00000000000E+00 -0.90955547767E+03  0.90955547767E+03  0.25500000920E-02 0. -1.
    10030    2    1    2    0    0  0.00000000000E+00  0.00000000000E+00  0.12953967765E+04  0.31145077318E+04  0.28323321845E+04 0.  0.
        1    1    3    3  502    0 -0.56446754342E+03  0.82753170233E+03  0.17484757087E+04  0.20150929581E+04  0.50400001928E-02 0. -1.
       -1    1    3    3    0  502  0.56446754342E+03 -0.82753170233E+03 -0.45307893217E+03  0.10994147737E+04  0.50400001928E-02 0.  1.
</event>
<event>
 5   0  0.1235960E-06  0.3102261E+04  0.7818609E-02  0.8215118E-01
       -1   -1    0    0    0  501  0.00000000000E+00  0.00000000000E+00  0.11353626724E+04  0.11353626724E+04  0.50400001928E-02 0. -1.
        1   -1    0    0  501    0  0.00000000000E+00  0.00000000000E+00 -0.21191515565E+04  0.21191515565E+04  0.50400001928E-02 0.  1.
    10030    2    1    2    0    0  0.00000000000E+00  0.00000000000E+00 -0.98378888412E+03  0.32545142288E+04  0.31022608364E+04 0.  0.
        4    1    3    3  502    0 -0.21214749110E+03 -0.10183750641E+04 -0.16989771690E+04  0.19921393935E+04  0.12699999809E+01 0.  1.
       -4    1    3    3    0  502  0.21214749110E+03  0.10183750641E+04  0.71518828490E+03  0.12623748354E+04  0.12699999809E+01 0. -1.
</event>
<event>
 5   0  0.1235960E-06  0.3110590E+04  0.7818609E-02  0.8212838E-01
       -1   -1    0    0    0  501  0.00000000000E+00  0.00000000000E+00  0.73368868549E+03  0.73368868551E+03  0.50400001928E-02 0. -1.
        1   -1    0    0  501    0  0.00000000000E+00  0.00000000000E+00 -0.32969603049E+04  0.32969603049E+04  0.50400001928E-02 0.  1.
    10030    2    1    2    0    0  0.00000000000E+00  0.00000000000E+00 -0.25632716194E+04  0.40306489904E+04  0.31105899583E+04 0.  0.
        4    1    3    3  502    0  0.75002108478E+03  0.32450229810E+03 -0.29963376596E+04  0.31057807959E+04  0.12699999809E+01 0.  1.
       -4    1    3    3    0  502 -0.75002108478E+03 -0.32450229810E+03  0.43306604020E+03  0.92486819448E+03  0.12699999809E+01 0. -1.
</event>
<event>
 5   0  0.1235960E-06  0.3078156E+04  0.7818609E-02  0.8221759E-01
        1   -1    0    0  501    0  0.00000000000E+00  0.00000000000E+00  0.22814306953E+04  0.22814306953E+04  0.50400001928E-02 0.  1.
       -1   -1    0    0    0  501  0.00000000000E+00  0.00000000000E+00 -0.10382784612E+04  0.10382784612E+04  0.50400001928E-02 0. -1.
    10030    2    1    2    0    0  0.00000000000E+00  0.00000000000E+00  0.12431522342E+04  0.33197091565E+04  0.30781555202E+04 0.  0.
        4    1    3    3  502    0  0.24954412890E+03  0.15182980346E+04  0.58333142487E+03  0.16455328494E+04  0.12699999809E+01 0. -1.
       -4    1    3    3    0  502 -0.24954412890E+03 -0.15182980346E+04  0.65982080928E+03  0.16741763072E+04  0.12699999809E+01 0.  1.
</event>
<event>
 5   0  0.3445959E-06  0.3129519E+04  0.7818609E-02  0.8207683E-01
        2   -1    0    0  501    0  0.00000000000E+00  0.00000000000E+00  0.18525554119E+04  0.18525554119E+04  0.25500000920E-02 0. -1.
       -2   -1    0    0    0  501  0.00000000000E+00  0.00000000000E+00 -0.13216730157E+04  0.13216730157E+04  0.25500000920E-02 0.  1.
    10030    2    1    2    0    0  0.00000000000E+00  0.00000000000E+00  0.53088239624E+03  0.31742284276E+04  0.31295191311E+04 0.  0.
        4    1    3    3  502    0  0.84954694998E+03  0.44317257897E+03 -0.98930063939E+03  0.13772615303E+04  0.12699999809E+01 0.  1.
       -4    1    3    3    0  502 -0.84954694998E+03 -0.44317257897E+03  0.15201830356E+04  0.17969668972E+04  0.12699999809E+01 0. -1.
</event>
<event>
 5   0  0.1250276E-06  0.3078022E+04  0.7818609E-02  0.8221796E-01
        1   -1    0    0  501    0  0.00000000000E+00  0.00000000000E+00  0.22835958218E+04  0.22835958218E+04  0.50400001928E-02 0.  1.
       -1   -1    0    0    0  501  0.00000000000E+00  0.00000000000E+00 -0.10372037565E+04  0.10372037565E+04  0.50400001928E-02 0. -1.
    10030    2    1    2    0    0  0.00000000000E+00  0.00000000000E+00  0.12463920653E+04  0.33207995783E+04  0.30780215495E+04 0.  0.
        5    1    3    3  502    0 -0.41630121776E+03  0.86877049484E+03 -0.67166181359E+03  0.11744022132E+04  0.46999998093E+01 0. -1.
       -5    1    3    3    0  502  0.41630121776E+03 -0.86877049484E+03  0.19180538789E+04  0.21463973651E+04  0.46999998093E+01 0.  1.
</event>
<event>
 5   0  0.1171915E-06  0.2982618E+04  0.7818609E-02  0.8248712E-01
        1   -1    0    0  501    0  0.00000000000E+00  0.00000000000E+00  0.21424988304E+04  0.21424988304E+04  0.50400001928E-02 0. -1.
       -1   -1    0    0    0  501  0.00000000000E+00  0.00000000000E+00 -0.10380410995E+04  0.10380410995E+04  0.50400001928E-02 0.  1.
    10030    2    1    2    0    0  0.00000000000E+00  0.00000000000E+00  0.11044577309E+04  0.31805399299E+04  0.29826175361E+04 0.  0.
        2    1    3    3  502    0  0.11597176511E+04  0.68065270911E+02 -0.44492988001E+03  0.12440018125E+04  0.25500000920E-02 0.  1.
       -2    1    3    3    0  502 -0.11597176511E+04 -0.68065270911E+02  0.15493876109E+04  0.19365381174E+04  0.25500000920E-02 0. -1.
</event>
<event>
 5   0  0.1235960E-06  0.3062833E+04  0.7818609E-02  0.8226013E-01
        1   -1    0    0  501    0  0.00000000000E+00  0.00000000000E+00  0.25159930307E+04  0.25159930307E+04  0.50400001928E-02 0. -1.
       -1   -1    0    0    0  501  0.00000000000E+00  0.00000000000E+00 -0.93213148908E+03  0.93213148909E+03  0.50400001928E-02 0.  1.
    10030    2    1    2    0    0  0.00000000000E+00  0.00000000000E+00  0.15838615416E+04  0.34481245198E+04  0.30628328915E+04 0.  0.
        4    1    3    3  502    0  0.12028873604E+03 -0.12770183328E+04 -0.14997055015E+03  0.12914093004E+04  0.12699999809E+01 0.  1.
       -4    1    3    3    0  502 -0.12028873604E+03  0.12770183328E+04  0.17338320918E+04  0.21567152194E+04  0.12699999809E+01 0. -1.
</event>
<event>
 5   0  0.1235960E-06  0.3036134E+04  0.7818609E-02  0.8233487E-01
       -1   -1    0    0    0  501  0.00000000000E+00  0.00000000000E+00  0.14342647403E+04  0.14342647404E+04  0.50400001928E-02 0. -1.
        1   -1    0    0  501    0  0.00000000000E+00  0.00000000000E+00 -0.16067661486E+04  0.16067661486E+04  0.50400001928E-02 0.  1.
    10030    2    1    2    0    0  0.00000000000E+00  0.00000000000E+00 -0.17250140821E+03  0.30410308889E+04  0.30361344060E+04 0.  0.
        4    1    3    3  502    0  0.23173092806E+03 -0.82584355505E+03  0.11682905870E+04  0.14493520307E+04  0.12699999809E+01 0. -1.
       -4    1    3    3    0  502 -0.23173092806E+03  0.82584355505E+03 -0.13407919952E+04  0.15916788582E+04  0.12699999809E+01 0.  1.
</event>
<event>
 5   0  0.3340899E-06  0.3078898E+04  0.7818609E-02  0.8221553E-01
       -2   -1    0    0    0  501  0.00000000000E+00  0.00000000000E+00  0.13783387583E+04  0.13783387583E+04  0.25500000920E-02 0.  1.
        2   -1    0    0  501    0  0.00000000000E+00  0.00000000000E+00 -0.17193907586E+04  0.17193907586E+04  0.25500000920E-02 0. -1.
    10030    2    1    2    0    0  0.00000000000E+00  0.00000000000E+00 -0.34105200037E+03  0.30977295169E+04  0.30788978049E+04 0.  0.
        3    1    3    3  502    0  0.13990759926E+04 -0.41753842888E+02  0.47428856179E+03  0.14778723445E+04  0.10100000352E+00 0.  1.
       -3    1    3    3    0  502 -0.13990759926E+04  0.41753842888E+02 -0.81534056216E+03  0.16198571724E+04  0.10100000352E+00 0. -1.
</event>
<event>
 5   0  0.1171915E-06  0.3078190E+04  0.7818609E-02  0.8221749E-01
       -1   -1    0    0    0  501  0.00000000000E+00  0.00000000000E+00  0.22374395544E+04  0.22374395544E+04  0.50400001928E-02 0.  1.
        1   -1    0    0  501    0  0.00000000000E+00  0.00000000000E+00 -0.10587163906E+04  0.10587163906E+04  0.50400001928E-02 0. -1.
    10030    2    1    2    0    0  0.00000000000E+00  0.00000000000E+00  0.11787231638E+04  0.32961559450E+04  0.30781903315E+04 0.  0.
        2    1    3    3  502    0 -0.12551213440E+04  0.59643933184E+03 -0.11911028980E+03  0.13947246057E+04  0.25500000920E-02 0. -1.
       -2    1    3    3    0  502  0.12551213440E+04 -0.59643933184E+03  0.12978334536E+04  0.19014313393E+04  0.25500000920E-02 0.  1.
</event>
<event>
 5   0  0.3340899E-06  0.3120990E+04  0.7818609E-02  0.8210001E-01
       -2   -1    0    0    0  501  0.00000000000E+00  0.00000000000E+00  0.14122884916E+04  0.14122884916E+04  0.25500000920E-02 0.  1.
        2   -1    0    0  501    0  0.00000000000E+00  0.00000000000E+00 -0.17242548431E+04  0.17242548431E+04  0.25500000920E-02 0. -1.
    10030    2    1    2    0    0  0.00000000000E+00  0.00000000000E+00 -0.31196635153E+03  0.31365433347E+04  0.31209904015E+04 0.  0.
        3    1    3    3  502    0 -0.14105572527E+04 -0.64995392738E+03 -0.30850703759E+03  0.15834419703E+04  0.10100000352E+00 0. -1.
       -3    1    3    3    0  502  0.14105572527E+04  0.64995392738E+03 -0.34593139405E+01  0.15531013644E+04  0.10100000352E+00 0.  1.
</event>
<event>
 5   0  0.1250276E-06  0.3168488E+04  0.7818609E-02  0.8197189E-01
        1   -1    0    0  501    0  0.00000000000E+00  0.00000000000E+00  0.18155166512E+04  0.18155166512E+04  0.50400001928E-02 0. -1.
       -1   -1    0    0    0  501  0.00000000000E+00  0.00000000000E+00 -0.13824326018E+04  0.13824326019E+04  0.50400001928E-02 0.  1.
    10030    2    1    2    0    0  0.00000000000E+00  0.00000000000E+00  0.43308404936E+03  0.31979492531E+04  0.31684882249E+04 0.  0.
        5    1    3    3  502    0 -0.39760596257E+03 -0.91646188889E+03  0.14575332548E+04  0.17670365514E+04  0.46999998093E+01 0. -1.
       -5    1    3    3    0  502  0.39760596257E+03  0.91646188889E+03 -0.10244492054E+04  0.14309127017E+04  0.46999998093E+01 0.  1.
</event>
<event>
 5   0  0.3340899E-06  0.3087340E+04  0.7818609E-02  0.8219221E-01
       -2   -1    0    0    0  501  0.00000000000E+00  0.00000000000E+00  0.11654725757E+04  0.11654725757E+04  0.25500000920E-02 0. -1.
        2   -1    0    0  501    0  0.00000000000E+00  0.00000000000E+00 -0.20445931402E+04  0.20445931402E+04  0.25500000920E-02 0.  1.
    10030    2    1    2    0    0  0.00000000000E+00  0.00000000000E+00 -0.87912056448E+03  0.32100657159E+04  0.30873401065E+04 0.  0.
        3    1    3    3  502    0  0.11294516912E+04 -0.10490942168E+04 -0.52439675015E+03  0.16282664893E+04  0.10100000352E+00 0.  1.
       -3    1    3    3    0  502 -0.11294516912E+04  0.10490942168E+04 -0.35472381433E+03  0.15817992265E+04  0.10100000352E+00 0. -1.
</event>
<event>
 5   0  0.1211008E-06  0.3032507E+04  0.7818609E-02  0.8234509E-01
       -1   -1    0    0    0  501  0.00000000000E+00  0.00000000000E+00  0.11368966189E+04  0.11368966189E+04  0.50400001928E-02 0. -1.
        1   -1    0    0  501    0  0.00000000000E+00  0.00000000000E+00 -0.20221938093E+04  0.20221938093E+04  0.50400001928E-02 0.  1.
    10030    2    1    2    0    0  0.00000000000E+00  0.00000000000E+00 -0.88529719038E+03  0.31590904282E+04  0.30325074144E+04 0.  0.
        3    1    3    3  502    0  0.59977606225E+02 -0.92103013518E+03  0.81053349766E+03  0.12283559680E+04  0.10100000352E+00 0. -1.
       -3    1    3    3    0  502 -0.59977606225E+02  0.92103013518E+03 -0.16958306880E+04  0.19307344602E+04  0.10100000352E+00 0.  1.
</event>
<event>
 5   0  0.1250276E-06  0.2919034E+04  0.7818609E-02  0.8267237E-01
        1   -1    0    0  501    0  0.00000000000E+00  0.00000000000E+00  0.17339717676E+04  0.17339717676E+04  0.50400001928E-02 0. -1.
       -1   -1    0    0    0  501  0.00000000000E+00  0.00000000000E+00 -0.12285030470E+04  0.12285030470E+04  0.50400001928E-02 0.  1.
    10030    2    1    2    0    0  0.00000000000E+00  0.00000000000E+00  0.50546872062E+03  0.29624748146E+04  0.29190338127E+04 0.  0.
        5    1    3    3  502    0 -0.93299488327E+03 -0.11216473320E+04  0.21219849083E+03  0.14743210231E+04  0.46999998093E+01 0.  1.
       -5    1    3    3    0  502  0.93299488327E+03  0.11216473320E+04  0.29327022979E+03  0.14881537916E+04  0.46999998093E+01 0. -1.
</event>
<event>
 5   0  0.3441897E-06  0.3107880E+04  0.7818609E-02  0.8213579E-01
       -2   -1    0    0    0  501  0.00000000000E+00  0.00000000000E+00  0.17218010579E+04  0.17218010579E+04  0.25500000920E-02 0.  1.
        2   -1    0    0  501    0  0.00000000000E+00  0.00000000000E+00 -0.14024437570E+04  0.14024437570E+04  0.25500000920E-02 0. -1.
    10030    2    1    2    0    0  0.00000000000E+00  0.00000000000E+00  0.31935730084E+03  0.31242448149E+04  0.31078797560E+04 0.  0.
        5    1    3    3  502    0 -0.10363027204E+04  0.98827882800E+03  0.76625355820E+03  0.16241259113E+04  0.46999998093E+01 0.  1.
       -5    1    3    3    0  502  0.10363027204E+04 -0.98827882800E+03 -0.44689625735E+03  0.15001189036E+04  0.46999998093E+01 0. -1.
</event>
<event>
 5   0  0.1211008E-06  0.3134865E+04  0.7818609E-02  0.8206234E-01
       -1   -1    0    0    0  501  0.00000000000E+00  0.00000000000E+00  0.13056310295E+04  0.13056310295E+04  0.50400001928E-02 0.  1.
        1   -1    0    0  501    0  0.00000000000E+00  0.00000000000E+00 -0.18817301512E+04  0.18817301512E+04  0.50400001928E-02 0. -1.
    10030    2    1    2    0    0  0.00000000000E+00  0.00000000000E+00 -0.57609912170E+03  0.31873611807E+04  0.31348654035E+04 0.  0.
        3    1    3    3  502    0  0.51553723685E+03  0.13226865856E+04 -0.96368215867E+03  0.17157977036E+04  0.10100000352E+00 0. -1.
       -3    1    3    3    0  502 -0.51553723685E+03 -0.13226865856E+04  0.38758303698E+03  0.14715634771E+04  0.10100000352E+00 0.  1.
</event>
<event>
 5   0  0.1171915E-06  0.3092508E+04  0.7818609E-02  0.8217797E-01
        1   -1    0    0  501    0  0.00000000000E+00  0.00000000000E+00  0.13317177054E+04  0.13317177054E+04  0.50400001928E-02 0. -1.
       -1   -1    0    0    0  501  0.00000000000E+00  0.00000000000E+00 -0.17953516041E+04  0.17953516041E+04  0.50400001928E-02 0.  1.
    10030    2    1    2    0    0  0.00000000000E+00  0.00000000000E+00 -0.46363389869E+03  0.31270693095E+04  0.30925080557E+04 0.  0.
        2    1    3    3  502    0 -0.94428785408E+03 -0.18021612089E+02 -0.14697939893E+04  0.17470829118E+04  0.25500000920E-02 0.  1.
       -2    1    3    3    0  502  0.94428785408E+03  0.18021612089E+02  0.10061600906E+04  0.13799863977E+04  0.25500000920E-02 0. -1.
</event>
<event>
 5   0  0.3374790E-06  0.2917659E+04  0.7818609E-02  0.8267643E-01
       -2   -1    0    0    0  501  0.00000000000E+00  0.00000000000E+00  0.11211042178E+04  0.11211042178E+04  0.25500000920E-02 0. -1.
        2   -1    0    0  501    0  0.00000000000E+00  0.00000000000E+00 -0.18982918673E+04  0.18982918673E+04  0.25500000920E-02 0.  1.
    10030    2    1    2    0    0  0.00000000000E+00  0.00000000000E+00 -0.77718764943E+03  0.30193960851E+04  0.29176586634E+04 0.  0.
        2    1    3    3  502    0  0.10232380095E+04  0.74098951648E+02  0.68471923400E+03  0.12334290041E+04  0.25500000920E-02 0. -1.
       -2    1    3    3    0  502 -0.10232380095E+04 -0.74098951648E+02 -0.14619068834E+04  0.17859670810E+04  0.25500000920E-02 0.  1.
</event>
<event>
 5   0  0.3374790E-06  0.3142721E+04  0.7818609E-02  0.8204110E-01
       -2   -1    0    0    0  501  0.00000000000E+00  0.00000000000E+00  0.11835306627E+04  0.11835306627E+04  0.25500000920E-02 0. -1.
        2   -1    0    0  501    0  0.00000000000E+00  0.00000000000E+00 -0.20862781846E+04  0.20862781846E+04  0.25500000920E-02 0.  1.
    10030    2    1    2    0    0  0.00000000000E+00  0.00000000000E+00 -0.90274752192E+03  0.32698088473E+04  0.31427212427E+04 0.  0.
        2    1    3    3  502    0  0.15159739014E+04 -0.20862391145E+03 -0.82284592986E+03  0.17374625839E+04  0.25500000920E-02 0.  1.
       -2    1    3    3    0  502 -0.15159739014E+04  0.20862391145E+03 -0.79901592057E+02  0.15323462633E+04  0.25500000920E-02 0. -1.
</event>
<event>
 5   0  0.3445959E-06  0.3098998E+04  0.7818609E-02  0.8216013E-01
       -2   -1    0    0    0  501  0.00000000000E+00  0.00000000000E+00  0.99747382593E+03  0.99747382593E+03  0.25500000920E-02 0.  1.
        2   -1    0    0  501    0  0.00000000000E+00  0.00000000000E+00 -0.24070279213E+04  0.24070279213E+04  0.25500000920E-02 0. -1.
    10030    2    1    2    0    0  0.00000000000E+00  0.00000000000E+00 -0.14095540954E+04  0.34045017473E+04  0.30989981283E+04 0.  0.
        4    1    3    3  502    0 -0.13698909374E+04 -0.28803511736E+02  0.90094179823E+02  0.13731530857E+04  0.12699999809E+01 0.  1.
       -4    1    3    3    0  502  0.13698909374E+04  0.28803511736E+02 -0.14996482752E+04  0.20313486616E+04  0.12699999809E+01 0. -1.
</event>
<event>
 5   0  0.3445410E-06  0.3091960E+04  0.7818609E-02  0.8217948E-01
        2   -1    0    0  501    0  0.00000000000E+00  0.00000000000E+00  0.26613785506E+04  0.26613785506E+04  0.25500000920E-02 0.  1.
       -2   -1    0    0    0  501  0.00000000000E+00  0.00000000000E+00 -0.89805113238E+03  0.89805113239E+03  0.25500000920E-02 0. -1.
    10030    2    1    2    0    0  0.00000000000E+00  0.00000000000E+00  0.17633274182E+04  0.35594296830E+04  0.30919599099E+04 0.  0.
        1    1    3    3  502    0  0.89577415691E+03 -0.61728962021E+03 -0.38286164411E+03  0.11532739718E+04  0.50400001928E-02 0. -1.
       -1    1    3    3    0  502 -0.89577415691E+03  0.61728962021E+03  0.21461890623E+04  0.24061557112E+04  0.50400001928E-02 0.  1.
</event>
<event>
 5   0  0.1171915E-06  0.3096600E+04  0.7818609E-02  0.8216672E-01
        1   -1    0    0  501    0  0.00000000000E+00  0.00000000000E+00  0.19424463527E+04  0.19424463527E+04  0.50400001928E-02 0.  1.
       -1   -1    0    0    0  501  0.00000000000E+00  0.00000000000E+00 -0.12341308894E+04  0.12341308894E+04  0.50400001928E-02 0. -1.
    10030    2    1    2    0    0  0.00000000000E+00  0.00000000000E+00  0.70831546331E+03  0.31765772422E+04  0.30966001001E+04 0.  0.
        2    1    3    3  502    0  0.26312003390E+03  0.49522255317E+03  0.18346067055E+04  0.19184001911E+04  0.25500000920E-02 0.  1.
       -2    1    3    3    0  502 -0.26312003390E+03 -0.49522255317E+03 -0.11262912422E+04  0.12581770510E+04  0.25500000920E-02 0. -1.
</event>
<event>
 5   0  0.3374790E-06  0.2969426E+04  0.7818609E-02  0.8252516E-01
       -2   -1    0    0    0  501  0.00000000000E+00  0.00000000000E+00  0.11233677733E+04  0.11233677733E+04  0.25500000920E-02 0. -1.
        2   -1    0    0  501    0  0.00000000000E+00  0.00000000000E+00 -0.19622896388E+04  0.19622896388E+04  0.25500000920E-02 0.  1.
    10030    2    1    2    0    0  0.00000000000E+00  0.00000000000E+00 -0.83892186548E+03  0.30856574122E+04  0.29694261683E+04 0.  0.
        2    1    3    3  502    0 -0.82279274462E+03 -0.53600469301E+03 -0.15766404264E+04  0.18574401648E+04  0.25500000920E-02 0.  1.
       -2    1    3    3    0  502  0.82279274462E+03  0.53600469301E+03  0.73771856096E+03  0.12282172474E+04  0.25500000920E-02 0. -1.
</event>
<event>
 5   0  0.3340899E-06  0.3051252E+04  0.7818609E-02  0.8229245E-01
       -2   -1    0    0    0  501  0.00000000000E+00  0.00000000000E+00  0.21560808906E+04  0.21560808906E+04  0.25500000920E-02 0. -1.
        2   -1    0    0  501    0  0.00000000000E+00  0.00000000000E+00 -0.10795213965E+04  0.10795213965E+04  0.25500000920E-02 0.  1.
    10030    2    1    2    0    0  0.00000000000E+00  0.00000000000E+00  0.10765594941E+04  0.32356022870E+04  0.30512524995E+04 0.  0.
        3    1    3    3  502    0  0.72402782853E+03  0.10289565624E+03  0.19581041171E+04  0.20902094527E+04  0.10100000352E+00 0. -1.
       -3    1    3    3    0  502 -0.72402782853E+03 -0.10289565624E+03 -0.88154462296E+03  0.11453928344E+04  0.10100000352E+00 0.  1.
</event>
<event>
 5   0  0.1211008E-06  0.3068915E+04  0.7818609E-02  0.8224321E-01
       -1   -1    0    0    0  501  0.00000000000E+00  0.00000000000E+00  0.13460591321E+04  0.13460591321E+04  0.50400001928E-02 0.  1.
        1   -1    0    0  501    0  0.00000000000E+00  0.00000000000E+00 -0.17492245492E+04  0.17492245492E+04  0.50400001928E-02 0. -1.
    10030    2    1    2    0    0  0.00000000000E+00  0.00000000000E+00 -0.40316541711E+03  0.30952836813E+04  0.30689149083E+04 0.  0.
        3    1    3    3  502    0 -0.12863248033E+04  0.67164909575E+03 -0.70468288227E+03  0.16131714051E+04  0.10100000352E+00 0. -1.
       -3    1    3    3    0  502  0.12863248033E+04 -0.67164909575E+03  0.30151746516E+03  0.14821122762E+04  0.10100000352E+00 0.  1.
</event>
<event>
 5   0  0.3441897E-06  0.3091274E+04  0.7818609E-02  0.8218137E-01
        2   -1    0    0  501    0  0.00000000000E+00  0.00000000000E+00  0.14979496943E+04  0.14979496943E+04  0.25500000920E-02 0. -1.
       -2   -1    0    0    0  501  0.00000000000E+00  0.00000000000E+00 -0.15948419896E+04  0.15948419896E+04  0.25500000920E-02 0.  1.
    10030    2    1    2    0    0  0.00000000000E+00  0.00000000000E+00 -0.96892295265E+02  0.30927916839E+04  0.30912735698E+04 0.  0.
        5    1    3    3  502    0 -0.11420520583E+04  0.73550575917E+03 -0.78618154992E+03  0.15695079309E+04  0.46999998093E+01 0.  1.
       -5    1    3    3    0  502  0.11420520583E+04 -0.73550575917E+03  0.68928925466E+03  0.15232837530E+04  0.46999998093E+01 0. -1.
</event>
<event>
 5   0  0.1235960E-06  0.3076979E+04  0.7818609E-02  0.8222084E-01
       -1   -1    0    0    0  501  0.00000000000E+00  0.00000000000E+00  0.18134687945E+04  0.18134687946E+04  0.50400001928E-02 0. -1.
        1   -1    0    0  501    0  0.00000000000E+00  0.00000000000E+00 -0.13052053618E+04  0.13052053618E+04  0.50400001928E-02 0.  1.
    10030    2    1    2    0    0  0.00000000000E+00  0.00000000000E+00  0.50826343273E+03  0.31186741564E+04  0.30769785142E+04 0.  0.
        4    1    3    3  502    0  0.12713274888E+04 -0.88133712382E+01  0.11322413742E+04  0.17024462992E+04  0.12699999809E+01 0. -1.
       -4    1    3    3    0  502 -0.12713274888E+04  0.88133712382E+01 -0.62397794147E+03  0.14162278572E+04  0.12699999809E+01 0.  1.
</event>
<event>
 5   0  0.3445410E-06  0.3119211E+04  0.7818609E-02  0.8210485E-01
       -2   -1    0    0    0  501  0.00000000000E+00  0.00000000000E+00  0.19347090194E+04  0.19347090194E+04  0.25500000920E-02 0. -1.
        2   -1    0    0  501    0  0.00000000000E+00  0.00000000000E+00 -0.12572271309E+04  0.12572271309E+04  0.25500000920E-02 0.  1.
    10030    2    1    2    0    0  0.00000000000E+00  0.00000000000E+00  0.67748188843E+03  0.31919361503E+04  0.31192105858E+04 0.  0.
        1    1    3    3  502    0 -0.74411877823E+03 -0.57207245753E+03  0.16133290328E+04  0.18664967777E+04  0.50400001928E-02 0. -1.
       -1    1    3    3    0  502  0.74411877823E+03  0.57207245753E+03 -0.93584714441E+03  0.13254393726E+04  0.50400001928E-02 0.  1.
</event>
<event>
 5   0  0.3374790E-06  0.3069852E+04  0.7818609E-02  0.8224061E-01
        2   -1    0    0  501    0  0.00000000000E+00  0.00000000000E+00  0.21288498523E+04  0.21288498523E+04  0.25500000920E-02 0.  1.
       -2   -1    0    0    0  501  0.00000000000E+00  0.00000000000E+00 -0.11067002121E+04  0.11067002121E+04  0.25500000920E-02 0. -1.
    10030    2    1    2    0    0  0.00000000000E+00  0.00000000000E+00  0.10221496402E+04  0.32355500644E+04  0.30698524936E+04 0.  0.
        2    1    3    3  502    0  0.10426754377E+04  0.10642106123E+04  0.12198459269E+03  0.14948566943E+04  0.25500000920E-02 0. -1.
       -2    1    3    3    0  502 -0.10426754377E+04 -0.10642106123E+04  0.90016504752E+03  0.17406933701E+04  0.25500000920E-02 0.  1.
</event>
<event>
 5   0  0.1250276E-06  0.3154783E+04  0.7818609E-02  0.8200862E-01
       -1   -1    0    0    0  501  0.00000000000E+00  0.00000000000E+00  0.17045355121E+04  0.17045355121E+04  0.50400001928E-02 0. -1.
        1   -1    0    0  501    0  0.00000000000E+00  0.00000000000E+00 -0.14597309992E+04  0.14597309992E+04  0.50400001928E-02 0.  1.
    10030    2    1    2    0    0  0.00000000000E+00  0.00000000000E+00  0.24480451290E+03  0.31642665112E+04  0.31547826081E+04 0.  0.
        5    1    3    3  502    0 -0.58035923414E+03  0.92530696672E+03 -0.10190573187E+04  0.14938238625E+04  0.46999998093E+01 0.  1.
       -5    1    3    3    0  502  0.58035923414E+03 -0.92530696672E+03  0.12638618316E+04  0.16704426487E+04  0.46999998093E+01 0. -1.
</event>
<event>
 5   0  0.3445959E-06  0.3289159E+04  0.7818609E-02  0.8165659E-01
        2   -1    0    0  501    0  0.00000000000E+00  0.00000000000E+00  0.15762429992E+04  0.15762429992E+04  0.25500000920E-02 0.  1.
       -2   -1    0    0    0  501  0.00000000000E+00  0.00000000000E+00 -0.17158782412E+04  0.17158782412E+04  0.25500000920E-02 0. -1.
    10030    2    1    2    0    0  0.00000000000E+00  0.00000000000E+00 -0.13963524200E+03  0.32921212403E+04  0.32891585946E+04 0.  0.
        4    1    3    3  502    0 -0.60555103362E+03 -0.68300514151E+03 -0.14390598347E+04  0.17041369952E+04  0.12699999809E+01 0. -1.
       -4    1    3    3    0  502  0.60555103362E+03  0.68300514151E+03  0.12994245927E+04  0.15879842451E+04  0.12699999809E+01 0.  1.
</event>
<event>
 5   0  0.3441897E-06  0.3140702E+04  0.7818609E-02  0.8204656E-01
        2   -1    0    0  501    0  0.00000000000E+00  0.00000000000E+00  0.21233473621E+04  0.21233473621E+04  0.25500000920E-02 0.  1.
       -2   -1    0    0    0  501  0.00000000000E+00  0.00000000000E+00 -0.11613746652E+04  0.11613746652E+04  0.25500000920E-02 0. -1.
    10030    2    1    2    0    0  0.00000000000E+00  0.00000000000E+00  0.96197269690E+03  0.32847220273E+04  0.31407017253E+04 0.  0.
        5    1    3    3  502    0 -0.11456748778E+03  0.89884412678E+03 -0.86037587700E+03  0.12495259954E+04  0.46999998093E+01 0.  1.
       -5    1    3    3    0  502  0.11456748778E+03 -0.89884412678E+03  0.18223485739E+04  0.20351960319E+04  0.46999998093E+01 0. -1.
</event>
<event>
 5   0  0.1235960E-06  0.3067985E+04  0.7818609E-02  0.8224579E-01
        1   -1    0    0  501    0  0.00000000000E+00  0.00000000000E+00  0.19525857727E+04  0.19525857727E+04  0.50400001928E-02 0. -1.
       -1   -1    0    0    0  501  0.00000000000E+00  0.00000000000E+00 -0.12051366738E+04  0.12051366738E+04  0.50400001928E-02 0.  1.
    10030    2    1    2    0    0  0.00000000000E+00  0.00000000000E+00  0.74744909891E+03  0.31577224466E+04  0.30679848263E+04 0.  0.
        4    1    3    3  502    0  0.67259817323E+03 -0.31129611215E+03 -0.10086300352E+04  0.12516508031E+04  0.12699999809E+01 0.  1.
       -4    1    3    3    0  502 -0.67259817323E+03  0.31129611215E+03  0.17560791341E+04  0.19060716435E+04  0.12699999809E+01 0. -1.
</event>
<event>
 5   0  0.3340899E-06  0.3091996E+04  0.7818609E-02  0.8217938E-01
        2   -1    0    0  501    0  0.00000000000E+00  0.00000000000E+00  0.18907389625E+04  0.18907389625E+04  0.25500000920E-02 0.  1.
       -2   -1    0    0    0  501  0.00000000000E+00  0.00000000000E+00 -0.12641143539E+04  0.12641143539E+04  0.25500000920E-02 0. -1.
    10030    2    1    2    0    0  0.00000000000E+00  0.00000000000E+00  0.62662460867E+03  0.31548533164E+04  0.30919962884E+04 0.  0.
        3    1    3    3  502    0 -0.33880977512E+03  0.14763242145E+04 -0.24708536974E+01  0.15147050423E+04  0.10100000352E+00 0. -1.
       -3    1    3    3    0  502  0.33880977512E+03 -0.14763242145E+04  0.62909546236E+03  0.16401482741E+04  0.10100000352E+00 0.  1.
</event>
<event>
 5   0  0.1109562E-06  0.3115874E+04  0.7818609E-02  0.8211395E-01
        3   -1    0    0  501    0  0.00000000000E+00  0.00000000000E+00  0.20256398846E+04  0.20256398872E+04  0.10100000352E+00 0. -1.
       -3   -1    0    0    0  501  0.00000000000E+00  0.00000000000E+00 -0.11982224810E+04  0.11982224852E+04  0.10100000352E+00 0.  1.
    10030    2    1    2    0    0  0.00000000000E+00  0.00000000000E+00  0.82741740369E+03  0.32238623724E+04  0.31158737195E+04 0.  0.
        4    1    3    3  502    0  0.14659321253E+04  0.14237556454E+03 -0.11176886677E+03  0.14770652287E+04  0.12699999809E+01 0.  1.
       -4    1    3    3    0  502 -0.14659321253E+04 -0.14237556454E+03  0.93918627046E+03  0.17467971436E+04  0.12699999809E+01 0. -1.
</event>
<event>
 5   0  0.1211008E-06  0.2888345E+04  0.7818609E-02  0.8276354E-01
        1   -1    0    0  501    0  0.00000000000E+00  0.00000000000E+00  0.21863069159E+04  0.21863069159E+04  0.50400001928E-02 0. -1.
       -1   -1    0    0    0  501  0.00000000000E+00  0.00000000000E+00 -0.95395317484E+03  0.95395317485E+03  0.50400001928E-02 0.  1.
    10030    2    1    2    0    0  0.00000000000E+00  0.00000000000E+00  0.12323537411E+04  0.31402600908E+04  0.28883451481E+04 0.  0.
        3    1    3    3  502    0  0.87719734571E+03 -0.70382349846E+03 -0.36881583102E+03  0.11835826240E+04  0.10100000352E+00 0.  1.
       -3    1    3    3    0  502 -0.87719734571E+03  0.70382349846E+03  0.16011695721E+04  0.19566774668E+04  0.10100000352E+00 0. -1.
</event>
<event>
 5   0  0.1211008E-06  0.3109836E+04  0.7818609E-02  0.8213044E-01
       -1   -1    0    0    0  501  0.00000000000E+00  0.00000000000E+00  0.14614244473E+04  0.14614244473E+04  0.50400001928E-02 0. -1.
        1   -1    0    0  501    0  0.00000000000E+00  0.00000000000E+00 -0.16543928063E+04  0.16543928063E+04  0.50400001928E-02 0.  1.
    10030    2    1    2    0    0  0.00000000000E+00  0.00000000000E+00 -0.19296835898E+03  0.31158172535E+04  0.31098360680E+04 0.  0.
        3    1    3    3  502    0 -0.10560012580E+04 -0.86293128951E+03  0.65193376681E+03  0.15115577111E+04  0.10100000352E+00 0. -1.
       -3    1    3    3    0  502  0.10560012580E+04  0.86293128951E+03 -0.84490212578E+03  0.16042595425E+04  0.10100000352E+00 0.  1.
</event>
<event>
 5   0  0.1198763E-06  0.2871399E+04  0.7818609E-02  0.8281438E-01
        1   -1    0    0  501    0  0.00000000000E+00  0.00000000000E+00  0.20202158821E+04  0.20202158821E+04  0.50400001928E-02 0.  1.
       -1   -1    0    0    0  501  0.00000000000E+00  0.00000000000E+00 -0.10203035211E+04  0.10203035211E+04  0.50400001928E-02 0. -1.
    10030    2    1    2    0    0  0.00000000000E+00  0.00000000000E+00  0.99991236103E+03  0.30405194032E+04  0.28713992253E+04 0.  0.
        1    1    3    3  502    0 -0.70957714484E+03 -0.11937254479E+04  0.11414330840E+03  0.13933803732E+04  0.50400001928E-02 0. -1.
       -1    1    3    3    0  502  0.70957714484E+03  0.11937254479E+04  0.88576905263E+03  0.16471390300E+04  0.50400001928E-02 0.  1.
</event>
<event>
 5   0  0.3340899E-06  0.3106827E+04  0.7818609E-02  0.8213867E-01
       -2   -1    0    0    0  501  0.00000000000E+00  0.00000000000E+00  0.15813903386E+04  0.15813903386E+04  0.25500000920E-02 0.  1.
        2   -1    0    0  501    0  0.00000000000E+00  0.00000000000E+00 -0.15259311795E+04  0.15259311795E+04  0.25500000920E-02 0. -1.
    10030    2    1    2    0    0  0.00000000000E+00  0.00000000000E+00  0.55459159029E+02  0.31073215181E+04  0.31068265639E+04 0.  0.
        3    1    3    3  502    0 -0.13283302711E+04 -0.65111319631E+03  0.50181259523E+03  0.15621221446E+04  0.10100000352E+00 0. -1.
       -3    1    3    3    0  502  0.13283302711E+04  0.65111319631E+03 -0.44635343620E+03  0.15451993735E+04  0.10100000352E+00 0.  1.
</event>
<event>
 5   0  0.1109562E-06  0.3042467E+04  0.7818609E-02  0.8231707E-01
       -3   -1    0    0    0  501  0.00000000000E+00  0.00000000000E+00  0.11789099385E+04  0.11789099428E+04  0.10100000352E+00 0.  1.
        3   -1    0    0  501    0  0.00000000000E+00  0.00000000000E+00 -0.19629588007E+04  0.19629588033E+04  0.10100000352E+00 0. -1.
    10030    2    1    2    0    0  0.00000000000E+00  0.00000000000E+00 -0.78404886224E+03  0.31418687461E+04  0.30424671896E+04 0.  0.
        5    1    3    3  502    0 -0.11250823042E+03 -0.39623541468E+03 -0.19042689404E+04  0.19483128324E+04  0.46999998093E+01 0. -1.
       -5    1    3    3    0  502  0.11250823042E+03  0.39623541468E+03  0.11202200781E+04  0.11935559137E+04  0.46999998093E+01 0.  1.
</event>
<event>
 5   0  0.3340899E-06  0.3096381E+04  0.7818609E-02  0.8216732E-01
        2   -1    0    0  501    0  0.00000000000E+00  0.00000000000E+00  0.20839876882E+04  0.20839876882E+04  0.25500000920E-02 0.  1.
       -2   -1    0    0    0  501  0.00000000000E+00  0.00000000000E+00 -0.11501475129E+04  0.11501475129E+04  0.25500000920E-02 0. -1.
    10030    2    1    2    0    0  0.00000000000E+00  0.00000000000E+00  0.93384017535E+03  0.32341352011E+04  0.30963806332E+04 0.  0.
        3    1    3    3  502    0  0.57012471247E+03  0.12681808939E+04 -0.24422904393E+03  0.14117268870E+04  0.10100000352E+00 0.  1.
       -3    1    3    3    0  502 -0.57012471247E+03 -0.12681808939E+04  0.11780692193E+04  0.18224083140E+04  0.10100000352E+00 0. -1.
</event>
<event>
 5   0  0.3441897E-06  0.3103728E+04  0.7818609E-02  0.8214716E-01
        2   -1    0    0  501    0  0.00000000000E+00  0.00000000000E+00  0.23309112614E+04  0.23309112614E+04  0.25500000920E-02 0.  1.
       -2   -1    0    0    0  501  0.00000000000E+00  0.00000000000E+00 -0.10331932076E+04  0.10331932076E+04  0.25500000920E-02 0. -1.
    10030    2    1    2    0    0  0.00000000000E+00  0.00000000000E+00  0.12977180538E+04  0.33641044690E+04  0.31037278765E+04 0.  0.
        5    1    3    3  502    0 -0.78616997301E+03  0.23969285171E+03 -0.77790779502E+03  0.11316706752E+04  0.46999998093E+01 0. -1.
       -5    1    3    3    0  502  0.78616997301E+03 -0.23969285171E+03  0.20756258488E+04  0.22324337938E+04  0.46999998093E+01 0.  1.
</event>
<event>
 5   0  0.1171915E-06  0.3139058E+04  0.7818609E-02  0.8205100E-01
       -1   -1    0    0    0  501  0.00000000000E+00  0.00000000000E+00  0.98793001837E+03  0.98793001839E+03  0.50400001928E-02 0.  1.
        1   -1    0    0  501    0  0.00000000000E+00  0.00000000000E+00 -0.24935185756E+04  0.24935185756E+04  0.50400001928E-02 0. -1.
    10030    2    1    2    0    0  0.00000000000E+00  0.00000000000E+00 -0.15055885572E+04  0.34814485940E+04  0.31390583634E+04 0.  0.
        2    1    3    3  502    0 -0.15670816874E+04  0.31687212133E+02 -0.66219739007E+03  0.17015447328E+04  0.25500000920E-02 0.  1.
       -2    1    3    3    0  502  0.15670816874E+04 -0.31687212133E+02 -0.84339116715E+03  0.17799038612E+04  0.25500000920E-02 0. -1.
</event>
<event>
 5   0  0.1235960E-06  0.3088324E+04  0.7818609E-02  0.8218949E-01
       -1   -1    0    0    0  501  0.00000000000E+00  0.00000000000E+00  0.11337226318E+04  0.11337226319E+04  0.50400001928E-02 0.  1.
        1   -1    0    0  501    0  0.00000000000E+00  0.00000000000E+00 -0.21031926027E+04  0.21031926027E+04  0.50400001928E-02 0. -1.
    10030    2    1    2    0    0  0.00000000000E+00  0.00000000000E+00 -0.96946997087E+03  0.32369152346E+04  0.30883244991E+04 0.  0.
        4    1    3    3  502    0 -0.14785140049E+04 -0.29234571875E+03 -0.83700997487E+03  0.17239654848E+04  0.12699999809E+01 0.  1.
       -4    1    3    3    0  502  0.14785140049E+04  0.29234571875E+03 -0.13245999600E+03  0.15129497498E+04  0.12699999809E+01 0. -1.
</event>
<event>
 5   0  0.3374790E-06  0.3076375E+04  0.7818609E-02  0.8222252E-01
        2   -1    0    0  501    0  0.00000000000E+00  0.00000000000E+00  0.18316913713E+04  0.18316913713E+04  0.25500000920E-02 0. -1.
       -2   -1    0    0    0  501  0.00000000000E+00  0.00000000000E+00 -0.12917135156E+04  0.12917135156E+04  0.25500000920E-02 0.  1.
    10030    2    1    2    0    0  0.00000000000E+00  0.00000000000E+00  0.53997785570E+03  0.31234048869E+04  0.30763748151E+04 0.  0.
        2    1    3    3  502    0  0.14877293791E+04  0.13859637990E+03  0.64091339959E+03  0.16258282959E+04  0.25500000920E-02 0. -1.
       -2    1    3    3    0  502 -0.14877293791E+04 -0.13859637990E+03 -0.10093554389E+03  0.14975765910E+04  0.25500000920E-02 0.  1.
</event>
<event>
 5   0  0.3340899E-06  0.3100438E+04  0.7818609E-02  0.8215618E-01
        2   -1    0    0  501    0  0.00000000000E+00  0.00000000000E+00  0.18416547940E+04  0.18416547940E+04  0.25500000920E-02 0. -1.
       -2   -1    0    0    0  501  0.00000000000E+00  0.00000000000E+00 -0.13049019321E+04  0.13049019321E+04  0.25500000920E-02 0.  1.
    10030    2    1    2    0    0  0.00000000000E+00  0.00000000000E+00  0.53675286189E+03  0.31465567261E+04  0.31004379684E+04 0.  0.
        3    1    3    3  502    0  0.66218595328E+03  0.13510464350E+04  0.64724186899E+03  0.16379068207E+04  0.10100000352E+00 0. -1.
       -3    1    3    3    0  502 -0.66218595328E+03 -0.13510464350E+04 -0.11048900710E+03  0.15086499054E+04  0.10100000352E+00 0.  1.
</event>
<event>
 5   0  0.1198763E-06  0.3085191E+04  0.7818609E-02  0.8219814E-01
        1   -1    0    0  501    0  0.00000000000E+00  0.00000000000E+00  0.99343840834E+03  0.99343840835E+03  0.50400001928E-02 0.  1.
       -1   -1    0    0    0  501  0.00000000000E+00  0.00000000000E+00 -0.23953174306E+04  0.23953174306E+04  0.50400001928E-02 0. -1.
    10030    2    1    2    0    0  0.00000000000E+00  0.00000000000E+00 -0.14018790222E+04  0.33887558389E+04  0.30851906494E+04 0.  0.
        1    1    3    3  502    0 -0.40133713127E+03 -0.14759908655E+04 -0.48131610447E+03  0.16035229092E+04  0.50400001928E-02 0. -1.
       -1    1    3    3    0  502  0.40133713127E+03  0.14759908655E+04 -0.92056291777E+03  0.17852329297E+04  0.50400001928E-02 0.  1.
</event>
<event>
 5   0  0.3441897E-06  0.3096573E+04  0.7818609E-02  0.8216679E-01
       -2   -1    0    0    0  501  0.00000000000E+00  0.00000000000E+00  0.16140575435E+04  0.16140575435E+04  0.25500000920E-02 0. -1.
        2   -1    0    0  501    0  0.00000000000E+00  0.00000000000E+00 -0.14851958689E+04  0.14851958689E+04  0.25500000920E-02 0.  1.
    10030    2    1    2    0    0  0.00000000000E+00  0.00000000000E+00  0.12886167456E+03  0.30992534124E+04  0.30965733291E+04 0.  0.
        5    1    3    3  502    0 -0.26508549304E+03  0.66096105484E+03  0.14404042117E+04  0.16068373339E+04  0.46999998093E+01 0. -1.
       -5    1    3    3    0  502  0.26508549304E+03 -0.66096105484E+03 -0.13115425371E+04  0.14924160785E+04  0.46999998093E+01 0.  1.
</event>
<event>
 5   0  0.1235960E-06  0.2857423E+04  0.7818609E-02  0.8285659E-01
        1   -1    0    0  501    0  0.00000000000E+00  0.00000000000E+00  0.16245660185E+04  0.16245660185E+04  0.50400001928E-02 0.  1.
       -1   -1    0    0    0  501  0.00000000000E+00  0.00000000000E+00 -0.12564689262E+04  0.12564689262E+04  0.50400001928E-02 0. -1.
    10030    2    1    2    0    0  0.00000000000E+00  0.00000000000E+00  0.36809709227E+03  0.28810349447E+04  0.28574231194E+04 0.  0.
        4    1    3    3  502    0  0.16665418649E+03 -0.11304761064E+04 -0.68063073787E+03  0.13300412246E+04  0.12699999809E+01 0. -1.
       -4    1    3    3    0  502 -0.16665418649E+03  0.11304761064E+04  0.10487278301E+04  0.15509937200E+04  0.12699999809E+01 0.  1.
</event>
<event>
 5   0  0.1250276E-06  0.3102864E+04  0.7818609E-02  0.8214952E-01
        1   -1    0    0  501    0  0.00000000000E+00  0.00000000000E+00  0.16652160065E+04  0.16652160065E+04  0.50400001928E-02 0.  1.
       -1   -1    0    0    0  501  0.00000000000E+00  0.00000000000E+00 -0.14454224869E+04  0.14454224869E+04  0.50400001928E-02 0. -1.
    10030    2    1    2    0    0  0.00000000000E+00  0.00000000000E+00  0.21979351953E+03  0.31106384934E+04  0.31028636202E+04 0.  0.
        5    1    3    3  502    0  0.70141055874E+03 -0.19897510779E+03 -0.12629690919E+04  0.14583143977E+04  0.46999998093E+01 0. -1.
       -5    1    3    3    0  502 -0.70141055874E+03  0.19897510779E+03  0.14827626114E+04  0.16523240957E+04  0.46999998093E+01 0.  1.
</event>
<event>
 5   0  0.3374790E-06  0.3107424E+04  0.7818609E-02  0.8213703E-01
        2   -1    0    0  501    0  0.00000000000E+00  0.00000000000E+00  0.32642399114E+04  0.32642399114E+04  0.25500000920E-02 0. -1.
       -2   -1    0    0    0  501  0.00000000000E+00  0.00000000000E+00 -0.73953540506E+03  0.73953540507E+03  0.25500000920E-02 0.  1.
    10030    2    1    2    0    0  0.00000000000E+00  0.00000000000E+00  0.25247045063E+04  0.40037753165E+04  0.31074240040E+04 0.  0.
        2    1    3    3  502    0 -0.10275316364E+04 -0.97010340132E+03  0.43022678519E+03  0.14771651769E+04  0.25500000920E-02 0.  1.
       -2    1    3    3    0  502  0.10275316364E+04  0.97010340132E+03  0.20944777211E+04  0.25266101396E+04  0.25500000920E-02 0. -1.
</event>
<event>
 5   0  0.1198763E-06  0.3099261E+04  0.7818609E-02  0.8215941E-01
        1   -1    0    0  501    0  0.00000000000E+00  0.00000000000E+00  0.19153699534E+04  0.19153699534E+04  0.50400001928E-02 0. -1.
       -1   -1    0    0    0  501  0.00000000000E+00  0.00000000000E+00 -0.12537293011E+04  0.12537293011E+04  0.50400001928E-02 0.  1.
    10030    2    1    2    0    0  0.00000000000E+00  0.00000000000E+00  0.66164065226E+03  0.31690992546E+04  0.30992614818E+04 0.  0.
        1    1    3    3  502    0  0.81812735668E+03 -0.12738066457E+04 -0.74508949029E+01  0.15139257770E+04  0.50400001928E-02 0.  1.
       -1    1    3    3    0  502 -0.81812735668E+03  0.12738066457E+04  0.66909154716E+03  0.16551734776E+04  0.50400001928E-02 0. -1.
</event>
<event>
 5   0  0.1171915E-06  0.3129883E+04  0.7818609E-02  0.8207584E-01
        1   -1    0    0  501    0  0.00000000000E+00  0.00000000000E+00  0.15245196452E+04  0.15245196452E+04  0.50400001928E-02 0.  1.
       -1   -1    0    0    0  501  0.00000000000E+00  0.00000000000E+00 -0.16064347379E+04  0.16064347379E+04  0.50400001928E-02 0. -1.
    10030    2    1    2    0    0  0.00000000000E+00  0.00000000000E+00 -0.81915092682E+02  0.31309543831E+04  0.31298826283E+04 0.  0.
        2    1    3    3  502    0 -0.11278310196E+04 -0.63568300343E+03 -0.92043186194E+03  0.15884868593E+04  0.25500000920E-02 0. -1.
       -2    1    3    3    0  502  0.11278310196E+04  0.63568300343E+03  0.83851676926E+03  0.15424675238E+04  0.25500000920E-02 0.  1.
</event>
<event>
 5   0  0.3441897E-06  0.3082312E+04  0.7818609E-02  0.8220609E-01
        2   -1    0    0  501    0  0.00000000000E+00  0.00000000000E+00  0.22559725049E+04  0.22559725049E+04  0.25500000920E-02 0. -1.
       -2   -1    0    0    0  501  0.00000000000E+00  0.00000000000E+00 -0.10528328831E+04  0.10528328831E+04  0.25500000920E-02 0.  1.
    10030    2    1    2    0    0  0.00000000000E+00  0.00000000000E+00  0.12031396218E+04  0.33088053881E+04  0.30823121430E+04 0.  0.
        5    1    3    3  502    0 -0.18114057904E+03  0.14990176035E+04  0.27022329901E+03  0.15339192959E+04  0.46999998093E+01 0.  1.
       -5    1    3    3    0  502  0.18114057904E+03 -0.14990176035E+04  0.93291632279E+03  0.17748860922E+04  0.46999998093E+01 0. -1.
</event>
<event>
 5   0  0.3445959E-06  0.3107272E+04  0.7818609E-02  0.8213745E-01
       -2   -1    0    0    0  501  0.00000000000E+00  0.00000000000E+00  0.13853593620E+04  0.13853593620E+04  0.25500000920E-02 0. -1.
        2   -1    0    0  501    0  0.00000000000E+00  0.00000000000E+00 -0.17423524032E+04  0.17423524032E+04  0.25500000920E-02 0.  1.
    10030    2    1    2    0    0  0.00000000000E+00  0.00000000000E+00 -0.35699304123E+03  0.31277117653E+04  0.31072716095E+04 0.  0.
        4    1    3    3  502    0  0.21017223540E+03 -0.12402270059E+04  0.73933896800E+03  0.14590953078E+04  0.12699999809E+01 0. -1.
       -4    1    3    3    0  502 -0.21017223540E+03  0.12402270059E+04 -0.10963320092E+04  0.16686164575E+04  0.12699999809E+01 0.  1.
</event>
<event>
 5   0  0.1171915E-06  0.3108434E+04  0.7818609E-02  0.8213427E-01
        1   -1    0    0  501    0  0.00000000000E+00  0.00000000000E+00  0.16456494283E+04  0.16456494283E+04  0.50400001928E-02 0. -1.
       -1   -1    0    0    0  501  0.00000000000E+00  0.00000000000E+00 -0.14678641182E+04  0.14678641182E+04  0.50400001928E-02 0.  1.
    10030    2    1    2    0    0  0.00000000000E+00  0.00000000000E+00  0.17778531013E+03  0.31135135465E+04  0.31084335263E+04 0.  0.
        2    1    3    3  502    0 -0.31108794498E+03  0.59640214199E+03 -0.13145104579E+04  0.14766207938E+04  0.25500000920E-02 0.  1.
       -2    1    3    3    0  502  0.31108794498E+03 -0.59640214199E+03  0.14922957681E+04  0.16368927527E+04  0.25500000920E-02 0. -1.
</event>
<event>
 5   0  0.1211008E-06  0.3124196E+04  0.7818609E-02  0.8209129E-01
       -1   -1    0    0    0  501  0.00000000000E+00  0.00000000000E+00  0.15105761896E+04  0.15105761896E+04  0.50400001928E-02 0.  1.
        1   -1    0    0  501    0  0.00000000000E+00  0.00000000000E+00 -0.16153774152E+04  0.16153774152E+04  0.50400001928E-02 0. -1.
    10030    2    1    2    0    0  0.00000000000E+00  0.00000000000E+00 -0.10480122559E+03  0.31259536048E+04  0.31241963194E+04 0.  0.
        3    1    3    3  502    0  0.46137831622E+03 -0.13468166372E+04 -0.69569742816E+03  0.15845440754E+04  0.10100000352E+00 0. -1.
       -3    1    3    3    0  502 -0.46137831622E+03  0.13468166372E+04  0.59089620257E+03  0.15414095294E+04  0.10100000352E+00 0.  1.
</event>
<event>
 5   0  0.1171915E-06  0.2654611E+04  0.7818609E-02  0.8349884E-01
       -1   -1    0    0    0  501  0.00000000000E+00  0.00000000000E+00  0.10590870429E+04  0.10590870429E+04  0.50400001928E-02 0.  1.
        1   -1    0    0  501    0  0.00000000000E+00  0.00000000000E+00 -0.16634508995E+04  0.16634508995E+04  0.50400001928E-02 0. -1.
    10030    2    1    2    0    0  0.00000000000E+00  0.00000000000E+00 -0.60436385654E+03  0.27225379424E+04  0.26546105509E+04 0.  0.
        2    1    3    3  502    0 -0.76186061421E+03 -0.10569044552E+04 -0.56216540894E+03  0.14189815256E+04  0.25500000920E-02 0. -1.
       -2    1    3    3    0  502  0.76186061421E+03  0.10569044552E+04 -0.42198447593E+02  0.13035564168E+04  0.25500000920E-02 0.  1.
</event>
<event>
 5   0  0.3340899E-06  0.3173092E+04  0.7818609E-02  0.8195960E-01
        2   -1    0    0  501    0  0.00000000000E+00  0.00000000000E+00  0.21467333094E+04  0.21467333094E+04  0.25500000920E-02 0.  1.
       -2   -1    0    0    0  501  0.00000000000E+00  0.00000000000E+00 -0.11725387692E+04  0.11725387692E+04  0.25500000920E-02 0. -1.
    10030    2    1    2    0    0  0.00000000000E+00  0.00000000000E+00  0.97419454011E+03  0.33192720786E+04  0.31730918880E+04 0.  0.
        3    1    3    3  502    0  0.12961496538E+03 -0.10023009519E+04 -0.79224122600E+03  0.12841547445E+04  0.10100000352E+00 0. -1.
       -3    1    3    3    0  502 -0.12961496538E+03  0.10023009519E+04  0.17664357661E+04  0.20351173341E+04  0.10100000352E+00 0.  1.
</event>
<event>
 5   0  0.1109562E-06  0.3106184E+04  0.7818609E-02  0.8214043E-01
       -3   -1    0    0    0  501  0.00000000000E+00  0.00000000000E+00  0.18029264586E+04  0.18029264614E+04  0.10100000352E+00 0. -1.
        3   -1    0    0  501    0  0.00000000000E+00  0.00000000000E+00 -0.13378779160E+04  0.13378779198E+04  0.10100000352E+00 0.  1.
    10030    2    1    2    0    0  0.00000000000E+00  0.00000000000E+00  0.46504854256E+03  0.31408043812E+04  0.31061844784E+04 0.  0.
        4    1    3    3  502    0  0.31920189448E+02 -0.12753474175E+04 -0.66310405192E+03  0.14377894597E+04  0.12699999809E+01 0.  1.
       -4    1    3    3    0  502 -0.31920189448E+02  0.12753474175E+04  0.11281525945E+04  0.17030149216E+04  0.12699999809E+01 0. -1.
</event>
<event>
 5   0  0.1235960E-06  0.3088351E+04  0.7818609E-02  0.8218942E-01
        1   -1    0    0  501    0  0.00000000000E+00  0.00000000000E+00  0.10483591739E+04  0.10483591739E+04  0.50400001928E-02 0.  1.
       -1   -1    0    0    0  501  0.00000000000E+00  0.00000000000E+00 -0.22744856149E+04  0.22744856149E+04  0.50400001928E-02 0. -1.
    10030    2    1    2    0    0  0.00000000000E+00  0.00000000000E+00 -0.12261264411E+04  0.33228447888E+04  0.30883509258E+04 0.  0.
        4    1    3    3  502    0 -0.14414453060E+04 -0.30998448946E+03 -0.11928202053E+03  0.14792176199E+04  0.12699999809E+01 0. -1.
       -4    1    3    3    0  502  0.14414453060E+04  0.30998448946E+03 -0.11068444205E+04  0.18436271689E+04  0.12699999809E+01 0.  1.
</event>
<event>
 5   0  0.1211008E-06  0.3066320E+04  0.7818609E-02  0.8225042E-01
       -1   -1    0    0    0  501  0.00000000000E+00  0.00000000000E+00  0.25532406843E+04  0.25532406843E+04  0.50400001928E-02 0.  1.
        1   -1    0    0  501    0  0.00000000000E+00  0.00000000000E+00 -0.92062572207E+03  0.92062572208E+03  0.50400001928E-02 0. -1.
    10030    2    1    2    0    0  0.00000000000E+00  0.00000000000E+00  0.16326149622E+04  0.34738664064E+04  0.30663196498E+04 0.  0.
        3    1    3    3  502    0 -0.12707491719E+04  0.70764357183E+03  0.13655252073E+04  0.19950493690E+04  0.10100000352E+00 0.  1.
       -3    1    3    3    0  502  0.12707491719E+04 -0.70764357183E+03  0.26708975496E+03  0.14788170374E+04  0.10100000352E+00 0. -1.
</event>
<event>
 5   0  0.3445410E-06  0.3091362E+04  0.7818609E-02  0.8218112E-01
       -2   -1    0    0    0  501  0.00000000000E+00  0.00000000000E+00  0.16140514035E+04  0.16140514035E+04  0.25500000920E-02 0.  1.
        2   -1    0    0  501    0  0.00000000000E+00  0.00000000000E+00 -0.14802069045E+04  0.14802069045E+04  0.25500000920E-02 0. -1.
    10030    2    1    2    0    0  0.00000000000E+00  0.00000000000E+00  0.13384449896E+03  0.30942583080E+04  0.30913621798E+04 0.  0.
        1    1    3    3  502    0  0.67466757314E+03 -0.25096534613E+03 -0.13021932876E+04  0.14879070191E+04  0.50400001928E-02 0. -1.
       -1    1    3    3    0  502 -0.67466757314E+03  0.25096534613E+03  0.14360377865E+04  0.16063512890E+04  0.50400001928E-02 0.  1.
</event>
<event>
 5   0  0.1198763E-06  0.3119331E+04  0.7818609E-02  0.8210453E-01
        1   -1    0    0  501    0  0.00000000000E+00  0.00000000000E+00  0.14933119911E+04  0.14933119911E+04  0.50400001928E-02 0. -1.
       -1   -1    0    0    0  501  0.00000000000E+00  0.00000000000E+00 -0.16289678098E+04  0.16289678099E+04  0.50400001928E-02 0.  1.
    10030    2    1    2    0    0  0.00000000000E+00  0.00000000000E+00 -0.13565581878E+03  0.31222798009E+04  0.31193314435E+04 0.  0.
        1    1    3    3  502    0 -0.17139283093E+03  0.40303920823E+03  0.14304974580E+04  0.14960411369E+04  0.50400001928E-02 0. -1.
       -1    1    3    3    0  502  0.17139283093E+03 -0.40303920823E+03 -0.15661532768E+04  0.16262386640E+04  0.50400001928E-02 0.  1.
</event>
<event>
 5   0  0.3340899E-06  0.2985475E+04  0.7818609E-02  0.8247891E-01
        2   -1    0    0  501    0  0.00000000000E+00  0.00000000000E+00  0.19631394751E+04  0.19631394751E+04  0.25500000920E-02 0. -1.
       -2   -1    0    0    0  501  0.00000000000E+00  0.00000000000E+00 -0.11350517442E+04  0.11350517442E+04  0.25500000920E-02 0.  1.
    10030    2    1    2    0    0  0.00000000000E+00  0.00000000000E+00  0.82808773089E+03  0.30981912193E+04  0.29854747598E+04 0.  0.
        3    1    3    3  502    0  0.29175059111E+03  0.14548923509E+04  0.24531781923E+03  0.15039983387E+04  0.10100000352E+00 0. -1.
       -3    1    3    3    0  502 -0.29175059111E+03 -0.14548923509E+04  0.58276991166E+03  0.15941928805E+04  0.10100000352E+00 0.  1.
</event>
<event>
 5   0  0.3340899E-06  0.3097603E+04  0.7818609E-02  0.8216396E-01
       -2   -1    0    0    0  501  0.00000000000E+00  0.00000000000E+00  0.11707500108E+04  0.11707500108E+04  0.25500000920E-02 0. -1.
        2   -1    0    0  501    0  0.00000000000E+00  0.00000000000E+00 -0.20489310311E+04  0.20489310311E+04  0.25500000920E-02 0.  1.
    10030    2    1    2    0    0  0.00000000000E+00  0.00000000000E+00 -0.87818102028E+03  0.32196810419E+04  0.30976029615E+04 0.  0.
        3    1    3    3  502    0  0.82440520023E+03 -0.89492804461E+03 -0.14351071481E+04  0.18815080855E+04  0.10100000352E+00 0.  1.
       -3    1    3    3    0  502 -0.82440520023E+03  0.89492804461E+03  0.55692612778E+03  0.13381729564E+04  0.10100000352E+00 0. -1.
</event>
<event>
 5   0  0.3445959E-06  0.3063771E+04  0.7818609E-02  0.8225752E-01
       -2   -1    0    0    0  501  0.00000000000E+00  0.00000000000E+00  0.99211156779E+03  0.99211156779E+03  0.25500000920E-02 0.  1.
        2   -1    0    0  501    0  0.00000000000E+00  0.00000000000E+00 -0.23653312760E+04  0.23653312760E+04  0.25500000920E-02 0. -1.
    10030    2    1    2    0    0  0.00000000000E+00  0.00000000000E+00 -0.13732197082E+04  0.33574428438E+04  0.30637705662E+04 0.  0.
        4    1    3    3  502    0 -0.12469320426E+04  0.25084746047E+03  0.24898630712E+03  0.12960554623E+04  0.12699999809E+01 0. -1.
       -4    1    3    3    0  502  0.12469320426E+04 -0.25084746047E+03 -0.16222060154E+04  0.20613873815E+04  0.12699999809E+01 0.  1.
</event>
<event>
 5   0  0.1211008E-06  0.3050134E+04  0.7818609E-02  0.8229558E-01
       -1   -1    0    0    0  501  0.00000000000E+00  0.00000000000E+00  0.88722202249E+03  0.88722202250E+03  0.50400001928E-02 0.  1.
        1   -1    0    0  501    0  0.00000000000E+00  0.00000000000E+00 -0.26214734996E+04  0.26214734996E+04  0.50400001928E-02 0. -1.
    10030    2    1    2    0    0  0.00000000000E+00  0.00000000000E+00 -0.17342514771E+04  0.35086955221E+04  0.30501337808E+04 0.  0.
        3    1    3    3  502    0 -0.11236073116E+04 -0.91371877084E+03 -0.31729904159E+03  0.14825835811E+04  0.10100000352E+00 0.  1.
       -3    1    3    3    0  502  0.11236073116E+04  0.91371877084E+03 -0.14169524355E+04  0.20261119410E+04  0.10100000352E+00 0. -1.
</event>
<event>
 5   0  0.3445959E-06  0.3068291E+04  0.7818609E-02  0.8224494E-01
       -2   -1    0    0    0  501  0.00000000000E+00  0.00000000000E+00  0.12519432292E+04  0.12519432292E+04  0.25500000920E-02 0.  1.
        2   -1    0    0  501    0  0.00000000000E+00  0.00000000000E+00 -0.18799593452E+04  0.18799593452E+04  0.25500000920E-02 0. -1.
    10030    2    1    2    0    0  0.00000000000E+00  0.00000000000E+00 -0.62801611599E+03  0.31319025744E+04  0.30682909728E+04 0.  0.
        4    1    3    3  502    0  0.70126908886E+03 -0.10314500663E+04 -0.12257983532E+04  0.17487855185E+04  0.12699999809E+01 0. -1.
       -4    1    3    3    0  502 -0.70126908886E+03  0.10314500663E+04  0.59778223722E+03  0.13831170559E+04  0.12699999809E+01 0.  1.
</event>
<event>
 5   0  0.1250276E-06  0.3085565E+04  0.7818609E-02  0.8219711E-01
       -1   -1    0    0    0  501  0.00000000000E+00  0.00000000000E+00  0.15370307267E+04  0.15370307267E+04  0.50400001928E-02 0.  1.
        1   -1    0    0  501    0  0.00000000000E+00  0.00000000000E+00 -0.15485558154E+04  0.15485558154E+04  0.50400001928E-02 0. -1.
    10030    2    1    2    0    0  0.00000000000E+00  0.00000000000E+00 -0.11525088661E+02  0.30855865421E+04  0.30855650181E+04 0.  0.
        5    1    3    3  502    0 -0.90520533271E+03 -0.12394597691E+04 -0.16228381582E+03  0.15433778995E+04  0.46999998093E+01 0. -1.
       -5    1    3    3    0  502  0.90520533271E+03  0.12394597691E+04  0.15075872716E+03  0.15422086426E+04  0.46999998093E+01 0.  1.
</event>
<event>
 5   0  0.3445410E-06  0.3122881E+04  0.7818609E-02  0.8209486E-01
        2   -1    0    0  501    0  0.00000000000E+00  0.00000000000E+00  0.95459473946E+03  0.95459473946E+03  0.25500000920E-02 0. -1.
       -2   -1    0    0    0  501  0.00000000000E+00  0.00000000000E+00 -0.25540646889E+04  0.25540646889E+04  0.25500000920E-02 0.  1.
    10030    2    1    2    0    0  0.00000000000E+00  0.00000000000E+00 -0.15994699495E+04  0.35086594284E+04  0.31228811801E+04 0.  0.
        1    1    3    3  502    0 -0.28393028496E+03 -0.70080454257E+03 -0.23346441577E+04  0.24540388662E+04  0.50400001928E-02 0.  1.
       -1    1    3    3    0  502  0.28393028496E+03  0.70080454257E+03  0.73517420828E+03  0.10546205622E+04  0.50400001928E-02 0. -1.
</event>
<event>
 5   0  0.1171915E-06  0.3119548E+04  0.7818609E-02  0.8210394E-01
       -1   -1    0    0    0  501  0.00000000000E+00  0.00000000000E+00  0.10185631162E+04  0.10185631162E+04  0.50400001928E-02 0. -1.
        1   -1    0    0  501    0  0.00000000000E+00  0.00000000000E+00 -0.23885551832E+04  0.23885551832E+04  0.50400001928E-02 0.  1.
    10030    2    1    2    0    0  0.00000000000E+00  0.00000000000E+00 -0.13699920670E+04  0.34071182994E+04  0.31195475381E+04 0.  0.
        2    1    3    3  502    0 -0.18013169791E+03  0.83085369560E+03  0.74327303342E+03  0.11292564342E+04  0.25500000920E-02 0. -1.
       -2    1    3    3    0  502  0.18013169791E+03 -0.83085369560E+03 -0.21132651004E+04  0.22778618651E+04  0.25500000920E-02 0.  1.
</event>
<event>
 5   0  0.3441897E-06  0.3079289E+04  0.7818609E-02  0.8221445E-01
        2   -1    0    0  501    0  0.00000000000E+00  0.00000000000E+00  0.20406914127E+04  0.20406914127E+04  0.25500000920E-02 0. -1.
       -2   -1    0    0    0  501  0.00000000000E+00  0.00000000000E+00 -0.11616190174E+04  0.11616190174E+04  0.25500000920E-02 0.  1.
    10030    2    1    2    0    0  0.00000000000E+00  0.00000000000E+00  0.87907239529E+03  0.32023104301E+04  0.30792894983E+04 0.  0.
        5    1    3    3  502    0 -0.12437681350E+04  0.64351509903E+03  0.11049529452E+04  0.17838200462E+04  0.46999998093E+01 0. -1.
       -5    1    3    3    0  502  0.12437681350E+04 -0.64351509903E+03 -0.22588054989E+03  0.14184903839E+04  0.46999998093E+01 0.  1.
</event>
<event>
 5   0  0.1211008E-06  0.3115984E+04  0.7818609E-02  0.8211365E-01
        1   -1    0    0  501    0  0.00000000000E+00  0.00000000000E+00  0.13373068962E+04  0.13373068962E+04  0.50400001928E-02 0. -1.
       -1   -1    0    0    0  501  0.00000000000E+00  0.00000000000E+00 -0.18150951212E+04  0.18150951212E+04  0.50400001928E-02 0.  1.
    10030    2    1    2    0    0  0.00000000000E+00  0.00000000000E+00 -0.47778822499E+03  0.31524020174E+04  0.31159840968E+04 0.  0.
        3    1    3    3  502    0  0.10661906385E+04 -0.51529458912E+02 -0.13870240794E+04  0.17502152924E+04  0.10100000352E+00 0.  1.
       -3    1    3    3    0  502 -0.10661906385E+04  0.51529458912E+02  0.90923585440E+03  0.14021867250E+04  0.10100000352E+00 0. -1.
</event>
<event>
 5   0  0.1211008E-06  0.3115274E+04  0.7818609E-02  0.8211559E-01
        1   -1    0    0  501    0  0.00000000000E+00  0.00000000000E+00  0.15246070828E+04  0.15246070828E+04  0.50400001928E-02 0. -1.
       -1   -1    0    0    0  501  0.00000000000E+00  0.00000000000E+00 -0.15913824518E+04  0.15913824518E+04  0.50400001928E-02 0.  1.
    10030    2    1    2    0    0  0.00000000000E+00  0.00000000000E+00 -0.66775368983E+02  0.31159895345E+04  0.31152739574E+04 0.  0.
        3    1    3    3  502    0 -0.66769934965E+03 -0.12426209476E+04  0.62729693535E+03  0.15438363567E+04  0.10100000352E+00 0. -1.
       -3    1    3    3    0  502  0.66769934965E+03  0.12426209476E+04 -0.69407230433E+03  0.15721531779E+04  0.10100000352E+00 0.  1.
</event>
<event>
 5   0  0.1211008E-06  0.3075059E+04  0.7818609E-02  0.8222616E-01
        1   -1    0    0  501    0  0.00000000000E+00  0.00000000000E+00  0.12930764054E+04  0.12930764054E+04  0.50400001928E-02 0.  1.
       -1   -1    0    0    0  501  0.00000000000E+00  0.00000000000E+00 -0.18281957081E+04  0.18281957081E+04  0.50400001928E-02 0. -1.
    10030    2    1    2    0    0  0.00000000000E+00  0.00000000000E+00 -0.53511930275E+03  0.31212721135E+04  0.30750588512E+04 0.  0.
        3    1    3    3  502    0  0.72836950592E+03  0.96134063852E+03  0.70034260165E+03  0.13946962860E+04  0.10100000352E+00 0. -1.
       -3    1    3    3    0  502 -0.72836950592E+03 -0.96134063852E+03 -0.12354619044E+04  0.17265758274E+04  0.10100000352E+00 0.  1.
</event>
<event>
 5   0  0.1171915E-06  0.2920385E+04  0.7818609E-02  0.8266838E-01
        1   -1    0    0  501    0  0.00000000000E+00  0.00000000000E+00  0.27441237329E+04  0.27441237329E+04  0.50400001928E-02 0. -1.
       -1   -1    0    0    0  501  0.00000000000E+00  0.00000000000E+00 -0.77699187143E+03  0.77699187144E+03  0.50400001928E-02 0.  1.
    10030    2    1    2    0    0  0.00000000000E+00  0.00000000000E+00  0.19671318615E+04  0.35211156044E+04  0.29203847929E+04 0.  0.
        2    1    3    3  502    0  0.50600365807E+03  0.36519200955E+03 -0.60812453437E+03  0.87133251697E+03  0.25500000920E-02 0.  1.
       -2    1    3    3    0  502 -0.50600365807E+03 -0.36519200955E+03  0.25752563958E+04  0.26497830874E+04  0.25500000920E-02 0. -1.
</event>
<event>
 5   0  0.1250276E-06  0.3099733E+04  0.7818609E-02  0.8215811E-01
       -1   -1    0    0    0  501  0.00000000000E+00  0.00000000000E+00  0.14069246668E+04  0.14069246668E+04  0.50400001928E-02 0. -1.
        1   -1    0    0  501    0  0.00000000000E+00  0.00000000000E+00 -0.17073308687E+04  0.17073308687E+04  0.50400001928E-02 0.  1.
    10030    2    1    2    0    0  0.00000000000E+00  0.00000000000E+00 -0.30040620185E+03  0.31142555355E+04  0.30997328359E+04 0.  0.
        5    1    3    3  502    0 -0.15118760535E+04 -0.15880436673E+03 -0.45340468654E+03  0.15863750905E+04  0.46999998093E+01 0. -1.
       -5    1    3    3    0  502  0.15118760535E+04  0.15880436673E+03  0.15299848470E+03  0.15278804450E+04  0.46999998093E+01 0.  1.
</event>
<event>
 5   0  0.3441897E-06  0.3211930E+04  0.7818609E-02  0.8185674E-01
        2   -1    0    0  501    0  0.00000000000E+00  0.00000000000E+00  0.13062559093E+04  0.13062559093E+04  0.25500000920E-02 0.  1.
       -2   -1    0    0    0  501  0.00000000000E+00  0.00000000000E+00 -0.19744397897E+04  0.19744397897E+04  0.25500000920E-02 0. -1.
    10030    2    1    2    0    0  0.00000000000E+00  0.00000000000E+00 -0.66818388038E+03  0.32806956990E+04  0.32119300384E+04 0.  0.
        5    1    3    3  502    0 -0.84535416661E+03 -0.51573410644E+03 -0.16254767652E+04  0.19033660026E+04  0.46999998093E+01 0. -1.
       -5    1    3    3    0  502  0.84535416661E+03  0.51573410644E+03  0.95729288480E+03  0.13773296965E+04  0.46999998093E+01 0.  1.
</event>
<event>
 5   0  0.1109562E-06  0.3102769E+04  0.7818609E-02  0.8214978E-01
        3   -1    0    0  501    0  0.00000000000E+00  0.00000000000E+00  0.28003432228E+04  0.28003432246E+04  0.10100000352E+00 0.  1.
       -3   -1    0    0    0  501  0.00000000000E+00  0.00000000000E+00 -0.85946376435E+03  0.85946377029E+03  0.10100000352E+00 0. -1.
    10030    2    1    2    0    0  0.00000000000E+00  0.00000000000E+00  0.19408794584E+04  0.36598069949E+04  0.31027687906E+04 0.  0.
        4    1    3    3  502    0  0.34385166763E+03  0.14918168978E+04  0.67428551629E+03  0.16728461364E+04  0.12699999809E+01 0. -1.
       -4    1    3    3    0  502 -0.34385166763E+03 -0.14918168978E+04  0.12665939421E+04  0.19869608584E+04  0.12699999809E+01 0.  1.
</event>
<event>
 5   0  0.3445410E-06  0.3354635E+04  0.7818609E-02  0.8149131E-01
       -2   -1    0    0    0  501  0.00000000000E+00  0.00000000000E+00  0.12481690737E+04  0.12481690737E+04  0.25500000920E-02 0.  1.
        2   -1    0    0  501    0  0.00000000000E+00  0.00000000000E+00 -0.22540167664E+04  0.22540167664E+04  0.25500000920E-02 0. -1.
    10030    2    1    2    0    0  0.00000000000E+00  0.00000000000E+00 -0.10058476928E+04  0.35021858401E+04  0.33546350141E+04 0.  0.
        1    1    3    3  502    0 -0.16153871030E+04 -0.36759253038E+03 -0.22910079299E+03  0.16724493817E+04  0.50400001928E-02 0. -1.
       -1    1    3    3    0  502  0.16153871030E+04  0.36759253038E+03 -0.77674689977E+03  0.18297364584E+04  0.50400001928E-02 0.  1.
</event>
<event>
 5   0  0.1198763E-06  0.3078255E+04  0.7818609E-02  0.8221731E-01
        1   -1    0    0  501    0  0.00000000000E+00  0.00000000000E+00  0.20112597817E+04  0.20112597817E+04  0.50400001928E-02 0.  1.
       -1   -1    0    0    0  501  0.00000000000E+00  0.00000000000E+00 -0.11778256776E+04  0.11778256776E+04  0.50400001928E-02 0. -1.
    10030    2    1    2    0    0  0.00000000000E+00  0.00000000000E+00  0.83343410409E+03  0.31890854592E+04  0.30782549700E+04 0.  0.
        1    1    3    3  502    0  0.76469956164E+03  0.63448175677E+03 -0.80100936517E+03  0.12763026766E+04  0.50400001928E-02 0. -1.
       -1    1    3    3    0  502 -0.76469956164E+03 -0.63448175677E+03  0.16344434693E+04  0.19127827826E+04  0.50400001928E-02 0.  1.
</event>
<event>
 5   0  0.3445959E-06  0.2626157E+04  0.7818609E-02  0.8359370E-01
       -2   -1    0    0    0  501  0.00000000000E+00  0.00000000000E+00  0.16552123676E+04  0.16552123676E+04  0.25500000920E-02 0. -1.
        2   -1    0    0  501    0  0.00000000000E+00  0.00000000000E+00 -0.10416637855E+04  0.10416637855E+04  0.25500000920E-02 0.  1.
    10030    2    1    2    0    0  0.00000000000E+00  0.00000000000E+00  0.61354858213E+03  0.26968761532E+04  0.26261567209E+04 0.  0.
        4    1    3    3  502    0  0.10918429127E+04 -0.10568518091E+03  0.10479316046E+04  0.15170539095E+04  0.12699999809E+01 0. -1.
       -4    1    3    3    0  502 -0.10918429127E+04  0.10568518091E+03 -0.43438302243E+03  0.11798222437E+04  0.12699999809E+01 0.  1.
</event>
<event>
 5   0  0.3340899E-06  0.3093401E+04  0.7818609E-02  0.8217551E-01
        2   -1    0    0  501    0  0.00000000000E+00  0.00000000000E+00  0.13684136997E+04  0.13684136997E+04  0.25500000920E-02 0.  1.
       -2   -1    0    0    0  501  0.00000000000E+00  0.00000000000E+00 -0.17482157338E+04  0.17482157338E+04  0.25500000920E-02 0. -1.
    10030    2    1    2    0    0  0.00000000000E+00  0.00000000000E+00 -0.37980203412E+03  0.31166294336E+04  0.30934009506E+04 0.  0.
        3    1    3    3  502    0  0.38111553737E+03  0.43646788883E+03  0.12549277519E+04  0.13822434458E+04  0.10100000352E+00 0.  1.
       -3    1    3    3    0  502 -0.38111553737E+03 -0.43646788883E+03 -0.16347297860E+04  0.17343859877E+04  0.10100000352E+00 0. -1.
</event>
<event>
 5   0  0.1211008E-06  0.3109908E+04  0.7818609E-02  0.8213024E-01
        1   -1    0    0  501    0  0.00000000000E+00  0.00000000000E+00  0.14183111877E+04  0.14183111877E+04  0.50400001928E-02 0.  1.
       -1   -1    0    0    0  501  0.00000000000E+00  0.00000000000E+00 -0.17047609092E+04  0.17047609092E+04  0.50400001928E-02 0. -1.
    10030    2    1    2    0    0  0.00000000000E+00  0.00000000000E+00 -0.28644972148E+03  0.31230720969E+04  0.31099076963E+04 0.  0.
        3    1    3    3  502    0  0.11272515772E+04 -0.10587959513E+04 -0.30557700041E+03  0.15764270672E+04  0.10100000352E+00 0. -1.
       -3    1    3    3    0  502 -0.11272515772E+04  0.10587959513E+04  0.19127278923E+02  0.15466450297E+04  0.10100000352E+00 0.  1.
</event>
<event>
 5   0  0.1250276E-06  0.3178842E+04  0.7818609E-02  0.8194427E-01
        1   -1    0    0  501    0  0.00000000000E+00  0.00000000000E+00  0.21365965213E+04  0.21365965214E+04  0.50400001928E-02 0.  1.
       -1   -1    0    0    0  501  0.00000000000E+00  0.00000000000E+00 -0.11823752912E+04  0.11823752912E+04  0.50400001928E-02 0. -1.
    10030    2    1    2    0    0  0.00000000000E+00  0.00000000000E+00  0.95422123017E+03  0.33189718125E+04  0.31788418860E+04 0.  0.
        5    1    3    3  502    0  0.11345030644E+04 -0.10273387659E+04  0.29596649973E+02  0.15308233715E+04  0.46999998093E+01 0. -1.
       -5    1    3    3    0  502 -0.11345030644E+04  0.10273387659E+04  0.92462458019E+03  0.17881484411E+04  0.46999998093E+01 0.  1.
</event>
<event>
 5   0  0.1235960E-06  0.3061425E+04  0.7818609E-02  0.8226405E-01
       -1   -1    0    0    0  501  0.00000000000E+00  0.00000000000E+00  0.15591819282E+04  0.15591819283E+04  0.50400001928E-02 0.  1.
        1   -1    0    0  501    0  0.00000000000E+00  0.00000000000E+00 -0.15027624753E+04  0.15027624753E+04  0.50400001928E-02 0. -1.
    10030    2    1    2    0    0  0.00000000000E+00  0.00000000000E+00  0.56419452980E+02  0.30619444035E+04  0.30614245664E+04 0.  0.
        4    1    3    3  502    0 -0.12246209874E+04 -0.63604062528E+02  0.94451835808E+03  0.15478561242E+04  0.12699999809E+01 0.  1.
       -4    1    3    3    0  502  0.12246209874E+04  0.63604062528E+02 -0.88809890510E+03  0.15140882794E+04  0.12699999809E+01 0. -1.
</event>
<event>
 5   0  0.3340899E-06  0.3079118E+04  0.7818609E-02  0.8221492E-01
       -2   -1    0    0    0  501  0.00000000000E+00  0.00000000000E+00  0.16616774912E+04  0.16616774912E+04  0.25500000920E-02 0. -1.
        2   -1    0    0  501    0  0.00000000000E+00  0.00000000000E+00 -0.14264150322E+04  0.14264150322E+04  0.25500000920E-02 0.  1.
    10030    2    1    2    0    0  0.00000000000E+00  0.00000000000E+00  0.23526245909E+03  0.30880925234E+04  0.30791178945E+04 0.  0.
        3    1    3    3  502    0  0.27268096767E+03 -0.14927782107E+04 -0.14293373401E+03  0.15241954465E+04  0.10100000352E+00 0.  1.
       -3    1    3    3    0  502 -0.27268096767E+03  0.14927782107E+04  0.37819619310E+03  0.15638970769E+04  0.10100000352E+00 0. -1.
</event>
<event>
 5   0  0.3374790E-06  0.2644797E+04  0.7818609E-02  0.8353142E-01
       -2   -1    0    0    0  501  0.00000000000E+00  0.00000000000E+00  0.10007893921E+04  0.10007893921E+04  0.25500000920E-02 0. -1.
        2   -1    0    0  501    0  0.00000000000E+00  0.00000000000E+00 -0.17473588338E+04  0.17473588338E+04  0.25500000920E-02 0.  1.
    10030    2    1    2    0    0  0.00000000000E+00  0.00000000000E+00 -0.74656944172E+03  0.27481482259E+04  0.26447972966E+04 0.  0.
        2    1    3    3  502    0 -0.12340351426E+04  0.43559199935E+03 -0.17570957258E+03  0.13204003094E+04  0.25500000920E-02 0. -1.
       -2    1    3    3    0  502  0.12340351426E+04 -0.43559199935E+03 -0.57085986913E+03  0.14277479166E+04  0.25500000920E-02 0.  1.
</event>
<event>
 5   0  0.3340899E-06  0.3067202E+04  0.7818609E-02  0.8224797E-01
        2   -1    0    0  501    0  0.00000000000E+00  0.00000000000E+00  0.16859171859E+04  0.16859171859E+04  0.25500000920E-02 0. -1.
       -2   -1    0    0    0  501  0.00000000000E+00  0.00000000000E+00 -0.13950456358E+04  0.13950456358E+04  0.25500000920E-02 0.  1.
    10030    2    1    2    0    0  0.00000000000E+00  0.00000000000E+00  0.29087155018E+03  0.30809628217E+04  0.30672015992E+04 0.  0.
        3    1    3    3  502    0  0.13582493520E+03 -0.37732556923E+03 -0.13414447323E+04  0.14001060596E+04  0.10100000352E+00 0.  1.
       -3    1    3    3    0  502 -0.13582493520E+03  0.37732556923E+03  0.16323162825E+04  0.16808567620E+04  0.10100000352E+00 0. -1.
</event>
<event>
 5   0  0.3374790E-06  0.2981544E+04  0.7818609E-02  0.8249021E-01
        2   -1    0    0  501    0  0.00000000000E+00  0.00000000000E+00  0.15269624112E+04  0.15269624112E+04  0.25500000920E-02 0.  1.
       -2   -1    0    0    0  501  0.00000000000E+00  0.00000000000E+00 -0.14554391598E+04  0.14554391598E+04  0.25500000920E-02 0. -1.
    10030    2    1    2    0    0  0.00000000000E+00  0.00000000000E+00  0.71523251329E+02  0.29824015710E+04  0.29815438208E+04 0.  0.
        2    1    3    3  502    0  0.86946356132E+02 -0.14467310239E+04  0.38487573484E+03  0.14995731578E+04  0.25500000920E-02 0.  1.
       -2    1    3    3    0  502 -0.86946356132E+02  0.14467310239E+04 -0.31335248351E+03  0.14828284133E+04  0.25500000920E-02 0. -1.
</event>
<event>
 5   0  0.3340899E-06  0.3096576E+04  0.7818609E-02  0.8216678E-01
        2   -1    0    0  501    0  0.00000000000E+00  0.00000000000E+00  0.14385568354E+04  0.14385568354E+04  0.25500000920E-02 0.  1.
       -2   -1    0    0    0  501  0.00000000000E+00  0.00000000000E+00 -0.16663894116E+04  0.16663894116E+04  0.25500000920E-02 0. -1.
    10030    2    1    2    0    0  0.00000000000E+00  0.00000000000E+00 -0.22783257620E+03  0.31049462470E+04  0.30965760953E+04 0.  0.
        3    1    3    3  502    0 -0.67568492232E+03  0.33655480727E+03  0.12415426345E+04  0.14530132058E+04  0.10100000352E+00 0.  1.
       -3    1    3    3    0  502  0.67568492232E+03 -0.33655480727E+03 -0.14693752107E+04  0.16519330412E+04  0.10100000352E+00 0. -1.
</event>
<event>
 5   0  0.3441897E-06  0.3014037E+04  0.7818609E-02  0.8239734E-01
        2   -1    0    0  501    0  0.00000000000E+00  0.00000000000E+00  0.29201136604E+04  0.29201136604E+04  0.25500000920E-02 0.  1.
       -2   -1    0    0    0  501  0.00000000000E+00  0.00000000000E+00 -0.77774542204E+03  0.77774542205E+03  0.25500000920E-02 0. -1.
    10030    2    1    2    0    0  0.00000000000E+00  0.00000000000E+00  0.21423682384E+04  0.36978590825E+04  0.30140371804E+04 0.  0.
        5    1    3    3  502    0  0.10408484446E+04  0.96819002680E+03  0.45734533814E+03  0.14932997894E+04  0.46999998093E+01 0. -1.
       -5    1    3    3    0  502 -0.10408484446E+04 -0.96819002680E+03  0.16850229003E+04  0.22045592931E+04  0.46999998093E+01 0.  1.
</event>
<event>
 5   0  0.3445959E-06  0.3047628E+04  0.7818609E-02  0.8230260E-01
        2   -1    0    0  501    0  0.00000000000E+00  0.00000000000E+00  0.12681737583E+04  0.12681737583E+04  0.25500000920E-02 0.  1.
       -2   -1    0    0    0  501  0.00000000000E+00  0.00000000000E+00 -0.18309861629E+04  0.18309861629E+04  0.25500000920E-02 0. -1.
    10030    2    1    2    0    0  0.00000000000E+00  0.00000000000E+00 -0.56281240451E+03  0.30991599212E+04  0.30476276699E+04 0.  0.
        4    1    3    3  502    0 -0.16056230083E+03 -0.11119950492E+04  0.76541440960E+03  0.13594756612E+04  0.12699999809E+01 0.  1.
       -4    1    3    3    0  502  0.16056230083E+03  0.11119950492E+04 -0.13282268141E+04  0.17396842600E+04  0.12699999809E+01 0. -1.
</event>
<event>
 5   0  0.3445959E-06  0.3089765E+04  0.7818609E-02  0.8218552E-01
       -2   -1    0    0    0  501  0.00000000000E+00  0.00000000000E+00  0.20914873012E+04  0.20914873012E+04  0.25500000920E-02 0.  1.
        2   -1    0    0  501    0  0.00000000000E+00  0.00000000000E+00 -0.11411317747E+04  0.11411317747E+04  0.25500000920E-02 0. -1.
    10030    2    1    2    0    0  0.00000000000E+00  0.00000000000E+00  0.95035552648E+03  0.32326190759E+04  0.30897654383E+04 0.  0.
        4    1    3    3  502    0 -0.88310611688E+03 -0.85513839938E+03 -0.50377734575E+03  0.13285071783E+04  0.12699999809E+01 0. -1.
       -4    1    3    3    0  502  0.88310611688E+03  0.85513839938E+03  0.14541328722E+04  0.19041118977E+04  0.12699999809E+01 0.  1.
</event>
<event>
 5   0  0.1198763E-06  0.3011534E+04  0.7818609E-02  0.8240445E-01
        1   -1    0    0  501    0  0.00000000000E+00  0.00000000000E+00  0.10127097834E+04  0.10127097834E+04  0.50400001928E-02 0.  1.
       -1   -1    0    0    0  501  0.00000000000E+00  0.00000000000E+00 -0.22388781693E+04  0.22388781693E+04  0.50400001928E-02 0. -1.
    10030    2    1    2    0    0  0.00000000000E+00  0.00000000000E+00 -0.12261683859E+04  0.32515879527E+04  0.30115337129E+04 0.  0.
        1    1    3    3  502    0  0.57241043066E+03 -0.96162994315E+03  0.47466724907E+03  0.12156047244E+04  0.50400001928E-02 0.  1.
       -1    1    3    3    0  502 -0.57241043066E+03  0.96162994315E+03 -0.17008356350E+04  0.20359832283E+04  0.50400001928E-02 0. -1.
</event>
<event>
 5   0  0.3374790E-06  0.3098635E+04  0.7818609E-02  0.8216113E-01
        2   -1    0    0  501    0  0.00000000000E+00  0.00000000000E+00  0.22765756209E+04  0.22765756209E+04  0.25500000920E-02 0. -1.
       -2   -1    0    0    0  501  0.00000000000E+00  0.00000000000E+00 -0.10543841240E+04  0.10543841240E+04  0.25500000920E-02 0.  1.
    10030    2    1    2    0    0  0.00000000000E+00  0.00000000000E+00  0.12221914969E+04  0.33309597450E+04  0.30986353073E+04 0.  0.
        2    1    3    3  502    0 -0.85763613832E+03 -0.12431366687E+03  0.19916732855E+04  0.21720396198E+04  0.25500000920E-02 0. -1.
       -2    1    3    3    0  502  0.85763613832E+03  0.12431366687E+03 -0.76948178864E+03  0.11589201252E+04  0.25500000920E-02 0.  1.
</event>
<event>
 5   0  0.1250276E-06  0.3069874E+04  0.7818609E-02  0.8224055E-01
        1   -1    0    0  501    0  0.00000000000E+00  0.00000000000E+00  0.16206332294E+04  0.16206332294E+04  0.50400001928E-02 0. -1.
       -1   -1    0    0    0  501  0.00000000000E+00  0.00000000000E+00 -0.14537723503E+04  0.14537723503E+04  0.50400001928E-02 0.  1.
    10030    2    1    2    0    0  0.00000000000E+00  0.00000000000E+00  0.16686087902E+03  0.30744055797E+04  0.30698741205E+04 0.  0.
        5    1    3    3  502    0 -0.36414855375E+03 -0.43454423593E+03 -0.13450609890E+04  0.14596725716E+04  0.46999998093E+01 0.  1.
       -5    1    3    3    0  502  0.36414855375E+03  0.43454423593E+03  0.15119218681E+04  0.16147330081E+04  0.46999998093E+01 0. -1.
</event>
<event>
 5   0  0.1198763E-06  0.3061754E+04  0.7818609E-02  0.8226313E-01
        1   -1    0    0  501    0  0.00000000000E+00  0.00000000000E+00  0.16265246306E+04  0.16265246306E+04  0.50400001928E-02 0. -1.
       -1   -1    0    0    0  501  0.00000000000E+00  0.00000000000E+00 -0.14408537403E+04  0.14408537403E+04  0.50400001928E-02 0.  1.
    10030    2    1    2    0    0  0.00000000000E+00  0.00000000000E+00  0.18567089026E+03  0.30673783709E+04  0.30617538097E+04 0.  0.
        1    1    3    3  502    0  0.43370941328E+03  0.11763221382E+04  0.97294028595E+03  0.15869626423E+04  0.50400001928E-02 0. -1.
       -1    1    3    3    0  502 -0.43370941328E+03 -0.11763221382E+04 -0.78726939570E+03  0.14804157286E+04  0.50400001928E-02 0.  1.
</event>
<event>
 5   0  0.1250276E-06  0.3083355E+04  0.7818609E-02  0.8220321E-01
       -1   -1    0    0    0  501  0.00000000000E+00  0.00000000000E+00  0.14713045944E+04  0.14713045944E+04  0.50400001928E-02 0. -1.
        1   -1    0    0  501    0  0.00000000000E+00  0.00000000000E+00 -0.16154168234E+04  0.16154168234E+04  0.50400001928E-02 0.  1.
    10030    2    1    2    0    0  0.00000000000E+00  0.00000000000E+00 -0.14411222899E+03  0.30867214178E+04  0.30833554411E+04 0.  0.
        5    1    3    3  502    0  0.79237362634E+03 -0.62362096525E+03  0.10954026406E+04  0.14888546292E+04  0.46999998093E+01 0. -1.
       -5    1    3    3    0  502 -0.79237362634E+03  0.62362096525E+03 -0.12395148696E+04  0.15978667885E+04  0.46999998093E+01 0.  1.
</event>
<event>
 5   0  0.3445410E-06  0.3086355E+04  0.7818609E-02  0.8219493E-01
       -2   -1    0    0    0  501  0.00000000000E+00  0.00000000000E+00  0.13478392463E+04  0.13478392463E+04  0.25500000920E-02 0.  1.
        2   -1    0    0  501    0  0.00000000000E+00  0.00000000000E+00 -0.17668259700E+04  0.17668259700E+04  0.25500000920E-02 0. -1.
    10030    2    1    2    0    0  0.00000000000E+00  0.00000000000E+00 -0.41898672367E+03  0.31146652163E+04  0.30863553805E+04 0.  0.
        1    1    3    3  502    0 -0.26955363088E+03 -0.27298250295E+03  0.12989475047E+04  0.13544161941E+04  0.50400001928E-02 0.  1.
       -1    1    3    3    0  502  0.26955363088E+03  0.27298250295E+03 -0.17179342284E+04  0.17602490221E+04  0.50400001928E-02 0. -1.
</event>
<event>
 5   0  0.3340899E-06  0.3054533E+04  0.7818609E-02  0.8228328E-01
       -2   -1    0    0    0  501  0.00000000000E+00  0.00000000000E+00  0.12493134681E+04  0.12493134681E+04  0.25500000920E-02 0. -1.
        2   -1    0    0  501    0  0.00000000000E+00  0.00000000000E+00 -0.18670601003E+04  0.18670601003E+04  0.25500000920E-02 0.  1.
    10030    2    1    2    0    0  0.00000000000E+00  0.00000000000E+00 -0.61774663225E+03  0.31163735684E+04  0.30545332403E+04 0.  0.
        3    1    3    3  502    0 -0.13506704126E+04 -0.61263240526E+03  0.63081765981E+02  0.14844555725E+04  0.10100000352E+00 0. -1.
       -3    1    3    3    0  502  0.13506704126E+04  0.61263240526E+03 -0.68082839823E+03  0.16319179959E+04  0.10100000352E+00 0.  1.
</event>
<event>
 5   0  0.3441897E-06  0.3074393E+04  0.7818609E-02  0.8222801E-01
       -2   -1    0    0    0  501  0.00000000000E+00  0.00000000000E+00  0.12613211634E+04  0.12613211634E+04  0.25500000920E-02 0. -1.
        2   -1    0    0  501    0  0.00000000000E+00  0.00000000000E+00 -0.18734106708E+04  0.18734106708E+04  0.25500000920E-02 0.  1.
    10030    2    1    2    0    0  0.00000000000E+00  0.00000000000E+00 -0.61208950732E+03  0.31347318342E+04  0.30743926404E+04 0.  0.
        5    1    3    3  502    0  0.10134120759E+04 -0.63056708380E+03 -0.12937314929E+04  0.17602221873E+04  0.46999998093E+01 0.  1.
       -5    1    3    3    0  502 -0.10134120759E+04  0.63056708380E+03  0.68164198562E+03  0.13745096469E+04  0.46999998093E+01 0. -1.
</event>
<event>
 5   0  0.1250276E-06  0.3013978E+04  0.7818609E-02  0.8239751E-01
        1   -1    0    0  501    0  0.00000000000E+00  0.00000000000E+00  0.13634694927E+04  0.13634694927E+04  0.50400001928E-02 0.  1.
       -1   -1    0    0    0  501  0.00000000000E+00  0.00000000000E+00 -0.16656149551E+04  0.16656149551E+04  0.50400001928E-02 0. -1.
    10030    2    1    2    0    0  0.00000000000E+00  0.00000000000E+00 -0.30214546241E+03  0.30290844478E+04  0.30139775565E+04 0.  0.
        5    1    3    3  502    0 -0.13076750523E+03 -0.60599554290E+03 -0.15315156665E+04  0.16522388039E+04  0.46999998093E+01 0. -1.
       -5    1    3    3    0  502  0.13076750523E+03  0.60599554290E+03  0.12293702041E+04  0.13768456439E+04  0.46999998093E+01 0.  1.
</event>
<event>
 5   0  0.3340899E-06  0.3063160E+04  0.7818609E-02  0.8225922E-01
        2   -1    0    0  501    0  0.00000000000E+00  0.00000000000E+00  0.17122971211E+04  0.17122971211E+04  0.25500000920E-02 0.  1.
       -2   -1    0    0    0  501  0.00000000000E+00  0.00000000000E+00 -0.13699358611E+04  0.13699358611E+04  0.25500000920E-02 0. -1.
    10030    2    1    2    0    0  0.00000000000E+00  0.00000000000E+00  0.34236126004E+03  0.30822329822E+04  0.30631599573E+04 0.  0.
        3    1    3    3  502    0  0.10226979479E+04  0.53348965878E+03  0.11850331418E+04  0.16537308929E+04  0.10100000352E+00 0.  1.
       -3    1    3    3    0  502 -0.10226979479E+04 -0.53348965878E+03 -0.84267188180E+03  0.14285020893E+04  0.10100000352E+00 0. -1.
</event>
<event>
 5   0  0.3445959E-06  0.2663836E+04  0.7818609E-02  0.8346835E-01
       -2   -1    0    0    0  501  0.00000000000E+00  0.00000000000E+00  0.69183527149E+03  0.69183527149E+03  0.25500000920E-02 0. -1.
        2   -1    0    0  501    0  0.00000000000E+00  0.00000000000E+00 -0.25642028301E+04  0.25642028301E+04  0.25500000920E-02 0.  1.
    10030    2    1    2    0    0  0.00000000000E+00  0.00000000000E+00 -0.18723675586E+04  0.32560381016E+04  0.26638363021E+04 0.  0.
        4    1    3    3  502    0 -0.34768214274E+03 -0.10273131123E+04  0.88372293846E+01  0.10845896978E+04  0.12699999809E+01 0. -1.
       -4    1    3    3    0  502  0.34768214274E+03  0.10273131123E+04 -0.18812047880E+04  0.21714484038E+04  0.12699999809E+01 0.  1.
</event>
<event>
 5   0  0.3441897E-06  0.2884811E+04  0.7818609E-02  0.8277411E-01
       -2   -1    0    0    0  501  0.00000000000E+00  0.00000000000E+00  0.15507117529E+04  0.15507117529E+04  0.25500000920E-02 0. -1.
        2   -1    0    0  501    0  0.00000000000E+00  0.00000000000E+00 -0.13416639321E+04  0.13416639321E+04  0.25500000920E-02 0.  1.
    10030    2    1    2    0    0  0.00000000000E+00  0.00000000000E+00  0.20904782087E+03  0.28923756850E+04  0.28848112784E+04 0.  0.
        5    1    3    3  502    0  0.91024152513E+02  0.10933449837E+04  0.10433676890E+04  0.15140432207E+04  0.46999998093E+01 0. -1.
       -5    1    3    3    0  502 -0.91024152513E+02 -0.10933449837E+04 -0.83431986813E+03  0.13783324643E+04  0.46999998093E+01 0.  1.
</event>
<event>
 5   0  0.1250276E-06  0.3110510E+04  0.7818609E-02  0.8212859E-01
        1   -1    0    0  501    0  0.00000000000E+00  0.00000000000E+00  0.23359849992E+04  0.23359849992E+04  0.50400001928E-02 0. -1.
       -1   -1    0    0    0  501  0.00000000000E+00  0.00000000000E+00 -0.10354595841E+04  0.10354595841E+04  0.50400001928E-02 0.  1.
    10030    2    1    2    0    0  0.00000000000E+00  0.00000000000E+00  0.13005254151E+04  0.33714445833E+04  0.31105099618E+04 0.  0.
        5    1    3    3  502    0  0.56353441855E+03 -0.70252817751E+03 -0.72404540406E+03  0.11555867420E+04  0.46999998093E+01 0.  1.
       -5    1    3    3    0  502 -0.56353441855E+03  0.70252817751E+03  0.20245708191E+04  0.22158578413E+04  0.46999998093E+01 0. -1.
</event>
<event>
 5   0  0.3340899E-06  0.3119373E+04  0.7818609E-02  0.8210441E-01
        2   -1    0    0  501    0  0.00000000000E+00  0.00000000000E+00  0.18417889569E+04  0.18417889569E+04  0.25500000920E-02 0. -1.
       -2   -1    0    0    0  501  0.00000000000E+00  0.00000000000E+00 -0.13207933443E+04  0.13207933443E+04  0.25500000920E-02 0.  1.
    10030    2    1    2    0    0  0.00000000000E+00  0.00000000000E+00  0.52099561259E+03  0.31625823012E+04  0.31193733960E+04 0.  0.
        3    1    3    3  502    0 -0.27917731566E+03 -0.47935261260E+03  0.17383945665E+04  0.18247560330E+04  0.10100000352E+00 0. -1.
       -3    1    3    3    0  502  0.27917731566E+03  0.47935261260E+03 -0.12173989539E+04  0.13378262682E+04  0.10100000352E+00 0.  1.
</event>
<event>
 5   0  0.3445410E-06  0.3086638E+04  0.7818609E-02  0.8219415E-01
        2   -1    0    0  501    0  0.00000000000E+00  0.00000000000E+00  0.14631998577E+04  0.14631998577E+04  0.25500000920E-02 0.  1.
       -2   -1    0    0    0  501  0.00000000000E+00  0.00000000000E+00 -0.16278249413E+04  0.16278249413E+04  0.25500000920E-02 0. -1.
    10030    2    1    2    0    0  0.00000000000E+00  0.00000000000E+00 -0.16462508369E+03  0.30910247990E+04  0.30866377970E+04 0.  0.
        1    1    3    3  502    0 -0.14855126728E+03 -0.11480073161E+03 -0.16163469702E+04  0.16272136354E+04  0.50400001928E-02 0. -1.
       -1    1    3    3    0  502  0.14855126728E+03  0.11480073161E+03  0.14517218865E+04  0.14638111636E+04  0.50400001928E-02 0.  1.
</event>
<event>
 5   0  0.3445959E-06  0.2717242E+04  0.7818609E-02  0.8329432E-01
        2   -1    0    0  501    0  0.00000000000E+00  0.00000000000E+00  0.15609234110E+04  0.15609234110E+04  0.25500000920E-02 0. -1.
       -2   -1    0    0    0  501  0.00000000000E+00  0.00000000000E+00 -0.11825374436E+04  0.11825374436E+04  0.25500000920E-02 0.  1.
    10030    2    1    2    0    0  0.00000000000E+00  0.00000000000E+00  0.37838596739E+03  0.27434608546E+04  0.27172415278E+04 0.  0.
        4    1    3    3  502    0 -0.26824721804E+03  0.99587649190E+03 -0.70371731866E+03  0.12485776846E+04  0.12699999809E+01 0.  1.
       -4    1    3    3    0  502  0.26824721804E+03 -0.99587649190E+03  0.10821032860E+04  0.14948831699E+04  0.12699999809E+01 0. -1.
</event>
<event>
 5   0  0.3445410E-06  0.3137052E+04  0.7818609E-02  0.8205642E-01
        2   -1    0    0  501    0  0.00000000000E+00  0.00000000000E+00  0.20827658180E+04  0.20827658180E+04  0.25500000920E-02 0.  1.
       -2   -1    0    0    0  501  0.00000000000E+00  0.00000000000E+00 -0.11812532127E+04  0.11812532127E+04  0.25500000920E-02 0. -1.
    10030    2    1    2    0    0  0.00000000000E+00  0.00000000000E+00  0.90151260530E+03  0.32640190307E+04  0.31370520007E+04 0.  0.
        1    1    3    3  502    0 -0.47144544815E+03 -0.12243986889E+04  0.13451161500E+04  0.18790291156E+04  0.50400001928E-02 0.  1.
       -1    1    3    3    0  502  0.47144544815E+03  0.12243986889E+04 -0.44360354474E+03  0.13849899151E+04  0.50400001928E-02 0. -1.
</event>
<event>
 5   0  0.3340899E-06  0.3097545E+04  0.7818609E-02  0.8216412E-01
        2   -1    0    0  501    0  0.00000000000E+00  0.00000000000E+00  0.15199217581E+04  0.15199217581E+04  0.25500000920E-02 0.  1.
       -2   -1    0    0    0  501  0.00000000000E+00  0.00000000000E+00 -0.15781705990E+04  0.15781705990E+04  0.25500000920E-02 0. -1.
    10030    2    1    2    0    0  0.00000000000E+00  0.00000000000E+00 -0.58248840958E+02  0.30980923571E+04  0.30975447254E+04 0.  0.
        3    1    3    3  502    0  0.73450075811E+03 -0.99882660691E+03 -0.95748562712E+03  0.15665007790E+04  0.10100000352E+00 0. -1.
       -3    1    3    3    0  502 -0.73450075811E+03  0.99882660691E+03  0.89923678616E+03  0.15315915781E+04  0.10100000352E+00 0.  1.
</event>
<event>
 5   0  0.3374790E-06  0.2531237E+04  0.7818609E-02  0.8391941E-01
       -2   -1    0    0    0  501  0.00000000000E+00  0.00000000000E+00  0.94069592451E+03  0.94069592451E+03  0.25500000920E-02 0.  1.
        2   -1    0    0  501    0  0.00000000000E+00  0.00000000000E+00 -0.17027719764E+04  0.17027719764E+04  0.25500000920E-02 0. -1.
    10030    2    1    2    0    0  0.00000000000E+00  0.00000000000E+00 -0.76207605187E+03  0.26434679009E+04  0.25312373722E+04 0.  0.
        2    1    3    3  502    0  0.23007954263E+03 -0.72774450703E+03  0.67329988291E+03  0.10177825877E+04  0.25500000920E-02 0.  1.
       -2    1    3    3    0  502 -0.23007954263E+03  0.72774450703E+03 -0.14353759348E+04  0.16256853132E+04  0.25500000920E-02 0. -1.
</event>
<event>
 5   0  0.3445410E-06  0.3056567E+04  0.7818609E-02  0.8227760E-01
        2   -1    0    0  501    0  0.00000000000E+00  0.00000000000E+00  0.31544206589E+04  0.31544206589E+04  0.25500000920E-02 0. -1.
       -2   -1    0    0    0  501  0.00000000000E+00  0.00000000000E+00 -0.74043734040E+03  0.74043734040E+03  0.25500000920E-02 0.  1.
    10030    2    1    2    0    0  0.00000000000E+00  0.00000000000E+00  0.24139833185E+04  0.38948579993E+04  0.30565672531E+04 0.  0.
        1    1    3    3  502    0 -0.11020486877E+03  0.12060986142E+04  0.23947430357E+04  0.26835821559E+04  0.50400001928E-02 0. -1.
       -1    1    3    3    0  502  0.11020486877E+03 -0.12060986142E+04  0.19240282738E+02  0.12112758434E+04  0.50400001928E-02 0.  1.
</event>
<event>
 5   0  0.3374790E-06  0.3085104E+04  0.7818609E-02  0.8219838E-01
       -2   -1    0    0    0  501  0.00000000000E+00  0.00000000000E+00  0.10185371495E+04  0.10185371496E+04  0.25500000920E-02 0. -1.
        2   -1    0    0  501    0  0.00000000000E+00  0.00000000000E+00 -0.23361613094E+04  0.23361613094E+04  0.25500000920E-02 0.  1.
    10030    2    1    2    0    0  0.00000000000E+00  0.00000000000E+00 -0.13176241599E+04  0.33546984590E+04  0.30851042647E+04 0.  0.
        2    1    3    3  502    0 -0.81192847513E+03  0.16446954417E+03  0.75612250615E+03  0.11216056901E+04  0.25500000920E-02 0. -1.
       -2    1    3    3    0  502  0.81192847513E+03 -0.16446954417E+03 -0.20737466660E+04  0.22330927689E+04  0.25500000920E-02 0.  1.
</event>
<event>
 5   0  0.1198763E-06  0.2756971E+04  0.7818609E-02  0.8316753E-01
        1   -1    0    0  501    0  0.00000000000E+00  0.00000000000E+00  0.20268541506E+04  0.20268541507E+04  0.50400001928E-02 0. -1.
       -1   -1    0    0    0  501  0.00000000000E+00  0.00000000000E+00 -0.93752290331E+03  0.93752290333E+03  0.50400001928E-02 0.  1.
    10030    2    1    2    0    0  0.00000000000E+00  0.00000000000E+00  0.10893312473E+04  0.29643770540E+04  0.27569709378E+04 0.  0.
        1    1    3    3  502    0  0.84139349449E+03  0.33147365362E+03 -0.57398901489E+03  0.10711121252E+04  0.50400001928E-02 0.  1.
       -1    1    3    3    0  502 -0.84139349449E+03 -0.33147365362E+03  0.16633202622E+04  0.18932649287E+04  0.50400001928E-02 0. -1.
</event>
<event>
 5   0  0.1171915E-06  0.3101479E+04  0.7818609E-02  0.8215332E-01
        1   -1    0    0  501    0  0.00000000000E+00  0.00000000000E+00  0.22327530879E+04  0.22327530879E+04  0.50400001928E-02 0. -1.
       -1   -1    0    0    0  501  0.00000000000E+00  0.00000000000E+00 -0.10770529234E+04  0.10770529234E+04  0.50400001928E-02 0.  1.
    10030    2    1    2    0    0  0.00000000000E+00  0.00000000000E+00  0.11557001645E+04  0.33098060113E+04  0.31014791571E+04 0.  0.
        2    1    3    3  502    0  0.14975367566E+04  0.40035670138E+03  0.62426173754E+03  0.16711087765E+04  0.25500000920E-02 0. -1.
       -2    1    3    3    0  502 -0.14975367566E+04 -0.40035670138E+03  0.53143842700E+03  0.16386972348E+04  0.25500000920E-02 0.  1.
</event>
<event>
 5   0  0.1235960E-06  0.3202650E+04  0.7818609E-02  0.8188118E-01
        1   -1    0    0  501    0  0.00000000000E+00  0.00000000000E+00  0.21131346766E+04  0.21131346766E+04  0.50400001928E-02 0. -1.
       -1   -1    0    0    0  501  0.00000000000E+00  0.00000000000E+00 -0.12134776763E+04  0.12134776763E+04  0.50400001928E-02 0.  1.
    10030    2    1    2    0    0  0.00000000000E+00  0.00000000000E+00  0.89965700030E+03  0.33266123530E+04  0.32026500010E+04 0.  0.
        4    1    3    3  502    0  0.12885274318E+04  0.29995207312E+03  0.13869498592E+04  0.19167435180E+04  0.12699999809E+01 0. -1.
       -4    1    3    3    0  502 -0.12885274318E+04 -0.29995207312E+03 -0.48729285894E+03  0.14098688350E+04  0.12699999809E+01 0.  1.
</event>
<event>
 5   0  0.1250276E-06  0.3009004E+04  0.7818609E-02  0.8241164E-01
       -1   -1    0    0    0  501  0.00000000000E+00  0.00000000000E+00  0.90578663648E+03  0.90578663650E+03  0.50400001928E-02 0. -1.
        1   -1    0    0  501    0  0.00000000000E+00  0.00000000000E+00 -0.24989617045E+04  0.24989617046E+04  0.50400001928E-02 0.  1.
    10030    2    1    2    0    0  0.00000000000E+00  0.00000000000E+00 -0.15931750681E+04  0.34047483411E+04  0.30090038997E+04 0.  0.
        5    1    3    3  502    0 -0.30859105783E+02  0.14582615538E+04 -0.12139098484E+04  0.18976507196E+04  0.46999998093E+01 0.  1.
       -5    1    3    3    0  502  0.30859105783E+02 -0.14582615538E+04 -0.37926521969E+03  0.15070976214E+04  0.46999998093E+01 0. -1.
</event>
<event>
 5   0  0.3340899E-06  0.2674693E+04  0.7818609E-02  0.8343263E-01
       -2   -1    0    0    0  501  0.00000000000E+00  0.00000000000E+00  0.23622864161E+04  0.23622864161E+04  0.25500000920E-02 0. -1.
        2   -1    0    0  501    0  0.00000000000E+00  0.00000000000E+00 -0.75710370423E+03  0.75710370424E+03  0.25500000920E-02 0.  1.
    10030    2    1    2    0    0  0.00000000000E+00  0.00000000000E+00  0.16051827119E+04  0.31193901204E+04  0.26746931010E+04 0.  0.
        3    1    3    3  502    0  0.12093760510E+04 -0.42953735825E+03  0.36403534938E+03  0.13340219341E+04  0.10100000352E+00 0.  1.
       -3    1    3    3    0  502 -0.12093760510E+04  0.42953735825E+03  0.12411473625E+04  0.17853681863E+04  0.10100000352E+00 0. -1.
</event>
<event>
 5   0  0.3340899E-06  0.3098752E+04  0.7818609E-02  0.8216081E-01
       -2   -1    0    0    0  501  0.00000000000E+00  0.00000000000E+00  0.12826233935E+04  0.12826233935E+04  0.25500000920E-02 0. -1.
        2   -1    0    0  501    0  0.00000000000E+00  0.00000000000E+00 -0.18716058055E+04  0.18716058055E+04  0.25500000920E-02 0.  1.
    10030    2    1    2    0    0  0.00000000000E+00  0.00000000000E+00 -0.58898241192E+03  0.31542291990E+04  0.30987516129E+04 0.  0.
        3    1    3    3  502    0  0.42935980787E+03 -0.11516291788E+04 -0.12547607020E+04  0.17564236504E+04  0.10100000352E+00 0.  1.
       -3    1    3    3    0  502 -0.42935980787E+03  0.11516291788E+04  0.66577829005E+03  0.13978055486E+04  0.10100000352E+00 0. -1.
</event>
<event>
 5   0  0.1211008E-06  0.3140198E+04  0.7818609E-02  0.8204792E-01
       -1   -1    0    0    0  501  0.00000000000E+00  0.00000000000E+00  0.12940266686E+04  0.12940266686E+04  0.50400001928E-02 0.  1.
        1   -1    0    0  501    0  0.00000000000E+00  0.00000000000E+00 -0.19050696987E+04  0.19050696987E+04  0.50400001928E-02 0. -1.
    10030    2    1    2    0    0  0.00000000000E+00  0.00000000000E+00 -0.61104303017E+03  0.31990963673E+04  0.31401980801E+04 0.  0.
        3    1    3    3  502    0 -0.31350816406E+03  0.31505699924E+03  0.12285991058E+04  0.13065236526E+04  0.10100000352E+00 0.  1.
       -3    1    3    3    0  502  0.31350816406E+03 -0.31505699924E+03 -0.18396421360E+04  0.18925727147E+04  0.10100000352E+00 0. -1.
</event>
<event>
 5   0  0.1235960E-06  0.3096223E+04  0.7818609E-02  0.8216775E-01
       -1   -1    0    0    0  501  0.00000000000E+00  0.00000000000E+00  0.15780696924E+04  0.15780696924E+04  0.50400001928E-02 0. -1.
        1   -1    0    0  501    0  0.00000000000E+00  0.00000000000E+00 -0.15187222245E+04  0.15187222245E+04  0.50400001928E-02 0.  1.
    10030    2    1    2    0    0  0.00000000000E+00  0.00000000000E+00  0.59347467824E+02  0.30967919169E+04  0.30962231920E+04 0.  0.
        4    1    3    3  502    0  0.73024659303E+02  0.15223932154E+04  0.30107979645E+03  0.15535972322E+04  0.12699999809E+01 0. -1.
       -4    1    3    3    0  502 -0.73024659303E+02 -0.15223932154E+04 -0.24173232863E+03  0.15431946847E+04  0.12699999809E+01 0.  1.
</event>
<event>
 5   0  0.1250276E-06  0.3104875E+04  0.7818609E-02  0.8214401E-01
       -1   -1    0    0    0  501  0.00000000000E+00  0.00000000000E+00  0.16136259342E+04  0.16136259342E+04  0.50400001928E-02 0.  1.
        1   -1    0    0  501    0  0.00000000000E+00  0.00000000000E+00 -0.14935694000E+04  0.14935694000E+04  0.50400001928E-02 0. -1.
    10030    2    1    2    0    0  0.00000000000E+00  0.00000000000E+00  0.12005653419E+03  0.31071953343E+04  0.31048750818E+04 0.  0.
        5    1    3    3  502    0  0.27442487897E+03 -0.67943386158E+03  0.14296637659E+04  0.16065179613E+04  0.46999998093E+01 0.  1.
       -5    1    3    3    0  502 -0.27442487897E+03  0.67943386158E+03 -0.13096072317E+04  0.15006773730E+04  0.46999998093E+01 0. -1.
</event>
<event>
 5   0  0.3445959E-06  0.3098777E+04  0.7818609E-02  0.8216074E-01
       -2   -1    0    0    0  501  0.00000000000E+00  0.00000000000E+00  0.10234587495E+04  0.10234587495E+04  0.25500000920E-02 0.  1.
        2   -1    0    0  501    0  0.00000000000E+00  0.00000000000E+00 -0.23455799462E+04  0.23455799462E+04  0.25500000920E-02 0. -1.
    10030    2    1    2    0    0  0.00000000000E+00  0.00000000000E+00 -0.13221211967E+04  0.33690386958E+04  0.30987767384E+04 0.  0.
        4    1    3    3  502    0  0.74304810907E+03 -0.72504989414E+03 -0.19114932929E+04  0.21752301173E+04  0.12699999809E+01 0. -1.
       -4    1    3    3    0  502 -0.74304810907E+03  0.72504989414E+03  0.58937209619E+03  0.11938085785E+04  0.12699999809E+01 0.  1.
</event>
<event>
 5   0  0.3445959E-06  0.3108909E+04  0.7818609E-02  0.8213297E-01
        2   -1    0    0  501    0  0.00000000000E+00  0.00000000000E+00  0.16861965087E+04  0.16861965087E+04  0.25500000920E-02 0.  1.
       -2   -1    0    0    0  501  0.00000000000E+00  0.00000000000E+00 -0.14330056752E+04  0.14330056752E+04  0.25500000920E-02 0. -1.
    10030    2    1    2    0    0  0.00000000000E+00  0.00000000000E+00  0.25319083354E+03  0.31192021839E+04  0.31089092405E+04 0.  0.
        4    1    3    3  502    0  0.15455590422E+04 -0.14250518491E+03  0.21212478145E+03  0.15665436529E+04  0.12699999809E+01 0.  1.
       -4    1    3    3    0  502 -0.15455590422E+04  0.14250518491E+03  0.41066052091E+02  0.15526585311E+04  0.12699999809E+01 0. -1.
</event>
<event>
 5   0  0.3340899E-06  0.3103088E+04  0.7818609E-02  0.8214891E-01
       -2   -1    0    0    0  501  0.00000000000E+00  0.00000000000E+00  0.14072565929E+04  0.14072565929E+04  0.25500000920E-02 0. -1.
        2   -1    0    0  501    0  0.00000000000E+00  0.00000000000E+00 -0.17106251444E+04  0.17106251444E+04  0.25500000920E-02 0.  1.
    10030    2    1    2    0    0  0.00000000000E+00  0.00000000000E+00 -0.30336855152E+03  0.31178817373E+04  0.31030878251E+04 0.  0.
        3    1    3    3  502    0 -0.35551940554E+03 -0.63413705184E+03 -0.15288993301E+04  0.16929433009E+04  0.10100000352E+00 0.  1.
       -3    1    3    3    0  502  0.35551940554E+03  0.63413705184E+03  0.12255307786E+04  0.14249384365E+04  0.10100000352E+00 0. -1.
</event>
<event>
 5   0  0.1198763E-06  0.3138305E+04  0.7818609E-02  0.8205304E-01
       -1   -1    0    0    0  501  0.00000000000E+00  0.00000000000E+00  0.25580213609E+04  0.25580213609E+04  0.50400001928E-02 0.  1.
        1   -1    0    0  501    0  0.00000000000E+00  0.00000000000E+00 -0.96255599037E+03  0.96255599038E+03  0.50400001928E-02 0. -1.
    10030    2    1    2    0    0  0.00000000000E+00  0.00000000000E+00  0.15954653705E+04  0.35205773513E+04  0.31383045005E+04 0.  0.
        1    1    3    3  502    0  0.81168118293E+03 -0.98300734009E+03  0.18241165582E+04  0.22254282714E+04  0.50400001928E-02 0.  1.
       -1    1    3    3    0  502 -0.81168118293E+03  0.98300734009E+03 -0.22865118766E+03  0.12951490799E+04  0.50400001928E-02 0. -1.
</event>
<event>
 5   0  0.3445959E-06  0.3071107E+04  0.7818609E-02  0.8223712E-01
        2   -1    0    0  501    0  0.00000000000E+00  0.00000000000E+00  0.10464414366E+04  0.10464414366E+04  0.25500000920E-02 0.  1.
       -2   -1    0    0    0  501  0.00000000000E+00  0.00000000000E+00 -0.22532785635E+04  0.22532785635E+04  0.25500000920E-02 0. -1.
    10030    2    1    2    0    0  0.00000000000E+00  0.00000000000E+00 -0.12068371269E+04  0.32997200001E+04  0.30711066781E+04 0.  0.
        4    1    3    3  502    0 -0.10425410048E+04 -0.91792972530E+03 -0.13066933073E+04  0.19070751793E+04  0.12699999809E+01 0. -1.
       -4    1    3    3    0  502  0.10425410048E+04  0.91792972530E+03  0.99856180430E+02  0.13926448208E+04  0.12699999809E+01 0.  1.
</event>
<event>
 5   0  0.1235960E-06  0.3089357E+04  0.7818609E-02  0.8218665E-01
       -1   -1    0    0    0  501  0.00000000000E+00  0.00000000000E+00  0.93153821996E+03  0.93153821998E+03  0.50400001928E-02 0.  1.
        1   -1    0    0  501    0  0.00000000000E+00  0.00000000000E+00 -0.25613889339E+04  0.25613889339E+04  0.50400001928E-02 0. -1.
    10030    2    1    2    0    0  0.00000000000E+00  0.00000000000E+00 -0.16298507139E+04  0.34929271539E+04  0.30893570128E+04 0.  0.
        4    1    3    3  502    0  0.10199633536E+04  0.86237975906E+01 -0.21264737941E+04  0.23584511914E+04  0.12699999809E+01 0. -1.
       -4    1    3    3    0  502 -0.10199633536E+04 -0.86237975906E+01  0.49662308016E+03  0.11344759624E+04  0.12699999809E+01 0.  1.
</event>
<event>
 5   0  0.3445410E-06  0.2662896E+04  0.7818609E-02  0.8347145E-01
        2   -1    0    0  501    0  0.00000000000E+00  0.00000000000E+00  0.16325974735E+04  0.16325974735E+04  0.25500000920E-02 0. -1.
       -2   -1    0    0    0  501  0.00000000000E+00  0.00000000000E+00 -0.10858485848E+04  0.10858485848E+04  0.25500000920E-02 0.  1.
    10030    2    1    2    0    0  0.00000000000E+00  0.00000000000E+00  0.54674888867E+03  0.27184460583E+04  0.26628959095E+04 0.  0.
        1    1    3    3  502    0  0.95663413820E+03  0.11053603603E+03 -0.66525505791E+03  0.11704406784E+04  0.50400001928E-02 0.  1.
       -1    1    3    3    0  502 -0.95663413820E+03 -0.11053603603E+03  0.12120039466E+04  0.15480053799E+04  0.50400001928E-02 0. -1.
</event>
<event>
 5   0  0.3441897E-06  0.3101680E+04  0.7818609E-02  0.8215277E-01
        2   -1    0    0  501    0  0.00000000000E+00  0.00000000000E+00  0.25473680766E+04  0.25473680766E+04  0.25500000920E-02 0. -1.
       -2   -1    0    0    0  501  0.00000000000E+00  0.00000000000E+00 -0.94415302590E+03  0.94415302591E+03  0.25500000920E-02 0.  1.
    10030    2    1    2    0    0  0.00000000000E+00  0.00000000000E+00  0.16032150507E+04  0.34915211025E+04  0.31016803689E+04 0.  0.
        5    1    3    3  502    0 -0.70225505611E+03 -0.66223069625E+03  0.21679946675E+04  0.23731697426E+04  0.46999998093E+01 0. -1.
       -5    1    3    3    0  502  0.70225505611E+03  0.66223069625E+03 -0.56477961673E+03  0.11183513600E+04  0.46999998093E+01 0.  1.
</event>
<event>
 5   0  0.1198763E-06  0.3066660E+04  0.7818609E-02  0.8224948E-01
       -1   -1    0    0    0  501  0.00000000000E+00  0.00000000000E+00  0.11815325761E+04  0.11815325761E+04  0.50400001928E-02 0. -1.
        1   -1    0    0  501    0  0.00000000000E+00  0.00000000000E+00 -0.19898737644E+04  0.19898737644E+04  0.50400001928E-02 0.  1.
    10030    2    1    2    0    0  0.00000000000E+00  0.00000000000E+00 -0.80834118830E+03  0.31714063404E+04  0.30666598604E+04 0.  0.
        1    1    3    3  502    0 -0.14370083284E+04  0.30436287969E+03  0.50706630908E+02  0.14697621784E+04  0.50400001928E-02 0. -1.
       -1    1    3    3    0  502  0.14370083284E+04 -0.30436287969E+03 -0.85904781921E+03  0.17016441621E+04  0.50400001928E-02 0.  1.
</event>
<event>
 5   0  0.1198763E-06  0.3040361E+04  0.7818609E-02  0.8232298E-01
       -1   -1    0    0    0  501  0.00000000000E+00  0.00000000000E+00  0.16275306742E+04  0.16275306742E+04  0.50400001928E-02 0.  1.
        1   -1    0    0  501    0  0.00000000000E+00  0.00000000000E+00 -0.14199113292E+04  0.14199113292E+04  0.50400001928E-02 0. -1.
    10030    2    1    2    0    0  0.00000000000E+00  0.00000000000E+00  0.20761934497E+03  0.30474420034E+04  0.30403613225E+04 0.  0.
        1    1    3    3  502    0 -0.12684095751E+04 -0.83785307036E+03  0.11324568438E+03  0.15243638683E+04  0.50400001928E-02 0. -1.
       -1    1    3    3    0  502  0.12684095751E+04  0.83785307036E+03  0.94373660584E+02  0.15230781351E+04  0.50400001928E-02 0.  1.
</event>
<event>
 5   0  0.1235960E-06  0.3111703E+04  0.7818609E-02  0.8212534E-01
       -1   -1    0    0    0  501  0.00000000000E+00  0.00000000000E+00  0.11912725131E+04  0.11912725132E+04  0.50400001928E-02 0. -1.
        1   -1    0    0  501    0  0.00000000000E+00  0.00000000000E+00 -0.20320064337E+04  0.20320064337E+04  0.50400001928E-02 0.  1.
    10030    2    1    2    0    0  0.00000000000E+00  0.00000000000E+00 -0.84073392057E+03  0.32232789469E+04  0.31117026921E+04 0.  0.
        4    1    3    3  502    0 -0.14844942756E+04 -0.45388006330E+03 -0.31201497286E+03  0.15833778204E+04  0.12699999809E+01 0. -1.
       -4    1    3    3    0  502  0.14844942756E+04  0.45388006330E+03 -0.52871894771E+03  0.16399011265E+04  0.12699999809E+01 0.  1.
</event>
<event>
 5   0  0.3445959E-06  0.3156223E+04  0.7818609E-02  0.8200475E-01
        2   -1    0    0  501    0  0.00000000000E+00  0.00000000000E+00  0.21744922414E+04  0.21744922414E+04  0.25500000920E-02 0. -1.
       -2   -1    0    0    0  501  0.00000000000E+00  0.00000000000E+00 -0.11452952799E+04  0.11452952799E+04  0.25500000920E-02 0.  1.
    10030    2    1    2    0    0  0.00000000000E+00  0.00000000000E+00  0.10291969615E+04  0.33197875212E+04  0.31562228693E+04 0.  0.
        4    1    3    3  502    0 -0.47975603416E+03  0.12107147365E+04  0.14521014403E+04  0.19505374212E+04  0.12699999809E+01 0. -1.
       -4    1    3    3    0  502  0.47975603416E+03 -0.12107147365E+04 -0.42290447876E+03  0.13692501001E+04  0.12699999809E+01 0.  1.
</event>
<event>
 5   0  0.1198763E-06  0.3094509E+04  0.7818609E-02  0.8217246E-01
        1   -1    0    0  501    0  0.00000000000E+00  0.00000000000E+00  0.22602188882E+04  0.22602188882E+04  0.50400001928E-02 0. -1.
       -1   -1    0    0    0  501  0.00000000000E+00  0.00000000000E+00 -0.10591881558E+04  0.10591881558E+04  0.50400001928E-02 0.  1.
    10030    2    1    2    0    0  0.00000000000E+00  0.00000000000E+00  0.12010307324E+04  0.33194070440E+04  0.30945093801E+04 0.  0.
        1    1    3    3  502    0  0.13659610083E+04  0.12768698075E+03 -0.16691213991E+03  0.13820322369E+04  0.50400001928E-02 0.  1.
       -1    1    3    3    0  502 -0.13659610083E+04 -0.12768698075E+03  0.13679428723E+04  0.19373748071E+04  0.50400001928E-02 0. -1.
</event>
<event>
 5   0  0.3445410E-06  0.3100110E+04  0.7818609E-02  0.8215708E-01
        2   -1    0    0  501    0  0.00000000000E+00  0.00000000000E+00  0.20244811920E+04  0.20244811920E+04  0.25500000920E-02 0. -1.
       -2   -1    0    0    0  501  0.00000000000E+00  0.00000000000E+00 -0.11868077734E+04  0.11868077734E+04  0.25500000920E-02 0.  1.
    10030    2    1    2    0    0  0.00000000000E+00  0.00000000000E+00  0.83767341856E+03  0.32112889655E+04  0.31001096857E+04 0.  0.
        1    1    3    3  502    0 -0.15013239621E+04  0.31828283630E+03  0.64434200048E+03  0.16644681483E+04  0.50400001928E-02 0.  1.
       -1    1    3    3    0  502  0.15013239621E+04 -0.31828283630E+03  0.19333141808E+03  0.15468208171E+04  0.50400001928E-02 0. -1.
</event>
<event>
 5   0  0.1109562E-06  0.3072335E+04  0.7818609E-02  0.8223372E-01
        3   -1    0    0  501    0  0.00000000000E+00  0.00000000000E+00  0.95455435244E+03  0.95455435778E+03  0.10100000352E+00 0.  1.
       -3   -1    0    0    0  501  0.00000000000E+00  0.00000000000E+00 -0.24721593207E+04  0.24721593227E+04  0.10100000352E+00 0. -1.
    10030    2    1    2    0    0  0.00000000000E+00  0.00000000000E+00 -0.15176049682E+04  0.34267136805E+04  0.30723349115E+04 0.  0.
        2    1    3    3  502    0 -0.55728064182E+03 -0.96252753694E+03 -0.19406417901E+04  0.22367636287E+04  0.25500000920E-02 0. -1.
       -2    1    3    3    0  502  0.55728064182E+03  0.96252753694E+03  0.42303682189E+03  0.11899500518E+04  0.25500000920E-02 0.  1.
</event>
<event>
 5   0  0.3340899E-06  0.2984524E+04  0.7818609E-02  0.8248164E-01
        2   -1    0    0  501    0  0.00000000000E+00  0.00000000000E+00  0.20853212279E+04  0.20853212279E+04  0.25500000920E-02 0. -1.
       -2   -1    0    0    0  501  0.00000000000E+00  0.00000000000E+00 -0.10678672134E+04  0.10678672134E+04  0.25500000920E-02 0.  1.
    10030    2    1    2    0    0  0.00000000000E+00  0.00000000000E+00  0.10174540145E+04  0.31531884413E+04  0.29845241957E+04 0.  0.
        3    1    3    3  502    0  0.87023967651E+03  0.11072431980E+04  0.10301154107E+04  0.17448330475E+04  0.10100000352E+00 0. -1.
       -3    1    3    3    0  502 -0.87023967651E+03 -0.11072431980E+04 -0.12661396230E+02  0.14083553938E+04  0.10100000352E+00 0.  1.
</event>
<event>
 5   0  0.1198763E-06  0.3080130E+04  0.7818609E-02  0.8221212E-01
       -1   -1    0    0    0  501  0.00000000000E+00  0.00000000000E+00  0.96796288411E+03  0.96796288413E+03  0.50400001928E-02 0.  1.
        1   -1    0    0  501    0  0.00000000000E+00  0.00000000000E+00 -0.24503012400E+04  0.24503012400E+04  0.50400001928E-02 0. -1.
    10030    2    1    2    0    0  0.00000000000E+00  0.00000000000E+00 -0.14823383559E+04  0.34182641241E+04  0.30801302928E+04 0.  0.
        1    1    3    3  502    0  0.52806698117E+03  0.63842513747E+03  0.69956140446E+03  0.10843558232E+04  0.50400001928E-02 0.  1.
       -1    1    3    3    0  502 -0.52806698117E+03 -0.63842513747E+03 -0.21818997603E+04  0.23339083009E+04  0.50400001928E-02 0. -1.
</event>
<event>
 5   0  0.1109562E-06  0.3125245E+04  0.7818609E-02  0.8208844E-01
        3   -1    0    0  501    0  0.00000000000E+00  0.00000000000E+00  0.14256740196E+04  0.14256740232E+04  0.10100000352E+00 0. -1.
       -3   -1    0    0    0  501  0.00000000000E+00  0.00000000000E+00 -0.17127255277E+04  0.17127255307E+04  0.10100000352E+00 0.  1.
    10030    2    1    2    0    0  0.00000000000E+00  0.00000000000E+00 -0.28705150807E+03  0.31383995539E+04  0.31252445011E+04 0.  0.
        2    1    3    3  502    0  0.50214172336E+03 -0.18093797845E+02  0.13423357139E+04  0.14332965027E+04  0.25500000920E-02 0. -1.
       -2    1    3    3    0  502 -0.50214172336E+03  0.18093797845E+02 -0.16293872220E+04  0.17051030512E+04  0.25500000920E-02 0.  1.
</event>
<event>
 5   0  0.3441897E-06  0.3085560E+04  0.7818609E-02  0.8219712E-01
       -2   -1    0    0    0  501  0.00000000000E+00  0.00000000000E+00  0.16784976451E+04  0.16784976451E+04  0.25500000920E-02 0. -1.
        2   -1    0    0  501    0  0.00000000000E+00  0.00000000000E+00 -0.14180362111E+04  0.14180362111E+04  0.25500000920E-02 0.  1.
    10030    2    1    2    0    0  0.00000000000E+00  0.00000000000E+00  0.26046143408E+03  0.30965338562E+04  0.30855602026E+04 0.  0.
        5    1    3    3  502    0  0.14880138289E+04 -0.40680017549E+03  0.10831700287E+03  0.15464236809E+04  0.46999998093E+01 0. -1.
       -5    1    3    3    0  502 -0.14880138289E+04  0.40680017549E+03  0.15214443121E+03  0.15501101753E+04  0.46999998093E+01 0.  1.
</event>
<event>
 5   0  0.1198763E-06  0.3086403E+04  0.7818609E-02  0.8219479E-01
       -1   -1    0    0    0  501  0.00000000000E+00  0.00000000000E+00  0.14856067633E+04  0.14856067633E+04  0.50400001928E-02 0. -1.
        1   -1    0    0  501    0  0.00000000000E+00  0.00000000000E+00 -0.16030292309E+04  0.16030292309E+04  0.50400001928E-02 0.  1.
    10030    2    1    2    0    0  0.00000000000E+00  0.00000000000E+00 -0.11742246763E+03  0.30886359942E+04  0.30864031281E+04 0.  0.
        1    1    3    3  502    0  0.10640318405E+03 -0.13617307640E+04 -0.77744998727E+03  0.15716427056E+04  0.50400001928E-02 0.  1.
       -1    1    3    3    0  502 -0.10640318405E+03  0.13617307640E+04  0.66002751965E+03  0.15169932887E+04  0.50400001928E-02 0. -1.
</event>
<event>
 5   0  0.1250276E-06  0.3097523E+04  0.7818609E-02  0.8216418E-01
       -1   -1    0    0    0  501  0.00000000000E+00  0.00000000000E+00  0.20568073241E+04  0.20568073241E+04  0.50400001928E-02 0.  1.
        1   -1    0    0  501    0  0.00000000000E+00  0.00000000000E+00 -0.11662068311E+04  0.11662068311E+04  0.50400001928E-02 0. -1.
    10030    2    1    2    0    0  0.00000000000E+00  0.00000000000E+00  0.89060049305E+03  0.32230141552E+04  0.30975233665E+04 0.  0.
        5    1    3    3  502    0  0.34329309295E+03  0.48309939333E+03 -0.10435449820E+04  0.12001014086E+04  0.46999998093E+01 0. -1.
       -5    1    3    3    0  502 -0.34329309295E+03 -0.48309939333E+03  0.19341454751E+04  0.20229127466E+04  0.46999998093E+01 0.  1.
</event>
<event>
 5   0  0.1211008E-06  0.2877710E+04  0.7818609E-02  0.8279541E-01
        1   -1    0    0  501    0  0.00000000000E+00  0.00000000000E+00  0.23033571387E+04  0.23033571388E+04  0.50400001928E-02 0. -1.
       -1   -1    0    0    0  501  0.00000000000E+00  0.00000000000E+00 -0.89881992057E+03  0.89881992058E+03  0.50400001928E-02 0.  1.
    10030    2    1    2    0    0  0.00000000000E+00  0.00000000000E+00  0.14045372182E+04  0.32021770593E+04  0.28777097008E+04 0.  0.
        3    1    3    3  502    0 -0.37737828421E+02  0.14310910797E+04  0.86297344640E+03  0.16715768009E+04  0.10100000352E+00 0. -1.
       -3    1    3    3    0  502  0.37737828421E+02 -0.14310910797E+04  0.54156377177E+03  0.15306002584E+04  0.10100000352E+00 0.  1.
</event>
<event>
 5   0  0.3445959E-06  0.3091866E+04  0.7818609E-02  0.8217974E-01
        2   -1    0    0  501    0  0.00000000000E+00  0.00000000000E+00  0.19129741854E+04  0.19129741854E+04  0.25500000920E-02 0. -1.
       -2   -1    0    0    0  501  0.00000000000E+00  0.00000000000E+00 -0.12493157299E+04  0.12493157299E+04  0.25500000920E-02 0.  1.
    10030    2    1    2    0    0  0.00000000000E+00  0.00000000000E+00  0.66365845550E+03  0.31622899154E+04  0.30918659355E+04 0.  0.
        4    1    3    3  502    0  0.13488575320E+04 -0.75529825759E+03  0.33579417746E+03  0.15819770675E+04  0.12699999809E+01 0.  1.
       -4    1    3    3    0  502 -0.13488575320E+04  0.75529825759E+03  0.32786427804E+03  0.15803128479E+04  0.12699999809E+01 0. -1.
</event>
<event>
 5   0  0.1171915E-06  0.3095288E+04  0.7818609E-02  0.8217032E-01
        1   -1    0    0  501    0  0.00000000000E+00  0.00000000000E+00  0.11160387184E+04  0.11160387184E+04  0.50400001928E-02 0. -1.
       -1   -1    0    0    0  501  0.00000000000E+00  0.00000000000E+00 -0.21461643588E+04  0.21461643588E+04  0.50400001928E-02 0.  1.
    10030    2    1    2    0    0  0.00000000000E+00  0.00000000000E+00 -0.10301256405E+04  0.32622030772E+04  0.30952883681E+04 0.  0.
        2    1    3    3  502    0  0.10080742812E+03 -0.36768610671E+03 -0.20958973001E+04  0.21302912250E+04  0.25500000920E-02 0.  1.
       -2    1    3    3    0  502 -0.10080742812E+03  0.36768610671E+03  0.10657716597E+04  0.11319118522E+04  0.25500000920E-02 0. -1.
</event>
<event>
 5   0  0.3445410E-06  0.3126143E+04  0.7818609E-02  0.8208600E-01
        2   -1    0    0  501    0  0.00000000000E+00  0.00000000000E+00  0.16802872210E+04  0.16802872211E+04  0.25500000920E-02 0. -1.
       -2   -1    0    0    0  501  0.00000000000E+00  0.00000000000E+00 -0.14540330269E+04  0.14540330269E+04  0.25500000920E-02 0.  1.
    10030    2    1    2    0    0  0.00000000000E+00  0.00000000000E+00  0.22625419415E+03  0.31343202479E+04  0.31261433838E+04 0.  0.
        1    1    3    3  502    0 -0.20551227620E+03 -0.41853886707E+03 -0.13826810307E+04  0.14591836456E+04  0.50400001928E-02 0.  1.
       -1    1    3    3    0  502  0.20551227620E+03  0.41853886707E+03  0.16089352248E+04  0.16751366024E+04  0.50400001928E-02 0. -1.
</event>
<event>
 5   0  0.3445959E-06  0.3097074E+04  0.7818609E-02  0.8216541E-01
        2   -1    0    0  501    0  0.00000000000E+00  0.00000000000E+00  0.19403939698E+04  0.19403939698E+04  0.25500000920E-02 0.  1.
       -2   -1    0    0    0  501  0.00000000000E+00  0.00000000000E+00 -0.12358144435E+04  0.12358144435E+04  0.25500000920E-02 0. -1.
    10030    2    1    2    0    0  0.00000000000E+00  0.00000000000E+00  0.70457952631E+03  0.31762084134E+04  0.30970740347E+04 0.  0.
        4    1    3    3  502    0  0.11200398518E+03 -0.44132135049E+01  0.19362274608E+04  0.19394697116E+04  0.12699999809E+01 0.  1.
       -4    1    3    3    0  502 -0.11200398518E+03  0.44132135049E+01 -0.12316479345E+04  0.12367387018E+04  0.12699999809E+01 0. -1.
</event>
<event>
 5   0  0.3445959E-06  0.2967063E+04  0.7818609E-02  0.8253199E-01
       -2   -1    0    0    0  501  0.00000000000E+00  0.00000000000E+00  0.92651847347E+03  0.92651847347E+03  0.25500000920E-02 0.  1.
        2   -1    0    0  501    0  0.00000000000E+00  0.00000000000E+00 -0.23754154777E+04  0.23754154777E+04  0.25500000920E-02 0. -1.
    10030    2    1    2    0    0  0.00000000000E+00  0.00000000000E+00 -0.14488970043E+04  0.33019339512E+04  0.29670634117E+04 0.  0.
        4    1    3    3  502    0  0.30154384971E+03  0.98679799295E+03 -0.19106607335E+04  0.21714799156E+04  0.12699999809E+01 0. -1.
       -4    1    3    3    0  502 -0.30154384971E+03 -0.98679799295E+03  0.46176372925E+03  0.11304540357E+04  0.12699999809E+01 0.  1.
</event>
<event>
 5   0  0.3374790E-06  0.3102413E+04  0.7818609E-02  0.8215076E-01
        2   -1    0    0  501    0  0.00000000000E+00  0.00000000000E+00  0.22397285677E+04  0.22397285677E+04  0.25500000920E-02 0. -1.
       -2   -1    0    0    0  501  0.00000000000E+00  0.00000000000E+00 -0.10743451026E+04  0.10743451026E+04  0.25500000920E-02 0.  1.
    10030    2    1    2    0    0  0.00000000000E+00  0.00000000000E+00  0.11653834650E+04  0.33140736703E+04  0.31024128790E+04 0.  0.
        2    1    3    3  502    0 -0.11817695229E+04  0.37855161927E+03  0.15769792373E+04  0.20066748737E+04  0.25500000920E-02 0. -1.
       -2    1    3    3    0  502  0.11817695229E+04 -0.37855161927E+03 -0.41159577223E+03  0.13073987967E+04  0.25500000920E-02 0.  1.
</event>
<event>
 5   0  0.3340899E-06  0.3099193E+04  0.7818609E-02  0.8215959E-01
        2   -1    0    0  501    0  0.00000000000E+00  0.00000000000E+00  0.25324558200E+04  0.25324558200E+04  0.25500000920E-02 0. -1.
       -2   -1    0    0    0  501  0.00000000000E+00  0.00000000000E+00 -0.94819013072E+03  0.94819013072E+03  0.25500000920E-02 0.  1.
    10030    2    1    2    0    0  0.00000000000E+00  0.00000000000E+00  0.15842656893E+04  0.34806459507E+04  0.30991931950E+04 0.  0.
        3    1    3    3  502    0 -0.12718988196E+04 -0.58531935385E+03  0.46382963729E+02  0.14008842718E+04  0.10100000352E+00 0.  1.
       -3    1    3    3    0  502  0.12718988196E+04  0.58531935385E+03  0.15378827255E+04  0.20797616789E+04  0.10100000352E+00 0. -1.
</event>
<event>
 5   0  0.1211008E-06  0.3133642E+04  0.7818609E-02  0.8206565E-01
        1   -1    0    0  501    0  0.00000000000E+00  0.00000000000E+00  0.13122737351E+04  0.13122737351E+04  0.50400001928E-02 0. -1.
       -1   -1    0    0    0  501  0.00000000000E+00  0.00000000000E+00 -0.18707442345E+04  0.18707442345E+04  0.50400001928E-02 0.  1.
    10030    2    1    2    0    0  0.00000000000E+00  0.00000000000E+00 -0.55847049941E+03  0.31830179696E+04  0.31336423051E+04 0.  0.
        3    1    3    3  502    0  0.12592678993E+04  0.92652429644E+03 -0.38443154856E+03  0.16099660058E+04  0.10100000352E+00 0. -1.
       -3    1    3    3    0  502 -0.12592678993E+04 -0.92652429644E+03 -0.17403895085E+03  0.15730519638E+04  0.10100000352E+00 0.  1.
</event>
<event>
 5   0  0.1235960E-06  0.2885074E+04  0.7818609E-02  0.8277332E-01
        1   -1    0    0  501    0  0.00000000000E+00  0.00000000000E+00  0.19791100396E+04  0.19791100396E+04  0.50400001928E-02 0.  1.
       -1   -1    0    0    0  501  0.00000000000E+00  0.00000000000E+00 -0.10514386003E+04  0.10514386003E+04  0.50400001928E-02 0. -1.
    10030    2    1    2    0    0  0.00000000000E+00  0.00000000000E+00  0.92767143939E+03  0.30305486399E+04  0.28850737875E+04 0.  0.
        4    1    3    3  502    0  0.14324934485E+04 -0.11146634252E+02  0.64194163539E+03  0.15697937456E+04  0.12699999809E+01 0.  1.
       -4    1    3    3    0  502 -0.14324934485E+04  0.11146634252E+02  0.28572980400E+03  0.14607548943E+04  0.12699999809E+01 0. -1.
</event>
<event>
 5   0  0.3340899E-06  0.3080948E+04  0.7818609E-02  0.8220986E-01
        2   -1    0    0  501    0  0.00000000000E+00  0.00000000000E+00  0.16518267814E+04  0.16518267814E+04  0.25500000920E-02 0.  1.
       -2   -1    0    0    0  501  0.00000000000E+00  0.00000000000E+00 -0.14366279438E+04  0.14366279438E+04  0.25500000920E-02 0. -1.
    10030    2    1    2    0    0  0.00000000000E+00  0.00000000000E+00  0.21519883762E+03  0.30884547252E+04  0.30809482387E+04 0.  0.
        3    1    3    3  502    0 -0.25883326919E+03  0.15151388639E+04  0.20992684053E+03  0.15513573820E+04  0.10100000352E+00 0. -1.
       -3    1    3    3    0  502  0.25883326919E+03 -0.15151388639E+04  0.52719970909E+01  0.15370973431E+04  0.10100000352E+00 0.  1.
</event>
<event>
 5   0  0.3374790E-06  0.3114794E+04  0.7818609E-02  0.8211690E-01
        2   -1    0    0  501    0  0.00000000000E+00  0.00000000000E+00  0.15408472534E+04  0.15408472534E+04  0.25500000920E-02 0. -1.
       -2   -1    0    0    0  501  0.00000000000E+00  0.00000000000E+00 -0.15741245516E+04  0.15741245516E+04  0.25500000920E-02 0.  1.
    10030    2    1    2    0    0  0.00000000000E+00  0.00000000000E+00 -0.33277298216E+02  0.31149718051E+04  0.31147940490E+04 0.  0.
        2    1    3    3  502    0  0.13862625278E+04 -0.70651780031E+03 -0.84423736790E+02  0.15582100518E+04  0.25500000920E-02 0. -1.
       -2    1    3    3    0  502 -0.13862625278E+04  0.70651780031E+03  0.51146438574E+02  0.15567617533E+04  0.25500000920E-02 0.  1.
</event>
<event>
 5   0  0.1198763E-06  0.3075761E+04  0.7818609E-02  0.8222422E-01
       -1   -1    0    0    0  501  0.00000000000E+00  0.00000000000E+00  0.25675856098E+04  0.25675856098E+04  0.50400001928E-02 0.  1.
        1   -1    0    0  501    0  0.00000000000E+00  0.00000000000E+00 -0.92112854669E+03  0.92112854671E+03  0.50400001928E-02 0. -1.
    10030    2    1    2    0    0  0.00000000000E+00  0.00000000000E+00  0.16464570631E+04  0.34887141565E+04  0.30757609799E+04 0.  0.
        1    1    3    3  502    0 -0.43181671319E+03 -0.79545800588E+03  0.22334830616E+04  0.24099098945E+04  0.50400001928E-02 0.  1.
       -1    1    3    3    0  502  0.43181671319E+03  0.79545800588E+03 -0.58702599849E+03  0.10788042621E+04  0.50400001928E-02 0. -1.
</event>
<event>
 5   0  0.3445410E-06  0.3078768E+04  0.7818609E-02  0.8221589E-01
       -2   -1    0    0    0  501  0.00000000000E+00  0.00000000000E+00  0.10268471854E+04  0.10268471854E+04  0.25500000920E-02 0. -1.
        2   -1    0    0  501    0  0.00000000000E+00  0.00000000000E+00 -0.23077473148E+04  0.23077473148E+04  0.25500000920E-02 0.  1.
    10030    2    1    2    0    0  0.00000000000E+00  0.00000000000E+00 -0.12809001294E+04  0.33345945002E+04  0.30787684777E+04 0.  0.
        1    1    3    3  502    0 -0.29997671177E+02 -0.98485011056E+03 -0.19214683641E+04  0.21593680268E+04  0.50400001928E-02 0.  1.
       -1    1    3    3    0  502  0.29997671177E+02  0.98485011056E+03  0.64056823474E+03  0.11752264735E+04  0.50400001928E-02 0. -1.
</event>
<event>
 5   0  0.1171915E-06  0.3035220E+04  0.7818609E-02  0.8233744E-01
        1   -1    0    0  501    0  0.00000000000E+00  0.00000000000E+00  0.13994334998E+04  0.13994334998E+04  0.50400001928E-02 0.  1.
       -1   -1    0    0    0  501  0.00000000000E+00  0.00000000000E+00 -0.16457663777E+04  0.16457663777E+04  0.50400001928E-02 0. -1.
    10030    2    1    2    0    0  0.00000000000E+00  0.00000000000E+00 -0.24633287790E+03  0.30451998775E+04  0.30352203227E+04 0.  0.
        2    1    3    3  502    0 -0.87937634503E+02 -0.12481176708E+04 -0.98483240041E+03  0.15923019828E+04  0.25500000920E-02 0. -1.
       -2    1    3    3    0  502  0.87937634503E+02  0.12481176708E+04  0.73849952251E+03  0.14528978947E+04  0.25500000920E-02 0.  1.
</event>
<event>
 5   0  0.3441897E-06  0.3042366E+04  0.7818609E-02  0.8231735E-01
        2   -1    0    0  501    0  0.00000000000E+00  0.00000000000E+00  0.17295075311E+04  0.17295075311E+04  0.25500000920E-02 0.  1.
       -2   -1    0    0    0  501  0.00000000000E+00  0.00000000000E+00 -0.13379520319E+04  0.13379520319E+04  0.25500000920E-02 0. -1.
    10030    2    1    2    0    0  0.00000000000E+00  0.00000000000E+00  0.39155549924E+03  0.30674595630E+04  0.30423662602E+04 0.  0.
        5    1    3    3  502    0 -0.13738698692E+03  0.14467550096E+04  0.64892972455E+03  0.15915737870E+04  0.46999998093E+01 0.  1.
       -5    1    3    3    0  502  0.13738698692E+03 -0.14467550096E+04 -0.25737422531E+03  0.14758857760E+04  0.46999998093E+01 0. -1.
</event>
<event>
 5   0  0.1171915E-06  0.3103010E+04  0.7818609E-02  0.8214912E-01
        1   -1    0    0  501    0  0.00000000000E+00  0.00000000000E+00  0.21109031918E+04  0.21109031918E+04  0.50400001928E-02 0.  1.
       -1   -1    0    0    0  501  0.00000000000E+00  0.00000000000E+00 -0.11403498815E+04  0.11403498815E+04  0.50400001928E-02 0. -1.
    10030    2    1    2    0    0  0.00000000000E+00  0.00000000000E+00  0.97055331025E+03  0.32512530733E+04  0.31030102834E+04 0.  0.
        2    1    3    3  502    0  0.58897607519E+03  0.43918081819E+03 -0.94653444863E+03  0.11982070233E+04  0.25500000920E-02 0. -1.
       -2    1    3    3    0  502 -0.58897607519E+03 -0.43918081819E+03  0.19170877589E+04  0.20530460500E+04  0.25500000920E-02 0.  1.
</event>
<event>
 5   0  0.1211008E-06  0.3105409E+04  0.7818609E-02  0.8214255E-01
        1   -1    0    0  501    0  0.00000000000E+00  0.00000000000E+00  0.12065074072E+04  0.12065074072E+04  0.50400001928E-02 0.  1.
       -1   -1    0    0    0  501  0.00000000000E+00  0.00000000000E+00 -0.19982396445E+04  0.19982396445E+04  0.50400001928E-02 0. -1.
    10030    2    1    2    0    0  0.00000000000E+00  0.00000000000E+00 -0.79173223729E+03  0.32047470517E+04  0.31054087863E+04 0.  0.
        3    1    3    3  502    0  0.10133935249E+04  0.10153806847E+04 -0.10089461138E+04  0.17538348388E+04  0.10100000352E+00 0. -1.
       -3    1    3    3    0  502 -0.10133935249E+04 -0.10153806847E+04  0.21721387651E+03  0.14509122129E+04  0.10100000352E+00 0.  1.
</event>
<event>
 5   0  0.1250276E-06  0.3096882E+04  0.7818609E-02  0.8216594E-01
        1   -1    0    0  501    0  0.00000000000E+00  0.00000000000E+00  0.29541660210E+04  0.29541660210E+04  0.50400001928E-02 0.  1.
       -1   -1    0    0    0  501  0.00000000000E+00  0.00000000000E+00 -0.81162340486E+03  0.81162340488E+03  0.50400001928E-02 0. -1.
    10030    2    1    2    0    0  0.00000000000E+00  0.00000000000E+00  0.21425426162E+04  0.37657894259E+04  0.30968824870E+04 0.  0.
        5    1    3    3  502    0  0.45774207280E+03 -0.76856597057E+03  0.26081577532E+04  0.27573049182E+04  0.46999998093E+01 0.  1.
       -5    1    3    3    0  502 -0.45774207280E+03  0.76856597057E+03 -0.46561513708E+03  0.10084845077E+04  0.46999998093E+01 0. -1.
</event>
<event>
 5   0  0.3445410E-06  0.3086935E+04  0.7818609E-02  0.8219333E-01
        2   -1    0    0  501    0  0.00000000000E+00  0.00000000000E+00  0.17046194944E+04  0.17046194944E+04  0.25500000920E-02 0.  1.
       -2   -1    0    0    0  501  0.00000000000E+00  0.00000000000E+00 -0.13975509434E+04  0.13975509434E+04  0.25500000920E-02 0. -1.
    10030    2    1    2    0    0  0.00000000000E+00  0.00000000000E+00  0.30706855107E+03  0.31021704378E+04  0.30869354269E+04 0.  0.
        1    1    3    3  502    0  0.87002404083E+03 -0.49443947694E+03  0.13344424680E+04  0.16679774964E+04  0.50400001928E-02 0.  1.
       -1    1    3    3    0  502 -0.87002404083E+03  0.49443947694E+03 -0.10273739169E+04  0.14341929414E+04  0.50400001928E-02 0. -1.
</event>
<event>
 5   0  0.1211008E-06  0.3023447E+04  0.7818609E-02  0.8237067E-01
        1   -1    0    0  501    0  0.00000000000E+00  0.00000000000E+00  0.18297312930E+04  0.18297312930E+04  0.50400001928E-02 0. -1.
       -1   -1    0    0    0  501  0.00000000000E+00  0.00000000000E+00 -0.12489853745E+04  0.12489853745E+04  0.50400001928E-02 0.  1.
    10030    2    1    2    0    0  0.00000000000E+00  0.00000000000E+00  0.58074591844E+03  0.30787166675E+04  0.30234467908E+04 0.  0.
        3    1    3    3  502    0  0.81159158909E+03 -0.12743481612E+04  0.34292521356E+03  0.15492713951E+04  0.10100000352E+00 0. -1.
       -3    1    3    3    0  502 -0.81159158909E+03  0.12743481612E+04  0.23782070488E+03  0.15294452724E+04  0.10100000352E+00 0.  1.
</event>
<event>
 5   0  0.3374790E-06  0.3100723E+04  0.7818609E-02  0.8215540E-01
        2   -1    0    0  501    0  0.00000000000E+00  0.00000000000E+00  0.19828692280E+04  0.19828692280E+04  0.25500000920E-02 0. -1.
       -2   -1    0    0    0  501  0.00000000000E+00  0.00000000000E+00 -0.12121933098E+04  0.12121933098E+04  0.25500000920E-02 0.  1.
    10030    2    1    2    0    0  0.00000000000E+00  0.00000000000E+00  0.77067591816E+03  0.31950625377E+04  0.31007230204E+04 0.  0.
        2    1    3    3  502    0 -0.75064606589E+03  0.13509899114E+04  0.25923163808E+03  0.15671133651E+04  0.25500000920E-02 0. -1.
       -2    1    3    3    0  502  0.75064606589E+03 -0.13509899114E+04  0.51144428008E+03  0.16279491726E+04  0.25500000920E-02 0.  1.
</event>
<event>
 5   0  0.1235960E-06  0.3097817E+04  0.7818609E-02  0.8216337E-01
        1   -1    0    0  501    0  0.00000000000E+00  0.00000000000E+00  0.15010552551E+04  0.15010552551E+04  0.50400001928E-02 0. -1.
       -1   -1    0    0    0  501  0.00000000000E+00  0.00000000000E+00 -0.15982874588E+04  0.15982874588E+04  0.50400001928E-02 0.  1.
    10030    2    1    2    0    0  0.00000000000E+00  0.00000000000E+00 -0.97232203657E+02  0.30993427139E+04  0.30978171600E+04 0.  0.
        4    1    3    3  502    0 -0.11632166157E+03  0.52791210794E+03 -0.15008453850E+04  0.15952305179E+04  0.12699999809E+01 0.  1.
       -4    1    3    3    0  502  0.11632166157E+03 -0.52791210794E+03  0.14036131813E+04  0.15041121960E+04  0.12699999809E+01 0. -1.
</event>
<event>
 5   0  0.1250276E-06  0.3024985E+04  0.7818609E-02  0.8236632E-01
       -1   -1    0    0    0  501  0.00000000000E+00  0.00000000000E+00  0.16395481736E+04  0.16395481737E+04  0.50400001928E-02 0. -1.
        1   -1    0    0  501    0  0.00000000000E+00  0.00000000000E+00 -0.13952832703E+04  0.13952832703E+04  0.50400001928E-02 0.  1.
    10030    2    1    2    0    0  0.00000000000E+00  0.00000000000E+00  0.24426490337E+03  0.30348314439E+04  0.30249853801E+04 0.  0.
        5    1    3    3  502    0  0.14984806706E+03 -0.95470007623E+03 -0.10451430499E+04  0.14234650552E+04  0.46999998093E+01 0.  1.
       -5    1    3    3    0  502 -0.14984806706E+03  0.95470007623E+03  0.12894079532E+04  0.16113663887E+04  0.46999998093E+01 0. -1.
</event>
<event>
 5   0  0.3441897E-06  0.3009877E+04  0.7818609E-02  0.8240916E-01
       -2   -1    0    0    0  501  0.00000000000E+00  0.00000000000E+00  0.78039233442E+03  0.78039233442E+03  0.25500000920E-02 0. -1.
        2   -1    0    0  501    0  0.00000000000E+00  0.00000000000E+00 -0.29021818896E+04  0.29021818896E+04  0.25500000920E-02 0.  1.
    10030    2    1    2    0    0  0.00000000000E+00  0.00000000000E+00 -0.21217895552E+04  0.36825742240E+04  0.30098774059E+04 0.  0.
        5    1    3    3  502    0  0.89942786247E+03 -0.39740247851E+03 -0.24547784490E+04  0.26444013563E+04  0.46999998093E+01 0.  1.
       -5    1    3    3    0  502 -0.89942786247E+03  0.39740247851E+03  0.33298889385E+03  0.10381728677E+04  0.46999998093E+01 0. -1.
</event>
<event>
 5   0  0.1250276E-06  0.3106787E+04  0.7818609E-02  0.8213878E-01
        1   -1    0    0  501    0  0.00000000000E+00  0.00000000000E+00  0.33459755734E+04  0.33459755734E+04  0.50400001928E-02 0. -1.
       -1   -1    0    0    0  501  0.00000000000E+00  0.00000000000E+00 -0.72117418295E+03  0.72117418296E+03  0.50400001928E-02 0.  1.
    10030    2    1    2    0    0  0.00000000000E+00  0.00000000000E+00  0.26248013904E+04  0.40671497564E+04  0.31067868935E+04 0.  0.
        5    1    3    3  502    0  0.43180474465E+03 -0.13476235419E+04  0.21511197955E+04  0.25748559208E+04  0.46999998093E+01 0. -1.
       -5    1    3    3    0  502 -0.43180474465E+03  0.13476235419E+04  0.47368159493E+03  0.14922938356E+04  0.46999998093E+01 0.  1.
</event>
<event>
 5   0  0.1171915E-06  0.3161904E+04  0.7818609E-02  0.8198951E-01
       -1   -1    0    0    0  501  0.00000000000E+00  0.00000000000E+00  0.20896935958E+04  0.20896935958E+04  0.50400001928E-02 0.  1.
        1   -1    0    0  501    0  0.00000000000E+00  0.00000000000E+00 -0.11960648330E+04  0.11960648330E+04  0.50400001928E-02 0. -1.
    10030    2    1    2    0    0  0.00000000000E+00  0.00000000000E+00  0.89362876281E+03  0.32857584288E+04  0.31619038705E+04 0.  0.
        2    1    3    3  502    0 -0.10473586640E+04 -0.77224619254E+03 -0.48617628478E+03  0.13891334468E+04  0.25500000920E-02 0. -1.
       -2    1    3    3    0  502  0.10473586640E+04  0.77224619254E+03  0.13798050476E+04  0.18966249820E+04  0.25500000920E-02 0.  1.
</event>
<event>
 5   0  0.3445410E-06  0.2686402E+04  0.7818609E-02  0.8339431E-01
       -2   -1    0    0    0  501  0.00000000000E+00  0.00000000000E+00  0.73450541869E+03  0.73450541870E+03  0.25500000920E-02 0.  1.
        2   -1    0    0  501    0  0.00000000000E+00  0.00000000000E+00 -0.24563310524E+04  0.24563310524E+04  0.25500000920E-02 0. -1.
    10030    2    1    2    0    0  0.00000000000E+00  0.00000000000E+00 -0.17218256337E+04  0.31908364711E+04  0.26864016588E+04 0.  0.
        1    1    3    3  502    0  0.82428985775E+03 -0.78509235911E+03 -0.17077916682E+04  0.20524074069E+04  0.50400001928E-02 0. -1.
       -1    1    3    3    0  502 -0.82428985775E+03  0.78509235911E+03 -0.14033965470E+02  0.11384290642E+04  0.50400001928E-02 0.  1.
</event>
<event>
 5   0  0.1235960E-06  0.2883348E+04  0.7818609E-02  0.8277849E-01
        1   -1    0    0  501    0  0.00000000000E+00  0.00000000000E+00  0.18197361274E+04  0.18197361274E+04  0.50400001928E-02 0. -1.
       -1   -1    0    0    0  501  0.00000000000E+00  0.00000000000E+00 -0.11421565331E+04  0.11421565331E+04  0.50400001928E-02 0.  1.
    10030    2    1    2    0    0  0.00000000000E+00  0.00000000000E+00  0.67757959435E+03  0.29618926605E+04  0.28833477116E+04 0.  0.
        4    1    3    3  502    0  0.12563814452E+03  0.33555411111E+03  0.17732684853E+04  0.18091059225E+04  0.12699999809E+01 0. -1.
       -4    1    3    3    0  502 -0.12563814452E+03 -0.33555411111E+03 -0.10956888909E+04  0.11527867381E+04  0.12699999809E+01 0.  1.
</event>
<event>
 5   0  0.3445410E-06  0.3123464E+04  0.7818609E-02  0.8209328E-01
       -2   -1    0    0    0  501  0.00000000000E+00  0.00000000000E+00  0.81411772107E+03  0.81411772108E+03  0.25500000920E-02 0. -1.
        2   -1    0    0  501    0  0.00000000000E+00  0.00000000000E+00 -0.29958893336E+04  0.29958893336E+04  0.25500000920E-02 0.  1.
    10030    2    1    2    0    0  0.00000000000E+00  0.00000000000E+00 -0.21817716126E+04  0.38100070547E+04  0.31234638444E+04 0.  0.
        1    1    3    3  502    0  0.13637139184E+04 -0.76009092186E+03 -0.10428197908E+04  0.18774788885E+04  0.50400001928E-02 0. -1.
       -1    1    3    3    0  502 -0.13637139184E+04  0.76009092186E+03 -0.11389518218E+04  0.19325281662E+04  0.50400001928E-02 0.  1.
</event>
<event>
 5   0  0.3445410E-06  0.2532538E+04  0.7818609E-02  0.8391485E-01
       -2   -1    0    0    0  501  0.00000000000E+00  0.00000000000E+00  0.12131839966E+04  0.12131839966E+04  0.25500000920E-02 0. -1.
        2   -1    0    0  501    0  0.00000000000E+00  0.00000000000E+00 -0.13216764485E+04  0.13216764485E+04  0.25500000920E-02 0.  1.
    10030    2    1    2    0    0  0.00000000000E+00  0.00000000000E+00 -0.10849245187E+03  0.25348604451E+04  0.25325376333E+04 0.  0.
        1    1    3    3  502    0 -0.18927745613E+03 -0.32469587352E+03 -0.12645630327E+04  0.13192319847E+04  0.50400001928E-02 0.  1.
       -1    1    3    3    0  502  0.18927745613E+03  0.32469587352E+03  0.11560705809E+04  0.12156284604E+04  0.50400001928E-02 0. -1.
</event>
<event>
 5   0  0.1235960E-06  0.3040799E+04  0.7818609E-02  0.8232176E-01
       -1   -1    0    0    0  501  0.00000000000E+00  0.00000000000E+00  0.12952627161E+04  0.12952627161E+04  0.50400001928E-02 0.  1.
        1   -1    0    0  501    0  0.00000000000E+00  0.00000000000E+00 -0.17846683515E+04  0.17846683515E+04  0.50400001928E-02 0. -1.
    10030    2    1    2    0    0  0.00000000000E+00  0.00000000000E+00 -0.48940563533E+03  0.30799310676E+04  0.30407988268E+04 0.  0.
        4    1    3    3  502    0  0.89417717528E+03  0.11692882090E+04 -0.63015908959E+03  0.16012151097E+04  0.12699999809E+01 0. -1.
       -4    1    3    3    0  502 -0.89417717528E+03 -0.11692882090E+04  0.14075345426E+03  0.14787159579E+04  0.12699999809E+01 0.  1.
</event>
<event>
 5   0  0.1211008E-06  0.3115394E+04  0.7818609E-02  0.8211526E-01
        1   -1    0    0  501    0  0.00000000000E+00  0.00000000000E+00  0.15663911677E+04  0.15663911677E+04  0.50400001928E-02 0. -1.
       -1   -1    0    0    0  501  0.00000000000E+00  0.00000000000E+00 -0.15490510382E+04  0.15490510382E+04  0.50400001928E-02 0.  1.
    10030    2    1    2    0    0  0.00000000000E+00  0.00000000000E+00  0.17340129468E+02  0.31154422059E+04  0.31153939491E+04 0.  0.
        3    1    3    3  502    0 -0.39736719792E+03 -0.12910096806E+03  0.15093105501E+04  0.15660734647E+04  0.10100000352E+00 0. -1.
       -3    1    3    3    0  502  0.39736719792E+03  0.12910096806E+03 -0.14919704207E+04  0.15493687412E+04  0.10100000352E+00 0.  1.
</event>
<event>
 5   0  0.3445959E-06  0.3104836E+04  0.7818609E-02  0.8214412E-01
       -2   -1    0    0    0  501  0.00000000000E+00  0.00000000000E+00  0.20657394742E+04  0.20657394742E+04  0.25500000920E-02 0.  1.
        2   -1    0    0  501    0  0.00000000000E+00  0.00000000000E+00 -0.11666532722E+04  0.11666532722E+04  0.25500000920E-02 0. -1.
    10030    2    1    2    0    0  0.00000000000E+00  0.00000000000E+00  0.89908620193E+03  0.32323927464E+04  0.31048360454E+04 0.  0.
        4    1    3    3  502    0  0.15491396562E+04 -0.88563919040E+02  0.49971923025E+03  0.16301528040E+04  0.12699999809E+01 0.  1.
       -4    1    3    3    0  502 -0.15491396562E+04  0.88563919040E+02  0.39936697169E+03  0.16022399425E+04  0.12699999809E+01 0. -1.
</event>
<event>
 5   0  0.1235960E-06  0.3094892E+04  0.7818609E-02  0.8217141E-01
        1   -1    0    0  501    0  0.00000000000E+00  0.00000000000E+00  0.25306110686E+04  0.25306110686E+04  0.50400001928E-02 0.  1.
       -1   -1    0    0    0  501  0.00000000000E+00  0.00000000000E+00 -0.94624947864E+03  0.94624947865E+03  0.50400001928E-02 0. -1.
    10030    2    1    2    0    0  0.00000000000E+00  0.00000000000E+00  0.15843615900E+04  0.34768605473E+04  0.30948921819E+04 0.  0.
        4    1    3    3  502    0 -0.93350984612E+03 -0.60554945925E+03  0.20002908384E+04  0.22889508146E+04  0.12699999809E+01 0.  1.
       -4    1    3    3    0  502  0.93350984612E+03  0.60554945925E+03 -0.41592924845E+03  0.11879097327E+04  0.12699999809E+01 0. -1.
</event>
<event>
 5   0  0.1198763E-06  0.3110984E+04  0.7818609E-02  0.8212730E-01
       -1   -1    0    0    0  501  0.00000000000E+00  0.00000000000E+00  0.17723483675E+04  0.17723483675E+04  0.50400001928E-02 0. -1.
        1   -1    0    0  501    0  0.00000000000E+00  0.00000000000E+00 -0.13651695552E+04  0.13651695552E+04  0.50400001928E-02 0.  1.
    10030    2    1    2    0    0  0.00000000000E+00  0.00000000000E+00  0.40717881232E+03  0.31375179227E+04  0.31109844311E+04 0.  0.
        1    1    3    3  502    0  0.18963751908E+03 -0.12728588089E+04 -0.67760414374E+03  0.14543999834E+04  0.50400001928E-02 0.  1.
       -1    1    3    3    0  502 -0.18963751908E+03  0.12728588089E+04  0.10847829561E+04  0.16831179394E+04  0.50400001928E-02 0. -1.
</event>
<event>
 5   0  0.1250276E-06  0.3092981E+04  0.7818609E-02  0.8217667E-01
       -1   -1    0    0    0  501  0.00000000000E+00  0.00000000000E+00  0.15846232626E+04  0.15846232626E+04  0.50400001928E-02 0.  1.
        1   -1    0    0  501    0  0.00000000000E+00  0.00000000000E+00 -0.15092755376E+04  0.15092755376E+04  0.50400001928E-02 0. -1.
    10030    2    1    2    0    0  0.00000000000E+00  0.00000000000E+00  0.75347725004E+02  0.30938988002E+04  0.30929811681E+04 0.  0.
        5    1    3    3  502    0  0.72045189038E+03 -0.12410704708E+04  0.61430320917E+03  0.15609924287E+04  0.46999998093E+01 0.  1.
       -5    1    3    3    0  502 -0.72045189038E+03  0.12410704708E+04 -0.53895548417E+03  0.15329063714E+04  0.46999998093E+01 0. -1.
</event>
<event>
 5   0  0.3445959E-06  0.3067070E+04  0.7818609E-02  0.8224834E-01
       -2   -1    0    0    0  501  0.00000000000E+00  0.00000000000E+00  0.12113789192E+04  0.12113789192E+04  0.25500000920E-02 0. -1.
        2   -1    0    0  501    0  0.00000000000E+00  0.00000000000E+00 -0.19413652931E+04  0.19413652931E+04  0.25500000920E-02 0.  1.
    10030    2    1    2    0    0  0.00000000000E+00  0.00000000000E+00 -0.72998637390E+03  0.31527442122E+04  0.30670696050E+04 0.  0.
        4    1    3    3  502    0  0.64531991640E+03  0.42005814345E+03 -0.17282521546E+04  0.18920210784E+04  0.12699999809E+01 0.  1.
       -4    1    3    3    0  502 -0.64531991640E+03 -0.42005814345E+03  0.99826578068E+03  0.12607231338E+04  0.12699999809E+01 0. -1.
</event>
<event>
 5   0  0.3374790E-06  0.3031944E+04  0.7818609E-02  0.8234667E-01
        2   -1    0    0  501    0  0.00000000000E+00  0.00000000000E+00  0.25612687701E+04  0.25612687701E+04  0.25500000920E-02 0. -1.
       -2   -1    0    0    0  501  0.00000000000E+00  0.00000000000E+00 -0.89727853823E+03  0.89727853823E+03  0.25500000920E-02 0.  1.
    10030    2    1    2    0    0  0.00000000000E+00  0.00000000000E+00  0.16639902318E+04  0.34585473083E+04  0.30319442594E+04 0.  0.
        2    1    3    3  502    0  0.39179838100E+03 -0.73595216476E+03  0.22762527741E+04  0.24241407244E+04  0.25500000920E-02 0. -1.
       -2    1    3    3    0  502 -0.39179838100E+03  0.73595216476E+03 -0.61226254225E+03  0.10344065839E+04  0.25500000920E-02 0.  1.
</event>
<event>
 5   0  0.1250276E-06  0.3059642E+04  0.7818609E-02  0.8226902E-01
       -1   -1    0    0    0  501  0.00000000000E+00  0.00000000000E+00  0.13799246028E+04  0.13799246028E+04  0.50400001928E-02 0.  1.
        1   -1    0    0  501    0  0.00000000000E+00  0.00000000000E+00 -0.16960004456E+04  0.16960004456E+04  0.50400001928E-02 0. -1.
    10030    2    1    2    0    0  0.00000000000E+00  0.00000000000E+00 -0.31607584275E+03  0.30759250484E+04  0.30596422937E+04 0.  0.
        5    1    3    3  502    0  0.81330757014E+03 -0.93290674232E+03  0.74593949858E+03  0.14450716311E+04  0.46999998093E+01 0.  1.
       -5    1    3    3    0  502 -0.81330757014E+03  0.93290674232E+03 -0.10620153413E+04  0.16308534173E+04  0.46999998093E+01 0. -1.
</event>
<event>
 5   0  0.1198763E-06  0.3145465E+04  0.7818609E-02  0.8203370E-01
       -1   -1    0    0    0  501  0.00000000000E+00  0.00000000000E+00  0.17004012774E+04  0.17004012774E+04  0.50400001928E-02 0. -1.
        1   -1    0    0  501    0  0.00000000000E+00  0.00000000000E+00 -0.14546490446E+04  0.14546490446E+04  0.50400001928E-02 0.  1.
    10030    2    1    2    0    0  0.00000000000E+00  0.00000000000E+00  0.24575223276E+03  0.31550503220E+04  0.31454647311E+04 0.  0.
        1    1    3    3  502    0 -0.13050674956E+04  0.87649864138E+03  0.77615916658E+02  0.15739997671E+04  0.50400001928E-02 0. -1.
       -1    1    3    3    0  502  0.13050674956E+04 -0.87649864138E+03  0.16813631611E+03  0.15810505549E+04  0.50400001928E-02 0.  1.
</event>
<event>
 5   0  0.3340899E-06  0.3392075E+04  0.7818609E-02  0.8139854E-01
        2   -1    0    0  501    0  0.00000000000E+00  0.00000000000E+00  0.22305062334E+04  0.22305062334E+04  0.25500000920E-02 0.  1.
       -2   -1    0    0    0  501  0.00000000000E+00  0.00000000000E+00 -0.12896368648E+04  0.12896368648E+04  0.25500000920E-02 0. -1.
    10030    2    1    2    0    0  0.00000000000E+00  0.00000000000E+00  0.94086936860E+03  0.35201430983E+04  0.33920749201E+04 0.  0.
        3    1    3    3  502    0 -0.78602629292E+01 -0.89531537215E+03 -0.10243980333E+04  0.13605303158E+04  0.10100000352E+00 0. -1.
       -3    1    3    3    0  502  0.78602629292E+01  0.89531537215E+03  0.19652674019E+04  0.21596127825E+04  0.10100000352E+00 0.  1.
</event>
<event>
 5   0  0.3445959E-06  0.3102040E+04  0.7818609E-02  0.8215178E-01
        2   -1    0    0  501    0  0.00000000000E+00  0.00000000000E+00  0.25664347244E+04  0.25664347244E+04  0.25500000920E-02 0. -1.
       -2   -1    0    0    0  501  0.00000000000E+00  0.00000000000E+00 -0.93735599598E+03  0.93735599599E+03  0.25500000920E-02 0.  1.
    10030    2    1    2    0    0  0.00000000000E+00  0.00000000000E+00  0.16290787284E+04  0.35037907204E+04  0.31020399593E+04 0.  0.
        4    1    3    3  502    0  0.60113231416E+03 -0.14075281681E+04  0.53066142956E+03  0.16199070248E+04  0.12699999809E+01 0.  1.
       -4    1    3    3    0  502 -0.60113231416E+03  0.14075281681E+04  0.10984172989E+04  0.18838836956E+04  0.12699999809E+01 0. -1.
</event>
<event>
 5   0  0.3445959E-06  0.3116009E+04  0.7818609E-02  0.8211358E-01
        2   -1    0    0  501    0  0.00000000000E+00  0.00000000000E+00  0.87351978637E+03  0.87351978638E+03  0.25500000920E-02 0. -1.
       -2   -1    0    0    0  501  0.00000000000E+00  0.00000000000E+00 -0.27788481011E+04  0.27788481011E+04  0.25500000920E-02 0.  1.
    10030    2    1    2    0    0  0.00000000000E+00  0.00000000000E+00 -0.19053283147E+04  0.36523678875E+04  0.31160094991E+04 0.  0.
        4    1    3    3  502    0 -0.35302533627E+03 -0.84876373683E+03 -0.24271040604E+04  0.25953540225E+04  0.12699999809E+01 0.  1.
       -4    1    3    3    0  502  0.35302533627E+03  0.84876373683E+03  0.52177574573E+03  0.10570138650E+04  0.12699999809E+01 0. -1.
</event>
<event>
 5   0  0.1211008E-06  0.3118947E+04  0.7818609E-02  0.8210557E-01
        1   -1    0    0  501    0  0.00000000000E+00  0.00000000000E+00  0.14332667365E+04  0.14332667365E+04  0.50400001928E-02 0.  1.
       -1   -1    0    0    0  501  0.00000000000E+00  0.00000000000E+00 -0.16967934629E+04  0.16967934629E+04  0.50400001928E-02 0. -1.
    10030    2    1    2    0    0  0.00000000000E+00  0.00000000000E+00 -0.26352672635E+03  0.31300601994E+04  0.31189470204E+04 0.  0.
        3    1    3    3  502    0 -0.80300045051E+03  0.38337009145E+03 -0.14170199020E+04  0.16732387048E+04  0.10100000352E+00 0. -1.
       -3    1    3    3    0  502  0.80300045051E+03 -0.38337009145E+03  0.11534931756E+04  0.14568214945E+04  0.10100000352E+00 0.  1.
</event>
<event>
 5   0  0.1211008E-06  0.3067944E+04  0.7818609E-02  0.8224591E-01
       -1   -1    0    0    0  501  0.00000000000E+00  0.00000000000E+00  0.12465236299E+04  0.12465236299E+04  0.50400001928E-02 0. -1.
        1   -1    0    0  501    0  0.00000000000E+00  0.00000000000E+00 -0.18877064661E+04  0.18877064661E+04  0.50400001928E-02 0.  1.
    10030    2    1    2    0    0  0.00000000000E+00  0.00000000000E+00 -0.64118283614E+03  0.31342300960E+04  0.30679444039E+04 0.  0.
        3    1    3    3  502    0  0.12182374545E+04 -0.87657301228E+03 -0.64459991648E+03  0.16333988503E+04  0.10100000352E+00 0. -1.
       -3    1    3    3    0  502 -0.12182374545E+04  0.87657301228E+03  0.34170803374E+01  0.15008312457E+04  0.10100000352E+00 0.  1.
</event>
<event>
 5   0  0.1211008E-06  0.3106239E+04  0.7818609E-02  0.8214028E-01
        1   -1    0    0  501    0  0.00000000000E+00  0.00000000000E+00  0.20362501342E+04  0.20362501342E+04  0.50400001928E-02 0.  1.
       -1   -1    0    0    0  501  0.00000000000E+00  0.00000000000E+00 -0.11846191253E+04  0.11846191253E+04  0.50400001928E-02 0. -1.
    10030    2    1    2    0    0  0.00000000000E+00  0.00000000000E+00  0.85163100884E+03  0.32208692595E+04  0.31062394324E+04 0.  0.
        3    1    3    3  502    0  0.14975349303E+04  0.14031246607E+03  0.24382136972E+02  0.15042915124E+04  0.10100000352E+00 0.  1.
       -3    1    3    3    0  502 -0.14975349303E+04 -0.14031246607E+03  0.82724887187E+03  0.17165777471E+04  0.10100000352E+00 0. -1.
</event>
<event>
 5   0  0.1171915E-06  0.3115296E+04  0.7818609E-02  0.8211553E-01
       -1   -1    0    0    0  501  0.00000000000E+00  0.00000000000E+00  0.18626475719E+04  0.18626475719E+04  0.50400001928E-02 0. -1.
        1   -1    0    0  501    0  0.00000000000E+00  0.00000000000E+00 -0.13025908202E+04  0.13025908203E+04  0.50400001928E-02 0.  1.
    10030    2    1    2    0    0  0.00000000000E+00  0.00000000000E+00  0.56005675163E+03  0.31652383921E+04  0.31152962161E+04 0.  0.
        2    1    3    3  502    0  0.11517226336E+04 -0.97049704810E+03  0.68381368019E+03  0.16540649003E+04  0.25500000920E-02 0. -1.
       -2    1    3    3    0  502 -0.11517226336E+04  0.97049704810E+03 -0.12375692855E+03  0.15111734919E+04  0.25500000920E-02 0.  1.
</event>
<event>
 5   0  0.3340899E-06  0.3575682E+04  0.7818609E-02  0.8096085E-01
       -2   -1    0    0    0  501  0.00000000000E+00  0.00000000000E+00  0.15114970190E+04  0.15114970190E+04  0.25500000920E-02 0.  1.
        2   -1    0    0  501    0  0.00000000000E+00  0.00000000000E+00 -0.21147086388E+04  0.21147086388E+04  0.25500000920E-02 0. -1.
    10030    2    1    2    0    0  0.00000000000E+00  0.00000000000E+00 -0.60321161980E+03  0.36262056578E+04  0.35756822026E+04 0.  0.
        3    1    3    3  502    0  0.14829557883E+04  0.62615680369E+03 -0.10905085259E+04  0.19443351224E+04  0.10100000352E+00 0. -1.
       -3    1    3    3    0  502 -0.14829557883E+04 -0.62615680369E+03  0.48729690607E+03  0.16818705354E+04  0.10100000352E+00 0.  1.
</event>
<event>
 5   0  0.3340899E-06  0.3125700E+04  0.7818609E-02  0.8208720E-01
       -2   -1    0    0    0  501  0.00000000000E+00  0.00000000000E+00  0.16671240600E+04  0.16671240600E+04  0.25500000920E-02 0.  1.
        2   -1    0    0  501    0  0.00000000000E+00  0.00000000000E+00 -0.14650977318E+04  0.14650977318E+04  0.25500000920E-02 0. -1.
    10030    2    1    2    0    0  0.00000000000E+00  0.00000000000E+00  0.20202632815E+03  0.31322217918E+04  0.31256997162E+04 0.  0.
        3    1    3    3  502    0 -0.55376159889E+03  0.10245155321E+04 -0.94337823894E+03  0.14987483097E+04  0.10100000352E+00 0. -1.
       -3    1    3    3    0  502  0.55376159889E+03 -0.10245155321E+04  0.11454045671E+04  0.16334734820E+04  0.10100000352E+00 0.  1.
</event>
<event>
 5   0  0.1211008E-06  0.3102916E+04  0.7818609E-02  0.8214938E-01
       -1   -1    0    0    0  501  0.00000000000E+00  0.00000000000E+00  0.22309939870E+04  0.22309939871E+04  0.50400001928E-02 0. -1.
        1   -1    0    0  501    0  0.00000000000E+00  0.00000000000E+00 -0.10789013403E+04  0.10789013403E+04  0.50400001928E-02 0.  1.
    10030    2    1    2    0    0  0.00000000000E+00  0.00000000000E+00  0.11520926467E+04  0.33098953274E+04  0.31029163075E+04 0.  0.
        3    1    3    3  502    0 -0.76353889347E+03 -0.44343993502E+03 -0.78474100432E+03  0.11812912731E+04  0.10100000352E+00 0.  1.
       -3    1    3    3    0  502  0.76353889347E+03  0.44343993502E+03  0.19368336511E+04  0.21286040543E+04  0.10100000352E+00 0. -1.
</event>
<event>
 5   0  0.3374790E-06  0.3129700E+04  0.7818609E-02  0.8207634E-01
       -2   -1    0    0    0  501  0.00000000000E+00  0.00000000000E+00  0.14840955513E+04  0.14840955513E+04  0.25500000920E-02 0. -1.
        2   -1    0    0  501    0  0.00000000000E+00  0.00000000000E+00 -0.16499983108E+04  0.16499983108E+04  0.25500000920E-02 0.  1.
    10030    2    1    2    0    0  0.00000000000E+00  0.00000000000E+00 -0.16590275951E+03  0.31340938621E+04  0.31296997637E+04 0.  0.
        2    1    3    3  502    0  0.84907350736E+02  0.94931370912E+03 -0.13258020199E+04  0.16328370318E+04  0.25500000920E-02 0.  1.
       -2    1    3    3    0  502 -0.84907350736E+02 -0.94931370912E+03  0.11598992603E+04  0.15012568304E+04  0.25500000920E-02 0. -1.
</event>
<event>
 5   0  0.3445410E-06  0.3091242E+04  0.7818609E-02  0.8218146E-01
        2   -1    0    0  501    0  0.00000000000E+00  0.00000000000E+00  0.17062718718E+04  0.17062718718E+04  0.25500000920E-02 0.  1.
       -2   -1    0    0    0  501  0.00000000000E+00  0.00000000000E+00 -0.14000959017E+04  0.14000959017E+04  0.25500000920E-02 0. -1.
    10030    2    1    2    0    0  0.00000000000E+00  0.00000000000E+00  0.30617597018E+03  0.31063677735E+04  0.30912419866E+04 0.  0.
        1    1    3    3  502    0  0.12555324774E+04  0.90014452748E+03  0.10466211772E+03  0.15484108405E+04  0.50400001928E-02 0.  1.
       -1    1    3    3    0  502 -0.12555324774E+04 -0.90014452748E+03  0.20151385245E+03  0.15579569330E+04  0.50400001928E-02 0. -1.
</event>
<event>
 5   0  0.3445959E-06  0.3099305E+04  0.7818609E-02  0.8215929E-01
        2   -1    0    0  501    0  0.00000000000E+00  0.00000000000E+00  0.85542082097E+03  0.85542082097E+03  0.25500000920E-02 0. -1.
       -2   -1    0    0    0  501  0.00000000000E+00  0.00000000000E+00 -0.28073002392E+04  0.28073002392E+04  0.25500000920E-02 0.  1.
    10030    2    1    2    0    0  0.00000000000E+00  0.00000000000E+00 -0.19518794182E+04  0.36627210602E+04  0.30993051320E+04 0.  0.
        4    1    3    3  502    0  0.11837407103E+04  0.68463886093E+03 -0.11440988385E+03  0.13722476720E+04  0.12699999809E+01 0. -1.
       -4    1    3    3    0  502 -0.11837407103E+04 -0.68463886093E+03 -0.18374695344E+04  0.22904733881E+04  0.12699999809E+01 0.  1.
</event>
<event>
 5   0  0.1250276E-06  0.3086337E+04  0.7818609E-02  0.8219498E-01
        1   -1    0    0  501    0  0.00000000000E+00  0.00000000000E+00  0.20615424497E+04  0.20615424497E+04  0.50400001928E-02 0. -1.
       -1   -1    0    0    0  501  0.00000000000E+00  0.00000000000E+00 -0.11551397586E+04  0.11551397586E+04  0.50400001928E-02 0.  1.
    10030    2    1    2    0    0  0.00000000000E+00  0.00000000000E+00  0.90640269111E+03  0.32166822084E+04  0.30863374072E+04 0.  0.
        5    1    3    3  502    0 -0.86482825661E+03 -0.40270409871E+03 -0.81097556089E+03  0.12521189859E+04  0.46999998093E+01 0.  1.
       -5    1    3    3    0  502  0.86482825661E+03  0.40270409871E+03  0.17173782520E+04  0.19645632224E+04  0.46999998093E+01 0. -1.
</event>
<event>
 5   0  0.3445410E-06  0.3280607E+04  0.7818609E-02  0.8167847E-01
       -2   -1    0    0    0  501  0.00000000000E+00  0.00000000000E+00  0.24909683449E+04  0.24909683449E+04  0.25500000920E-02 0. -1.
        2   -1    0    0  501    0  0.00000000000E+00  0.00000000000E+00 -0.10801405924E+04  0.10801405924E+04  0.25500000920E-02 0.  1.
    10030    2    1    2    0    0  0.00000000000E+00  0.00000000000E+00  0.14108277525E+04  0.35711089372E+04  0.32806072753E+04 0.  0.
        1    1    3    3  502    0  0.50832591551E+02 -0.13798027665E+04  0.16693543145E+04  0.21663756494E+04  0.50400001928E-02 0. -1.
       -1    1    3    3    0  502 -0.50832591551E+02  0.13798027665E+04 -0.25852656203E+03  0.14047332879E+04  0.50400001928E-02 0.  1.
</event>
<event>
 5   0  0.3340899E-06  0.3098491E+04  0.7818609E-02  0.8216152E-01
       -2   -1    0    0    0  501  0.00000000000E+00  0.00000000000E+00  0.15319262599E+04  0.15319262599E+04  0.25500000920E-02 0. -1.
        2   -1    0    0  501    0  0.00000000000E+00  0.00000000000E+00 -0.15667603823E+04  0.15667603823E+04  0.25500000920E-02 0.  1.
    10030    2    1    2    0    0  0.00000000000E+00  0.00000000000E+00 -0.34834122396E+02  0.30986866422E+04  0.30984908408E+04 0.  0.
        3    1    3    3  502    0 -0.40416256692E+03 -0.12239573713E+04  0.84213846579E+03  0.15396805620E+04  0.10100000352E+00 0. -1.
       -3    1    3    3    0  502  0.40416256692E+03  0.12239573713E+04 -0.87697258819E+03  0.15590060802E+04  0.10100000352E+00 0.  1.
</event>
<event>
 5   0  0.1235960E-06  0.3090603E+04  0.7818609E-02  0.8218322E-01
        1   -1    0    0  501    0  0.00000000000E+00  0.00000000000E+00  0.13427936198E+04  0.13427936198E+04  0.50400001928E-02 0. -1.
       -1   -1    0    0    0  501  0.00000000000E+00  0.00000000000E+00 -0.17783496694E+04  0.17783496694E+04  0.50400001928E-02 0.  1.
    10030    2    1    2    0    0  0.00000000000E+00  0.00000000000E+00 -0.43555604964E+03  0.31211432892E+04  0.30906029119E+04 0.  0.
        4    1    3    3  502    0 -0.36273875891E+03  0.47141505303E+03 -0.16581056240E+04  0.17615695935E+04  0.12699999809E+01 0.  1.
       -4    1    3    3    0  502  0.36273875891E+03 -0.47141505303E+03  0.12225495743E+04  0.13595736957E+04  0.12699999809E+01 0. -1.
</event>
<event>
 5   0  0.3441897E-06  0.3110217E+04  0.7818609E-02  0.8212940E-01
       -2   -1    0    0    0  501  0.00000000000E+00  0.00000000000E+00  0.11756398219E+04  0.11756398219E+04  0.25500000920E-02 0.  1.
        2   -1    0    0  501    0  0.00000000000E+00  0.00000000000E+00 -0.20570603209E+04  0.20570603209E+04  0.25500000920E-02 0. -1.
    10030    2    1    2    0    0  0.00000000000E+00  0.00000000000E+00 -0.88142049897E+03  0.32327001428E+04  0.31102167315E+04 0.  0.
        5    1    3    3  502    0  0.88566108072E+03 -0.74629315149E+03  0.63794035267E+03  0.13222477080E+04  0.46999998093E+01 0.  1.
       -5    1    3    3    0  502 -0.88566108072E+03  0.74629315149E+03 -0.15193608516E+04  0.19104524347E+04  0.46999998093E+01 0. -1.
</event>
<event>
 5   0  0.3374790E-06  0.3093196E+04  0.7818609E-02  0.8217608E-01
        2   -1    0    0  501    0  0.00000000000E+00  0.00000000000E+00  0.15543047355E+04  0.15543047355E+04  0.25500000920E-02 0. -1.
       -2   -1    0    0    0  501  0.00000000000E+00  0.00000000000E+00 -0.15389296297E+04  0.15389296297E+04  0.25500000920E-02 0.  1.
    10030    2    1    2    0    0  0.00000000000E+00  0.00000000000E+00  0.15375105825E+02  0.30932343653E+04  0.30931961536E+04 0.  0.
        2    1    3    3  502    0 -0.35476077327E+03  0.15019378187E+04 -0.93769077638E+02  0.15461128864E+04  0.25500000920E-02 0.  1.
       -2    1    3    3    0  502  0.35476077327E+03 -0.15019378187E+04  0.10914418346E+03  0.15471214789E+04  0.25500000920E-02 0. -1.
</event>
<event>
 5   0  0.3374790E-06  0.3152054E+04  0.7818609E-02  0.8201596E-01
        2   -1    0    0  501    0  0.00000000000E+00  0.00000000000E+00  0.19659125148E+04  0.19659125148E+04  0.25500000920E-02 0. -1.
       -2   -1    0    0    0  501  0.00000000000E+00  0.00000000000E+00 -0.12634649212E+04  0.12634649212E+04  0.25500000920E-02 0.  1.
    10030    2    1    2    0    0  0.00000000000E+00  0.00000000000E+00  0.70244759360E+03  0.32293774359E+04  0.31520542511E+04 0.  0.
        2    1    3    3  502    0  0.12643737225E+04  0.15474929001E+03 -0.59959027734E+03  0.14078695797E+04  0.25500000920E-02 0.  1.
       -2    1    3    3    0  502 -0.12643737225E+04 -0.15474929001E+03  0.13020378709E+04  0.18215078562E+04  0.25500000920E-02 0. -1.
</event>
<event>
 5   0  0.1211008E-06  0.3144976E+04  0.7818609E-02  0.8203502E-01
        1   -1    0    0  501    0  0.00000000000E+00  0.00000000000E+00  0.22269132591E+04  0.22269132591E+04  0.50400001928E-02 0. -1.
       -1   -1    0    0    0  501  0.00000000000E+00  0.00000000000E+00 -0.11103793106E+04  0.11103793106E+04  0.50400001928E-02 0.  1.
    10030    2    1    2    0    0  0.00000000000E+00  0.00000000000E+00  0.11165339485E+04  0.33372925697E+04  0.31449759359E+04 0.  0.
        3    1    3    3  502    0  0.98964735924E+03 -0.83184021607E+03  0.15081942114E+04  0.19864566017E+04  0.10100000352E+00 0. -1.
       -3    1    3    3    0  502 -0.98964735924E+03  0.83184021607E+03 -0.39166026292E+03  0.13508359680E+04  0.10100000352E+00 0.  1.
</event>
<event>
 5   0  0.1171915E-06  0.3134126E+04  0.7818609E-02  0.8206434E-01
        1   -1    0    0  501    0  0.00000000000E+00  0.00000000000E+00  0.26850883335E+04  0.26850883335E+04  0.50400001928E-02 0. -1.
       -1   -1    0    0    0  501  0.00000000000E+00  0.00000000000E+00 -0.91456469233E+03  0.91456469234E+03  0.50400001928E-02 0.  1.
    10030    2    1    2    0    0  0.00000000000E+00  0.00000000000E+00  0.17705236412E+04  0.35996530259E+04  0.31341263444E+04 0.  0.
        2    1    3    3  502    0  0.68597202835E+03 -0.27752870224E+03  0.24717817201E+04  0.25801714432E+04  0.25500000920E-02 0. -1.
       -2    1    3    3    0  502 -0.68597202835E+03  0.27752870224E+03 -0.70125807891E+03  0.10194815827E+04  0.25500000920E-02 0.  1.
</event>
<event>
 5   0  0.3445410E-06  0.3103289E+04  0.7818609E-02  0.8214836E-01
        2   -1    0    0  501    0  0.00000000000E+00  0.00000000000E+00  0.24971959560E+04  0.24971959560E+04  0.25500000920E-02 0. -1.
       -2   -1    0    0    0  501  0.00000000000E+00  0.00000000000E+00 -0.96412194557E+03  0.96412194557E+03  0.25500000920E-02 0.  1.
    10030    2    1    2    0    0  0.00000000000E+00  0.00000000000E+00  0.15330740105E+04  0.34613179016E+04  0.31032894958E+04 0.  0.
        1    1    3    3  502    0  0.36313468156E+03 -0.79530454881E+03 -0.66323817491E+03  0.10973882626E+04  0.50400001928E-02 0.  1.
       -1    1    3    3    0  502 -0.36313468156E+03  0.79530454881E+03  0.21963121854E+04  0.23639296390E+04  0.50400001928E-02 0. -1.
</event>
<event>
 5   0  0.1171915E-06  0.3090561E+04  0.7818609E-02  0.8218333E-01
        1   -1    0    0  501    0  0.00000000000E+00  0.00000000000E+00  0.17853483022E+04  0.17853483022E+04  0.50400001928E-02 0. -1.
       -1   -1    0    0    0  501  0.00000000000E+00  0.00000000000E+00 -0.13374936654E+04  0.13374936654E+04  0.50400001928E-02 0.  1.
    10030    2    1    2    0    0  0.00000000000E+00  0.00000000000E+00  0.44785463675E+03  0.31228419676E+04  0.30905611431E+04 0.  0.
        2    1    3    3  502    0 -0.12636350150E+04 -0.85407963999E+03 -0.26993985878E+02  0.15254357272E+04  0.25500000920E-02 0.  1.
       -2    1    3    3    0  502  0.12636350150E+04  0.85407963999E+03  0.47484862263E+03  0.15974062404E+04  0.25500000920E-02 0. -1.
</event>
<event>
 5   0  0.1250276E-06  0.2666165E+04  0.7818609E-02  0.8346067E-01
       -1   -1    0    0    0  501  0.00000000000E+00  0.00000000000E+00  0.11181945791E+04  0.11181945791E+04  0.50400001928E-02 0. -1.
        1   -1    0    0  501    0  0.00000000000E+00  0.00000000000E+00 -0.15892666164E+04  0.15892666164E+04  0.50400001928E-02 0.  1.
    10030    2    1    2    0    0  0.00000000000E+00  0.00000000000E+00 -0.47107203728E+03  0.27074611955E+04  0.26661652726E+04 0.  0.
        5    1    3    3  502    0  0.21627093514E+03  0.66205207943E+03  0.91873189672E+03  0.11528991549E+04  0.46999998093E+01 0. -1.
       -5    1    3    3    0  502 -0.21627093514E+03 -0.66205207943E+03 -0.13898039340E+04  0.15545620406E+04  0.46999998093E+01 0.  1.
</event>
<event>
 5   0  0.3441897E-06  0.3169273E+04  0.7818609E-02  0.8196980E-01
        2   -1    0    0  501    0  0.00000000000E+00  0.00000000000E+00  0.22781346173E+04  0.22781346173E+04  0.25500000920E-02 0. -1.
       -2   -1    0    0    0  501  0.00000000000E+00  0.00000000000E+00 -0.11022494730E+04  0.11022494730E+04  0.25500000920E-02 0.  1.
    10030    2    1    2    0    0  0.00000000000E+00  0.00000000000E+00  0.11758851442E+04  0.33803840903E+04  0.31692729017E+04 0.  0.
        5    1    3    3  502    0  0.99493143142E+03 -0.12150200380E+04  0.81392424056E+03  0.17688010078E+04  0.46999998093E+01 0.  1.
       -5    1    3    3    0  502 -0.99493143142E+03  0.12150200380E+04  0.36196090369E+03  0.16115830825E+04  0.46999998093E+01 0. -1.
</event>
<event>
 5   0  0.1171915E-06  0.2951791E+04  0.7818609E-02  0.8257633E-01
       -1   -1    0    0    0  501  0.00000000000E+00  0.00000000000E+00  0.15172410901E+04  0.15172410901E+04  0.50400001928E-02 0. -1.
        1   -1    0    0  501    0  0.00000000000E+00  0.00000000000E+00 -0.14356766492E+04  0.14356766492E+04  0.50400001928E-02 0.  1.
    10030    2    1    2    0    0  0.00000000000E+00  0.00000000000E+00  0.81564440894E+02  0.29529177393E+04  0.29517910524E+04 0.  0.
        2    1    3    3  502    0  0.10481591411E+03  0.14003829989E+04 -0.41349317287E+03  0.14639110367E+04  0.25500000920E-02 0.  1.
       -2    1    3    3    0  502 -0.10481591411E+03 -0.14003829989E+04  0.49505761377E+03  0.14890067026E+04  0.25500000920E-02 0. -1.
</event>
<event>
 5   0  0.1211008E-06  0.2501876E+04  0.7818609E-02  0.8402318E-01
       -1   -1    0    0    0  501  0.00000000000E+00  0.00000000000E+00  0.95819613234E+03  0.95819613235E+03  0.50400001928E-02 0. -1.
        1   -1    0    0  501    0  0.00000000000E+00  0.00000000000E+00 -0.16331158548E+04  0.16331158549E+04  0.50400001928E-02 0.  1.
    10030    2    1    2    0    0  0.00000000000E+00  0.00000000000E+00 -0.67491972251E+03  0.25913119872E+04  0.25018755331E+04 0.  0.
        3    1    3    3  502    0  0.80293336721E+02 -0.11367389034E+03 -0.16250724340E+04  0.16310209070E+04  0.10100000352E+00 0.  1.
       -3    1    3    3    0  502 -0.80293336721E+02  0.11367389034E+03  0.95015271150E+03  0.96029108016E+03  0.10100000352E+00 0. -1.
</event>
<event>
 5   0  0.1250276E-06  0.3090483E+04  0.7818609E-02  0.8218354E-01
       -1   -1    0    0    0  501  0.00000000000E+00  0.00000000000E+00  0.21785333606E+04  0.21785333606E+04  0.50400001928E-02 0.  1.
        1   -1    0    0  501    0  0.00000000000E+00  0.00000000000E+00 -0.10960456385E+04  0.10960456386E+04  0.50400001928E-02 0. -1.
    10030    2    1    2    0    0  0.00000000000E+00  0.00000000000E+00  0.10824877220E+04  0.32745789991E+04  0.30904834498E+04 0.  0.
        5    1    3    3  502    0 -0.94403544762E+03  0.10071168505E+04  0.12770626127E+04  0.18805313833E+04  0.46999998093E+01 0.  1.
       -5    1    3    3    0  502  0.94403544762E+03 -0.10071168505E+04 -0.19457489069E+03  0.13940476158E+04  0.46999998093E+01 0. -1.
</event>
<event>
 5   0  0.3374790E-06  0.3027203E+04  0.7818609E-02  0.8236005E-01
        2   -1    0    0  501    0  0.00000000000E+00  0.00000000000E+00  0.12534033043E+04  0.12534033044E+04  0.25500000920E-02 0. -1.
       -2   -1    0    0    0  501  0.00000000000E+00  0.00000000000E+00 -0.18278156262E+04  0.18278156262E+04  0.25500000920E-02 0.  1.
    10030    2    1    2    0    0  0.00000000000E+00  0.00000000000E+00 -0.57441232183E+03  0.30812189305E+04  0.30272034260E+04 0.  0.
        2    1    3    3  502    0  0.76613172880E+03  0.97143054170E+03 -0.11747486655E+04  0.17060684483E+04  0.25500000920E-02 0.  1.
       -2    1    3    3    0  502 -0.76613172880E+03 -0.97143054170E+03  0.60033634367E+03  0.13751504822E+04  0.25500000920E-02 0. -1.
</event>
<event>
 5   0  0.3340899E-06  0.3060275E+04  0.7818609E-02  0.8226725E-01
        2   -1    0    0  501    0  0.00000000000E+00  0.00000000000E+00  0.29189155809E+04  0.29189155809E+04  0.25500000920E-02 0.  1.
       -2   -1    0    0    0  501  0.00000000000E+00  0.00000000000E+00 -0.80212015569E+03  0.80212015569E+03  0.25500000920E-02 0. -1.
    10030    2    1    2    0    0  0.00000000000E+00  0.00000000000E+00  0.21167954252E+04  0.37210357366E+04  0.30602751642E+04 0.  0.
        3    1    3    3  502    0  0.25837301835E+03 -0.13079843344E+04  0.14545543760E+03  0.13411699856E+04  0.10100000352E+00 0. -1.
       -3    1    3    3    0  502 -0.25837301835E+03  0.13079843344E+04  0.19713399876E+04  0.23798657510E+04  0.10100000352E+00 0.  1.
</event>
<event>
 5   0  0.1211008E-06  0.3081197E+04  0.7818609E-02  0.8220917E-01
        1   -1    0    0  501    0  0.00000000000E+00  0.00000000000E+00  0.27108724439E+04  0.27108724439E+04  0.50400001928E-02 0. -1.
       -1   -1    0    0    0  501  0.00000000000E+00  0.00000000000E+00 -0.87552783378E+03  0.87552783379E+03  0.50400001928E-02 0.  1.
    10030    2    1    2    0    0  0.00000000000E+00  0.00000000000E+00  0.18353446101E+04  0.35864002777E+04  0.30811973507E+04 0.  0.
        3    1    3    3  502    0 -0.31433927975E+03  0.33313034301E+03  0.26297902437E+04  0.26693785314E+04  0.10100000352E+00 0. -1.
       -3    1    3    3    0  502  0.31433927975E+03 -0.33313034301E+03 -0.79444563355E+03  0.91702174625E+03  0.10100000352E+00 0.  1.
</event>
<event>
 5   0  0.3445410E-06  0.3263823E+04  0.7818609E-02  0.8172162E-01
        2   -1    0    0  501    0  0.00000000000E+00  0.00000000000E+00  0.16345387000E+04  0.16345387000E+04  0.25500000920E-02 0.  1.
       -2   -1    0    0    0  501  0.00000000000E+00  0.00000000000E+00 -0.16292887261E+04  0.16292887261E+04  0.25500000920E-02 0. -1.
    10030    2    1    2    0    0  0.00000000000E+00  0.00000000000E+00  0.52499738797E+01  0.32638274261E+04  0.32638232037E+04 0.  0.
        1    1    3    3  502    0  0.23241177986E+03 -0.14910180294E+04 -0.61865311147E+03  0.16309143668E+04  0.50400001928E-02 0. -1.
       -1    1    3    3    0  502 -0.23241177986E+03  0.14910180294E+04  0.62390308535E+03  0.16329130593E+04  0.50400001928E-02 0.  1.
</event>
<event>
 5   0  0.3445410E-06  0.3111952E+04  0.7818609E-02  0.8212466E-01
        2   -1    0    0  501    0  0.00000000000E+00  0.00000000000E+00  0.23188027831E+04  0.23188027831E+04  0.25500000920E-02 0.  1.
       -2   -1    0    0    0  501  0.00000000000E+00  0.00000000000E+00 -0.10440994574E+04  0.10440994574E+04  0.25500000920E-02 0. -1.
    10030    2    1    2    0    0  0.00000000000E+00  0.00000000000E+00  0.12747033257E+04  0.33629022405E+04  0.31119516241E+04 0.  0.
        1    1    3    3  502    0  0.14320828940E+04 -0.59938316733E+03  0.52432710456E+03  0.16386093217E+04  0.50400001928E-02 0.  1.
       -1    1    3    3    0  502 -0.14320828940E+04  0.59938316733E+03  0.75037622114E+03  0.17242929188E+04  0.50400001928E-02 0. -1.
</event>
<event>
 5   0  0.3441897E-06  0.3111597E+04  0.7818609E-02  0.8212562E-01
       -2   -1    0    0    0  501  0.00000000000E+00  0.00000000000E+00  0.15504418358E+04  0.15504418358E+04  0.25500000920E-02 0.  1.
        2   -1    0    0  501    0  0.00000000000E+00  0.00000000000E+00 -0.15611738230E+04  0.15611738230E+04  0.25500000920E-02 0. -1.
    10030    2    1    2    0    0  0.00000000000E+00  0.00000000000E+00 -0.10731987201E+02  0.31116156588E+04  0.31115971514E+04 0.  0.
        5    1    3    3  502    0 -0.89052275244E+03  0.12756147824E+04 -0.21591761591E+02  0.15558637922E+04  0.46999998093E+01 0.  1.
       -5    1    3    3    0  502  0.89052275244E+03 -0.12756147824E+04  0.10859774390E+02  0.15557518666E+04  0.46999998093E+01 0. -1.
</event>
<event>
 5   0  0.3340899E-06  0.3097934E+04  0.7818609E-02  0.8216305E-01
       -2   -1    0    0    0  501  0.00000000000E+00  0.00000000000E+00  0.10330816195E+04  0.10330816195E+04  0.25500000920E-02 0. -1.
        2   -1    0    0  501    0  0.00000000000E+00  0.00000000000E+00 -0.23224684194E+04  0.23224684194E+04  0.25500000920E-02 0.  1.
    10030    2    1    2    0    0  0.00000000000E+00  0.00000000000E+00 -0.12893867999E+04  0.33555500389E+04  0.30979344318E+04 0.  0.
        3    1    3    3  502    0  0.43577111470E+03 -0.89611184062E+03 -0.19292222034E+04  0.21713616041E+04  0.10100000352E+00 0.  1.
       -3    1    3    3    0  502 -0.43577111470E+03  0.89611184062E+03  0.63983540354E+03  0.11841884348E+04  0.10100000352E+00 0. -1.
</event>
<event>
 5   0  0.1198763E-06  0.2846680E+04  0.7818609E-02  0.8288921E-01
        1   -1    0    0  501    0  0.00000000000E+00  0.00000000000E+00  0.15844481128E+04  0.15844481128E+04  0.50400001928E-02 0. -1.
       -1   -1    0    0    0  501  0.00000000000E+00  0.00000000000E+00 -0.12786134995E+04  0.12786134995E+04  0.50400001928E-02 0.  1.
    10030    2    1    2    0    0  0.00000000000E+00  0.00000000000E+00  0.30583461333E+03  0.28630616123E+04  0.28466799935E+04 0.  0.
        1    1    3    3  502    0  0.61198425423E+03  0.29854146596E+03 -0.11041734071E+04  0.12972473347E+04  0.50400001928E-02 0.  1.
       -1    1    3    3    0  502 -0.61198425423E+03 -0.29854146596E+03  0.14100080204E+04  0.15658142776E+04  0.50400001928E-02 0. -1.
</event>
<event>
 5   0  0.1198763E-06  0.3121474E+04  0.7818609E-02  0.8209869E-01
       -1   -1    0    0    0  501  0.00000000000E+00  0.00000000000E+00  0.19447146509E+04  0.19447146509E+04  0.50400001928E-02 0.  1.
        1   -1    0    0  501    0  0.00000000000E+00  0.00000000000E+00 -0.12525744334E+04  0.12525744334E+04  0.50400001928E-02 0. -1.
    10030    2    1    2    0    0  0.00000000000E+00  0.00000000000E+00  0.69214021752E+03  0.31972890843E+04  0.31214739159E+04 0.  0.
        1    1    3    3  502    0 -0.57238773787E+03 -0.49009842990E+03  0.17460423533E+04  0.19017066264E+04  0.50400001928E-02 0.  1.
       -1    1    3    3    0  502  0.57238773787E+03  0.49009842990E+03 -0.10539021357E+04  0.12955824579E+04  0.50400001928E-02 0. -1.
</event>
<event>
 5   0  0.1198763E-06  0.3104353E+04  0.7818609E-02  0.8214544E-01
       -1   -1    0    0    0  501  0.00000000000E+00  0.00000000000E+00  0.13002500792E+04  0.13002500792E+04  0.50400001928E-02 0. -1.
        1   -1    0    0  501    0  0.00000000000E+00  0.00000000000E+00 -0.18529145525E+04  0.18529145525E+04  0.50400001928E-02 0.  1.
    10030    2    1    2    0    0  0.00000000000E+00  0.00000000000E+00 -0.55266447334E+03  0.31531646317E+04  0.31043532619E+04 0.  0.
        1    1    3    3  502    0 -0.91469699089E+03  0.10819573871E+04  0.36763160733E+03  0.14637128719E+04  0.50400001928E-02 0. -1.
       -1    1    3    3    0  502  0.91469699089E+03 -0.10819573871E+04 -0.92029608066E+03  0.16894517598E+04  0.50400001928E-02 0.  1.
</event>
<event>
 5   0  0.3441897E-06  0.3090620E+04  0.7818609E-02  0.8218317E-01
       -2   -1    0    0    0  501  0.00000000000E+00  0.00000000000E+00  0.12388406721E+04  0.12388406721E+04  0.25500000920E-02 0.  1.
        2   -1    0    0  501    0  0.00000000000E+00  0.00000000000E+00 -0.19275948166E+04  0.19275948166E+04  0.25500000920E-02 0. -1.
    10030    2    1    2    0    0  0.00000000000E+00  0.00000000000E+00 -0.68875414455E+03  0.31664354887E+04  0.30906199107E+04 0.  0.
        5    1    3    3  502    0 -0.46871896372E+03 -0.10461893575E+04  0.71726192487E+03  0.13522930147E+04  0.46999998093E+01 0.  1.
       -5    1    3    3    0  502  0.46871896372E+03  0.10461893575E+04 -0.14060160694E+04  0.18141424740E+04  0.46999998093E+01 0. -1.
</event>
<event>
 5   0  0.3445410E-06  0.3103744E+04  0.7818609E-02  0.8214711E-01
       -2   -1    0    0    0  501  0.00000000000E+00  0.00000000000E+00  0.17950252039E+04  0.17950252039E+04  0.25500000920E-02 0.  1.
        2   -1    0    0  501    0  0.00000000000E+00  0.00000000000E+00 -0.13416558140E+04  0.13416558140E+04  0.25500000920E-02 0. -1.
    10030    2    1    2    0    0  0.00000000000E+00  0.00000000000E+00  0.45336938984E+03  0.31366810179E+04  0.31037435468E+04 0.  0.
        1    1    3    3  502    0 -0.88342512109E+03 -0.33243138049E+03 -0.10181973075E+04  0.13884078379E+04  0.50400001928E-02 0. -1.
       -1    1    3    3    0  502  0.88342512109E+03  0.33243138049E+03  0.14715666973E+04  0.17482731800E+04  0.50400001928E-02 0.  1.
</event>
<event>
 5   0  0.1250276E-06  0.3092582E+04  0.7818609E-02  0.8217777E-01
        1   -1    0    0  501    0  0.00000000000E+00  0.00000000000E+00  0.15876505803E+04  0.15876505803E+04  0.50400001928E-02 0. -1.
       -1   -1    0    0    0  501  0.00000000000E+00  0.00000000000E+00 -0.15060085847E+04  0.15060085847E+04  0.50400001928E-02 0.  1.
    10030    2    1    2    0    0  0.00000000000E+00  0.00000000000E+00  0.81641995557E+02  0.30936591650E+04  0.30925817069E+04 0.  0.
        5    1    3    3  502    0  0.19777192539E+03  0.84946783806E+03  0.13180915852E+04  0.15805368896E+04  0.46999998093E+01 0. -1.
       -5    1    3    3    0  502 -0.19777192539E+03 -0.84946783806E+03 -0.12364495897E+04  0.15131222754E+04  0.46999998093E+01 0.  1.
</event>
<event>
 5   0  0.1250276E-06  0.3132469E+04  0.7818609E-02  0.8206883E-01
       -1   -1    0    0    0  501  0.00000000000E+00  0.00000000000E+00  0.95796377883E+03  0.95796377885E+03  0.50400001928E-02 0. -1.
        1   -1    0    0  501    0  0.00000000000E+00  0.00000000000E+00 -0.25607348527E+04  0.25607348527E+04  0.50400001928E-02 0.  1.
    10030    2    1    2    0    0  0.00000000000E+00  0.00000000000E+00 -0.16027710738E+04  0.35186986315E+04  0.31324694642E+04 0.  0.
        5    1    3    3  502    0  0.11460074687E+04  0.94160255815E+03 -0.23624167535E+03  0.15019256689E+04  0.46999998093E+01 0. -1.
       -5    1    3    3    0  502 -0.11460074687E+04 -0.94160255815E+03 -0.13665293985E+04  0.20167729626E+04  0.46999998093E+01 0.  1.
</event>
<event>
 5   0  0.3445410E-06  0.2844099E+04  0.7818609E-02  0.8289707E-01
       -2   -1    0    0    0  501  0.00000000000E+00  0.00000000000E+00  0.10745347590E+04  0.10745347590E+04  0.25500000920E-02 0. -1.
        2   -1    0    0  501    0  0.00000000000E+00  0.00000000000E+00 -0.18819533751E+04  0.18819533751E+04  0.25500000920E-02 0.  1.
    10030    2    1    2    0    0  0.00000000000E+00  0.00000000000E+00 -0.80741861608E+03  0.29564881341E+04  0.28440986737E+04 0.  0.
        1    1    3    3  502    0  0.65583315699E+03 -0.49128428300E+03 -0.16118526828E+04  0.18081887201E+04  0.50400001928E-02 0.  1.
       -1    1    3    3    0  502 -0.65583315699E+03  0.49128428300E+03  0.80443406670E+03  0.11482994140E+04  0.50400001928E-02 0. -1.
</event>
<event>
 5   0  0.1211008E-06  0.3105209E+04  0.7818609E-02  0.8214310E-01
        1   -1    0    0  501    0  0.00000000000E+00  0.00000000000E+00  0.14867255750E+04  0.14867255750E+04  0.50400001928E-02 0.  1.
       -1   -1    0    0    0  501  0.00000000000E+00  0.00000000000E+00 -0.16214030506E+04  0.16214030506E+04  0.50400001928E-02 0. -1.
    10030    2    1    2    0    0  0.00000000000E+00  0.00000000000E+00 -0.13467747566E+03  0.31081286256E+04  0.31052094182E+04 0.  0.
        3    1    3    3  502    0  0.72778093015E+03  0.12379364191E+04 -0.65817301074E+03  0.15796655919E+04  0.10100000352E+00 0.  1.
       -3    1    3    3    0  502 -0.72778093015E+03 -0.12379364191E+04  0.52349553508E+03  0.15284630337E+04  0.10100000352E+00 0. -1.
</event>
<event>
 5   0  0.1171915E-06  0.3096660E+04  0.7818609E-02  0.8216655E-01
        1   -1    0    0  501    0  0.00000000000E+00  0.00000000000E+00  0.30118537773E+04  0.30118537773E+04  0.50400001928E-02 0.  1.
       -1   -1    0    0    0  501  0.00000000000E+00  0.00000000000E+00 -0.79596335254E+03  0.79596335255E+03  0.50400001928E-02 0. -1.
    10030    2    1    2    0    0  0.00000000000E+00  0.00000000000E+00  0.22158904247E+04  0.38078171298E+04  0.30966596390E+04 0.  0.
        2    1    3    3  502    0 -0.11282091480E+04  0.99880069984E+03  0.15459270550E+04  0.21587841900E+04  0.25500000920E-02 0.  1.
       -2    1    3    3    0  502  0.11282091480E+04 -0.99880069984E+03  0.66996336971E+03  0.16490329398E+04  0.25500000920E-02 0. -1.
</event>
<event>
 5   0  0.1235960E-06  0.3106571E+04  0.7818609E-02  0.8213937E-01
       -1   -1    0    0    0  501  0.00000000000E+00  0.00000000000E+00  0.13327170751E+04  0.13327170751E+04  0.50400001928E-02 0. -1.
        1   -1    0    0  501    0  0.00000000000E+00  0.00000000000E+00 -0.18103591334E+04  0.18103591334E+04  0.50400001928E-02 0.  1.
    10030    2    1    2    0    0  0.00000000000E+00  0.00000000000E+00 -0.47764205828E+03  0.31430762085E+04  0.31065714408E+04 0.  0.
        4    1    3    3  502    0  0.11832049027E+04  0.54834302330E+03  0.61491983149E+03  0.14417981569E+04  0.12699999809E+01 0.  1.
       -4    1    3    3    0  502 -0.11832049027E+04 -0.54834302330E+03 -0.10925618898E+04  0.17012780516E+04  0.12699999809E+01 0. -1.
</event>
<event>
 5   0  0.1235960E-06  0.3137145E+04  0.7818609E-02  0.8205617E-01
        1   -1    0    0  501    0  0.00000000000E+00  0.00000000000E+00  0.17272861049E+04  0.17272861049E+04  0.50400001928E-02 0. -1.
       -1   -1    0    0    0  501  0.00000000000E+00  0.00000000000E+00 -0.14244420199E+04  0.14244420199E+04  0.50400001928E-02 0.  1.
    10030    2    1    2    0    0  0.00000000000E+00  0.00000000000E+00  0.30284408498E+03  0.31517281248E+04  0.31371445030E+04 0.  0.
        4    1    3    3  502    0  0.43886579661E+03  0.71692132251E+03  0.14819038855E+04  0.17037077533E+04  0.12699999809E+01 0. -1.
       -4    1    3    3    0  502 -0.43886579661E+03 -0.71692132251E+03 -0.11790598005E+04  0.14480203715E+04  0.12699999809E+01 0.  1.
</event>
<event>
 5   0  0.1198763E-06  0.3129995E+04  0.7818609E-02  0.8207554E-01
        1   -1    0    0  501    0  0.00000000000E+00  0.00000000000E+00  0.21924447997E+04  0.21924447997E+04  0.50400001928E-02 0. -1.
       -1   -1    0    0    0  501  0.00000000000E+00  0.00000000000E+00 -0.11171167620E+04  0.11171167620E+04  0.50400001928E-02 0.  1.
    10030    2    1    2    0    0  0.00000000000E+00  0.00000000000E+00  0.10753280376E+04  0.33095615617E+04  0.31299947831E+04 0.  0.
        1    1    3    3  502    0  0.82335993772E+03 -0.10738254656E+04  0.13690243239E+04  0.19249026773E+04  0.50400001928E-02 0. -1.
       -1    1    3    3    0  502 -0.82335993772E+03  0.10738254656E+04 -0.29369628625E+03  0.13846588844E+04  0.50400001928E-02 0.  1.
</event>
<event>
 5   0  0.1211008E-06  0.3098372E+04  0.7818609E-02  0.8216185E-01
       -1   -1    0    0    0  501  0.00000000000E+00  0.00000000000E+00  0.17962948539E+04  0.17962948539E+04  0.50400001928E-02 0. -1.
        1   -1    0    0  501    0  0.00000000000E+00  0.00000000000E+00 -0.13360710119E+04  0.13360710119E+04  0.50400001928E-02 0.  1.
    10030    2    1    2    0    0  0.00000000000E+00  0.00000000000E+00  0.46022384198E+03  0.31323658657E+04  0.30983721423E+04 0.  0.
        3    1    3    3  502    0 -0.13500999346E+04  0.69795384719E+03 -0.73294189665E+02  0.15216048944E+04  0.10100000352E+00 0.  1.
       -3    1    3    3    0  502  0.13500999346E+04 -0.69795384719E+03  0.53351803165E+03  0.16107609713E+04  0.10100000352E+00 0. -1.
</event>
<event>
 5   0  0.1235960E-06  0.3095700E+04  0.7818609E-02  0.8216919E-01
       -1   -1    0    0    0  501  0.00000000000E+00  0.00000000000E+00  0.13224040197E+04  0.13224040197E+04  0.50400001928E-02 0.  1.
        1   -1    0    0  501    0  0.00000000000E+00  0.00000000000E+00 -0.18117301089E+04  0.18117301089E+04  0.50400001928E-02 0. -1.
    10030    2    1    2    0    0  0.00000000000E+00  0.00000000000E+00 -0.48932608917E+03  0.31341341286E+04  0.30956997132E+04 0.  0.
        4    1    3    3  502    0 -0.88575745779E+03 -0.58390296857E+03  0.89641879122E+03  0.13889122409E+04  0.12699999809E+01 0.  1.
       -4    1    3    3    0  502  0.88575745779E+03  0.58390296857E+03 -0.13857448804E+04  0.17452218877E+04  0.12699999809E+01 0. -1.
</event>
<event>
 5   0  0.3340899E-06  0.2940939E+04  0.7818609E-02  0.8260800E-01
       -2   -1    0    0    0  501  0.00000000000E+00  0.00000000000E+00  0.23430185451E+04  0.23430185451E+04  0.25500000920E-02 0. -1.
        2   -1    0    0  501    0  0.00000000000E+00  0.00000000000E+00 -0.92286134303E+03  0.92286134303E+03  0.25500000920E-02 0.  1.
    10030    2    1    2    0    0  0.00000000000E+00  0.00000000000E+00  0.14201572021E+04  0.32658798881E+04  0.29409394698E+04 0.  0.
        3    1    3    3  502    0 -0.64958494110E+03  0.67748637426E+03 -0.54694983492E+03  0.10863252345E+04  0.10100000352E+00 0.  1.
       -3    1    3    3    0  502  0.64958494110E+03 -0.67748637426E+03  0.19671070370E+04  0.21795546536E+04  0.10100000352E+00 0. -1.
</event>
<event>
 5   0  0.1171915E-06  0.3097667E+04  0.7818609E-02  0.8216378E-01
        1   -1    0    0  501    0  0.00000000000E+00  0.00000000000E+00  0.20974293142E+04  0.20974293142E+04  0.50400001928E-02 0.  1.
       -1   -1    0    0    0  501  0.00000000000E+00  0.00000000000E+00 -0.11437266743E+04  0.11437266743E+04  0.50400001928E-02 0. -1.
    10030    2    1    2    0    0  0.00000000000E+00  0.00000000000E+00  0.95370263986E+03  0.32411559885E+04  0.30976674154E+04 0.  0.
        2    1    3    3  502    0  0.77952054825E+03 -0.11459735985E+04 -0.24653307537E+03  0.14077238120E+04  0.25500000920E-02 0. -1.
       -2    1    3    3    0  502 -0.77952054825E+03  0.11459735985E+04  0.12002357152E+04  0.18334321765E+04  0.25500000920E-02 0.  1.
</event>
<event>
 5   0  0.1211008E-06  0.2994573E+04  0.7818609E-02  0.8245282E-01
        1   -1    0    0  501    0  0.00000000000E+00  0.00000000000E+00  0.14111726658E+04  0.14111726658E+04  0.50400001928E-02 0.  1.
       -1   -1    0    0    0  501  0.00000000000E+00  0.00000000000E+00 -0.15886557355E+04  0.15886557355E+04  0.50400001928E-02 0. -1.
    10030    2    1    2    0    0  0.00000000000E+00  0.00000000000E+00 -0.17748306976E+03  0.29998284013E+04  0.29945734583E+04 0.  0.
        3    1    3    3  502    0 -0.53389131021E+02 -0.11471348844E+04 -0.10512077873E+04  0.15568579461E+04  0.10100000352E+00 0. -1.
       -3    1    3    3    0  502  0.53389131021E+02  0.11471348844E+04  0.87372471752E+03  0.14429704551E+04  0.10100000352E+00 0.  1.
</event>
<event>
 5   0  0.1171915E-06  0.3112937E+04  0.7818609E-02  0.8212196E-01
       -1   -1    0    0    0  501  0.00000000000E+00  0.00000000000E+00  0.15159663506E+04  0.15159663506E+04  0.50400001928E-02 0. -1.
        1   -1    0    0  501    0  0.00000000000E+00  0.00000000000E+00 -0.15980527453E+04  0.15980527453E+04  0.50400001928E-02 0.  1.
    10030    2    1    2    0    0  0.00000000000E+00  0.00000000000E+00 -0.82086394772E+02  0.31140190959E+04  0.31129369980E+04 0.  0.
        2    1    3    3  502    0 -0.29272624920E+03 -0.14706154572E+04  0.37646947883E+03  0.15460037997E+04  0.25500000920E-02 0.  1.
       -2    1    3    3    0  502  0.29272624920E+03  0.14706154572E+04 -0.45855587360E+03  0.15680152962E+04  0.25500000920E-02 0. -1.
</event>
<event>
 5   0  0.3445410E-06  0.3102260E+04  0.7818609E-02  0.8215118E-01
        2   -1    0    0  501    0  0.00000000000E+00  0.00000000000E+00  0.19547562782E+04  0.19547562782E+04  0.25500000920E-02 0.  1.
       -2   -1    0    0    0  501  0.00000000000E+00  0.00000000000E+00 -0.12308460152E+04  0.12308460152E+04  0.25500000920E-02 0. -1.
    10030    2    1    2    0    0  0.00000000000E+00  0.00000000000E+00  0.72391026301E+03  0.31856022933E+04  0.31022598058E+04 0.  0.
        1    1    3    3  502    0  0.11432585508E+03 -0.12098645933E+04 -0.62787103832E+03  0.13678686984E+04  0.50400001928E-02 0. -1.
       -1    1    3    3    0  502 -0.11432585508E+03  0.12098645933E+04  0.13517813013E+04  0.18177335949E+04  0.50400001928E-02 0.  1.
</event>
<event>
 5   0  0.1198763E-06  0.3061967E+04  0.7818609E-02  0.8226254E-01
        1   -1    0    0  501    0  0.00000000000E+00  0.00000000000E+00  0.19825688842E+04  0.19825688842E+04  0.50400001928E-02 0.  1.
       -1   -1    0    0    0  501  0.00000000000E+00  0.00000000000E+00 -0.11822589283E+04  0.11822589284E+04  0.50400001928E-02 0. -1.
    10030    2    1    2    0    0  0.00000000000E+00  0.00000000000E+00  0.80030995586E+03  0.31648278126E+04  0.30619665344E+04 0.  0.
        1    1    3    3  502    0  0.68686353325E+03 -0.82435243955E+03 -0.72857958743E+03  0.12969836827E+04  0.50400001928E-02 0. -1.
       -1    1    3    3    0  502 -0.68686353325E+03  0.82435243955E+03  0.15288895433E+04  0.18678441299E+04  0.50400001928E-02 0.  1.
</event>
<event>
 5   0  0.3374790E-06  0.3135466E+04  0.7818609E-02  0.8206072E-01
       -2   -1    0    0    0  501  0.00000000000E+00  0.00000000000E+00  0.93656934471E+03  0.93656934471E+03  0.25500000920E-02 0. -1.
        2   -1    0    0  501    0  0.00000000000E+00  0.00000000000E+00 -0.26242437791E+04  0.26242437791E+04  0.25500000920E-02 0.  1.
    10030    2    1    2    0    0  0.00000000000E+00  0.00000000000E+00 -0.16876744344E+04  0.35608131238E+04  0.31354656921E+04 0.  0.
        2    1    3    3  502    0 -0.11450233772E+04 -0.21280605757E+03  0.34801900738E+03  0.12155172488E+04  0.25500000920E-02 0. -1.
       -2    1    3    3    0  502  0.11450233772E+04  0.21280605757E+03 -0.20356934417E+04  0.23452958750E+04  0.25500000920E-02 0.  1.
</event>
<event>
 5   0  0.1109562E-06  0.3075881E+04  0.7818609E-02  0.8222389E-01
        3   -1    0    0  501    0  0.00000000000E+00  0.00000000000E+00  0.18317166238E+04  0.18317166266E+04  0.10100000352E+00 0.  1.
       -3   -1    0    0    0  501  0.00000000000E+00  0.00000000000E+00 -0.12912809573E+04  0.12912809612E+04  0.10100000352E+00 0. -1.
    10030    2    1    2    0    0  0.00000000000E+00  0.00000000000E+00  0.54043566653E+03  0.31229975878E+04  0.30758808858E+04 0.  0.
        1    1    3    3  502    0 -0.12084240410E+03 -0.79192236049E+03  0.16031557065E+04  0.17921640915E+04  0.50400001928E-02 0.  1.
       -1    1    3    3    0  502  0.12084240410E+03  0.79192236049E+03 -0.10627200399E+04  0.13308334963E+04  0.50400001928E-02 0. -1.
</event>
<event>
 5   0  0.1198763E-06  0.3083455E+04  0.7818609E-02  0.8220293E-01
        1   -1    0    0  501    0  0.00000000000E+00  0.00000000000E+00  0.14548996901E+04  0.14548996901E+04  0.50400001928E-02 0. -1.
       -1   -1    0    0    0  501  0.00000000000E+00  0.00000000000E+00 -0.16337371258E+04  0.16337371258E+04  0.50400001928E-02 0.  1.
    10030    2    1    2    0    0  0.00000000000E+00  0.00000000000E+00 -0.17883743568E+03  0.30886368158E+04  0.30834549700E+04 0.  0.
        1    1    3    3  502    0 -0.45224164992E+02  0.71890376286E+03  0.12759772269E+04  0.14652596114E+04  0.50400001928E-02 0. -1.
       -1    1    3    3    0  502  0.45224164992E+02 -0.71890376286E+03 -0.14548146626E+04  0.16233772044E+04  0.50400001928E-02 0.  1.
</event>
<event>
 5   0  0.1211008E-06  0.3138918E+04  0.7818609E-02  0.8205138E-01
       -1   -1    0    0    0  501  0.00000000000E+00  0.00000000000E+00  0.15257977966E+04  0.15257977966E+04  0.50400001928E-02 0. -1.
        1   -1    0    0  501    0  0.00000000000E+00  0.00000000000E+00 -0.16143690785E+04  0.16143690786E+04  0.50400001928E-02 0.  1.
    10030    2    1    2    0    0  0.00000000000E+00  0.00000000000E+00 -0.88571281990E+02  0.31401668751E+04  0.31389175095E+04 0.  0.
        3    1    3    3  502    0 -0.16421544367E+03 -0.15537728836E+04  0.10417789814E+03  0.15658958875E+04  0.10100000352E+00 0.  1.
       -3    1    3    3    0  502  0.16421544367E+03  0.15537728836E+04 -0.19274918013E+03  0.15742709876E+04  0.10100000352E+00 0. -1.
</event>
<event>
 5   0  0.3340899E-06  0.3086112E+04  0.7818609E-02  0.8219560E-01
       -2   -1    0    0    0  501  0.00000000000E+00  0.00000000000E+00  0.19731046879E+04  0.19731046879E+04  0.25500000920E-02 0.  1.
        2   -1    0    0  501    0  0.00000000000E+00  0.00000000000E+00 -0.12067390136E+04  0.12067390137E+04  0.25500000920E-02 0. -1.
    10030    2    1    2    0    0  0.00000000000E+00  0.00000000000E+00  0.76636567428E+03  0.31798437016E+04  0.30861123796E+04 0.  0.
        3    1    3    3  502    0  0.61769353706E+03 -0.38769581625E+03 -0.10179597845E+04  0.12522361936E+04  0.10100000352E+00 0. -1.
       -3    1    3    3    0  502 -0.61769353706E+03  0.38769581625E+03  0.17843254588E+04  0.19276075079E+04  0.10100000352E+00 0.  1.
</event>
<event>
 5   0  0.3445959E-06  0.3057509E+04  0.7818609E-02  0.8227497E-01
       -2   -1    0    0    0  501  0.00000000000E+00  0.00000000000E+00  0.13805929081E+04  0.13805929081E+04  0.25500000920E-02 0. -1.
        2   -1    0    0  501    0  0.00000000000E+00  0.00000000000E+00 -0.16928168429E+04  0.16928168429E+04  0.25500000920E-02 0.  1.
    10030    2    1    2    0    0  0.00000000000E+00  0.00000000000E+00 -0.31222393478E+03  0.30734097509E+04  0.30575093968E+04 0.  0.
        4    1    3    3  502    0  0.65574325665E+03 -0.93512683325E+03 -0.11775795591E+04  0.16404745178E+04  0.12699999809E+01 0.  1.
       -4    1    3    3    0  502 -0.65574325665E+03  0.93512683325E+03  0.86535562428E+03  0.14329352331E+04  0.12699999809E+01 0. -1.
</event>
<event>
 5   0  0.1198763E-06  0.3118998E+04  0.7818609E-02  0.8210543E-01
       -1   -1    0    0    0  501  0.00000000000E+00  0.00000000000E+00  0.10227213895E+04  0.10227213895E+04  0.50400001928E-02 0.  1.
        1   -1    0    0  501    0  0.00000000000E+00  0.00000000000E+00 -0.23780048230E+04  0.23780048230E+04  0.50400001928E-02 0. -1.
    10030    2    1    2    0    0  0.00000000000E+00  0.00000000000E+00 -0.13552834335E+04  0.34007262125E+04  0.31189975292E+04 0.  0.
        1    1    3    3  502    0 -0.97441385463E+03 -0.96644485499E+03 -0.14851744725E+04  0.20221872395E+04  0.50400001928E-02 0.  1.
       -1    1    3    3    0  502  0.97441385463E+03  0.96644485499E+03  0.12989103904E+03  0.13785389729E+04  0.50400001928E-02 0. -1.
</event>
<event>
 5   0  0.1250276E-06  0.3088696E+04  0.7818609E-02  0.8218847E-01
       -1   -1    0    0    0  501  0.00000000000E+00  0.00000000000E+00  0.15764793586E+04  0.15764793586E+04  0.50400001928E-02 0.  1.
        1   -1    0    0  501    0  0.00000000000E+00  0.00000000000E+00 -0.15128714219E+04  0.15128714219E+04  0.50400001928E-02 0. -1.
    10030    2    1    2    0    0  0.00000000000E+00  0.00000000000E+00  0.63607936657E+02  0.30893507805E+04  0.30886958859E+04 0.  0.
        5    1    3    3  502    0 -0.40492095496E+03  0.43072443906E+03 -0.13952094240E+04  0.15152940141E+04  0.46999998093E+01 0. -1.
       -5    1    3    3    0  502  0.40492095496E+03 -0.43072443906E+03  0.14588173607E+04  0.15740567665E+04  0.46999998093E+01 0.  1.
</event>
<event>
 5   0  0.3340899E-06  0.3028596E+04  0.7818609E-02  0.8235612E-01
        2   -1    0    0  501    0  0.00000000000E+00  0.00000000000E+00  0.15842027342E+04  0.15842027342E+04  0.25500000920E-02 0.  1.
       -2   -1    0    0    0  501  0.00000000000E+00  0.00000000000E+00 -0.14474780899E+04  0.14474780899E+04  0.25500000920E-02 0. -1.
    10030    2    1    2    0    0  0.00000000000E+00  0.00000000000E+00  0.13672464429E+03  0.30316808241E+04  0.30285962080E+04 0.  0.
        3    1    3    3  502    0 -0.55278614359E+03 -0.14073487457E+04  0.15148739989E+03  0.15195892390E+04  0.10100000352E+00 0.  1.
       -3    1    3    3    0  502  0.55278614359E+03  0.14073487457E+04 -0.14762755598E+02  0.15120915851E+04  0.10100000352E+00 0. -1.
</event>
<event>
 5   0  0.1235960E-06  0.3084011E+04  0.7818609E-02  0.8220140E-01
        1   -1    0    0  501    0  0.00000000000E+00  0.00000000000E+00  0.20064315527E+04  0.20064315527E+04  0.50400001928E-02 0.  1.
       -1   -1    0    0    0  501  0.00000000000E+00  0.00000000000E+00 -0.11850796243E+04  0.11850796243E+04  0.50400001928E-02 0. -1.
    10030    2    1    2    0    0  0.00000000000E+00  0.00000000000E+00  0.82135192838E+03  0.31915111770E+04  0.30840111224E+04 0.  0.
        4    1    3    3  502    0  0.89005879870E+03  0.55478130696E+03  0.15804732626E+04  0.18968089810E+04  0.12699999809E+01 0.  1.
       -4    1    3    3    0  502 -0.89005879870E+03 -0.55478130696E+03 -0.75912133417E+03  0.12947021961E+04  0.12699999809E+01 0. -1.
</event>
<event>
 5   0  0.3340899E-06  0.3131130E+04  0.7818609E-02  0.8207246E-01
        2   -1    0    0  501    0  0.00000000000E+00  0.00000000000E+00  0.13786807250E+04  0.13786807250E+04  0.25500000920E-02 0. -1.
       -2   -1    0    0    0  501  0.00000000000E+00  0.00000000000E+00 -0.17777823335E+04  0.17777823335E+04  0.25500000920E-02 0.  1.
    10030    2    1    2    0    0  0.00000000000E+00  0.00000000000E+00 -0.39910160848E+03  0.31564630585E+04  0.31311302985E+04 0.  0.
        3    1    3    3  502    0 -0.11825897650E+04  0.97538823621E+03  0.12097360346E+03  0.15377045837E+04  0.10100000352E+00 0. -1.
       -3    1    3    3    0  502  0.11825897650E+04 -0.97538823621E+03 -0.52007521194E+03  0.16187584749E+04  0.10100000352E+00 0.  1.
</event>
<event>
 5   0  0.1109562E-06  0.3115997E+04  0.7818609E-02  0.8211361E-01
       -3   -1    0    0    0  501  0.00000000000E+00  0.00000000000E+00  0.14333880080E+04  0.14333880116E+04  0.10100000352E+00 0.  1.
        3   -1    0    0  501    0  0.00000000000E+00  0.00000000000E+00 -0.16934418179E+04  0.16934418209E+04  0.10100000352E+00 0. -1.
    10030    2    1    2    0    0  0.00000000000E+00  0.00000000000E+00 -0.26005380984E+03  0.31268298325E+04  0.31159969219E+04 0.  0.
        4    1    3    3  502    0  0.15230965278E+04 -0.28952608000E+03 -0.28454016118E+03  0.15762655551E+04  0.12699999809E+01 0. -1.
       -4    1    3    3    0  502 -0.15230965278E+04  0.28952608000E+03  0.24486351339E+02  0.15505642774E+04  0.12699999809E+01 0.  1.
</event>
<event>
 5   0  0.1171915E-06  0.3096224E+04  0.7818609E-02  0.8216775E-01
        1   -1    0    0  501    0  0.00000000000E+00  0.00000000000E+00  0.24964958285E+04  0.24964958285E+04  0.50400001928E-02 0.  1.
       -1   -1    0    0    0  501  0.00000000000E+00  0.00000000000E+00 -0.96000563664E+03  0.96000563666E+03  0.50400001928E-02 0. -1.
    10030    2    1    2    0    0  0.00000000000E+00  0.00000000000E+00  0.15364901918E+04  0.34565014652E+04  0.30962235496E+04 0.  0.
        2    1    3    3  502    0 -0.15402178402E+04  0.71789829295E+02  0.61345580401E+03  0.16594435207E+04  0.25500000920E-02 0. -1.
       -2    1    3    3    0  502  0.15402178402E+04 -0.71789829295E+02  0.92303438783E+03  0.17970579445E+04  0.25500000920E-02 0.  1.
</event>
<event>
 5   0  0.3441897E-06  0.3110710E+04  0.7818609E-02  0.8212805E-01
        2   -1    0    0  501    0  0.00000000000E+00  0.00000000000E+00  0.19189580455E+04  0.19189580455E+04  0.25500000920E-02 0.  1.
       -2   -1    0    0    0  501  0.00000000000E+00  0.00000000000E+00 -0.12606471114E+04  0.12606471114E+04  0.25500000920E-02 0. -1.
    10030    2    1    2    0    0  0.00000000000E+00  0.00000000000E+00  0.65831093414E+03  0.31796051569E+04  0.31107098334E+04 0.  0.
        5    1    3    3  502    0  0.14441917956E+04 -0.38327246602E+02  0.91806509926E+03  0.17117314441E+04  0.46999998093E+01 0.  1.
       -5    1    3    3    0  502 -0.14441917956E+04  0.38327246602E+02 -0.25975416512E+03  0.14678737128E+04  0.46999998093E+01 0. -1.
</event>
<event>
 5   0  0.1198763E-06  0.3058028E+04  0.7818609E-02  0.8227352E-01
        1   -1    0    0  501    0  0.00000000000E+00  0.00000000000E+00  0.21008590584E+04  0.21008590584E+04  0.50400001928E-02 0.  1.
       -1   -1    0    0    0  501  0.00000000000E+00  0.00000000000E+00 -0.11128225200E+04  0.11128225201E+04  0.50400001928E-02 0. -1.
    10030    2    1    2    0    0  0.00000000000E+00  0.00000000000E+00  0.98803653831E+03  0.32136815784E+04  0.30580276464E+04 0.  0.
        1    1    3    3  502    0 -0.17240407105E+03  0.13928566889E+04  0.11316214154E+04  0.18028699197E+04  0.50400001928E-02 0.  1.
       -1    1    3    3    0  502  0.17240407105E+03 -0.13928566889E+04 -0.14358487708E+03  0.14108116587E+04  0.50400001928E-02 0. -1.
</event>
<event>
 5   0  0.1198763E-06  0.3076343E+04  0.7818609E-02  0.8222260E-01
       -1   -1    0    0    0  501  0.00000000000E+00  0.00000000000E+00  0.22918741804E+04  0.22918741804E+04  0.50400001928E-02 0.  1.
        1   -1    0    0  501    0  0.00000000000E+00  0.00000000000E+00 -0.10323308079E+04  0.10323308079E+04  0.50400001928E-02 0. -1.
    10030    2    1    2    0    0  0.00000000000E+00  0.00000000000E+00  0.12595433725E+04  0.33242049884E+04  0.30763434947E+04 0.  0.
        1    1    3    3  502    0  0.14543844988E+03  0.12967120267E+04  0.15098613580E+04  0.19955690274E+04  0.50400001928E-02 0.  1.
       -1    1    3    3    0  502 -0.14543844988E+03 -0.12967120267E+04 -0.25031798544E+03  0.13286359609E+04  0.50400001928E-02 0. -1.
</event>
<event>
 5   0  0.3340899E-06  0.3083886E+04  0.7818609E-02  0.8220174E-01
       -2   -1    0    0    0  501  0.00000000000E+00  0.00000000000E+00  0.15304168544E+04  0.15304168544E+04  0.25500000920E-02 0.  1.
        2   -1    0    0  501    0  0.00000000000E+00  0.00000000000E+00 -0.15535561604E+04  0.15535561604E+04  0.25500000920E-02 0. -1.
    10030    2    1    2    0    0  0.00000000000E+00  0.00000000000E+00 -0.23139305948E+02  0.30839730148E+04  0.30838862055E+04 0.  0.
        3    1    3    3  502    0  0.91680212132E+03 -0.12231441324E+04 -0.21401256046E+03  0.15435054534E+04  0.10100000352E+00 0. -1.
       -3    1    3    3    0  502 -0.91680212132E+03  0.12231441324E+04  0.19087325452E+03  0.15404675614E+04  0.10100000352E+00 0.  1.
</event>
<event>
 5   0  0.1235960E-06  0.2597024E+04  0.7818609E-02  0.8369213E-01
       -1   -1    0    0    0  501  0.00000000000E+00  0.00000000000E+00  0.96664944562E+03  0.96664944563E+03  0.50400001928E-02 0.  1.
        1   -1    0    0  501    0  0.00000000000E+00  0.00000000000E+00 -0.17443071776E+04  0.17443071776E+04  0.50400001928E-02 0. -1.
    10030    2    1    2    0    0  0.00000000000E+00  0.00000000000E+00 -0.77765773195E+03  0.27109566232E+04  0.25970241171E+04 0.  0.
        4    1    3    3  502    0 -0.95063506806E+03  0.71803645648E+02 -0.13091349718E+04  0.16194748480E+04  0.12699999809E+01 0. -1.
       -4    1    3    3    0  502  0.95063506806E+03 -0.71803645648E+02  0.53147723984E+03  0.10914817752E+04  0.12699999809E+01 0.  1.
</event>
<event>
 5   0  0.1198763E-06  0.3109698E+04  0.7818609E-02  0.8213081E-01
       -1   -1    0    0    0  501  0.00000000000E+00  0.00000000000E+00  0.87212711527E+03  0.87212711528E+03  0.50400001928E-02 0.  1.
        1   -1    0    0  501    0  0.00000000000E+00  0.00000000000E+00 -0.27720217606E+04  0.27720217606E+04  0.50400001928E-02 0. -1.
    10030    2    1    2    0    0  0.00000000000E+00  0.00000000000E+00 -0.18998946454E+04  0.36441488759E+04  0.31096979542E+04 0.  0.
        1    1    3    3  502    0  0.34769963942E+02 -0.11875983032E+04 -0.21252982074E+04  0.24348493076E+04  0.50400001928E-02 0.  1.
       -1    1    3    3    0  502 -0.34769963942E+02  0.11875983032E+04  0.22540356204E+03  0.12092995683E+04  0.50400001928E-02 0. -1.
</event>
<event>
 5   0  0.3441897E-06  0.3096905E+04  0.7818609E-02  0.8216588E-01
       -2   -1    0    0    0  501  0.00000000000E+00  0.00000000000E+00  0.15200376278E+04  0.15200376278E+04  0.25500000920E-02 0.  1.
        2   -1    0    0  501    0  0.00000000000E+00  0.00000000000E+00 -0.15773980634E+04  0.15773980634E+04  0.25500000920E-02 0. -1.
    10030    2    1    2    0    0  0.00000000000E+00  0.00000000000E+00 -0.57360435611E+02  0.30974356913E+04  0.30969045258E+04 0.  0.
        5    1    3    3  502    0 -0.13351245989E+04 -0.73469434536E+03 -0.30322473866E+03  0.15538020491E+04  0.46999998093E+01 0. -1.
       -5    1    3    3    0  502  0.13351245989E+04  0.73469434536E+03  0.24586430305E+03  0.15436336422E+04  0.46999998093E+01 0.  1.
</event>
<event>
 5   0  0.1250276E-06  0.3080243E+04  0.7818609E-02  0.8221181E-01
       -1   -1    0    0    0  501  0.00000000000E+00  0.00000000000E+00  0.18098312071E+04  0.18098312071E+04  0.50400001928E-02 0. -1.
        1   -1    0    0  501    0  0.00000000000E+00  0.00000000000E+00 -0.13106052369E+04  0.13106052369E+04  0.50400001928E-02 0.  1.
    10030    2    1    2    0    0  0.00000000000E+00  0.00000000000E+00  0.49922597022E+03  0.31204364440E+04  0.30802430151E+04 0.  0.
        5    1    3    3  502    0  0.27643299181E+03 -0.45058742506E+03  0.17150390689E+04  0.17946657974E+04  0.46999998093E+01 0. -1.
       -5    1    3    3    0  502 -0.27643299181E+03  0.45058742506E+03 -0.12158130987E+04  0.13257706466E+04  0.46999998093E+01 0.  1.
</event>
<event>
 5   0  0.3340899E-06  0.3154257E+04  0.7818609E-02  0.8201003E-01
       -2   -1    0    0    0  501  0.00000000000E+00  0.00000000000E+00  0.14009832013E+04  0.14009832013E+04  0.25500000920E-02 0. -1.
        2   -1    0    0  501    0  0.00000000000E+00  0.00000000000E+00 -0.17754204249E+04  0.17754204249E+04  0.25500000920E-02 0.  1.
    10030    2    1    2    0    0  0.00000000000E+00  0.00000000000E+00 -0.37443722362E+03  0.31764036262E+04  0.31542569271E+04 0.  0.
        3    1    3    3  502    0  0.11604162546E+04 -0.47304842393E+03 -0.11515398743E+04  0.17018768427E+04  0.10100000352E+00 0.  1.
       -3    1    3    3    0  502 -0.11604162546E+04  0.47304842393E+03  0.77710265066E+03  0.14745267835E+04  0.10100000352E+00 0. -1.
</event>
<event>
 5   0  0.1171915E-06  0.3103735E+04  0.7818609E-02  0.8214714E-01
       -1   -1    0    0    0  501  0.00000000000E+00  0.00000000000E+00  0.12126095094E+04  0.12126095095E+04  0.50400001928E-02 0.  1.
        1   -1    0    0  501    0  0.00000000000E+00  0.00000000000E+00 -0.19860417489E+04  0.19860417489E+04  0.50400001928E-02 0. -1.
    10030    2    1    2    0    0  0.00000000000E+00  0.00000000000E+00 -0.77343223947E+03  0.31986512584E+04  0.31037352406E+04 0.  0.
        2    1    3    3  502    0 -0.47119229463E+03 -0.11958818788E+03  0.11321136333E+04  0.12320733712E+04  0.25500000920E-02 0.  1.
       -2    1    3    3    0  502  0.47119229463E+03  0.11958818788E+03 -0.19055458728E+04  0.19665778872E+04  0.25500000920E-02 0. -1.
</event>
<event>
 5   0  0.1235960E-06  0.2587243E+04  0.7818609E-02  0.8372547E-01
       -1   -1    0    0    0  501  0.00000000000E+00  0.00000000000E+00  0.98259599224E+03  0.98259599225E+03  0.50400001928E-02 0. -1.
        1   -1    0    0  501    0  0.00000000000E+00  0.00000000000E+00 -0.17030979513E+04  0.17030979513E+04  0.50400001928E-02 0.  1.
    10030    2    1    2    0    0  0.00000000000E+00  0.00000000000E+00 -0.72050195907E+03  0.26856939436E+04  0.25872434917E+04 0.  0.
        4    1    3    3  502    0 -0.70005275938E+03  0.10872500297E+04 -0.39723122446E+03  0.13527678114E+04  0.12699999809E+01 0. -1.
       -4    1    3    3    0  502  0.70005275938E+03 -0.10872500297E+04 -0.32327073461E+03  0.13329261322E+04  0.12699999809E+01 0.  1.
</event>
<event>
 5   0  0.1198763E-06  0.3109673E+04  0.7818609E-02  0.8213088E-01
        1   -1    0    0  501    0  0.00000000000E+00  0.00000000000E+00  0.19473572468E+04  0.19473572469E+04  0.50400001928E-02 0.  1.
       -1   -1    0    0    0  501  0.00000000000E+00  0.00000000000E+00 -0.12414343318E+04  0.12414343318E+04  0.50400001928E-02 0. -1.
    10030    2    1    2    0    0  0.00000000000E+00  0.00000000000E+00  0.70592291503E+03  0.31887915787E+04  0.31096727433E+04 0.  0.
        1    1    3    3  502    0 -0.80314648992E+03  0.41784024165E+03  0.16491963772E+04  0.18813514936E+04  0.50400001928E-02 0.  1.
       -1    1    3    3    0  502  0.80314648992E+03 -0.41784024165E+03 -0.94327346214E+03  0.13074400851E+04  0.50400001928E-02 0. -1.
</event>
<event>
 5   0  0.1235960E-06  0.3118370E+04  0.7818609E-02  0.8210714E-01
       -1   -1    0    0    0  501  0.00000000000E+00  0.00000000000E+00  0.17916304594E+04  0.17916304594E+04  0.50400001928E-02 0.  1.
        1   -1    0    0  501    0  0.00000000000E+00  0.00000000000E+00 -0.13568972863E+04  0.13568972863E+04  0.50400001928E-02 0. -1.
    10030    2    1    2    0    0  0.00000000000E+00  0.00000000000E+00  0.43473317307E+03  0.31485277457E+04  0.31183704132E+04 0.  0.
        4    1    3    3  502    0  0.11194360874E+04 -0.10363203209E+04 -0.10817975713E+03  0.15293140403E+04  0.12699999809E+01 0.  1.
       -4    1    3    3    0  502 -0.11194360874E+04  0.10363203209E+04  0.54291293020E+03  0.16192137054E+04  0.12699999809E+01 0. -1.
</event>
<event>
 5   0  0.3374790E-06  0.3090529E+04  0.7818609E-02  0.8218342E-01
        2   -1    0    0  501    0  0.00000000000E+00  0.00000000000E+00  0.15723664048E+04  0.15723664048E+04  0.25500000920E-02 0. -1.
       -2   -1    0    0    0  501  0.00000000000E+00  0.00000000000E+00 -0.15186294782E+04  0.15186294782E+04  0.25500000920E-02 0.  1.
    10030    2    1    2    0    0  0.00000000000E+00  0.00000000000E+00  0.53736926555E+02  0.30909958830E+04  0.30905287398E+04 0.  0.
        2    1    3    3  502    0 -0.12319473505E+04 -0.88794207035E+03  0.31275529484E+03  0.15504680806E+04  0.25500000920E-02 0.  1.
       -2    1    3    3    0  502  0.12319473505E+04  0.88794207035E+03 -0.25901836828E+03  0.15405278023E+04  0.25500000920E-02 0. -1.
</event>
<event>
 5   0  0.3445410E-06  0.3134053E+04  0.7818609E-02  0.8206454E-01
        2   -1    0    0  501    0  0.00000000000E+00  0.00000000000E+00  0.13575594449E+04  0.13575594449E+04  0.25500000920E-02 0. -1.
       -2   -1    0    0    0  501  0.00000000000E+00  0.00000000000E+00 -0.18088141845E+04  0.18088141845E+04  0.25500000920E-02 0.  1.
    10030    2    1    2    0    0  0.00000000000E+00  0.00000000000E+00 -0.45125473962E+03  0.31663736294E+04  0.31340534649E+04 0.  0.
        1    1    3    3  502    0 -0.27349765967E+03 -0.86424984739E+03 -0.15170281793E+04  0.17672303940E+04  0.50400001928E-02 0.  1.
       -1    1    3    3    0  502  0.27349765967E+03  0.86424984739E+03  0.10657734397E+04  0.13991432354E+04  0.50400001928E-02 0. -1.
</event>
<event>
 5   0  0.3340899E-06  0.3096953E+04  0.7818609E-02  0.8216575E-01
        2   -1    0    0  501    0  0.00000000000E+00  0.00000000000E+00  0.26267031266E+04  0.26267031266E+04  0.25500000920E-02 0.  1.
       -2   -1    0    0    0  501  0.00000000000E+00  0.00000000000E+00 -0.91284762219E+03  0.91284762220E+03  0.25500000920E-02 0. -1.
    10030    2    1    2    0    0  0.00000000000E+00  0.00000000000E+00  0.17138555044E+04  0.35395507488E+04  0.30969531500E+04 0.  0.
        3    1    3    3  502    0  0.53626912595E+03 -0.72970112330E+03 -0.57866097965E+03  0.10746612696E+04  0.10100000352E+00 0. -1.
       -3    1    3    3    0  502 -0.53626912595E+03  0.72970112330E+03  0.22925164840E+04  0.24648894792E+04  0.10100000352E+00 0.  1.
</event>
<event>
 5   0  0.3445410E-06  0.3110644E+04  0.7818609E-02  0.8212823E-01
        2   -1    0    0  501    0  0.00000000000E+00  0.00000000000E+00  0.27706233849E+04  0.27706233849E+04  0.25500000920E-02 0.  1.
       -2   -1    0    0    0  501  0.00000000000E+00  0.00000000000E+00 -0.87309810365E+03  0.87309810366E+03  0.25500000920E-02 0. -1.
    10030    2    1    2    0    0  0.00000000000E+00  0.00000000000E+00  0.18975252813E+04  0.36437214886E+04  0.31106436783E+04 0.  0.
        1    1    3    3  502    0  0.58401448689E+03  0.14312120776E+04  0.74728290814E+03  0.17169370043E+04  0.50400001928E-02 0.  1.
       -1    1    3    3    0  502 -0.58401448689E+03 -0.14312120776E+04  0.11502423731E+04  0.19267844843E+04  0.50400001928E-02 0. -1.
</event>
<event>
 5   0  0.3445959E-06  0.3042441E+04  0.7818609E-02  0.8231714E-01
       -2   -1    0    0    0  501  0.00000000000E+00  0.00000000000E+00  0.13811678327E+04  0.13811678327E+04  0.25500000920E-02 0.  1.
        2   -1    0    0  501    0  0.00000000000E+00  0.00000000000E+00 -0.16754751409E+04  0.16754751409E+04  0.25500000920E-02 0. -1.
    10030    2    1    2    0    0  0.00000000000E+00  0.00000000000E+00 -0.29430730826E+03  0.30566429736E+04  0.30424413678E+04 0.  0.
        4    1    3    3  502    0  0.12376690672E+03 -0.13538219735E+04  0.53864424519E+03  0.14622897862E+04  0.12699999809E+01 0.  1.
       -4    1    3    3    0  502 -0.12376690672E+03  0.13538219735E+04 -0.83295155345E+03  0.15943531874E+04  0.12699999809E+01 0. -1.
</event>
<event>
 5   0  0.1211008E-06  0.3113082E+04  0.7818609E-02  0.8212157E-01
       -1   -1    0    0    0  501  0.00000000000E+00  0.00000000000E+00  0.19201568284E+04  0.19201568284E+04  0.50400001928E-02 0. -1.
        1   -1    0    0  501    0  0.00000000000E+00  0.00000000000E+00 -0.12617824204E+04  0.12617824204E+04  0.50400001928E-02 0.  1.
    10030    2    1    2    0    0  0.00000000000E+00  0.00000000000E+00  0.65837440802E+03  0.31819392488E+04  0.31130821579E+04 0.  0.
        3    1    3    3  502    0 -0.23350856979E+03 -0.15868890831E+03 -0.12353928790E+04  0.12672426750E+04  0.10100000352E+00 0.  1.
       -3    1    3    3    0  502  0.23350856979E+03  0.15868890831E+03  0.18937672870E+04  0.19146965737E+04  0.10100000352E+00 0. -1.
</event>
<event>
 5   0  0.1198763E-06  0.3111553E+04  0.7818609E-02  0.8212574E-01
       -1   -1    0    0    0  501  0.00000000000E+00  0.00000000000E+00  0.13694176836E+04  0.13694176836E+04  0.50400001928E-02 0. -1.
        1   -1    0    0  501    0  0.00000000000E+00  0.00000000000E+00 -0.17674960005E+04  0.17674960005E+04  0.50400001928E-02 0.  1.
    10030    2    1    2    0    0  0.00000000000E+00  0.00000000000E+00 -0.39807831688E+03  0.31369136841E+04  0.31115528463E+04 0.  0.
        1    1    3    3  502    0  0.11052582284E+04  0.10574458760E+04  0.87269820624E+02  0.15321238702E+04  0.50400001928E-02 0. -1.
       -1    1    3    3    0  502 -0.11052582284E+04 -0.10574458760E+04 -0.48534813751E+03  0.16047898139E+04  0.50400001928E-02 0.  1.
</event>
<event>
 5   0  0.1109562E-06  0.3107464E+04  0.7818609E-02  0.8213692E-01
       -3   -1    0    0    0  501  0.00000000000E+00  0.00000000000E+00  0.12048263780E+04  0.12048263822E+04  0.10100000352E+00 0. -1.
        3   -1    0    0  501    0  0.00000000000E+00  0.00000000000E+00 -0.20036771647E+04  0.20036771673E+04  0.10100000352E+00 0.  1.
    10030    2    1    2    0    0  0.00000000000E+00  0.00000000000E+00 -0.79885078676E+03  0.32085035495E+04  0.31074639897E+04 0.  0.
        1    1    3    3  502    0  0.71988152483E+02 -0.22130246123E+03  0.11867295736E+04  0.12093321109E+04  0.50400001928E-02 0. -1.
       -1    1    3    3    0  502 -0.71988152483E+02  0.22130246123E+03 -0.19855803604E+04  0.19991714386E+04  0.50400001928E-02 0.  1.
</event>
<event>
 5   0  0.1198763E-06  0.3084417E+04  0.7818609E-02  0.8220028E-01
       -1   -1    0    0    0  501  0.00000000000E+00  0.00000000000E+00  0.20024778508E+04  0.20024778508E+04  0.50400001928E-02 0. -1.
        1   -1    0    0  501    0  0.00000000000E+00  0.00000000000E+00 -0.11877319751E+04  0.11877319751E+04  0.50400001928E-02 0.  1.
    10030    2    1    2    0    0  0.00000000000E+00  0.00000000000E+00  0.81474587573E+03  0.31902098259E+04  0.30844169451E+04 0.  0.
        1    1    3    3  502    0 -0.12188461683E+04  0.54938791181E+03  0.12025020817E+04  0.17981724934E+04  0.50400001928E-02 0. -1.
       -1    1    3    3    0  502  0.12188461683E+04 -0.54938791181E+03 -0.38775620594E+03  0.13920373324E+04  0.50400001928E-02 0.  1.
</event>
<event>
 5   0  0.1235960E-06  0.3097711E+04  0.7818609E-02  0.8216366E-01
       -1   -1    0    0    0  501  0.00000000000E+00  0.00000000000E+00  0.13569160405E+04  0.13569160405E+04  0.50400001928E-02 0. -1.
        1   -1    0    0  501    0  0.00000000000E+00  0.00000000000E+00 -0.17679449725E+04  0.17679449726E+04  0.50400001928E-02 0.  1.
    10030    2    1    2    0    0  0.00000000000E+00  0.00000000000E+00 -0.41102893208E+03  0.31248610130E+04  0.30977106979E+04 0.  0.
        4    1    3    3  502    0  0.12549515586E+04 -0.29269912210E+03  0.66130442595E+03  0.14484133896E+04  0.12699999809E+01 0. -1.
       -4    1    3    3    0  502 -0.12549515586E+04  0.29269912210E+03 -0.10723333580E+04  0.16764476234E+04  0.12699999809E+01 0.  1.
</event>
<event>
 5   0  0.1211008E-06  0.3103149E+04  0.7818609E-02  0.8214874E-01
       -1   -1    0    0    0  501  0.00000000000E+00  0.00000000000E+00  0.73820482736E+03  0.73820482738E+03  0.50400001928E-02 0.  1.
        1   -1    0    0  501    0  0.00000000000E+00  0.00000000000E+00 -0.32611321532E+04  0.32611321532E+04  0.50400001928E-02 0. -1.
    10030    2    1    2    0    0  0.00000000000E+00  0.00000000000E+00 -0.25229273258E+04  0.39993369806E+04  0.31031490446E+04 0.  0.
        3    1    3    3  502    0 -0.73226143465E+03 -0.74552385144E+03 -0.27395829128E+04  0.29321199102E+04  0.10100000352E+00 0. -1.
       -3    1    3    3    0  502  0.73226143465E+03  0.74552385144E+03  0.21665558692E+03  0.10672170704E+04  0.10100000352E+00 0.  1.
</event>
<event>
 5   0  0.3445959E-06  0.3074077E+04  0.7818609E-02  0.8222889E-01
        2   -1    0    0  501    0  0.00000000000E+00  0.00000000000E+00  0.11801185676E+04  0.11801185676E+04  0.25500000920E-02 0.  1.
       -2   -1    0    0    0  501  0.00000000000E+00  0.00000000000E+00 -0.20019061213E+04  0.20019061213E+04  0.25500000920E-02 0. -1.
    10030    2    1    2    0    0  0.00000000000E+00  0.00000000000E+00 -0.82178755366E+03  0.31820246889E+04  0.30740765015E+04 0.  0.
        4    1    3    3  502    0  0.41356352595E+03 -0.44789555471E+03 -0.18714121540E+04  0.19682048371E+04  0.12699999809E+01 0. -1.
       -4    1    3    3    0  502 -0.41356352595E+03  0.44789555471E+03  0.10496246003E+04  0.12138198517E+04  0.12699999809E+01 0.  1.
</event>
<event>
 5   0  0.1171915E-06  0.3032930E+04  0.7818609E-02  0.8234390E-01
        1   -1    0    0  501    0  0.00000000000E+00  0.00000000000E+00  0.11566087572E+04  0.11566087572E+04  0.50400001928E-02 0.  1.
       -1   -1    0    0    0  501  0.00000000000E+00  0.00000000000E+00 -0.19882834401E+04  0.19882834401E+04  0.50400001928E-02 0. -1.
    10030    2    1    2    0    0  0.00000000000E+00  0.00000000000E+00 -0.83167468296E+03  0.31448921973E+04  0.30329299620E+04 0.  0.
        2    1    3    3  502    0 -0.60686699487E+03 -0.72364535808E+03 -0.16461086255E+04  0.18977944464E+04  0.25500000920E-02 0. -1.
       -2    1    3    3    0  502  0.60686699487E+03  0.72364535808E+03  0.81443394251E+03  0.12470977510E+04  0.25500000920E-02 0.  1.
</event>
<event>
 5   0  0.1211008E-06  0.3035575E+04  0.7818609E-02  0.8233644E-01
       -1   -1    0    0    0  501  0.00000000000E+00  0.00000000000E+00  0.10742333230E+04  0.10742333230E+04  0.50400001928E-02 0. -1.
        1   -1    0    0  501    0  0.00000000000E+00  0.00000000000E+00 -0.21444872147E+04  0.21444872147E+04  0.50400001928E-02 0.  1.
    10030    2    1    2    0    0  0.00000000000E+00  0.00000000000E+00 -0.10702538917E+04  0.32187205377E+04  0.30355754820E+04 0.  0.
        3    1    3    3  502    0 -0.62198429560E+03 -0.56997261993E+03 -0.18729739502E+04  0.20542065816E+04  0.10100000352E+00 0.  1.
       -3    1    3    3    0  502  0.62198429560E+03  0.56997261993E+03  0.80272005852E+03  0.11645139561E+04  0.10100000352E+00 0. -1.
</event>
<event>
 5   0  0.3441897E-06  0.3110105E+04  0.7818609E-02  0.8212970E-01
       -2   -1    0    0    0  501  0.00000000000E+00  0.00000000000E+00  0.83330076373E+03  0.83330076373E+03  0.25500000920E-02 0. -1.
        2   -1    0    0  501    0  0.00000000000E+00  0.00000000000E+00 -0.29019388017E+04  0.29019388017E+04  0.25500000920E-02 0.  1.
    10030    2    1    2    0    0  0.00000000000E+00  0.00000000000E+00 -0.20686380380E+04  0.37352395654E+04  0.31101047055E+04 0.  0.
        5    1    3    3  502    0  0.44911894070E+03 -0.85451106345E+03  0.42985307078E+03  0.10567368324E+04  0.46999998093E+01 0. -1.
       -5    1    3    3    0  502 -0.44911894070E+03  0.85451106345E+03 -0.24984911087E+04  0.26785027330E+04  0.46999998093E+01 0.  1.
</event>
<event>
 5   0  0.1171915E-06  0.3124325E+04  0.7818609E-02  0.8209094E-01
       -1   -1    0    0    0  501  0.00000000000E+00  0.00000000000E+00  0.11306981243E+04  0.11306981243E+04  0.50400001928E-02 0. -1.
        1   -1    0    0  501    0  0.00000000000E+00  0.00000000000E+00 -0.21582698853E+04  0.21582698853E+04  0.50400001928E-02 0.  1.
    10030    2    1    2    0    0  0.00000000000E+00  0.00000000000E+00 -0.10275717610E+04  0.32889680096E+04  0.31243250222E+04 0.  0.
        2    1    3    3  502    0  0.64696176704E+03 -0.49349341761E+02  0.98213965488E+03  0.11771122237E+04  0.25500000920E-02 0. -1.
       -2    1    3    3    0  502 -0.64696176704E+03  0.49349341761E+02 -0.20097114158E+04  0.21118557859E+04  0.25500000920E-02 0.  1.
</event>
<event>
 5   0  0.1250276E-06  0.3047135E+04  0.7818609E-02  0.8230398E-01
       -1   -1    0    0    0  501  0.00000000000E+00  0.00000000000E+00  0.86232345444E+03  0.86232345446E+03  0.50400001928E-02 0. -1.
        1   -1    0    0  501    0  0.00000000000E+00  0.00000000000E+00 -0.26918638360E+04  0.26918638360E+04  0.50400001928E-02 0.  1.
    10030    2    1    2    0    0  0.00000000000E+00  0.00000000000E+00 -0.18295403816E+04  0.35541872905E+04  0.30471346029E+04 0.  0.
        5    1    3    3  502    0  0.14748209448E+03 -0.12735976839E+03  0.84772001260E+03  0.86984066849E+03  0.46999998093E+01 0. -1.
       -5    1    3    3    0  502 -0.14748209448E+03  0.12735976839E+03 -0.26772603942E+04  0.26843466220E+04  0.46999998093E+01 0.  1.
</event>
<event>
 5   0  0.1250276E-06  0.3029057E+04  0.7818609E-02  0.8235482E-01
       -1   -1    0    0    0  501  0.00000000000E+00  0.00000000000E+00  0.12614002259E+04  0.12614002259E+04  0.50400001928E-02 0.  1.
        1   -1    0    0  501    0  0.00000000000E+00  0.00000000000E+00 -0.18184529758E+04  0.18184529758E+04  0.50400001928E-02 0. -1.
    10030    2    1    2    0    0  0.00000000000E+00  0.00000000000E+00 -0.55705274986E+03  0.30798532017E+04  0.30290572754E+04 0.  0.
        5    1    3    3  502    0 -0.11760294407E+04  0.57625822368E+03 -0.10519773767E+04  0.16798206085E+04  0.46999998093E+01 0. -1.
       -5    1    3    3    0  502  0.11760294407E+04 -0.57625822368E+03  0.49492462681E+03  0.14000325932E+04  0.46999998093E+01 0.  1.
</event>
<event>
 5   0  0.3374790E-06  0.3101190E+04  0.7818609E-02  0.8215411E-01
        2   -1    0    0  501    0  0.00000000000E+00  0.00000000000E+00  0.15820786681E+04  0.15820786681E+04  0.25500000920E-02 0. -1.
       -2   -1    0    0    0  501  0.00000000000E+00  0.00000000000E+00 -0.15197383120E+04  0.15197383120E+04  0.25500000920E-02 0.  1.
    10030    2    1    2    0    0  0.00000000000E+00  0.00000000000E+00  0.62340356146E+02  0.31018169801E+04  0.31011904582E+04 0.  0.
        2    1    3    3  502    0  0.14305948955E+02 -0.15500576391E+04  0.69416884993E+02  0.15516771729E+04  0.25500000920E-02 0.  1.
       -2    1    3    3    0  502 -0.14305948955E+02  0.15500576391E+04 -0.70765288463E+01  0.15501398073E+04  0.25500000920E-02 0. -1.
</event>
<event>
 5   0  0.3374790E-06  0.3108440E+04  0.7818609E-02  0.8213425E-01
       -2   -1    0    0    0  501  0.00000000000E+00  0.00000000000E+00  0.11979137673E+04  0.11979137674E+04  0.25500000920E-02 0. -1.
        2   -1    0    0  501    0  0.00000000000E+00  0.00000000000E+00 -0.20165057563E+04  0.20165057563E+04  0.25500000920E-02 0.  1.
    10030    2    1    2    0    0  0.00000000000E+00  0.00000000000E+00 -0.81859198900E+03  0.32144195237E+04  0.31084401281E+04 0.  0.
        2    1    3    3  502    0 -0.51598041503E+03  0.70552651344E+03 -0.17382563785E+04  0.19456460848E+04  0.25500000920E-02 0.  1.
       -2    1    3    3    0  502  0.51598041503E+03 -0.70552651344E+03  0.91966438952E+03  0.12687734389E+04  0.25500000920E-02 0. -1.
</event>
<event>
 5   0  0.3441897E-06  0.3100843E+04  0.7818609E-02  0.8215507E-01
       -2   -1    0    0    0  501  0.00000000000E+00  0.00000000000E+00  0.10500889310E+04  0.10500889310E+04  0.25500000920E-02 0.  1.
        2   -1    0    0  501    0  0.00000000000E+00  0.00000000000E+00 -0.22891454638E+04  0.22891454638E+04  0.25500000920E-02 0. -1.
    10030    2    1    2    0    0  0.00000000000E+00  0.00000000000E+00 -0.12390565328E+04  0.33392343949E+04  0.31008426681E+04 0.  0.
        5    1    3    3  502    0 -0.52715813509E+03 -0.40850365680E+03  0.88772371828E+03  0.11103361775E+04  0.46999998093E+01 0.  1.
       -5    1    3    3    0  502  0.52715813509E+03  0.40850365680E+03 -0.21267802511E+04  0.22288982174E+04  0.46999998093E+01 0. -1.
</event>
<event>
 5   0  0.3445959E-06  0.3098995E+04  0.7818609E-02  0.8216014E-01
       -2   -1    0    0    0  501  0.00000000000E+00  0.00000000000E+00  0.12951485272E+04  0.12951485272E+04  0.25500000920E-02 0.  1.
        2   -1    0    0  501    0  0.00000000000E+00  0.00000000000E+00 -0.18537972210E+04  0.18537972210E+04  0.25500000920E-02 0. -1.
    10030    2    1    2    0    0  0.00000000000E+00  0.00000000000E+00 -0.55864869385E+03  0.31489457482E+04  0.30989951536E+04 0.  0.
        4    1    3    3  502    0 -0.76018276739E+03 -0.13254029314E+04 -0.54110126995E+03  0.16209142382E+04  0.12699999809E+01 0. -1.
       -4    1    3    3    0  502  0.76018276739E+03  0.13254029314E+04 -0.17547423903E+02  0.15280315100E+04  0.12699999809E+01 0.  1.
</event>
<event>
 5   0  0.1198763E-06  0.3063705E+04  0.7818609E-02  0.8225770E-01
       -1   -1    0    0    0  501  0.00000000000E+00  0.00000000000E+00  0.21709383460E+04  0.21709383460E+04  0.50400001928E-02 0. -1.
        1   -1    0    0  501    0  0.00000000000E+00  0.00000000000E+00 -0.10809022400E+04  0.10809022401E+04  0.50400001928E-02 0.  1.
    10030    2    1    2    0    0  0.00000000000E+00  0.00000000000E+00  0.10900361060E+04  0.32518405861E+04  0.30637050258E+04 0.  0.
        1    1    3    3  502    0 -0.71199718778E+02 -0.15038463199E+04  0.84513376153E+03  0.17265208451E+04  0.50400001928E-02 0.  1.
       -1    1    3    3    0  502  0.71199718778E+02  0.15038463199E+04  0.24490234444E+03  0.15253197409E+04  0.50400001928E-02 0. -1.
</event>
<event>
 5   0  0.3445959E-06  0.3082735E+04  0.7818609E-02  0.8220492E-01
       -2   -1    0    0    0  501  0.00000000000E+00  0.00000000000E+00  0.12863077163E+04  0.12863077163E+04  0.25500000920E-02 0.  1.
        2   -1    0    0  501    0  0.00000000000E+00  0.00000000000E+00 -0.18470023920E+04  0.18470023920E+04  0.25500000920E-02 0. -1.
    10030    2    1    2    0    0  0.00000000000E+00  0.00000000000E+00 -0.56069467571E+03  0.31333101083E+04  0.30827347787E+04 0.  0.
        4    1    3    3  502    0  0.22154423110E+03 -0.14117779865E+04  0.30672095715E+03  0.14616012753E+04  0.12699999809E+01 0.  1.
       -4    1    3    3    0  502 -0.22154423110E+03  0.14117779865E+04 -0.86741563286E+03  0.16717088330E+04  0.12699999809E+01 0. -1.
</event>
<event>
 5   0  0.1235960E-06  0.2748943E+04  0.7818609E-02  0.8319297E-01
       -1   -1    0    0    0  501  0.00000000000E+00  0.00000000000E+00  0.15528870182E+04  0.15528870182E+04  0.50400001928E-02 0.  1.
        1   -1    0    0  501    0  0.00000000000E+00  0.00000000000E+00 -0.12165548213E+04  0.12165548213E+04  0.50400001928E-02 0. -1.
    10030    2    1    2    0    0  0.00000000000E+00  0.00000000000E+00  0.33633219687E+03  0.27694418395E+04  0.27489432071E+04 0.  0.
        4    1    3    3  502    0 -0.10252191574E+04  0.75127834133E+03 -0.35887649972E+03  0.13207147390E+04  0.12699999809E+01 0. -1.
       -4    1    3    3    0  502  0.10252191574E+04 -0.75127834133E+03  0.69520869658E+03  0.14487271005E+04  0.12699999809E+01 0.  1.
</event>
<event>
 5   0  0.3445410E-06  0.3067467E+04  0.7818609E-02  0.8224724E-01
       -2   -1    0    0    0  501  0.00000000000E+00  0.00000000000E+00  0.13813986120E+04  0.13813986120E+04  0.25500000920E-02 0.  1.
        2   -1    0    0  501    0  0.00000000000E+00  0.00000000000E+00 -0.17028667655E+04  0.17028667655E+04  0.25500000920E-02 0. -1.
    10030    2    1    2    0    0  0.00000000000E+00  0.00000000000E+00 -0.32146815352E+03  0.30842653775E+04  0.30674665679E+04 0.  0.
        1    1    3    3  502    0  0.82255989852E+03  0.36363714157E+03 -0.14099150545E+04  0.16723328671E+04  0.50400001928E-02 0. -1.
       -1    1    3    3    0  502 -0.82255989852E+03 -0.36363714157E+03  0.10884469010E+04  0.14119325103E+04  0.50400001928E-02 0.  1.
</event>
<event>
 5   0  0.1211008E-06  0.3100941E+04  0.7818609E-02  0.8215480E-01
        1   -1    0    0  501    0  0.00000000000E+00  0.00000000000E+00  0.16234429144E+04  0.16234429144E+04  0.50400001928E-02 0. -1.
       -1   -1    0    0    0  501  0.00000000000E+00  0.00000000000E+00 -0.14807783762E+04  0.14807783762E+04  0.50400001928E-02 0.  1.
    10030    2    1    2    0    0  0.00000000000E+00  0.00000000000E+00  0.14266453821E+03  0.31042212906E+04  0.31009412524E+04 0.  0.
        3    1    3    3  502    0  0.14274884838E+04  0.81145480918E+02  0.67167587114E+03  0.15797013789E+04  0.10100000352E+00 0. -1.
       -3    1    3    3    0  502 -0.14274884838E+04 -0.81145480918E+02 -0.52901133293E+03  0.15245199117E+04  0.10100000352E+00 0.  1.
</event>
<event>
 5   0  0.3340899E-06  0.3048093E+04  0.7818609E-02  0.8230129E-01
        2   -1    0    0  501    0  0.00000000000E+00  0.00000000000E+00  0.21699689944E+04  0.21699689944E+04  0.25500000920E-02 0. -1.
       -2   -1    0    0    0  501  0.00000000000E+00  0.00000000000E+00 -0.10703920357E+04  0.10703920357E+04  0.25500000920E-02 0.  1.
    10030    2    1    2    0    0  0.00000000000E+00  0.00000000000E+00  0.10995769587E+04  0.32403610302E+04  0.30480928657E+04 0.  0.
        3    1    3    3  502    0  0.79201521469E+03 -0.13156920973E+03  0.19269236773E+04  0.20874945330E+04  0.10100000352E+00 0. -1.
       -3    1    3    3    0  502 -0.79201521469E+03  0.13156920973E+03 -0.82734671859E+03  0.11528664971E+04  0.10100000352E+00 0.  1.
</event>
<event>
 5   0  0.1250276E-06  0.3079338E+04  0.7818609E-02  0.8221431E-01
        1   -1    0    0  501    0  0.00000000000E+00  0.00000000000E+00  0.21402425572E+04  0.21402425572E+04  0.50400001928E-02 0. -1.
       -1   -1    0    0    0  501  0.00000000000E+00  0.00000000000E+00 -0.11076222981E+04  0.11076222981E+04  0.50400001928E-02 0.  1.
    10030    2    1    2    0    0  0.00000000000E+00  0.00000000000E+00  0.10326202591E+04  0.32478648553E+04  0.30793378377E+04 0.  0.
        5    1    3    3  502    0  0.14394959484E+04  0.47141246417E+03  0.80742277754E+03  0.17164882547E+04  0.46999998093E+01 0. -1.
       -5    1    3    3    0  502 -0.14394959484E+04 -0.47141246417E+03  0.22519748159E+03  0.15313766005E+04  0.46999998093E+01 0.  1.
</event>
<event>
 5   0  0.3445410E-06  0.3087926E+04  0.7818609E-02  0.8219059E-01
        2   -1    0    0  501    0  0.00000000000E+00  0.00000000000E+00  0.30153435496E+04  0.30153435496E+04  0.25500000920E-02 0.  1.
       -2   -1    0    0    0  501  0.00000000000E+00  0.00000000000E+00 -0.79056389377E+03  0.79056389377E+03  0.25500000920E-02 0. -1.
    10030    2    1    2    0    0  0.00000000000E+00  0.00000000000E+00  0.22247796559E+04  0.38059074434E+04  0.30879259950E+04 0.  0.
        1    1    3    3  502    0 -0.12067338141E+04  0.65489535432E+02  0.22967095354E+04  0.25952591522E+04  0.50400001928E-02 0.  1.
       -1    1    3    3    0  502  0.12067338141E+04 -0.65489535432E+02 -0.71929879520E+02  0.12106482912E+04  0.50400001928E-02 0. -1.
</event>
<event>
 5   0  0.3340899E-06  0.3024485E+04  0.7818609E-02  0.8236774E-01
        2   -1    0    0  501    0  0.00000000000E+00  0.00000000000E+00  0.24626415081E+04  0.24626415081E+04  0.25500000920E-02 0.  1.
       -2   -1    0    0    0  501  0.00000000000E+00  0.00000000000E+00 -0.92862757824E+03  0.92862757825E+03  0.25500000920E-02 0. -1.
    10030    2    1    2    0    0  0.00000000000E+00  0.00000000000E+00  0.15340139299E+04  0.33912690864E+04  0.30244846303E+04 0.  0.
        3    1    3    3  502    0 -0.61703140103E+03  0.83244778829E+03  0.20020254092E+04  0.22542854343E+04  0.10100000352E+00 0.  1.
       -3    1    3    3    0  502  0.61703140103E+03 -0.83244778829E+03 -0.46801147931E+03  0.11369836521E+04  0.10100000352E+00 0. -1.
</event>
<event>
 5   0  0.1109562E-06  0.3114051E+04  0.7818609E-02  0.8211892E-01
        3   -1    0    0  501    0  0.00000000000E+00  0.00000000000E+00  0.19708371470E+04  0.19708371496E+04  0.10100000352E+00 0. -1.
       -3   -1    0    0    0  501  0.00000000000E+00  0.00000000000E+00 -0.12301008106E+04  0.12301008148E+04  0.10100000352E+00 0.  1.
    10030    2    1    2    0    0  0.00000000000E+00  0.00000000000E+00  0.74073633634E+03  0.32009379644E+04  0.31140509841E+04 0.  0.
        1    1    3    3  502    0  0.11368530271E+04  0.90436928426E+03  0.94636901628E+03  0.17337626488E+04  0.50400001928E-02 0. -1.
       -1    1    3    3    0  502 -0.11368530271E+04 -0.90436928426E+03 -0.20563267994E+03  0.14671753155E+04  0.50400001928E-02 0.  1.
</event>
<event>
 5   0  0.1235960E-06  0.3108552E+04  0.7818609E-02  0.8213395E-01
        1   -1    0    0  501    0  0.00000000000E+00  0.00000000000E+00  0.18990123830E+04  0.18990123830E+04  0.50400001928E-02 0. -1.
       -1   -1    0    0    0  501  0.00000000000E+00  0.00000000000E+00 -0.12721208384E+04  0.12721208384E+04  0.50400001928E-02 0.  1.
    10030    2    1    2    0    0  0.00000000000E+00  0.00000000000E+00  0.62689154461E+03  0.31711332213E+04  0.31085515757E+04 0.  0.
        4    1    3    3  502    0  0.12343488003E+04  0.71460294207E+03 -0.31664357391E+03  0.14610061914E+04  0.12699999809E+01 0.  1.
       -4    1    3    3    0  502 -0.12343488003E+04 -0.71460294207E+03  0.94353511852E+03  0.17101270299E+04  0.12699999809E+01 0. -1.
</event>
<event>
 5   0  0.1171915E-06  0.3141780E+04  0.7818609E-02  0.8204364E-01
        1   -1    0    0  501    0  0.00000000000E+00  0.00000000000E+00  0.13090171622E+04  0.13090171622E+04  0.50400001928E-02 0. -1.
       -1   -1    0    0    0  501  0.00000000000E+00  0.00000000000E+00 -0.18851509128E+04  0.18851509128E+04  0.50400001928E-02 0.  1.
    10030    2    1    2    0    0  0.00000000000E+00  0.00000000000E+00 -0.57613375065E+03  0.31941680750E+04  0.31417796856E+04 0.  0.
        2    1    3    3  502    0  0.92194469265E+03 -0.70641387011E+02 -0.15791728288E+04  0.18299614873E+04  0.25500000920E-02 0.  1.
       -2    1    3    3    0  502 -0.92194469265E+03  0.70641387011E+02  0.10030390781E+04  0.13642065878E+04  0.25500000920E-02 0. -1.
</event>
<event>
 5   0  0.3445959E-06  0.3084258E+04  0.7818609E-02  0.8220071E-01
       -2   -1    0    0    0  501  0.00000000000E+00  0.00000000000E+00  0.17915530573E+04  0.17915530573E+04  0.25500000920E-02 0.  1.
        2   -1    0    0  501    0  0.00000000000E+00  0.00000000000E+00 -0.13274307261E+04  0.13274307261E+04  0.25500000920E-02 0. -1.
    10030    2    1    2    0    0  0.00000000000E+00  0.00000000000E+00  0.46412233120E+03  0.31189837835E+04  0.30842584689E+04 0.  0.
        4    1    3    3  502    0  0.79060302127E+03  0.61942610885E+03 -0.95133605424E+03  0.13833957288E+04  0.12699999809E+01 0. -1.
       -4    1    3    3    0  502 -0.79060302127E+03 -0.61942610885E+03  0.14154583854E+04  0.17355880546E+04  0.12699999809E+01 0.  1.
</event>
<event>
 5   0  0.3445410E-06  0.3068191E+04  0.7818609E-02  0.8224522E-01
        2   -1    0    0  501    0  0.00000000000E+00  0.00000000000E+00  0.19217510229E+04  0.19217510229E+04  0.25500000920E-02 0.  1.
       -2   -1    0    0    0  501  0.00000000000E+00  0.00000000000E+00 -0.12246378358E+04  0.12246378358E+04  0.25500000920E-02 0. -1.
    10030    2    1    2    0    0  0.00000000000E+00  0.00000000000E+00  0.69711318709E+03  0.31463888587E+04  0.30681910068E+04 0.  0.
        1    1    3    3  502    0  0.54023009518E+02  0.10789449292E+04  0.14655409826E+04  0.18206732320E+04  0.50400001928E-02 0.  1.
       -1    1    3    3    0  502 -0.54023009518E+02 -0.10789449292E+04 -0.76842779553E+03  0.13257156267E+04  0.50400001928E-02 0. -1.
</event>
<event>
 5   0  0.1198763E-06  0.3175121E+04  0.7818609E-02  0.8195419E-01
        1   -1    0    0  501    0  0.00000000000E+00  0.00000000000E+00  0.89778220053E+03  0.89778220054E+03  0.50400001928E-02 0.  1.
       -1   -1    0    0    0  501  0.00000000000E+00  0.00000000000E+00 -0.28073055136E+04  0.28073055136E+04  0.50400001928E-02 0. -1.
    10030    2    1    2    0    0  0.00000000000E+00  0.00000000000E+00 -0.19095233131E+04  0.37050877141E+04  0.31751213656E+04 0.  0.
        1    1    3    3  502    0  0.12043729521E+04  0.75024706189E+03 -0.17856195487E+04  0.22807503227E+04  0.50400001928E-02 0. -1.
       -1    1    3    3    0  502 -0.12043729521E+04 -0.75024706189E+03 -0.12390376433E+03  0.14243373914E+04  0.50400001928E-02 0.  1.
</event>
<event>
 5   0  0.3441897E-06  0.3109417E+04  0.7818609E-02  0.8213158E-01
       -2   -1    0    0    0  501  0.00000000000E+00  0.00000000000E+00  0.13179188546E+04  0.13179188547E+04  0.25500000920E-02 0.  1.
        2   -1    0    0  501    0  0.00000000000E+00  0.00000000000E+00 -0.18340416212E+04  0.18340416212E+04  0.25500000920E-02 0. -1.
    10030    2    1    2    0    0  0.00000000000E+00  0.00000000000E+00 -0.51612276651E+03  0.31519604758E+04  0.31094166866E+04 0.  0.
        5    1    3    3  502    0 -0.57448745603E+03 -0.11618727620E+04 -0.11283604486E+04  0.17184887385E+04  0.46999998093E+01 0. -1.
       -5    1    3    3    0  502  0.57448745603E+03  0.11618727620E+04  0.61223768210E+03  0.14334717373E+04  0.46999998093E+01 0.  1.
</event>
<event>
 5   0  0.1235960E-06  0.3111624E+04  0.7818609E-02  0.8212555E-01
        1   -1    0    0  501    0  0.00000000000E+00  0.00000000000E+00  0.10719437266E+04  0.10719437266E+04  0.50400001928E-02 0. -1.
       -1   -1    0    0    0  501  0.00000000000E+00  0.00000000000E+00 -0.22580953318E+04  0.22580953318E+04  0.50400001928E-02 0.  1.
    10030    2    1    2    0    0  0.00000000000E+00  0.00000000000E+00 -0.11861516052E+04  0.33300390584E+04  0.31116240936E+04 0.  0.
        4    1    3    3  502    0 -0.13775952442E+04 -0.49762316742E+03 -0.11544449874E+04  0.18649778324E+04  0.12699999809E+01 0.  1.
       -4    1    3    3    0  502  0.13775952442E+04  0.49762316742E+03 -0.31706617830E+02  0.14650612260E+04  0.12699999809E+01 0. -1.
</event>
<event>
 5   0  0.1211008E-06  0.3096661E+04  0.7818609E-02  0.8216655E-01
        1   -1    0    0  501    0  0.00000000000E+00  0.00000000000E+00  0.22114459653E+04  0.22114459653E+04  0.50400001928E-02 0.  1.
       -1   -1    0    0    0  501  0.00000000000E+00  0.00000000000E+00 -0.10840541576E+04  0.10840541576E+04  0.50400001928E-02 0. -1.
    10030    2    1    2    0    0  0.00000000000E+00  0.00000000000E+00  0.11273918077E+04  0.32955001229E+04  0.30966609068E+04 0.  0.
        3    1    3    3  502    0  0.98805423828E+03 -0.94903962447E+02  0.18283031834E+04  0.20803726783E+04  0.10100000352E+00 0.  1.
       -3    1    3    3    0  502 -0.98805423828E+03  0.94903962447E+02 -0.70091137566E+03  0.12151274446E+04  0.10100000352E+00 0. -1.
</event>
<event>
 5   0  0.1171915E-06  0.3091388E+04  0.7818609E-02  0.8218105E-01
        1   -1    0    0  501    0  0.00000000000E+00  0.00000000000E+00  0.25891188614E+04  0.25891188614E+04  0.50400001928E-02 0. -1.
       -1   -1    0    0    0  501  0.00000000000E+00  0.00000000000E+00 -0.92277338889E+03  0.92277338890E+03  0.50400001928E-02 0.  1.
    10030    2    1    2    0    0  0.00000000000E+00  0.00000000000E+00  0.16663454725E+04  0.35118922503E+04  0.30913880287E+04 0.  0.
        2    1    3    3  502    0 -0.71152685915E+01  0.15080969224E+04  0.12180202349E+04  0.19385510689E+04  0.25500000920E-02 0. -1.
       -2    1    3    3    0  502  0.71152685915E+01 -0.15080969224E+04  0.44832523762E+03  0.15733411814E+04  0.25500000920E-02 0.  1.
</event>
<event>
 5   0  0.3445959E-06  0.3223103E+04  0.7818609E-02  0.8182742E-01
        2   -1    0    0  501    0  0.00000000000E+00  0.00000000000E+00  0.17365995563E+04  0.17365995563E+04  0.25500000920E-02 0.  1.
       -2   -1    0    0    0  501  0.00000000000E+00  0.00000000000E+00 -0.14955081527E+04  0.14955081527E+04  0.25500000920E-02 0. -1.
    10030    2    1    2    0    0  0.00000000000E+00  0.00000000000E+00  0.24109140360E+03  0.32321077089E+04  0.32231033457E+04 0.  0.
        4    1    3    3  502    0  0.14472582534E+04 -0.41979822900E+03  0.69337721655E+03  0.16587828618E+04  0.12699999809E+01 0. -1.
       -4    1    3    3    0  502 -0.14472582534E+04  0.41979822900E+03 -0.45228581295E+03  0.15733248472E+04  0.12699999809E+01 0.  1.
</event>
<event>
 5   0  0.1198763E-06  0.3159865E+04  0.7818609E-02  0.8199498E-01
       -1   -1    0    0    0  501  0.00000000000E+00  0.00000000000E+00  0.11931855036E+04  0.11931855036E+04  0.50400001928E-02 0. -1.
        1   -1    0    0  501    0  0.00000000000E+00  0.00000000000E+00 -0.20920360867E+04  0.20920360867E+04  0.50400001928E-02 0.  1.
    10030    2    1    2    0    0  0.00000000000E+00  0.00000000000E+00 -0.89885058314E+03  0.32852215903E+04  0.31598652703E+04 0.  0.
        1    1    3    3  502    0  0.46075474826E+03 -0.11856010465E+04  0.52489846280E+03  0.13760316769E+04  0.50400001928E-02 0. -1.
       -1    1    3    3    0  502 -0.46075474826E+03  0.11856010465E+04 -0.14237490459E+04  0.19091899134E+04  0.50400001928E-02 0.  1.
</event>
<event>
 5   0  0.1211008E-06  0.3042928E+04  0.7818609E-02  0.8231578E-01
       -1   -1    0    0    0  501  0.00000000000E+00  0.00000000000E+00  0.12135047800E+04  0.12135047800E+04  0.50400001928E-02 0.  1.
        1   -1    0    0  501    0  0.00000000000E+00  0.00000000000E+00 -0.19075764856E+04  0.19075764856E+04  0.50400001928E-02 0. -1.
    10030    2    1    2    0    0  0.00000000000E+00  0.00000000000E+00 -0.69407170566E+03  0.31210812656E+04  0.30429283156E+04 0.  0.
        3    1    3    3  502    0  0.92590433954E+03 -0.66540892846E+03 -0.13802740094E+04  0.17903140058E+04  0.10100000352E+00 0. -1.
       -3    1    3    3    0  502 -0.92590433954E+03  0.66540892846E+03  0.68620230372E+03  0.13307672598E+04  0.10100000352E+00 0.  1.
</event>
<event>
 5   0  0.3374790E-06  0.3095275E+04  0.7818609E-02  0.8217036E-01
        2   -1    0    0  501    0  0.00000000000E+00  0.00000000000E+00  0.11035719859E+04  0.11035719859E+04  0.25500000920E-02 0. -1.
       -2   -1    0    0    0  501  0.00000000000E+00  0.00000000000E+00 -0.21703906656E+04  0.21703906656E+04  0.25500000920E-02 0.  1.
    10030    2    1    2    0    0  0.00000000000E+00  0.00000000000E+00 -0.10668186797E+04  0.32739626516E+04  0.30952753267E+04 0.  0.
        2    1    3    3  502    0  0.79858564967E+03  0.13235542906E+04 -0.45392230693E+03  0.16110805259E+04  0.25500000920E-02 0. -1.
       -2    1    3    3    0  502 -0.79858564967E+03 -0.13235542906E+04 -0.61289637279E+03  0.16628821257E+04  0.25500000920E-02 0.  1.
</event>
<event>
 5   0  0.3445959E-06  0.3102960E+04  0.7818609E-02  0.8214926E-01
       -2   -1    0    0    0  501  0.00000000000E+00  0.00000000000E+00  0.16537908160E+04  0.16537908160E+04  0.25500000920E-02 0. -1.
        2   -1    0    0  501    0  0.00000000000E+00  0.00000000000E+00 -0.14554983198E+04  0.14554983198E+04  0.25500000920E-02 0.  1.
    10030    2    1    2    0    0  0.00000000000E+00  0.00000000000E+00  0.19829249621E+03  0.31092891358E+04  0.31029597187E+04 0.  0.
        4    1    3    3  502    0 -0.79583792486E+03 -0.13228043801E+04  0.25411846760E+03  0.15645278007E+04  0.12699999809E+01 0. -1.
       -4    1    3    3    0  502  0.79583792486E+03  0.13228043801E+04 -0.55825971397E+02  0.15447613352E+04  0.12699999809E+01 0.  1.
</event>
<event>
 5   0  0.1250276E-06  0.3096756E+04  0.7818609E-02  0.8216629E-01
       -1   -1    0    0    0  501  0.00000000000E+00  0.00000000000E+00  0.15259908431E+04  0.15259908431E+04  0.50400001928E-02 0. -1.
        1   -1    0    0  501    0  0.00000000000E+00  0.00000000000E+00 -0.15710940909E+04  0.15710940909E+04  0.50400001928E-02 0.  1.
    10030    2    1    2    0    0  0.00000000000E+00  0.00000000000E+00 -0.45103247813E+02  0.30970849340E+04  0.30967564943E+04 0.  0.
        5    1    3    3  502    0  0.11803574901E+04 -0.14328134260E+03  0.96935987735E+03  0.15340971317E+04  0.46999998093E+01 0. -1.
       -5    1    3    3    0  502 -0.11803574901E+04  0.14328134260E+03 -0.10144631252E+04  0.15629878023E+04  0.46999998093E+01 0.  1.
</event>
<event>
 5   0  0.3445959E-06  0.3074572E+04  0.7818609E-02  0.8222751E-01
        2   -1    0    0  501    0  0.00000000000E+00  0.00000000000E+00  0.13731628724E+04  0.13731628724E+04  0.25500000920E-02 0. -1.
       -2   -1    0    0    0  501  0.00000000000E+00  0.00000000000E+00 -0.17210257325E+04  0.17210257325E+04  0.25500000920E-02 0.  1.
    10030    2    1    2    0    0  0.00000000000E+00  0.00000000000E+00 -0.34786286003E+03  0.30941886049E+04  0.30745722553E+04 0.  0.
        4    1    3    3  502    0  0.11499172500E+04  0.77867035439E+03  0.48952414435E+03  0.14725055869E+04  0.12699999809E+01 0.  1.
       -4    1    3    3    0  502 -0.11499172500E+04 -0.77867035439E+03 -0.83738700438E+03  0.16216830180E+04  0.12699999809E+01 0. -1.
</event>
<event>
 5   0  0.1171915E-06  0.3107930E+04  0.7818609E-02  0.8213565E-01
        1   -1    0    0  501    0  0.00000000000E+00  0.00000000000E+00  0.18539125999E+04  0.18539125999E+04  0.50400001928E-02 0.  1.
       -1   -1    0    0    0  501  0.00000000000E+00  0.00000000000E+00 -0.13025466340E+04  0.13025466341E+04  0.50400001928E-02 0. -1.
    10030    2    1    2    0    0  0.00000000000E+00  0.00000000000E+00  0.55136596584E+03  0.31564592339E+04  0.31079302546E+04 0.  0.
        2    1    3    3  502    0 -0.12847052741E+04  0.87409977921E+03  0.29296489522E+03  0.15812483977E+04  0.25500000920E-02 0.  1.
       -2    1    3    3    0  502  0.12847052741E+04 -0.87409977921E+03  0.25840107062E+03  0.15752108363E+04  0.25500000920E-02 0. -1.
</event>
<event>
 5   0  0.3441897E-06  0.3057348E+04  0.7818609E-02  0.8227542E-01
        2   -1    0    0  501    0  0.00000000000E+00  0.00000000000E+00  0.21008429253E+04  0.21008429253E+04  0.25500000920E-02 0.  1.
       -2   -1    0    0    0  501  0.00000000000E+00  0.00000000000E+00 -0.11123361126E+04  0.11123361126E+04  0.25500000920E-02 0. -1.
    10030    2    1    2    0    0  0.00000000000E+00  0.00000000000E+00  0.98850681273E+03  0.32131790379E+04  0.30573475122E+04 0.  0.
        5    1    3    3  502    0  0.12128450541E+04 -0.48662903453E+03 -0.33927900496E+03  0.13501604630E+04  0.46999998093E+01 0. -1.
       -5    1    3    3    0  502 -0.12128450541E+04  0.48662903453E+03  0.13277858177E+04  0.18630185749E+04  0.46999998093E+01 0.  1.
</event>
<event>
 5   0  0.1235960E-06  0.3105707E+04  0.7818609E-02  0.8214174E-01
        1   -1    0    0  501    0  0.00000000000E+00  0.00000000000E+00  0.15902418257E+04  0.15902418257E+04  0.50400001928E-02 0.  1.
       -1   -1    0    0    0  501  0.00000000000E+00  0.00000000000E+00 -0.15163438953E+04  0.15163438954E+04  0.50400001928E-02 0. -1.
    10030    2    1    2    0    0  0.00000000000E+00  0.00000000000E+00  0.73897930360E+02  0.31065857211E+04  0.31057066729E+04 0.  0.
        4    1    3    3  502    0  0.74695747164E+03  0.49274857720E+03  0.13064044061E+04  0.15834900410E+04  0.12699999809E+01 0.  1.
       -4    1    3    3    0  502 -0.74695747164E+03 -0.49274857720E+03 -0.12325064758E+04  0.15230956800E+04  0.12699999809E+01 0. -1.
</event>
<event>
 5   0  0.3340899E-06  0.3061205E+04  0.7818609E-02  0.8226466E-01
       -2   -1    0    0    0  501  0.00000000000E+00  0.00000000000E+00  0.13037893719E+04  0.13037893720E+04  0.25500000920E-02 0. -1.
        2   -1    0    0  501    0  0.00000000000E+00  0.00000000000E+00 -0.17968730379E+04  0.17968730379E+04  0.25500000920E-02 0.  1.
    10030    2    1    2    0    0  0.00000000000E+00  0.00000000000E+00 -0.49308366599E+03  0.31006624099E+04  0.30612049716E+04 0.  0.
        3    1    3    3  502    0 -0.13924523500E+04  0.40772515241E+03  0.24716322088E+03  0.14718196272E+04  0.10100000352E+00 0.  1.
       -3    1    3    3    0  502  0.13924523500E+04 -0.40772515241E+03 -0.74024688687E+03  0.16288427827E+04  0.10100000352E+00 0. -1.
</event>
<event>
 5   0  0.1171915E-06  0.3108123E+04  0.7818609E-02  0.8213512E-01
        1   -1    0    0  501    0  0.00000000000E+00  0.00000000000E+00  0.20428181749E+04  0.20428181749E+04  0.50400001928E-02 0.  1.
       -1   -1    0    0    0  501  0.00000000000E+00  0.00000000000E+00 -0.11822428863E+04  0.11822428864E+04  0.50400001928E-02 0. -1.
    10030    2    1    2    0    0  0.00000000000E+00  0.00000000000E+00  0.86057528856E+03  0.32250610613E+04  0.31081230705E+04 0.  0.
        2    1    3    3  502    0 -0.96344671753E+02 -0.71755794544E+03 -0.99656162981E+03  0.12317900726E+04  0.25500000920E-02 0. -1.
       -2    1    3    3    0  502  0.96344671753E+02  0.71755794544E+03  0.18571369184E+04  0.19932709887E+04  0.25500000920E-02 0.  1.
</event>
<event>
 5   0  0.3374790E-06  0.3066725E+04  0.7818609E-02  0.8224930E-01
        2   -1    0    0  501    0  0.00000000000E+00  0.00000000000E+00  0.18221651209E+04  0.18221651209E+04  0.25500000920E-02 0. -1.
       -2   -1    0    0    0  501  0.00000000000E+00  0.00000000000E+00 -0.12903334572E+04  0.12903334572E+04  0.25500000920E-02 0.  1.
    10030    2    1    2    0    0  0.00000000000E+00  0.00000000000E+00  0.53183166370E+03  0.31124985782E+04  0.30667250416E+04 0.  0.
        2    1    3    3  502    0  0.11849497695E+03  0.81180851353E+02 -0.12834904998E+04  0.12915027113E+04  0.25500000920E-02 0.  1.
       -2    1    3    3    0  502 -0.11849497695E+03 -0.81180851353E+02  0.18153221635E+04  0.18209958669E+04  0.25500000920E-02 0. -1.
</event>
<event>
 5   0  0.3445959E-06  0.2999692E+04  0.7818609E-02  0.8243819E-01
       -2   -1    0    0    0  501  0.00000000000E+00  0.00000000000E+00  0.94375406080E+03  0.94375406080E+03  0.25500000920E-02 0. -1.
        2   -1    0    0  501    0  0.00000000000E+00  0.00000000000E+00 -0.23836060506E+04  0.23836060506E+04  0.25500000920E-02 0.  1.
    10030    2    1    2    0    0  0.00000000000E+00  0.00000000000E+00 -0.14398519898E+04  0.33273601114E+04  0.29996919106E+04 0.  0.
        4    1    3    3  502    0  0.81001053187E+03  0.48857728920E+03  0.57113438702E+03  0.11049981585E+04  0.12699999809E+01 0. -1.
       -4    1    3    3    0  502 -0.81001053187E+03 -0.48857728920E+03 -0.20109863768E+04  0.22223619530E+04  0.12699999809E+01 0.  1.
</event>
<event>
 5   0  0.3441897E-06  0.3094000E+04  0.7818609E-02  0.8217386E-01
        2   -1    0    0  501    0  0.00000000000E+00  0.00000000000E+00  0.23080038399E+04  0.23080038399E+04  0.25500000920E-02 0. -1.
       -2   -1    0    0    0  501  0.00000000000E+00  0.00000000000E+00 -0.10369172896E+04  0.10369172896E+04  0.25500000920E-02 0.  1.
    10030    2    1    2    0    0  0.00000000000E+00  0.00000000000E+00  0.12710865503E+04  0.33449211295E+04  0.30940000557E+04 0.  0.
        5    1    3    3  502    0 -0.11622169485E+04 -0.93479007130E+03  0.19162559485E+03  0.15037696537E+04  0.46999998093E+01 0.  1.
       -5    1    3    3    0  502  0.11622169485E+04  0.93479007130E+03  0.10794609554E+04  0.18411514759E+04  0.46999998093E+01 0. -1.
</event>
<event>
 5   0  0.1198763E-06  0.3113560E+04  0.7818609E-02  0.8212026E-01
        1   -1    0    0  501    0  0.00000000000E+00  0.00000000000E+00  0.16219325526E+04  0.16219325526E+04  0.50400001928E-02 0.  1.
       -1   -1    0    0    0  501  0.00000000000E+00  0.00000000000E+00 -0.14942443500E+04  0.14942443500E+04  0.50400001928E-02 0. -1.
    10030    2    1    2    0    0  0.00000000000E+00  0.00000000000E+00  0.12768820266E+03  0.31161769026E+04  0.31135597331E+04 0.  0.
        1    1    3    3  502    0  0.53521915584E+03  0.14606614976E+04  0.40276735303E+01  0.15556374184E+04  0.50400001928E-02 0.  1.
       -1    1    3    3    0  502 -0.53521915584E+03 -0.14606614976E+04  0.12366052913E+03  0.15605394842E+04  0.50400001928E-02 0. -1.
</event>
<event>
 5   0  0.1171915E-06  0.3094465E+04  0.7818609E-02  0.8217258E-01
        1   -1    0    0  501    0  0.00000000000E+00  0.00000000000E+00  0.19327121824E+04  0.19327121824E+04  0.50400001928E-02 0.  1.
       -1   -1    0    0    0  501  0.00000000000E+00  0.00000000000E+00 -0.12386371497E+04  0.12386371497E+04  0.50400001928E-02 0. -1.
    10030    2    1    2    0    0  0.00000000000E+00  0.00000000000E+00  0.69407503274E+03  0.31713493321E+04  0.30944654522E+04 0.  0.
        2    1    3    3  502    0 -0.19405209166E+03 -0.62321767642E+03  0.17846999898E+04  0.19003185365E+04  0.25500000920E-02 0.  1.
       -2    1    3    3    0  502  0.19405209166E+03  0.62321767642E+03 -0.10906249571E+04  0.12710307956E+04  0.25500000920E-02 0. -1.
</event>
<event>
 5   0  0.3441897E-06  0.3146226E+04  0.7818609E-02  0.8203165E-01
        2   -1    0    0  501    0  0.00000000000E+00  0.00000000000E+00  0.20062859414E+04  0.20062859414E+04  0.25500000920E-02 0.  1.
       -2   -1    0    0    0  501  0.00000000000E+00  0.00000000000E+00 -0.12334658793E+04  0.12334658793E+04  0.25500000920E-02 0. -1.
    10030    2    1    2    0    0  0.00000000000E+00  0.00000000000E+00  0.77282006211E+03  0.32397518207E+04  0.31462264717E+04 0.  0.
        5    1    3    3  502    0  0.87642496476E+03  0.64490981759E+03  0.15562414308E+04  0.18989309816E+04  0.46999998093E+01 0.  1.
       -5    1    3    3    0  502 -0.87642496476E+03 -0.64490981759E+03 -0.78342136872E+03  0.13408208391E+04  0.46999998093E+01 0. -1.
</event>
<event>
 5   0  0.1211008E-06  0.3113878E+04  0.7818609E-02  0.8211940E-01
        1   -1    0    0  501    0  0.00000000000E+00  0.00000000000E+00  0.19861783685E+04  0.19861783685E+04  0.50400001928E-02 0.  1.
       -1   -1    0    0    0  501  0.00000000000E+00  0.00000000000E+00 -0.12204636897E+04  0.12204636897E+04  0.50400001928E-02 0. -1.
    10030    2    1    2    0    0  0.00000000000E+00  0.00000000000E+00  0.76571467882E+03  0.32066420582E+04  0.31138776984E+04 0.  0.
        3    1    3    3  502    0 -0.35989239896E+03 -0.32334998006E+03  0.19068016229E+04  0.19672239800E+04  0.10100000352E+00 0.  1.
       -3    1    3    3    0  502  0.35989239896E+03  0.32334998006E+03 -0.11410869441E+04  0.12394180782E+04  0.10100000352E+00 0. -1.
</event>
<event>
 5   0  0.3445410E-06  0.3117952E+04  0.7818609E-02  0.8210828E-01
       -2   -1    0    0    0  501  0.00000000000E+00  0.00000000000E+00  0.11843608598E+04  0.11843608598E+04  0.25500000920E-02 0. -1.
        2   -1    0    0  501    0  0.00000000000E+00  0.00000000000E+00 -0.20520821047E+04  0.20520821047E+04  0.25500000920E-02 0.  1.
    10030    2    1    2    0    0  0.00000000000E+00  0.00000000000E+00 -0.86772124490E+03  0.32364429644E+04  0.31179517160E+04 0.  0.
        1    1    3    3  502    0 -0.65104486558E+03  0.51966187715E+03 -0.18017018717E+04  0.19849527748E+04  0.50400001928E-02 0.  1.
       -1    1    3    3    0  502  0.65104486558E+03 -0.51966187715E+03  0.93398062680E+03  0.12514901897E+04  0.50400001928E-02 0. -1.
</event>
<event>
 5   0  0.1198763E-06  0.3138488E+04  0.7818609E-02  0.8205254E-01
       -1   -1    0    0    0  501  0.00000000000E+00  0.00000000000E+00  0.15785920509E+04  0.15785920509E+04  0.50400001928E-02 0. -1.
        1   -1    0    0  501    0  0.00000000000E+00  0.00000000000E+00 -0.15599512054E+04  0.15599512054E+04  0.50400001928E-02 0.  1.
    10030    2    1    2    0    0  0.00000000000E+00  0.00000000000E+00  0.18640845562E+02  0.31385432563E+04  0.31384878987E+04 0.  0.
        1    1    3    3  502    0 -0.11996066625E+04  0.86214307820E+03  0.53864983295E+03  0.15724154904E+04  0.50400001928E-02 0. -1.
       -1    1    3    3    0  502  0.11996066625E+04 -0.86214307820E+03 -0.52000898739E+03  0.15661277659E+04  0.50400001928E-02 0.  1.
</event>
<event>
 5   0  0.3445410E-06  0.3104088E+04  0.7818609E-02  0.8214617E-01
        2   -1    0    0  501    0  0.00000000000E+00  0.00000000000E+00  0.92104208726E+03  0.92104208727E+03  0.25500000920E-02 0. -1.
       -2   -1    0    0    0  501  0.00000000000E+00  0.00000000000E+00 -0.26153433788E+04  0.26153433788E+04  0.25500000920E-02 0.  1.
    10030    2    1    2    0    0  0.00000000000E+00  0.00000000000E+00 -0.16943012916E+04  0.35363854661E+04  0.31040884811E+04 0.  0.
        1    1    3    3  502    0  0.98960648822E+03  0.35557704994E+03 -0.21476553428E+04  0.23912715260E+04  0.50400001928E-02 0.  1.
       -1    1    3    3    0  502 -0.98960648822E+03 -0.35557704994E+03  0.45335405118E+03  0.11451139401E+04  0.50400001928E-02 0. -1.
</event>
<event>
 5   0  0.3445410E-06  0.3115717E+04  0.7818609E-02  0.8211438E-01
       -2   -1    0    0    0  501  0.00000000000E+00  0.00000000000E+00  0.11527427899E+04  0.11527427899E+04  0.25500000920E-02 0.  1.
        2   -1    0    0  501    0  0.00000000000E+00  0.00000000000E+00 -0.21053468645E+04  0.21053468645E+04  0.25500000920E-02 0. -1.
    10030    2    1    2    0    0  0.00000000000E+00  0.00000000000E+00 -0.95260407465E+03  0.32580896544E+04  0.31157172005E+04 0.  0.
        1    1    3    3  502    0 -0.88907787689E+03  0.12537226906E+04 -0.21043348695E+03  0.15513098686E+04  0.50400001928E-02 0.  1.
       -1    1    3    3    0  502  0.88907787689E+03 -0.12537226906E+04 -0.74217058770E+03  0.17067797858E+04  0.50400001928E-02 0. -1.
</event>
<event>
 5   0  0.3441897E-06  0.2914182E+04  0.7818609E-02  0.8268670E-01
       -2   -1    0    0    0  501  0.00000000000E+00  0.00000000000E+00  0.10507899965E+04  0.10507899965E+04  0.25500000920E-02 0. -1.
        2   -1    0    0  501    0  0.00000000000E+00  0.00000000000E+00 -0.20204939826E+04  0.20204939826E+04  0.25500000920E-02 0.  1.
    10030    2    1    2    0    0  0.00000000000E+00  0.00000000000E+00 -0.96970398616E+03  0.30712839791E+04  0.29141824684E+04 0.  0.
        5    1    3    3  502    0  0.89696775049E+03 -0.10024018662E+04 -0.10751655142E+04  0.17220231182E+04  0.46999998093E+01 0. -1.
       -5    1    3    3    0  502 -0.89696775049E+03  0.10024018662E+04  0.10546152805E+03  0.13492608609E+04  0.46999998093E+01 0.  1.
</event>
<event>
 5   0  0.3340899E-06  0.3149504E+04  0.7818609E-02  0.8202282E-01
        2   -1    0    0  501    0  0.00000000000E+00  0.00000000000E+00  0.14863971087E+04  0.14863971087E+04  0.25500000920E-02 0.  1.
       -2   -1    0    0    0  501  0.00000000000E+00  0.00000000000E+00 -0.16683585049E+04  0.16683585049E+04  0.25500000920E-02 0. -1.
    10030    2    1    2    0    0  0.00000000000E+00  0.00000000000E+00 -0.18196139614E+03  0.31547556136E+04  0.31495036167E+04 0.  0.
        3    1    3    3  502    0  0.84201323216E+03  0.64230887221E+03 -0.12583838609E+04  0.16447118052E+04  0.10100000352E+00 0. -1.
       -3    1    3    3    0  502 -0.84201323216E+03 -0.64230887221E+03  0.10764224648E+04  0.15100438084E+04  0.10100000352E+00 0.  1.
</event>
<event>
 5   0  0.1171915E-06  0.3090203E+04  0.7818609E-02  0.8218432E-01
       -1   -1    0    0    0  501  0.00000000000E+00  0.00000000000E+00  0.11498875764E+04  0.11498875764E+04  0.50400001928E-02 0. -1.
        1   -1    0    0  501    0  0.00000000000E+00  0.00000000000E+00 -0.20761499141E+04  0.20761499141E+04  0.50400001928E-02 0.  1.
    10030    2    1    2    0    0  0.00000000000E+00  0.00000000000E+00 -0.92626233768E+03  0.32260374905E+04  0.30902032250E+04 0.  0.
        2    1    3    3  502    0  0.15168338276E+04  0.18920122499E+03 -0.22793487991E+03  0.15454890079E+04  0.25500000920E-02 0.  1.
       -2    1    3    3    0  502 -0.15168338276E+04 -0.18920122499E+03 -0.69832745777E+03  0.16805484826E+04  0.25500000920E-02 0. -1.
</event>
<event>
 5   0  0.1211008E-06  0.3103639E+04  0.7818609E-02  0.8214740E-01
       -1   -1    0    0    0  501  0.00000000000E+00  0.00000000000E+00  0.94318212242E+03  0.94318212244E+03  0.50400001928E-02 0. -1.
        1   -1    0    0  501    0  0.00000000000E+00  0.00000000000E+00 -0.25532120937E+04  0.25532120937E+04  0.50400001928E-02 0.  1.
    10030    2    1    2    0    0  0.00000000000E+00  0.00000000000E+00 -0.16100299713E+04  0.34963942162E+04  0.31036391553E+04 0.  0.
        3    1    3    3  502    0  0.31211930869E+03 -0.13711816344E+04 -0.15442445924E+04  0.20885997483E+04  0.10100000352E+00 0.  1.
       -3    1    3    3    0  502 -0.31211930869E+03  0.13711816344E+04 -0.65785378891E+02  0.14077944678E+04  0.10100000352E+00 0. -1.
</event>
<event>
 5   0  0.1171915E-06  0.3111645E+04  0.7818609E-02  0.8212549E-01
       -1   -1    0    0    0  501  0.00000000000E+00  0.00000000000E+00  0.23532442569E+04  0.23532442570E+04  0.50400001928E-02 0. -1.
        1   -1    0    0  501    0  0.00000000000E+00  0.00000000000E+00 -0.10286155230E+04  0.10286155230E+04  0.50400001928E-02 0.  1.
    10030    2    1    2    0    0  0.00000000000E+00  0.00000000000E+00  0.13246287339E+04  0.33818597800E+04  0.31116449490E+04 0.  0.
        2    1    3    3  502    0 -0.83729594915E+03 -0.75074513131E+03  0.18308066404E+04  0.21486125089E+04  0.25500000920E-02 0. -1.
       -2    1    3    3    0  502  0.83729594915E+03  0.75074513131E+03 -0.50617790648E+03  0.12332472711E+04  0.25500000920E-02 0.  1.
</event>
<event>
 5   0  0.1198763E-06  0.3109854E+04  0.7818609E-02  0.8213039E-01
        1   -1    0    0  501    0  0.00000000000E+00  0.00000000000E+00  0.23321828731E+04  0.23321828732E+04  0.50400001928E-02 0. -1.
       -1   -1    0    0    0  501  0.00000000000E+00  0.00000000000E+00 -0.10367100980E+04  0.10367100980E+04  0.50400001928E-02 0.  1.
    10030    2    1    2    0    0  0.00000000000E+00  0.00000000000E+00  0.12954727751E+04  0.33688929712E+04  0.31098537169E+04 0.  0.
        1    1    3    3  502    0  0.10914184975E+03  0.38593639062E+01 -0.10325503292E+04  0.10383096939E+04  0.50400001928E-02 0.  1.
       -1    1    3    3    0  502 -0.10914184975E+03 -0.38593639062E+01  0.23280231043E+04  0.23305832773E+04  0.50400001928E-02 0. -1.
</event>
<event>
 5   0  0.3445410E-06  0.3089408E+04  0.7818609E-02  0.8218651E-01
       -2   -1    0    0    0  501  0.00000000000E+00  0.00000000000E+00  0.10315293370E+04  0.10315293370E+04  0.25500000920E-02 0.  1.
        2   -1    0    0  501    0  0.00000000000E+00  0.00000000000E+00 -0.23131780768E+04  0.23131780768E+04  0.25500000920E-02 0. -1.
    10030    2    1    2    0    0  0.00000000000E+00  0.00000000000E+00 -0.12816487398E+04  0.33447074138E+04  0.30894083886E+04 0.  0.
        1    1    3    3  502    0 -0.10761847581E+04  0.53721169407E+03 -0.16901117583E+04  0.20744271001E+04  0.50400001928E-02 0. -1.
       -1    1    3    3    0  502  0.10761847581E+04 -0.53721169407E+03  0.40846301852E+03  0.12702803137E+04  0.50400001928E-02 0.  1.
</event>
<event>
 5   0  0.1211008E-06  0.3087666E+04  0.7818609E-02  0.8219131E-01
        1   -1    0    0  501    0  0.00000000000E+00  0.00000000000E+00  0.19949591943E+04  0.19949591943E+04  0.50400001928E-02 0. -1.
       -1   -1    0    0    0  501  0.00000000000E+00  0.00000000000E+00 -0.11947213498E+04  0.11947213498E+04  0.50400001928E-02 0.  1.
    10030    2    1    2    0    0  0.00000000000E+00  0.00000000000E+00  0.80023784450E+03  0.31896805441E+04  0.30876660062E+04 0.  0.
        3    1    3    3  502    0  0.79116012722E+03 -0.62089937093E+03  0.16101295182E+04  0.18984118234E+04  0.10100000352E+00 0. -1.
       -3    1    3    3    0  502 -0.79116012722E+03  0.62089937093E+03 -0.80989167370E+03  0.12912687207E+04  0.10100000352E+00 0.  1.
</event>
<event>
 5   0  0.3374790E-06  0.3038047E+04  0.7818609E-02  0.8232949E-01
        2   -1    0    0  501    0  0.00000000000E+00  0.00000000000E+00  0.20731829765E+04  0.20731829765E+04  0.25500000920E-02 0.  1.
       -2   -1    0    0    0  501  0.00000000000E+00  0.00000000000E+00 -0.11129905082E+04  0.11129905082E+04  0.25500000920E-02 0. -1.
    10030    2    1    2    0    0  0.00000000000E+00  0.00000000000E+00  0.96019246823E+03  0.31861734847E+04  0.30380473826E+04 0.  0.
        2    1    3    3  502    0  0.34787702219E+03  0.13778158677E+04  0.10429554218E+04  0.17627112638E+04  0.25500000920E-02 0.  1.
       -2    1    3    3    0  502 -0.34787702219E+03 -0.13778158677E+04 -0.82762953530E+02  0.14234622209E+04  0.25500000920E-02 0. -1.
</event>
<event>
 5   0  0.1250276E-06  0.3085533E+04  0.7818609E-02  0.8219719E-01
        1   -1    0    0  501    0  0.00000000000E+00  0.00000000000E+00  0.19821464640E+04  0.19821464640E+04  0.50400001928E-02 0. -1.
       -1   -1    0    0    0  501  0.00000000000E+00  0.00000000000E+00 -0.12007833942E+04  0.12007833942E+04  0.50400001928E-02 0.  1.
    10030    2    1    2    0    0  0.00000000000E+00  0.00000000000E+00  0.78136306987E+03  0.31829298582E+04  0.30855330553E+04 0.  0.
        5    1    3    3  502    0 -0.14519445838E+04 -0.51892395458E+03  0.44409755007E+03  0.16045777853E+04  0.46999998093E+01 0. -1.
       -5    1    3    3    0  502  0.14519445838E+04  0.51892395458E+03  0.33726551980E+03  0.15783520729E+04  0.46999998093E+01 0.  1.
</event>
<event>
 5   0  0.3445959E-06  0.2530512E+04  0.7818609E-02  0.8392195E-01
        2   -1    0    0  501    0  0.00000000000E+00  0.00000000000E+00  0.16014361537E+04  0.16014361537E+04  0.25500000920E-02 0. -1.
       -2   -1    0    0    0  501  0.00000000000E+00  0.00000000000E+00 -0.99964809208E+03  0.99964809208E+03  0.25500000920E-02 0.  1.
    10030    2    1    2    0    0  0.00000000000E+00  0.00000000000E+00  0.60178806162E+03  0.26010842458E+04  0.25305118815E+04 0.  0.
        4    1    3    3  502    0  0.23846480479E+03 -0.12200903201E+04  0.58990264927E+02  0.12445751550E+04  0.12699999809E+01 0. -1.
       -4    1    3    3    0  502 -0.23846480479E+03  0.12200903201E+04  0.54279779669E+03  0.13565090907E+04  0.12699999809E+01 0.  1.
</event>
<event>
 5   0  0.3445410E-06  0.3094860E+04  0.7818609E-02  0.8217150E-01
       -2   -1    0    0    0  501  0.00000000000E+00  0.00000000000E+00  0.18086311876E+04  0.18086311876E+04  0.25500000920E-02 0. -1.
        2   -1    0    0  501    0  0.00000000000E+00  0.00000000000E+00 -0.13239512642E+04  0.13239512642E+04  0.25500000920E-02 0.  1.
    10030    2    1    2    0    0  0.00000000000E+00  0.00000000000E+00  0.48467992348E+03  0.31325824518E+04  0.30948599628E+04 0.  0.
        1    1    3    3  502    0  0.39494408512E+03 -0.97650700513E+03 -0.90505213146E+03  0.13887642428E+04  0.50400001928E-02 0.  1.
       -1    1    3    3    0  502 -0.39494408512E+03  0.97650700513E+03  0.13897320549E+04  0.17438182090E+04  0.50400001928E-02 0. -1.
</event>
<event>
 5   0  0.3445410E-06  0.3113635E+04  0.7818609E-02  0.8212006E-01
       -2   -1    0    0    0  501  0.00000000000E+00  0.00000000000E+00  0.20352134522E+04  0.20352134522E+04  0.25500000920E-02 0.  1.
        2   -1    0    0  501    0  0.00000000000E+00  0.00000000000E+00 -0.11908732270E+04  0.11908732270E+04  0.25500000920E-02 0. -1.
    10030    2    1    2    0    0  0.00000000000E+00  0.00000000000E+00  0.84434022527E+03  0.32260866792E+04  0.31136353103E+04 0.  0.
        1    1    3    3  502    0  0.95538858172E+02  0.76644814266E+03 -0.97835444518E+03  0.12464942235E+04  0.50400001928E-02 0. -1.
       -1    1    3    3    0  502 -0.95538858172E+02 -0.76644814266E+03  0.18226946705E+04  0.19795924557E+04  0.50400001928E-02 0.  1.
</event>
<event>
 5   0  0.1235960E-06  0.3138317E+04  0.7818609E-02  0.8205300E-01
       -1   -1    0    0    0  501  0.00000000000E+00  0.00000000000E+00  0.11749594347E+04  0.11749594347E+04  0.50400001928E-02 0.  1.
        1   -1    0    0  501    0  0.00000000000E+00  0.00000000000E+00 -0.20956118565E+04  0.20956118566E+04  0.50400001928E-02 0. -1.
    10030    2    1    2    0    0  0.00000000000E+00  0.00000000000E+00 -0.92065242182E+03  0.32705712913E+04  0.31383173341E+04 0.  0.
        4    1    3    3  502    0 -0.60640454625E+03  0.13079544768E+04  0.18528532940E+03  0.14535486416E+04  0.12699999809E+01 0.  1.
       -4    1    3    3    0  502  0.60640454625E+03 -0.13079544768E+04 -0.11059377512E+04  0.18170226497E+04  0.12699999809E+01 0. -1.
</event>
<event>
 5   0  0.3445959E-06  0.2930625E+04  0.7818609E-02  0.8263823E-01
       -2   -1    0    0    0  501  0.00000000000E+00  0.00000000000E+00  0.12666454240E+04  0.12666454240E+04  0.25500000920E-02 0.  1.
        2   -1    0    0  501    0  0.00000000000E+00  0.00000000000E+00 -0.16951398296E+04  0.16951398296E+04  0.25500000920E-02 0. -1.
    10030    2    1    2    0    0  0.00000000000E+00  0.00000000000E+00 -0.42849440564E+03  0.29617852536E+04  0.29306252631E+04 0.  0.
        4    1    3    3  502    0  0.69135050679E+03  0.12488739430E+04 -0.54865487638E+03  0.15292728452E+04  0.12699999809E+01 0. -1.
       -4    1    3    3    0  502 -0.69135050679E+03 -0.12488739430E+04  0.12016047074E+03  0.14325124084E+04  0.12699999809E+01 0.  1.
</event>
<event>
 5   0  0.3445959E-06  0.3077511E+04  0.7818609E-02  0.8221937E-01
        2   -1    0    0  501    0  0.00000000000E+00  0.00000000000E+00  0.10425712422E+04  0.10425712422E+04  0.25500000920E-02 0. -1.
       -2   -1    0    0    0  501  0.00000000000E+00  0.00000000000E+00 -0.22710856399E+04  0.22710856399E+04  0.25500000920E-02 0.  1.
    10030    2    1    2    0    0  0.00000000000E+00  0.00000000000E+00 -0.12285143977E+04  0.33136568821E+04  0.30775110572E+04 0.  0.
        4    1    3    3  502    0 -0.11813335188E+04  0.44449773252E+03  0.33341432582E+03  0.13054860560E+04  0.12699999809E+01 0. -1.
       -4    1    3    3    0  502  0.11813335188E+04 -0.44449773252E+03 -0.15619287235E+04  0.20081708261E+04  0.12699999809E+01 0.  1.
</event>
<event>
 5   0  0.1171915E-06  0.3085727E+04  0.7818609E-02  0.8219666E-01
        1   -1    0    0  501    0  0.00000000000E+00  0.00000000000E+00  0.25380975091E+04  0.25380975091E+04  0.50400001928E-02 0.  1.
       -1   -1    0    0    0  501  0.00000000000E+00  0.00000000000E+00 -0.93787885542E+03  0.93787885544E+03  0.50400001928E-02 0. -1.
    10030    2    1    2    0    0  0.00000000000E+00  0.00000000000E+00  0.16002186537E+04  0.34759763646E+04  0.30857271343E+04 0.  0.
        2    1    3    3  502    0  0.20159202364E+03  0.52780370126E+03  0.24173721949E+04  0.24825197722E+04  0.25500000920E-02 0.  1.
       -2    1    3    3    0  502 -0.20159202364E+03 -0.52780370126E+03 -0.81715354114E+03  0.99345659234E+03  0.25500000920E-02 0. -1.
</event>
<event>
 5   0  0.3445410E-06  0.2990043E+04  0.7818609E-02  0.8246580E-01
       -2   -1    0    0    0  501  0.00000000000E+00  0.00000000000E+00  0.23061633559E+04  0.23061633559E+04  0.25500000920E-02 0. -1.
        2   -1    0    0  501    0  0.00000000000E+00  0.00000000000E+00 -0.96918062376E+03  0.96918062377E+03  0.25500000920E-02 0.  1.
    10030    2    1    2    0    0  0.00000000000E+00  0.00000000000E+00  0.13369827322E+04  0.32753439797E+04  0.29900427019E+04 0.  0.
        1    1    3    3  502    0  0.12468639998E+04  0.14360078712E+03  0.15582761283E+04  0.20008786850E+04  0.50400001928E-02 0. -1.
       -1    1    3    3    0  502 -0.12468639998E+04 -0.14360078712E+03 -0.22129339611E+03  0.12744652947E+04  0.50400001928E-02 0.  1.
</event>
<event>
 5   0  0.1250276E-06  0.3086819E+04  0.7818609E-02  0.8219365E-01
        1   -1    0    0  501    0  0.00000000000E+00  0.00000000000E+00  0.19765253141E+04  0.19765253141E+04  0.50400001928E-02 0.  1.
       -1   -1    0    0    0  501  0.00000000000E+00  0.00000000000E+00 -0.12052019846E+04  0.12052019846E+04  0.50400001928E-02 0. -1.
    10030    2    1    2    0    0  0.00000000000E+00  0.00000000000E+00  0.77132332950E+03  0.31817272987E+04  0.30868185766E+04 0.  0.
        5    1    3    3  502    0 -0.97433841935E+03  0.10206662275E+04  0.10301834225E+04  0.17471104365E+04  0.46999998093E+01 0.  1.
       -5    1    3    3    0  502  0.97433841935E+03 -0.10206662275E+04 -0.25886009302E+03  0.14346168621E+04  0.46999998093E+01 0. -1.
</event>
<event>
 5   0  0.1250276E-06  0.3013609E+04  0.7818609E-02  0.8239855E-01
        1   -1    0    0  501    0  0.00000000000E+00  0.00000000000E+00  0.18321856670E+04  0.18321856670E+04  0.50400001928E-02 0. -1.
       -1   -1    0    0    0  501  0.00000000000E+00  0.00000000000E+00 -0.12392082467E+04  0.12392082467E+04  0.50400001928E-02 0.  1.
    10030    2    1    2    0    0  0.00000000000E+00  0.00000000000E+00  0.59297742029E+03  0.30713939136E+04  0.30136088585E+04 0.  0.
        5    1    3    3  502    0 -0.49140424368E+03 -0.24244753540E+03 -0.11340559805E+04  0.12595094263E+04  0.46999998093E+01 0.  1.
       -5    1    3    3    0  502  0.49140424368E+03  0.24244753540E+03  0.17270334008E+04  0.18118844873E+04  0.46999998093E+01 0. -1.
</event>
<event>
 5   0  0.1250276E-06  0.3026882E+04  0.7818609E-02  0.8236096E-01
        1   -1    0    0  501    0  0.00000000000E+00  0.00000000000E+00  0.13958961542E+04  0.13958961543E+04  0.50400001928E-02 0.  1.
       -1   -1    0    0    0  501  0.00000000000E+00  0.00000000000E+00 -0.16408835192E+04  0.16408835192E+04  0.50400001928E-02 0. -1.
    10030    2    1    2    0    0  0.00000000000E+00  0.00000000000E+00 -0.24498736498E+03  0.30367796735E+04  0.30268815597E+04 0.  0.
        5    1    3    3  502    0 -0.12274970921E+04 -0.13900589357E+03  0.75467031078E+03  0.14476260282E+04  0.46999998093E+01 0.  1.
       -5    1    3    3    0  502  0.12274970921E+04  0.13900589357E+03 -0.99965767575E+03  0.15891536453E+04  0.46999998093E+01 0. -1.
</event>
<event>
 5   0  0.1171915E-06  0.3103305E+04  0.7818609E-02  0.8214832E-01
        1   -1    0    0  501    0  0.00000000000E+00  0.00000000000E+00  0.21116769730E+04  0.21116769731E+04  0.50400001928E-02 0.  1.
       -1   -1    0    0    0  501  0.00000000000E+00  0.00000000000E+00 -0.11401482634E+04  0.11401482634E+04  0.50400001928E-02 0. -1.
    10030    2    1    2    0    0  0.00000000000E+00  0.00000000000E+00  0.97152870964E+03  0.32518252365E+04  0.31033045830E+04 0.  0.
        2    1    3    3  502    0  0.10396517300E+04 -0.11503292501E+04  0.54768324264E+03  0.16444117604E+04  0.25500000920E-02 0.  1.
       -2    1    3    3    0  502 -0.10396517300E+04  0.11503292501E+04  0.42384546700E+03  0.16074134761E+04  0.25500000920E-02 0. -1.
</event>
<event>
 5   0  0.3340899E-06  0.2829768E+04  0.7818609E-02  0.8294086E-01
       -2   -1    0    0    0  501  0.00000000000E+00  0.00000000000E+00  0.13025639543E+04  0.13025639543E+04  0.25500000920E-02 0.  1.
        2   -1    0    0  501    0  0.00000000000E+00  0.00000000000E+00 -0.15368896514E+04  0.15368896514E+04  0.25500000920E-02 0. -1.
    10030    2    1    2    0    0  0.00000000000E+00  0.00000000000E+00 -0.23432569707E+03  0.28394536057E+04  0.28297682320E+04 0.  0.
        3    1    3    3  502    0  0.47760477498E+03  0.16149205043E+03 -0.14436978883E+04  0.15291990081E+04  0.10100000352E+00 0. -1.
       -3    1    3    3    0  502 -0.47760477498E+03 -0.16149205043E+03  0.12093721912E+04  0.13102545976E+04  0.10100000352E+00 0.  1.
</event>
<event>
 5   0  0.3441897E-06  0.3250712E+04  0.7818609E-02  0.8175551E-01
        2   -1    0    0  501    0  0.00000000000E+00  0.00000000000E+00  0.21396454843E+04  0.21396454843E+04  0.25500000920E-02 0. -1.
       -2   -1    0    0    0  501  0.00000000000E+00  0.00000000000E+00 -0.12346823109E+04  0.12346823109E+04  0.25500000920E-02 0.  1.
    10030    2    1    2    0    0  0.00000000000E+00  0.00000000000E+00  0.90496317347E+03  0.33743277952E+04  0.32507121872E+04 0.  0.
        5    1    3    3  502    0  0.10243250605E+04  0.43147645866E+02  0.17616544421E+04  0.20382718200E+04  0.46999998093E+01 0. -1.
       -5    1    3    3    0  502 -0.10243250605E+04 -0.43147645866E+02 -0.85669126867E+03  0.13360559751E+04  0.46999998093E+01 0.  1.
</event>
<event>
 5   0  0.3374790E-06  0.3066933E+04  0.7818609E-02  0.8224872E-01
       -2   -1    0    0    0  501  0.00000000000E+00  0.00000000000E+00  0.10504580105E+04  0.10504580105E+04  0.25500000920E-02 0. -1.
        2   -1    0    0  501    0  0.00000000000E+00  0.00000000000E+00 -0.22385663626E+04  0.22385663626E+04  0.25500000920E-02 0.  1.
    10030    2    1    2    0    0  0.00000000000E+00  0.00000000000E+00 -0.11881083520E+04  0.32890243731E+04  0.30669333007E+04 0.  0.
        2    1    3    3  502    0 -0.54793500780E+03  0.51512703581E+03 -0.20272156960E+04  0.21622192567E+04  0.25500000920E-02 0.  1.
       -2    1    3    3    0  502  0.54793500780E+03 -0.51512703581E+03  0.83910734396E+03  0.11268051165E+04  0.25500000920E-02 0. -1.
</event>
<event>
 5   0  0.1235960E-06  0.3112467E+04  0.7818609E-02  0.8212325E-01
       -1   -1    0    0    0  501  0.00000000000E+00  0.00000000000E+00  0.19425653614E+04  0.19425653614E+04  0.50400001928E-02 0.  1.
        1   -1    0    0  501    0  0.00000000000E+00  0.00000000000E+00 -0.12467343061E+04  0.12467343061E+04  0.50400001928E-02 0. -1.
    10030    2    1    2    0    0  0.00000000000E+00  0.00000000000E+00  0.69583105531E+03  0.31892996676E+04  0.31124671102E+04 0.  0.
        4    1    3    3  502    0  0.13764666963E+04 -0.66077061690E+03  0.65631501318E+03  0.16619354331E+04  0.12699999809E+01 0.  1.
       -4    1    3    3    0  502 -0.13764666963E+04  0.66077061690E+03  0.39516042128E+02  0.15273642345E+04  0.12699999809E+01 0. -1.
</event>
<event>
 5   0  0.3445410E-06  0.3155276E+04  0.7818609E-02  0.8200730E-01
       -2   -1    0    0    0  501  0.00000000000E+00  0.00000000000E+00  0.24875497593E+04  0.24875497593E+04  0.25500000920E-02 0.  1.
        2   -1    0    0  501    0  0.00000000000E+00  0.00000000000E+00 -0.10005593436E+04  0.10005593436E+04  0.25500000920E-02 0. -1.
    10030    2    1    2    0    0  0.00000000000E+00  0.00000000000E+00  0.14869904158E+04  0.34881091029E+04  0.31552756800E+04 0.  0.
        1    1    3    3  502    0 -0.71622910480E+03 -0.13149706910E+04  0.12926987625E+04  0.19781815234E+04  0.50400001928E-02 0.  1.
       -1    1    3    3    0  502  0.71622910480E+03  0.13149706910E+04  0.19429165330E+03  0.15099275795E+04  0.50400001928E-02 0. -1.
</event>
<event>
 5   0  0.1171915E-06  0.2958688E+04  0.7818609E-02  0.8255627E-01
        1   -1    0    0  501    0  0.00000000000E+00  0.00000000000E+00  0.22112103630E+04  0.22112103630E+04  0.50400001928E-02 0.  1.
       -1   -1    0    0    0  501  0.00000000000E+00  0.00000000000E+00 -0.98971092066E+03  0.98971092067E+03  0.50400001928E-02 0. -1.
    10030    2    1    2    0    0  0.00000000000E+00  0.00000000000E+00  0.12214994423E+04  0.32009212837E+04  0.29586882527E+04 0.  0.
        2    1    3    3  502    0 -0.30924981908E+03  0.12909502729E+04 -0.95598204114E+02  0.13309121212E+04  0.25500000920E-02 0.  1.
       -2    1    3    3    0  502  0.30924981908E+03 -0.12909502729E+04  0.13170976465E+04  0.18700091625E+04  0.25500000920E-02 0. -1.
</event>
<event>
 5   0  0.1198763E-06  0.3154646E+04  0.7818609E-02  0.8200899E-01
       -1   -1    0    0    0  501  0.00000000000E+00  0.00000000000E+00  0.12970872984E+04  0.12970872984E+04  0.50400001928E-02 0.  1.
        1   -1    0    0  501    0  0.00000000000E+00  0.00000000000E+00 -0.19181039794E+04  0.19181039794E+04  0.50400001928E-02 0. -1.
    10030    2    1    2    0    0  0.00000000000E+00  0.00000000000E+00 -0.62101668102E+03  0.32151912779E+04  0.31546462932E+04 0.  0.
        1    1    3    3  502    0 -0.15511517093E+04  0.24739742863E+03 -0.45704252199E+03  0.16358988294E+04  0.50400001928E-02 0.  1.
       -1    1    3    3    0  502  0.15511517093E+04 -0.24739742863E+03 -0.16397415903E+03  0.15792924485E+04  0.50400001928E-02 0. -1.
</event>
<event>
 5   0  0.1211008E-06  0.3114163E+04  0.7818609E-02  0.8211862E-01
        1   -1    0    0  501    0  0.00000000000E+00  0.00000000000E+00  0.24795871843E+04  0.24795871843E+04  0.50400001928E-02 0.  1.
       -1   -1    0    0    0  501  0.00000000000E+00  0.00000000000E+00 -0.97778501910E+03  0.97778501911E+03  0.50400001928E-02 0. -1.
    10030    2    1    2    0    0  0.00000000000E+00  0.00000000000E+00  0.15018021652E+04  0.34573722034E+04  0.31141632599E+04 0.  0.
        3    1    3    3  502    0 -0.50762622693E+03 -0.14538511145E+04  0.49498467139E+03  0.16175219580E+04  0.10100000352E+00 0. -1.
       -3    1    3    3    0  502  0.50762622693E+03  0.14538511145E+04  0.10068174938E+04  0.18398502454E+04  0.10100000352E+00 0.  1.
</event>
<event>
 5   0  0.1171915E-06  0.3118380E+04  0.7818609E-02  0.8210712E-01
        1   -1    0    0  501    0  0.00000000000E+00  0.00000000000E+00  0.16570291635E+04  0.16570291635E+04  0.50400001928E-02 0. -1.
       -1   -1    0    0    0  501  0.00000000000E+00  0.00000000000E+00 -0.14671279309E+04  0.14671279309E+04  0.50400001928E-02 0.  1.
    10030    2    1    2    0    0  0.00000000000E+00  0.00000000000E+00  0.18990123264E+03  0.31241570944E+04  0.31183802001E+04 0.  0.
        2    1    3    3  502    0  0.96402595849E+03 -0.35929135971E+03 -0.10788159083E+04  0.14907313956E+04  0.25500000920E-02 0.  1.
       -2    1    3    3    0  502 -0.96402595849E+03  0.35929135971E+03  0.12687171409E+04  0.16334256988E+04  0.25500000920E-02 0. -1.
</event>
<event>
 5   0  0.1211008E-06  0.3089575E+04  0.7818609E-02  0.8218605E-01
       -1   -1    0    0    0  501  0.00000000000E+00  0.00000000000E+00  0.10188399602E+04  0.10188399602E+04  0.50400001928E-02 0. -1.
        1   -1    0    0  501    0  0.00000000000E+00  0.00000000000E+00 -0.23422408197E+04  0.23422408197E+04  0.50400001928E-02 0.  1.
    10030    2    1    2    0    0  0.00000000000E+00  0.00000000000E+00 -0.13234008595E+04  0.33610807799E+04  0.30895750799E+04 0.  0.
        3    1    3    3  502    0  0.91034061955E+03 -0.20904744287E+03 -0.20002535997E+04  0.22075858648E+04  0.10100000352E+00 0.  1.
       -3    1    3    3    0  502 -0.91034061955E+03  0.20904744287E+03  0.67685274026E+03  0.11534949151E+04  0.10100000352E+00 0. -1.
</event>
<event>
 5   0  0.1198763E-06  0.3106800E+04  0.7818609E-02  0.8213874E-01
        1   -1    0    0  501    0  0.00000000000E+00  0.00000000000E+00  0.12611834412E+04  0.12611834413E+04  0.50400001928E-02 0. -1.
       -1   -1    0    0    0  501  0.00000000000E+00  0.00000000000E+00 -0.19133234975E+04  0.19133234975E+04  0.50400001928E-02 0.  1.
    10030    2    1    2    0    0  0.00000000000E+00  0.00000000000E+00 -0.65214005624E+03  0.31745069387E+04  0.31068002271E+04 0.  0.
        1    1    3    3  502    0  0.10017344990E+04  0.11533800717E+04 -0.38340798726E+02  0.15281451545E+04  0.50400001928E-02 0. -1.
       -1    1    3    3    0  502 -0.10017344990E+04 -0.11533800717E+04 -0.61379925751E+03  0.16463617843E+04  0.50400001928E-02 0.  1.
</event>
<event>
 5   0  0.1171915E-06  0.3238565E+04  0.7818609E-02  0.8178706E-01
       -1   -1    0    0    0  501  0.00000000000E+00  0.00000000000E+00  0.14382121808E+04  0.14382121808E+04  0.50400001928E-02 0. -1.
        1   -1    0    0  501    0  0.00000000000E+00  0.00000000000E+00 -0.18231497759E+04  0.18231497759E+04  0.50400001928E-02 0.  1.
    10030    2    1    2    0    0  0.00000000000E+00  0.00000000000E+00 -0.38493759507E+03  0.32613619568E+04  0.32385652473E+04 0.  0.
        2    1    3    3  502    0  0.62649631879E+03  0.24656921245E+03 -0.16755137665E+04  0.18057243410E+04  0.25500000920E-02 0.  1.
       -2    1    3    3    0  502 -0.62649631879E+03 -0.24656921245E+03  0.12905761715E+04  0.14556376157E+04  0.25500000920E-02 0. -1.
</event>
<event>
 5   0  0.3374790E-06  0.3098352E+04  0.7818609E-02  0.8216190E-01
       -2   -1    0    0    0  501  0.00000000000E+00  0.00000000000E+00  0.12193476820E+04  0.12193476820E+04  0.25500000920E-02 0.  1.
        2   -1    0    0  501    0  0.00000000000E+00  0.00000000000E+00 -0.19682211004E+04  0.19682211004E+04  0.25500000920E-02 0. -1.
    10030    2    1    2    0    0  0.00000000000E+00  0.00000000000E+00 -0.74887341841E+03  0.31875687825E+04  0.30983517144E+04 0.  0.
        2    1    3    3  502    0  0.11157909077E+04 -0.10746604305E+04 -0.36637225440E+03  0.15918897636E+04  0.25500000920E-02 0. -1.
       -2    1    3    3    0  502 -0.11157909077E+04  0.10746604305E+04 -0.38250116401E+03  0.15956790189E+04  0.25500000920E-02 0.  1.
</event>
<event>
 5   0  0.1171915E-06  0.3025663E+04  0.7818609E-02  0.8236440E-01
       -1   -1    0    0    0  501  0.00000000000E+00  0.00000000000E+00  0.15737498312E+04  0.15737498312E+04  0.50400001928E-02 0. -1.
        1   -1    0    0  501    0  0.00000000000E+00  0.00000000000E+00 -0.14542716523E+04  0.14542716523E+04  0.50400001928E-02 0.  1.
    10030    2    1    2    0    0  0.00000000000E+00  0.00000000000E+00  0.11947817887E+03  0.30280214835E+04  0.30256634097E+04 0.  0.
        2    1    3    3  502    0 -0.82109521642E+03 -0.92886095221E+02 -0.12084638124E+04  0.14639706169E+04  0.25500000920E-02 0.  1.
       -2    1    3    3    0  502  0.82109521642E+03  0.92886095221E+02  0.13279419913E+04  0.15640508666E+04  0.25500000920E-02 0. -1.
</event>
<event>
 5   0  0.1250276E-06  0.3068119E+04  0.7818609E-02  0.8224542E-01
        1   -1    0    0  501    0  0.00000000000E+00  0.00000000000E+00  0.13151155612E+04  0.13151155612E+04  0.50400001928E-02 0. -1.
       -1   -1    0    0    0  501  0.00000000000E+00  0.00000000000E+00 -0.17894538450E+04  0.17894538450E+04  0.50400001928E-02 0.  1.
    10030    2    1    2    0    0  0.00000000000E+00  0.00000000000E+00 -0.47433828385E+03  0.31045694062E+04  0.30681190314E+04 0.  0.
        5    1    3    3  502    0 -0.44871859200E+03 -0.10197041599E+04 -0.13042935692E+04  0.17153275935E+04  0.46999998093E+01 0.  1.
       -5    1    3    3    0  502  0.44871859200E+03  0.10197041599E+04  0.82995528533E+03  0.13892418127E+04  0.46999998093E+01 0. -1.
</event>
<event>
 5   0  0.3340899E-06  0.3097573E+04  0.7818609E-02  0.8216404E-01
        2   -1    0    0  501    0  0.00000000000E+00  0.00000000000E+00  0.17569980308E+04  0.17569980308E+04  0.25500000920E-02 0. -1.
       -2   -1    0    0    0  501  0.00000000000E+00  0.00000000000E+00 -0.13652485347E+04  0.13652485347E+04  0.25500000920E-02 0.  1.
    10030    2    1    2    0    0  0.00000000000E+00  0.00000000000E+00  0.39174949607E+03  0.31222465654E+04  0.30975725896E+04 0.  0.
        3    1    3    3  502    0 -0.39209706068E+02 -0.14505454359E+04 -0.34984298948E+03  0.14926518650E+04  0.10100000352E+00 0.  1.
       -3    1    3    3    0  502  0.39209706068E+02  0.14505454359E+04  0.74159248555E+03  0.16295947004E+04  0.10100000352E+00 0. -1.
</event>
<event>
 5   0  0.3340899E-06  0.3338681E+04  0.7818609E-02  0.8153122E-01
       -2   -1    0    0    0  501  0.00000000000E+00  0.00000000000E+00  0.93767295804E+03  0.93767295804E+03  0.25500000920E-02 0.  1.
        2   -1    0    0  501    0  0.00000000000E+00  0.00000000000E+00 -0.29719294204E+04  0.29719294204E+04  0.25500000920E-02 0. -1.
    10030    2    1    2    0    0  0.00000000000E+00  0.00000000000E+00 -0.20342564624E+04  0.39096023784E+04  0.33386810873E+04 0.  0.
        3    1    3    3  502    0 -0.15351798753E+04 -0.29346935940E+03 -0.17037352977E+04  0.23120587123E+04  0.10100000352E+00 0.  1.
       -3    1    3    3    0  502  0.15351798753E+04  0.29346935940E+03 -0.33052116469E+03  0.15975436661E+04  0.10100000352E+00 0. -1.
</event>
<event>
 5   0  0.3445959E-06  0.2635242E+04  0.7818609E-02  0.8356328E-01
       -2   -1    0    0    0  501  0.00000000000E+00  0.00000000000E+00  0.78130941249E+03  0.78130941249E+03  0.25500000920E-02 0.  1.
        2   -1    0    0  501    0  0.00000000000E+00  0.00000000000E+00 -0.22220716864E+04  0.22220716864E+04  0.25500000920E-02 0. -1.
    10030    2    1    2    0    0  0.00000000000E+00  0.00000000000E+00 -0.14407622739E+04  0.30033810989E+04  0.26352423219E+04 0.  0.
        4    1    3    3  502    0  0.87896344811E+03 -0.67688494431E+03  0.89826454998E+02  0.11130230797E+04  0.12699999809E+01 0.  1.
       -4    1    3    3    0  502 -0.87896344811E+03  0.67688494431E+03 -0.15305887289E+04  0.18903580193E+04  0.12699999809E+01 0. -1.
</event>
<event>
 5   0  0.3340899E-06  0.3074303E+04  0.7818609E-02  0.8222826E-01
       -2   -1    0    0    0  501  0.00000000000E+00  0.00000000000E+00  0.32416597378E+04  0.32416597378E+04  0.25500000920E-02 0. -1.
        2   -1    0    0  501    0  0.00000000000E+00  0.00000000000E+00 -0.72889645172E+03  0.72889645172E+03  0.25500000920E-02 0.  1.
    10030    2    1    2    0    0  0.00000000000E+00  0.00000000000E+00  0.25127632860E+04  0.39705561895E+04  0.30743027050E+04 0.  0.
        3    1    3    3  502    0 -0.51641509109E+03 -0.11745495492E+04  0.16308505193E+03  0.12933862278E+04  0.10100000352E+00 0.  1.
       -3    1    3    3    0  502  0.51641509109E+03  0.11745495492E+04  0.23496782341E+04  0.26771699617E+04  0.10100000352E+00 0. -1.
</event>
<event>
 5   0  0.3445410E-06  0.3085186E+04  0.7818609E-02  0.8219815E-01
       -2   -1    0    0    0  501  0.00000000000E+00  0.00000000000E+00  0.13184629430E+04  0.13184629430E+04  0.25500000920E-02 0.  1.
        2   -1    0    0  501    0  0.00000000000E+00  0.00000000000E+00 -0.18048240016E+04  0.18048240016E+04  0.25500000920E-02 0. -1.
    10030    2    1    2    0    0  0.00000000000E+00  0.00000000000E+00 -0.48636105864E+03  0.31232869446E+04  0.30851862600E+04 0.  0.
        1    1    3    3  502    0 -0.36192308942E+03 -0.73872704075E+03 -0.15642434073E+04  0.17673605746E+04  0.50400001928E-02 0. -1.
       -1    1    3    3    0  502  0.36192308942E+03  0.73872704075E+03  0.10778823486E+04  0.13559263700E+04  0.50400001928E-02 0.  1.
</event>
<event>
 5   0  0.3340899E-06  0.3091638E+04  0.7818609E-02  0.8218036E-01
        2   -1    0    0  501    0  0.00000000000E+00  0.00000000000E+00  0.18801366501E+04  0.18801366501E+04  0.25500000920E-02 0. -1.
       -2   -1    0    0    0  501  0.00000000000E+00  0.00000000000E+00 -0.12709485848E+04  0.12709485848E+04  0.25500000920E-02 0.  1.
    10030    2    1    2    0    0  0.00000000000E+00  0.00000000000E+00  0.60918806528E+03  0.31510852349E+04  0.30916384101E+04 0.  0.
        3    1    3    3  502    0  0.55865939605E+03 -0.13099006803E+04  0.91750276754E+03  0.16940340763E+04  0.10100000352E+00 0. -1.
       -3    1    3    3    0  502 -0.55865939605E+03  0.13099006803E+04 -0.30831470226E+03  0.14570511586E+04  0.10100000352E+00 0.  1.
</event>
<event>
 5   0  0.3441897E-06  0.3106461E+04  0.7818609E-02  0.8213967E-01
       -2   -1    0    0    0  501  0.00000000000E+00  0.00000000000E+00  0.10144174943E+04  0.10144174943E+04  0.25500000920E-02 0.  1.
        2   -1    0    0  501    0  0.00000000000E+00  0.00000000000E+00 -0.23782367453E+04  0.23782367453E+04  0.25500000920E-02 0. -1.
    10030    2    1    2    0    0  0.00000000000E+00  0.00000000000E+00 -0.13638192510E+04  0.33926542396E+04  0.31064609831E+04 0.  0.
        5    1    3    3  502    0 -0.13712715928E+04 -0.59101438565E+03 -0.21494448314E+03  0.15086109525E+04  0.46999998093E+01 0.  1.
       -5    1    3    3    0  502  0.13712715928E+04  0.59101438565E+03 -0.11488747679E+04  0.18840432870E+04  0.46999998093E+01 0. -1.
</event>
<event>
 5   0  0.1211008E-06  0.3071486E+04  0.7818609E-02  0.8223607E-01
       -1   -1    0    0    0  501  0.00000000000E+00  0.00000000000E+00  0.11098632693E+04  0.11098632693E+04  0.50400001928E-02 0.  1.
        1   -1    0    0  501    0  0.00000000000E+00  0.00000000000E+00 -0.21250426640E+04  0.21250426640E+04  0.50400001928E-02 0. -1.
    10030    2    1    2    0    0  0.00000000000E+00  0.00000000000E+00 -0.10151793947E+04  0.32349059333E+04  0.30714861540E+04 0.  0.
        3    1    3    3  502    0  0.13196209974E+04  0.78124513797E+03 -0.59420421327E+03  0.16446343666E+04  0.10100000352E+00 0.  1.
       -3    1    3    3    0  502 -0.13196209974E+04 -0.78124513797E+03 -0.42097518141E+03  0.15902715668E+04  0.10100000352E+00 0. -1.
</event>
<event>
 5   0  0.1198763E-06  0.3181150E+04  0.7818609E-02  0.8193813E-01
       -1   -1    0    0    0  501  0.00000000000E+00  0.00000000000E+00  0.14860540961E+04  0.14860540961E+04  0.50400001928E-02 0. -1.
        1   -1    0    0  501    0  0.00000000000E+00  0.00000000000E+00 -0.17024474174E+04  0.17024474174E+04  0.50400001928E-02 0.  1.
    10030    2    1    2    0    0  0.00000000000E+00  0.00000000000E+00 -0.21639332124E+03  0.31885015135E+04  0.31811500801E+04 0.  0.
        1    1    3    3  502    0 -0.45682809351E+03 -0.15222731643E+04 -0.45430351600E+02  0.15899910097E+04  0.50400001928E-02 0.  1.
       -1    1    3    3    0  502  0.45682809351E+03  0.15222731643E+04 -0.17096296964E+03  0.15985105038E+04  0.50400001928E-02 0. -1.
</event>
<event>
 5   0  0.1211008E-06  0.3082851E+04  0.7818609E-02  0.8220460E-01
        1   -1    0    0  501    0  0.00000000000E+00  0.00000000000E+00  0.12832112703E+04  0.12832112703E+04  0.50400001928E-02 0. -1.
       -1   -1    0    0    0  501  0.00000000000E+00  0.00000000000E+00 -0.18515994218E+04  0.18515994218E+04  0.50400001928E-02 0.  1.
    10030    2    1    2    0    0  0.00000000000E+00  0.00000000000E+00 -0.56838815148E+03  0.31348106921E+04  0.30828514373E+04 0.  0.
        3    1    3    3  502    0 -0.12235079546E+04 -0.64483272178E+03 -0.97626205531E+03  0.16928876409E+04  0.10100000352E+00 0.  1.
       -3    1    3    3    0  502  0.12235079546E+04  0.64483272178E+03  0.40787390384E+03  0.14419230512E+04  0.10100000352E+00 0. -1.
</event>
<event>
 5   0  0.1198763E-06  0.3084092E+04  0.7818609E-02  0.8220117E-01
       -1   -1    0    0    0  501  0.00000000000E+00  0.00000000000E+00  0.13897516082E+04  0.13897516082E+04  0.50400001928E-02 0.  1.
        1   -1    0    0  501    0  0.00000000000E+00  0.00000000000E+00 -0.17110289034E+04  0.17110289035E+04  0.50400001928E-02 0. -1.
    10030    2    1    2    0    0  0.00000000000E+00  0.00000000000E+00 -0.32127729525E+03  0.31007805116E+04  0.30840915487E+04 0.  0.
        1    1    3    3  502    0 -0.11213763077E+04  0.90395887733E+03  0.39304884824E+03  0.14930217254E+04  0.50400001928E-02 0.  1.
       -1    1    3    3    0  502  0.11213763077E+04 -0.90395887733E+03 -0.71432614349E+03  0.16077587862E+04  0.50400001928E-02 0. -1.
</event>
<event>
 5   0  0.1235960E-06  0.3079330E+04  0.7818609E-02  0.8221434E-01
       -1   -1    0    0    0  501  0.00000000000E+00  0.00000000000E+00  0.17983141400E+04  0.17983141400E+04  0.50400001928E-02 0.  1.
        1   -1    0    0  501    0  0.00000000000E+00  0.00000000000E+00 -0.13182167501E+04  0.13182167501E+04  0.50400001928E-02 0. -1.
    10030    2    1    2    0    0  0.00000000000E+00  0.00000000000E+00  0.48009738995E+03  0.31165308901E+04  0.30793296811E+04 0.  0.
        4    1    3    3  502    0  0.78652533401E+02  0.12923348692E+04 -0.60323435537E+03  0.14283588259E+04  0.12699999809E+01 0. -1.
       -4    1    3    3    0  502 -0.78652533401E+02 -0.12923348692E+04  0.10833317453E+04  0.16881720642E+04  0.12699999809E+01 0.  1.
</event>
<event>
 5   0  0.3445959E-06  0.3105212E+04  0.7818609E-02  0.8214309E-01
       -2   -1    0    0    0  501  0.00000000000E+00  0.00000000000E+00  0.10155260093E+04  0.10155260093E+04  0.25500000920E-02 0.  1.
        2   -1    0    0  501    0  0.00000000000E+00  0.00000000000E+00 -0.23737310731E+04  0.23737310731E+04  0.25500000920E-02 0. -1.
    10030    2    1    2    0    0  0.00000000000E+00  0.00000000000E+00 -0.13582050638E+04  0.33892570823E+04  0.31052121626E+04 0.  0.
        4    1    3    3  502    0  0.11695338924E+04 -0.10179306919E+04 -0.59048716422E+03  0.16591169709E+04  0.12699999809E+01 0.  1.
       -4    1    3    3    0  502 -0.11695338924E+04  0.10179306919E+04 -0.76771789961E+03  0.17301401115E+04  0.12699999809E+01 0. -1.
</event>
<event>
 5   0  0.3441897E-06  0.3122309E+04  0.7818609E-02  0.8209642E-01
        2   -1    0    0  501    0  0.00000000000E+00  0.00000000000E+00  0.16183439504E+04  0.16183439504E+04  0.25500000920E-02 0.  1.
       -2   -1    0    0    0  501  0.00000000000E+00  0.00000000000E+00 -0.15059861101E+04  0.15059861101E+04  0.25500000920E-02 0. -1.
    10030    2    1    2    0    0  0.00000000000E+00  0.00000000000E+00  0.11235784036E+03  0.31243300605E+04  0.31223090882E+04 0.  0.
        5    1    3    3  502    0  0.13182131489E+04  0.64631585214E+03 -0.47498604054E+03  0.15430631598E+04  0.46999998093E+01 0. -1.
       -5    1    3    3    0  502 -0.13182131489E+04 -0.64631585214E+03  0.58734388090E+03  0.15812669006E+04  0.46999998093E+01 0.  1.
</event>
<event>
 5   0  0.1198763E-06  0.3075817E+04  0.7818609E-02  0.8222406E-01
        1   -1    0    0  501    0  0.00000000000E+00  0.00000000000E+00  0.31672482398E+04  0.31672482398E+04  0.50400001928E-02 0.  1.
       -1   -1    0    0    0  501  0.00000000000E+00  0.00000000000E+00 -0.74675626791E+03  0.74675626793E+03  0.50400001928E-02 0. -1.
    10030    2    1    2    0    0  0.00000000000E+00  0.00000000000E+00  0.24204919719E+04  0.39140045077E+04  0.30758169485E+04 0.  0.
        1    1    3    3  502    0  0.16863639467E+03  0.53685257352E+03  0.30315408249E+04  0.30833242925E+04  0.50400001928E-02 0.  1.
       -1    1    3    3    0  502 -0.16863639467E+03 -0.53685257352E+03 -0.61104885300E+03  0.83068021530E+03  0.50400001928E-02 0. -1.
</event>
<event>
 5   0  0.3340899E-06  0.3083655E+04  0.7818609E-02  0.8220238E-01
       -2   -1    0    0    0  501  0.00000000000E+00  0.00000000000E+00  0.16437236077E+04  0.16437236077E+04  0.25500000920E-02 0.  1.
        2   -1    0    0  501    0  0.00000000000E+00  0.00000000000E+00 -0.14462482056E+04  0.14462482056E+04  0.25500000920E-02 0. -1.
    10030    2    1    2    0    0  0.00000000000E+00  0.00000000000E+00  0.19747540215E+03  0.30899718133E+04  0.30836551805E+04 0.  0.
        3    1    3    3  502    0 -0.86655035279E+03 -0.22640244720E+03  0.13563243324E+04  0.16253563569E+04  0.10100000352E+00 0.  1.
       -3    1    3    3    0  502  0.86655035279E+03  0.22640244720E+03 -0.11588489302E+04  0.14646154564E+04  0.10100000352E+00 0. -1.
</event>
<event>
 5   0  0.3445410E-06  0.3111475E+04  0.7818609E-02  0.8212596E-01
       -2   -1    0    0    0  501  0.00000000000E+00  0.00000000000E+00  0.84701263266E+03  0.84701263266E+03  0.25500000920E-02 0. -1.
        2   -1    0    0  501    0  0.00000000000E+00  0.00000000000E+00 -0.28574766835E+04  0.28574766835E+04  0.25500000920E-02 0.  1.
    10030    2    1    2    0    0  0.00000000000E+00  0.00000000000E+00 -0.20104640509E+04  0.37044893162E+04  0.31114747940E+04 0.  0.
        1    1    3    3  502    0  0.50945285886E+03 -0.31655597891E+03 -0.27142854334E+04  0.27797653349E+04  0.50400001928E-02 0.  1.
       -1    1    3    3    0  502 -0.50945285886E+03  0.31655597891E+03  0.70382138248E+03  0.92472398133E+03  0.50400001928E-02 0. -1.
</event>
<event>
 5   0  0.3374790E-06  0.3138299E+04  0.7818609E-02  0.8205305E-01
       -2   -1    0    0    0  501  0.00000000000E+00  0.00000000000E+00  0.11045423447E+04  0.11045423447E+04  0.25500000920E-02 0. -1.
        2   -1    0    0  501    0  0.00000000000E+00  0.00000000000E+00 -0.22291859115E+04  0.22291859115E+04  0.25500000920E-02 0.  1.
    10030    2    1    2    0    0  0.00000000000E+00  0.00000000000E+00 -0.11246435668E+04  0.33337282562E+04  0.31382990510E+04 0.  0.
        2    1    3    3  502    0  0.27069573212E+03 -0.15445248471E+04 -0.62423550100E+03  0.16877509127E+04  0.25500000920E-02 0.  1.
       -2    1    3    3    0  502 -0.27069573212E+03  0.15445248471E+04 -0.50040806580E+03  0.16459773434E+04  0.25500000920E-02 0. -1.
</event>
<event>
 5   0  0.1171915E-06  0.3133802E+04  0.7818609E-02  0.8206522E-01
        1   -1    0    0  501    0  0.00000000000E+00  0.00000000000E+00  0.29891508694E+04  0.29891508694E+04  0.50400001928E-02 0.  1.
       -1   -1    0    0    0  501  0.00000000000E+00  0.00000000000E+00 -0.82136321241E+03  0.82136321243E+03  0.50400001928E-02 0. -1.
    10030    2    1    2    0    0  0.00000000000E+00  0.00000000000E+00  0.21677876570E+04  0.38105140819E+04  0.31338018830E+04 0.  0.
        2    1    3    3  502    0  0.27250959486E+03  0.13340822313E+04  0.20266523239E+04  0.24415889337E+04  0.25500000920E-02 0.  1.
       -2    1    3    3    0  502 -0.27250959486E+03 -0.13340822313E+04  0.14113533311E+03  0.13689251482E+04  0.25500000920E-02 0. -1.
</event>
<event>
 5   0  0.1235960E-06  0.2485649E+04  0.7818609E-02  0.8408116E-01
       -1   -1    0    0    0  501  0.00000000000E+00  0.00000000000E+00  0.13380894238E+04  0.13380894238E+04  0.50400001928E-02 0.  1.
        1   -1    0    0  501    0  0.00000000000E+00  0.00000000000E+00 -0.11543421630E+04  0.11543421630E+04  0.50400001928E-02 0. -1.
    10030    2    1    2    0    0  0.00000000000E+00  0.00000000000E+00  0.18374726082E+03  0.24924315869E+04  0.24856492430E+04 0.  0.
        4    1    3    3  502    0  0.64212193320E+03  0.10638797714E+04  0.70586433559E+02  0.12446464568E+04  0.12699999809E+01 0.  1.
       -4    1    3    3    0  502 -0.64212193320E+03 -0.10638797714E+04  0.11316082726E+03  0.12477851300E+04  0.12699999809E+01 0. -1.
</event>
<event>
 5   0  0.3441897E-06  0.3056412E+04  0.7818609E-02  0.8227803E-01
       -2   -1    0    0    0  501  0.00000000000E+00  0.00000000000E+00  0.16342675742E+04  0.16342675742E+04  0.25500000920E-02 0. -1.
        2   -1    0    0  501    0  0.00000000000E+00  0.00000000000E+00 -0.14290276056E+04  0.14290276056E+04  0.25500000920E-02 0.  1.
    10030    2    1    2    0    0  0.00000000000E+00  0.00000000000E+00  0.20523996856E+03  0.30632951798E+04  0.30564119346E+04 0.  0.
        5    1    3    3  502    0  0.60959231746E+03 -0.18327586686E+03 -0.12898247058E+04  0.14383541632E+04  0.46999998093E+01 0.  1.
       -5    1    3    3    0  502 -0.60959231746E+03  0.18327586686E+03  0.14950646744E+04  0.16249410166E+04  0.46999998093E+01 0. -1.
</event>
<event>
 5   0  0.1171915E-06  0.3152274E+04  0.7818609E-02  0.8201536E-01
       -1   -1    0    0    0  501  0.00000000000E+00  0.00000000000E+00  0.15387923326E+04  0.15387923326E+04  0.50400001928E-02 0. -1.
        1   -1    0    0  501    0  0.00000000000E+00  0.00000000000E+00 -0.16143878430E+04  0.16143878430E+04  0.50400001928E-02 0.  1.
    10030    2    1    2    0    0  0.00000000000E+00  0.00000000000E+00 -0.75595510429E+02  0.31531801756E+04  0.31522738679E+04 0.  0.
        2    1    3    3  502    0 -0.91020879202E+03  0.61189659353E+03 -0.11700729122E+04  0.16037356721E+04  0.25500000920E-02 0.  1.
       -2    1    3    3    0  502  0.91020879202E+03 -0.61189659353E+03  0.10944774018E+04  0.15494445034E+04  0.25500000920E-02 0. -1.
</event>
<event>
 5   0  0.1250276E-06  0.3089505E+04  0.7818609E-02  0.8218624E-01
       -1   -1    0    0    0  501  0.00000000000E+00  0.00000000000E+00  0.16133974040E+04  0.16133974040E+04  0.50400001928E-02 0. -1.
        1   -1    0    0  501    0  0.00000000000E+00  0.00000000000E+00 -0.14790277749E+04  0.14790277749E+04  0.50400001928E-02 0.  1.
    10030    2    1    2    0    0  0.00000000000E+00  0.00000000000E+00  0.13436962908E+03  0.30924251789E+04  0.30895045379E+04 0.  0.
        5    1    3    3  502    0 -0.97090425329E+03 -0.22177258143E+03 -0.11147783628E+04  0.14948548542E+04  0.46999998093E+01 0.  1.
       -5    1    3    3    0  502  0.97090425329E+03  0.22177258143E+03  0.12491479918E+04  0.15975703247E+04  0.46999998093E+01 0. -1.
</event>
<event>
 5   0  0.1235960E-06  0.3142734E+04  0.7818609E-02  0.8204107E-01
        1   -1    0    0  501    0  0.00000000000E+00  0.00000000000E+00  0.24412776573E+04  0.24412776573E+04  0.50400001928E-02 0.  1.
       -1   -1    0    0    0  501  0.00000000000E+00  0.00000000000E+00 -0.10114350222E+04  0.10114350222E+04  0.50400001928E-02 0. -1.
    10030    2    1    2    0    0  0.00000000000E+00  0.00000000000E+00  0.14298426351E+04  0.34527126794E+04  0.31427336645E+04 0.  0.
        4    1    3    3  502    0 -0.10722626965E+03 -0.12715883634E+04 -0.29244698376E+03  0.13091834440E+04  0.12699999809E+01 0. -1.
       -4    1    3    3    0  502  0.10722626965E+03  0.12715883634E+04  0.17222896188E+04  0.21435292354E+04  0.12699999809E+01 0.  1.
</event>
<event>
 5   0  0.1211008E-06  0.3139894E+04  0.7818609E-02  0.8204874E-01
        1   -1    0    0  501    0  0.00000000000E+00  0.00000000000E+00  0.79572702317E+03  0.79572702318E+03  0.50400001928E-02 0.  1.
       -1   -1    0    0    0  501  0.00000000000E+00  0.00000000000E+00 -0.30974608368E+04  0.30974608368E+04  0.50400001928E-02 0. -1.
    10030    2    1    2    0    0  0.00000000000E+00  0.00000000000E+00 -0.23017338136E+04  0.38931878600E+04  0.31398938142E+04 0.  0.
        3    1    3    3  502    0  0.65759349261E+03 -0.10814647897E+04 -0.23025416957E+04  0.26274880710E+04  0.10100000352E+00 0. -1.
       -3    1    3    3    0  502 -0.65759349261E+03  0.10814647897E+04  0.80788205021E+00  0.12656997890E+04  0.10100000352E+00 0.  1.
</event>
<event>
 5   0  0.1250276E-06  0.3087450E+04  0.7818609E-02  0.8219190E-01
        1   -1    0    0  501    0  0.00000000000E+00  0.00000000000E+00  0.19662663571E+04  0.19662663571E+04  0.50400001928E-02 0. -1.
       -1   -1    0    0    0  501  0.00000000000E+00  0.00000000000E+00 -0.12119861070E+04  0.12119861070E+04  0.50400001928E-02 0.  1.
    10030    2    1    2    0    0  0.00000000000E+00  0.00000000000E+00  0.75428025007E+03  0.31782524641E+04  0.30874504093E+04 0.  0.
        5    1    3    3  502    0  0.51434004604E+03  0.13250748609E+04  0.99709487633E+03  0.17362572829E+04  0.46999998093E+01 0. -1.
       -5    1    3    3    0  502 -0.51434004604E+03 -0.13250748609E+04 -0.24281462626E+03  0.14419951812E+04  0.46999998093E+01 0.  1.
</event>
<event>
 5   0  0.1198763E-06  0.3126548E+04  0.7818609E-02  0.8208490E-01
        1   -1    0    0  501    0  0.00000000000E+00  0.00000000000E+00  0.13916207343E+04  0.13916207343E+04  0.50400001928E-02 0.  1.
       -1   -1    0    0    0  501  0.00000000000E+00  0.00000000000E+00 -0.17560998219E+04  0.17560998219E+04  0.50400001928E-02 0. -1.
    10030    2    1    2    0    0  0.00000000000E+00  0.00000000000E+00 -0.36447908754E+03  0.31477205562E+04  0.31265475680E+04 0.  0.
        1    1    3    3  502    0 -0.52019808766E+03 -0.85256640995E+03 -0.13930265123E+04  0.17140590415E+04  0.50400001928E-02 0. -1.
       -1    1    3    3    0  502  0.52019808766E+03  0.85256640995E+03  0.10285474248E+04  0.14336615147E+04  0.50400001928E-02 0.  1.
</event>
<event>
 5   0  0.3445410E-06  0.3048675E+04  0.7818609E-02  0.8229966E-01
       -2   -1    0    0    0  501  0.00000000000E+00  0.00000000000E+00  0.13754544232E+04  0.13754544232E+04  0.25500000920E-02 0.  1.
        2   -1    0    0  501    0  0.00000000000E+00  0.00000000000E+00 -0.16893361051E+04  0.16893361051E+04  0.25500000920E-02 0. -1.
    10030    2    1    2    0    0  0.00000000000E+00  0.00000000000E+00 -0.31388168194E+03  0.30647905283E+04  0.30486750027E+04 0.  0.
        1    1    3    3  502    0 -0.71450262274E+03  0.10305395404E+04 -0.10281701930E+04  0.16216225480E+04  0.50400001928E-02 0. -1.
       -1    1    3    3    0  502  0.71450262274E+03 -0.10305395404E+04  0.71428851106E+03  0.14431679803E+04  0.50400001928E-02 0.  1.
</event>
<event>
 5   0  0.1198763E-06  0.3127545E+04  0.7818609E-02  0.8208219E-01
       -1   -1    0    0    0  501  0.00000000000E+00  0.00000000000E+00  0.16253883938E+04  0.16253883938E+04  0.50400001928E-02 0.  1.
        1   -1    0    0  501    0  0.00000000000E+00  0.00000000000E+00 -0.15044919826E+04  0.15044919826E+04  0.50400001928E-02 0. -1.
    10030    2    1    2    0    0  0.00000000000E+00  0.00000000000E+00  0.12089641124E+03  0.31298803764E+04  0.31275446006E+04 0.  0.
        1    1    3    3  502    0 -0.14780764725E+04  0.81914210802E+02  0.56477279651E+03  0.15844204960E+04  0.50400001928E-02 0. -1.
       -1    1    3    3    0  502  0.14780764725E+04 -0.81914210802E+02 -0.44387638527E+03  0.15454598804E+04  0.50400001928E-02 0.  1.
</event>
<event>
 5   0  0.3445959E-06  0.3103508E+04  0.7818609E-02  0.8214776E-01
       -2   -1    0    0    0  501  0.00000000000E+00  0.00000000000E+00  0.14451083774E+04  0.14451083774E+04  0.25500000920E-02 0.  1.
        2   -1    0    0  501    0  0.00000000000E+00  0.00000000000E+00 -0.16662700506E+04  0.16662700506E+04  0.25500000920E-02 0. -1.
    10030    2    1    2    0    0  0.00000000000E+00  0.00000000000E+00 -0.22116167319E+03  0.31113784280E+04  0.31035082144E+04 0.  0.
        4    1    3    3  502    0 -0.15398353415E+04  0.19103322752E+03 -0.91754951038E+02  0.15543510404E+04  0.12699999809E+01 0.  1.
       -4    1    3    3    0  502  0.15398353415E+04 -0.19103322752E+03 -0.12940672215E+03  0.15570273876E+04  0.12699999809E+01 0. -1.
</event>
<event>
 5   0  0.3441897E-06  0.3131748E+04  0.7818609E-02  0.8207079E-01
       -2   -1    0    0    0  501  0.00000000000E+00  0.00000000000E+00  0.78147497819E+03  0.78147497820E+03  0.25500000920E-02 0.  1.
        2   -1    0    0  501    0  0.00000000000E+00  0.00000000000E+00 -0.31376060418E+04  0.31376060418E+04  0.25500000920E-02 0. -1.
    10030    2    1    2    0    0  0.00000000000E+00  0.00000000000E+00 -0.23561310636E+04  0.39190810200E+04  0.31317475078E+04 0.  0.
        5    1    3    3  502    0  0.12793965949E+04  0.23919625572E+03 -0.88648165338E+02  0.13045884727E+04  0.46999998093E+01 0.  1.
       -5    1    3    3    0  502 -0.12793965949E+04 -0.23919625572E+03 -0.22674828982E+04  0.26144925473E+04  0.46999998093E+01 0. -1.
</event>
<event>
 5   0  0.1171915E-06  0.3115655E+04  0.7818609E-02  0.8211455E-01
       -1   -1    0    0    0  501  0.00000000000E+00  0.00000000000E+00  0.15881831132E+04  0.15881831132E+04  0.50400001928E-02 0.  1.
        1   -1    0    0  501    0  0.00000000000E+00  0.00000000000E+00 -0.15280522168E+04  0.15280522168E+04  0.50400001928E-02 0. -1.
    10030    2    1    2    0    0  0.00000000000E+00  0.00000000000E+00  0.60130896461E+02  0.31162353300E+04  0.31156551329E+04 0.  0.
        2    1    3    3  502    0 -0.69443426852E+03 -0.89772075729E+03  0.10973561053E+04  0.15787121122E+04  0.25500000920E-02 0.  1.
       -2    1    3    3    0  502  0.69443426852E+03  0.89772075729E+03 -0.10372252089E+04  0.15375232178E+04  0.25500000920E-02 0. -1.
</event>
<event>
 5   0  0.1198763E-06  0.2954304E+04  0.7818609E-02  0.8256901E-01
       -1   -1    0    0    0  501  0.00000000000E+00  0.00000000000E+00  0.87529705062E+03  0.87529705063E+03  0.50400001928E-02 0. -1.
        1   -1    0    0  501    0  0.00000000000E+00  0.00000000000E+00 -0.24928437331E+04  0.24928437331E+04  0.50400001928E-02 0.  1.
    10030    2    1    2    0    0  0.00000000000E+00  0.00000000000E+00 -0.16175466825E+04  0.33681407838E+04  0.29543044984E+04 0.  0.
        1    1    3    3  502    0 -0.11487170998E+03 -0.63052980024E+03 -0.23260706016E+04  0.24127510817E+04  0.50400001928E-02 0.  1.
       -1    1    3    3    0  502  0.11487170998E+03  0.63052980024E+03  0.70852391911E+03  0.95538970202E+03  0.50400001928E-02 0. -1.
</event>
<event>
 5   0  0.3374790E-06  0.2963215E+04  0.7818609E-02  0.8254314E-01
       -2   -1    0    0    0  501  0.00000000000E+00  0.00000000000E+00  0.11985773743E+04  0.11985773743E+04  0.25500000920E-02 0.  1.
        2   -1    0    0  501    0  0.00000000000E+00  0.00000000000E+00 -0.18314718924E+04  0.18314718924E+04  0.25500000920E-02 0. -1.
    10030    2    1    2    0    0  0.00000000000E+00  0.00000000000E+00 -0.63289451812E+03  0.30300492667E+04  0.29632149918E+04 0.  0.
        2    1    3    3  502    0 -0.31507708372E+03 -0.65990442198E+03 -0.16340807860E+04  0.17902422825E+04  0.25500000920E-02 0. -1.
       -2    1    3    3    0  502  0.31507708372E+03  0.65990442198E+03  0.10011862679E+04  0.12398069841E+04  0.25500000920E-02 0.  1.
</event>
<event>
 5   0  0.1211008E-06  0.3099771E+04  0.7818609E-02  0.8215801E-01
        1   -1    0    0  501    0  0.00000000000E+00  0.00000000000E+00  0.15847660691E+04  0.15847660691E+04  0.50400001928E-02 0.  1.
       -1   -1    0    0    0  501  0.00000000000E+00  0.00000000000E+00 -0.15157726524E+04  0.15157726524E+04  0.50400001928E-02 0. -1.
    10030    2    1    2    0    0  0.00000000000E+00  0.00000000000E+00  0.68993416769E+02  0.31005387215E+04  0.30997710032E+04 0.  0.
        3    1    3    3  502    0  0.12306804665E+03  0.45428778500E+03 -0.14425619236E+04  0.15174017429E+04  0.10100000352E+00 0. -1.
       -3    1    3    3    0  502 -0.12306804665E+03 -0.45428778500E+03  0.15115553404E+04  0.15831369786E+04  0.10100000352E+00 0.  1.
</event>
<event>
 5   0  0.1211008E-06  0.3001575E+04  0.7818609E-02  0.8243281E-01
       -1   -1    0    0    0  501  0.00000000000E+00  0.00000000000E+00  0.12120595520E+04  0.12120595520E+04  0.50400001928E-02 0.  1.
        1   -1    0    0  501    0  0.00000000000E+00  0.00000000000E+00 -0.18582939947E+04  0.18582939947E+04  0.50400001928E-02 0. -1.
    10030    2    1    2    0    0  0.00000000000E+00  0.00000000000E+00 -0.64623444275E+03  0.30703535467E+04  0.30015749111E+04 0.  0.
        3    1    3    3  502    0 -0.29410723350E+03 -0.37256262032E+03 -0.17794901907E+04  0.18417077184E+04  0.10100000352E+00 0. -1.
       -3    1    3    3    0  502  0.29410723350E+03  0.37256262032E+03  0.11332557480E+04  0.12286458283E+04  0.10100000352E+00 0.  1.
</event>
<event>
 5   0  0.3374790E-06  0.3080072E+04  0.7818609E-02  0.8221228E-01
       -2   -1    0    0    0  501  0.00000000000E+00  0.00000000000E+00  0.20265476857E+04  0.20265476857E+04  0.25500000920E-02 0.  1.
        2   -1    0    0  501    0  0.00000000000E+00  0.00000000000E+00 -0.11703208202E+04  0.11703208202E+04  0.25500000920E-02 0. -1.
    10030    2    1    2    0    0  0.00000000000E+00  0.00000000000E+00  0.85622686556E+03  0.31968685059E+04  0.30800720444E+04 0.  0.
        2    1    3    3  502    0 -0.78575044989E+03 -0.90410453974E+03 -0.57652784619E+03  0.13293581706E+04  0.25500000920E-02 0.  1.
       -2    1    3    3    0  502  0.78575044989E+03  0.90410453974E+03  0.14327547117E+04  0.18675103353E+04  0.25500000920E-02 0. -1.
</event>
<event>
 5   0  0.1250276E-06  0.3189799E+04  0.7818609E-02  0.8191516E-01
       -1   -1    0    0    0  501  0.00000000000E+00  0.00000000000E+00  0.13006708122E+04  0.13006708122E+04  0.50400001928E-02 0. -1.
        1   -1    0    0  501    0  0.00000000000E+00  0.00000000000E+00 -0.19556863589E+04  0.19556863589E+04  0.50400001928E-02 0.  1.
    10030    2    1    2    0    0  0.00000000000E+00  0.00000000000E+00 -0.65501554668E+03  0.32563571712E+04  0.31897988431E+04 0.  0.
        5    1    3    3  502    0 -0.12596130373E+04  0.77136745061E+03  0.28675275698E+03  0.15046202116E+04  0.46999998093E+01 0. -1.
       -5    1    3    3    0  502  0.12596130373E+04 -0.77136745061E+03 -0.94176830366E+03  0.17517369595E+04  0.46999998093E+01 0.  1.
</event>
<event>
 5   0  0.3340899E-06  0.3070304E+04  0.7818609E-02  0.8223935E-01
       -2   -1    0    0    0  501  0.00000000000E+00  0.00000000000E+00  0.11042097092E+04  0.11042097092E+04  0.25500000920E-02 0. -1.
        2   -1    0    0  501    0  0.00000000000E+00  0.00000000000E+00 -0.21342783862E+04  0.21342783862E+04  0.25500000920E-02 0.  1.
    10030    2    1    2    0    0  0.00000000000E+00  0.00000000000E+00 -0.10300686770E+04  0.32384880953E+04  0.30703035134E+04 0.  0.
        3    1    3    3  502    0 -0.13984099995E+04  0.50168092513E+03 -0.92280745071E+03  0.17489447901E+04  0.10100000352E+00 0.  1.
       -3    1    3    3    0  502  0.13984099995E+04 -0.50168092513E+03 -0.10726122631E+03  0.14895433053E+04  0.10100000352E+00 0. -1.
</event>
<event>
 5   0  0.3340899E-06  0.3079008E+04  0.7818609E-02  0.8221523E-01
        2   -1    0    0  501    0  0.00000000000E+00  0.00000000000E+00  0.20228850419E+04  0.20228850419E+04  0.25500000920E-02 0.  1.
       -2   -1    0    0    0  501  0.00000000000E+00  0.00000000000E+00 -0.11716299644E+04  0.11716299644E+04  0.25500000920E-02 0. -1.
    10030    2    1    2    0    0  0.00000000000E+00  0.00000000000E+00  0.85125507756E+03  0.31945150063E+04  0.30790081063E+04 0.  0.
        3    1    3    3  502    0 -0.94356381673E+03 -0.58041132290E+03 -0.68353434623E+03  0.13016947387E+04  0.10100000352E+00 0. -1.
       -3    1    3    3    0  502  0.94356381673E+03  0.58041132290E+03  0.15347894238E+04  0.18928202676E+04  0.10100000352E+00 0.  1.
</event>
<event>
 5   0  0.3374790E-06  0.3060806E+04  0.7818609E-02  0.8226577E-01
        2   -1    0    0  501    0  0.00000000000E+00  0.00000000000E+00  0.95825459560E+03  0.95825459560E+03  0.25500000920E-02 0.  1.
       -2   -1    0    0    0  501  0.00000000000E+00  0.00000000000E+00 -0.24441664587E+04  0.24441664587E+04  0.25500000920E-02 0. -1.
    10030    2    1    2    0    0  0.00000000000E+00  0.00000000000E+00 -0.14859118631E+04  0.34024210543E+04  0.30608062608E+04 0.  0.
        2    1    3    3  502    0 -0.78304754048E+03  0.76790495858E+02  0.71620811123E+03  0.10639616015E+04  0.25500000920E-02 0.  1.
       -2    1    3    3    0  502  0.78304754048E+03 -0.76790495858E+02 -0.22021199744E+04  0.23384594528E+04  0.25500000920E-02 0. -1.
</event>
<event>
 5   0  0.1235960E-06  0.3102998E+04  0.7818609E-02  0.8214916E-01
        1   -1    0    0  501    0  0.00000000000E+00  0.00000000000E+00  0.18010553554E+04  0.18010553554E+04  0.50400001928E-02 0.  1.
       -1   -1    0    0    0  501  0.00000000000E+00  0.00000000000E+00 -0.13365213744E+04  0.13365213744E+04  0.50400001928E-02 0. -1.
    10030    2    1    2    0    0  0.00000000000E+00  0.00000000000E+00  0.46453398096E+03  0.31375767298E+04  0.31029978917E+04 0.  0.
        4    1    3    3  502    0 -0.13548366519E+04 -0.32070596217E+02 -0.53148892622E+03  0.14557104685E+04  0.12699999809E+01 0. -1.
       -4    1    3    3    0  502  0.13548366519E+04  0.32070596217E+02  0.99602290719E+03  0.16818662613E+04  0.12699999809E+01 0.  1.
</event>
<event>
 5   0  0.3445410E-06  0.3115589E+04  0.7818609E-02  0.8211473E-01
       -2   -1    0    0    0  501  0.00000000000E+00  0.00000000000E+00  0.11061845560E+04  0.11061845560E+04  0.25500000920E-02 0.  1.
        2   -1    0    0  501    0  0.00000000000E+00  0.00000000000E+00 -0.21937784547E+04  0.21937784547E+04  0.25500000920E-02 0. -1.
    10030    2    1    2    0    0  0.00000000000E+00  0.00000000000E+00 -0.10875938988E+04  0.32999630107E+04  0.31155890909E+04 0.  0.
        1    1    3    3  502    0 -0.47691034212E+03  0.12810684933E+04 -0.13350984396E+04  0.19107767537E+04  0.50400001928E-02 0. -1.
       -1    1    3    3    0  502  0.47691034212E+03 -0.12810684933E+04  0.24750454080E+03  0.13891862570E+04  0.50400001928E-02 0.  1.
</event>
<event>
 5   0  0.3374790E-06  0.3104394E+04  0.7818609E-02  0.8214533E-01
        2   -1    0    0  501    0  0.00000000000E+00  0.00000000000E+00  0.25630935488E+04  0.25630935488E+04  0.25500000920E-02 0. -1.
       -2   -1    0    0    0  501  0.00000000000E+00  0.00000000000E+00 -0.94000297999E+03  0.94000297999E+03  0.25500000920E-02 0.  1.
    10030    2    1    2    0    0  0.00000000000E+00  0.00000000000E+00  0.16230905688E+04  0.35030965287E+04  0.31043940303E+04 0.  0.
        2    1    3    3  502    0  0.94814195557E+03  0.91609001581E+03  0.17359791295E+04  0.21798664232E+04  0.25500000920E-02 0. -1.
       -2    1    3    3    0  502 -0.94814195557E+03 -0.91609001581E+03 -0.11288856076E+03  0.13232301055E+04  0.25500000920E-02 0.  1.
</event>
<event>
 5   0  0.3445410E-06  0.3132130E+04  0.7818609E-02  0.8206975E-01
        2   -1    0    0  501    0  0.00000000000E+00  0.00000000000E+00  0.21626854440E+04  0.21626854440E+04  0.25500000920E-02 0. -1.
       -2   -1    0    0    0  501  0.00000000000E+00  0.00000000000E+00 -0.11340340092E+04  0.11340340092E+04  0.25500000920E-02 0.  1.
    10030    2    1    2    0    0  0.00000000000E+00  0.00000000000E+00  0.10286514348E+04  0.32967194532E+04  0.31321295278E+04 0.  0.
        1    1    3    3  502    0  0.87933534501E+03 -0.28744545754E+03  0.18443341333E+04  0.20633525960E+04  0.50400001928E-02 0. -1.
       -1    1    3    3    0  502 -0.87933534501E+03  0.28744545754E+03 -0.81568269843E+03  0.12333668573E+04  0.50400001928E-02 0.  1.
</event>
<event>
 5   0  0.3340899E-06  0.3105756E+04  0.7818609E-02  0.8214160E-01
       -2   -1    0    0    0  501  0.00000000000E+00  0.00000000000E+00  0.21350960431E+04  0.21350960431E+04  0.25500000920E-02 0. -1.
        2   -1    0    0  501    0  0.00000000000E+00  0.00000000000E+00 -0.11294245498E+04  0.11294245498E+04  0.25500000920E-02 0.  1.
    10030    2    1    2    0    0  0.00000000000E+00  0.00000000000E+00  0.10056714933E+04  0.32645205929E+04  0.31057558740E+04 0.  0.
        3    1    3    3  502    0 -0.10037494633E+04  0.44828178469E+03 -0.65002738504E+03  0.12771081220E+04  0.10100000352E+00 0.  1.
       -3    1    3    3    0  502  0.10037494633E+04 -0.44828178469E+03  0.16556988784E+04  0.19874124709E+04  0.10100000352E+00 0. -1.
</event>
<event>
 5   0  0.1171915E-06  0.3103024E+04  0.7818609E-02  0.8214908E-01
       -1   -1    0    0    0  501  0.00000000000E+00  0.00000000000E+00  0.93180520375E+03  0.93180520376E+03  0.50400001928E-02 0.  1.
        1   -1    0    0  501    0  0.00000000000E+00  0.00000000000E+00 -0.25833620532E+04  0.25833620532E+04  0.50400001928E-02 0. -1.
    10030    2    1    2    0    0  0.00000000000E+00  0.00000000000E+00 -0.16515568495E+04  0.35151672570E+04  0.31030244629E+04 0.  0.
        2    1    3    3  502    0 -0.72797915216E+03 -0.12626832458E+04 -0.22328490290E+03  0.14745096721E+04  0.25500000920E-02 0.  1.
       -2    1    3    3    0  502  0.72797915216E+03  0.12626832458E+04 -0.14282719466E+04  0.20406575849E+04  0.25500000920E-02 0. -1.
</event>
<event>
 5   0  0.3445410E-06  0.3069974E+04  0.7818609E-02  0.8224027E-01
        2   -1    0    0  501    0  0.00000000000E+00  0.00000000000E+00  0.15034118791E+04  0.15034118791E+04  0.25500000920E-02 0.  1.
       -2   -1    0    0    0  501  0.00000000000E+00  0.00000000000E+00 -0.15672249818E+04  0.15672249818E+04  0.25500000920E-02 0. -1.
    10030    2    1    2    0    0  0.00000000000E+00  0.00000000000E+00 -0.63813102754E+02  0.30706368609E+04  0.30699737164E+04 0.  0.
        1    1    3    3  502    0 -0.82444021116E+02 -0.90160187875E+02 -0.15623543152E+04  0.15671237610E+04  0.50400001928E-02 0. -1.
       -1    1    3    3    0  502  0.82444021116E+02  0.90160187875E+02  0.14985412125E+04  0.15035130999E+04  0.50400001928E-02 0.  1.
</event>
<event>
 5   0  0.3445959E-06  0.3050197E+04  0.7818609E-02  0.8229540E-01
        2   -1    0    0  501    0  0.00000000000E+00  0.00000000000E+00  0.17413305856E+04  0.17413305856E+04  0.25500000920E-02 0. -1.
       -2   -1    0    0    0  501  0.00000000000E+00  0.00000000000E+00 -0.13357170829E+04  0.13357170829E+04  0.25500000920E-02 0.  1.
    10030    2    1    2    0    0  0.00000000000E+00  0.00000000000E+00  0.40561350270E+03  0.30770476685E+04  0.30501967216E+04 0.  0.
        4    1    3    3  502    0 -0.31964484516E+03 -0.12238453402E+04  0.10623360249E+04  0.16518261671E+04  0.12699999809E+01 0. -1.
       -4    1    3    3    0  502  0.31964484516E+03  0.12238453402E+04 -0.65672252222E+03  0.14252215013E+04  0.12699999809E+01 0.  1.
</event>
<event>
 5   0  0.1198763E-06  0.3099309E+04  0.7818609E-02  0.8215928E-01
       -1   -1    0    0    0  501  0.00000000000E+00  0.00000000000E+00  0.16261819065E+04  0.16261819065E+04  0.50400001928E-02 0.  1.
        1   -1    0    0  501    0  0.00000000000E+00  0.00000000000E+00 -0.14767280770E+04  0.14767280770E+04  0.50400001928E-02 0. -1.
    10030    2    1    2    0    0  0.00000000000E+00  0.00000000000E+00  0.14945382948E+03  0.31029099835E+04  0.30993086194E+04 0.  0.
        1    1    3    3  502    0  0.70335245331E+03 -0.84329122160E+03 -0.10199711474E+04  0.14987280940E+04  0.50400001928E-02 0. -1.
       -1    1    3    3    0  502 -0.70335245331E+03  0.84329122160E+03  0.11694249769E+04  0.16041818895E+04  0.50400001928E-02 0.  1.
</event>
<event>
 5   0  0.1171915E-06  0.3115757E+04  0.7818609E-02  0.8211427E-01
        1   -1    0    0  501    0  0.00000000000E+00  0.00000000000E+00  0.13084755912E+04  0.13084755912E+04  0.50400001928E-02 0. -1.
       -1   -1    0    0    0  501  0.00000000000E+00  0.00000000000E+00 -0.18548192115E+04  0.18548192115E+04  0.50400001928E-02 0.  1.
    10030    2    1    2    0    0  0.00000000000E+00  0.00000000000E+00 -0.54634362038E+03  0.31632948027E+04  0.31157571563E+04 0.  0.
        2    1    3    3  502    0  0.90073275382E+02  0.47203735137E+03 -0.17776901838E+04  0.18414979896E+04  0.25500000920E-02 0.  1.
       -2    1    3    3    0  502 -0.90073275382E+02 -0.47203735137E+03  0.12313465634E+04  0.13217968131E+04  0.25500000920E-02 0. -1.
</event>
<event>
 5   0  0.1250276E-06  0.3100028E+04  0.7818609E-02  0.8215730E-01
        1   -1    0    0  501    0  0.00000000000E+00  0.00000000000E+00  0.21569218636E+04  0.21569218636E+04  0.50400001928E-02 0.  1.
       -1   -1    0    0    0  501  0.00000000000E+00  0.00000000000E+00 -0.11138756667E+04  0.11138756667E+04  0.50400001928E-02 0. -1.
    10030    2    1    2    0    0  0.00000000000E+00  0.00000000000E+00  0.10430461970E+04  0.32707975303E+04  0.31000275991E+04 0.  0.
        5    1    3    3  502    0 -0.12928747363E+04 -0.76465089843E+03  0.11795474381E+03  0.15067021908E+04  0.46999998093E+01 0. -1.
       -5    1    3    3    0  502  0.12928747363E+04  0.76465089843E+03  0.92509145318E+03  0.17640953395E+04  0.46999998093E+01 0.  1.
</event>
<event>
 5   0  0.1211008E-06  0.2650884E+04  0.7818609E-02  0.8351119E-01
       -1   -1    0    0    0  501  0.00000000000E+00  0.00000000000E+00  0.83678337630E+03  0.83678337632E+03  0.50400001928E-02 0. -1.
        1   -1    0    0  501    0  0.00000000000E+00  0.00000000000E+00 -0.20994646743E+04  0.20994646743E+04  0.50400001928E-02 0.  1.
    10030    2    1    2    0    0  0.00000000000E+00  0.00000000000E+00 -0.12626812980E+04  0.29362480506E+04  0.26508844853E+04 0.  0.
        3    1    3    3  502    0  0.47612186087E+03  0.10178080605E+04 -0.14099882343E+04  0.18029675831E+04  0.10100000352E+00 0.  1.
       -3    1    3    3    0  502 -0.47612186087E+03 -0.10178080605E+04  0.14730693634E+03  0.11332804675E+04  0.10100000352E+00 0. -1.
</event>
<event>
 5   0  0.3445959E-06  0.3075373E+04  0.7818609E-02  0.8222529E-01
        2   -1    0    0  501    0  0.00000000000E+00  0.00000000000E+00  0.23805854576E+04  0.23805854576E+04  0.25500000920E-02 0. -1.
       -2   -1    0    0    0  501  0.00000000000E+00  0.00000000000E+00 -0.99323454206E+03  0.99323454206E+03  0.25500000920E-02 0.  1.
    10030    2    1    2    0    0  0.00000000000E+00  0.00000000000E+00  0.13873509155E+04  0.33738199996E+04  0.30753729574E+04 0.  0.
        4    1    3    3  502    0  0.12216157524E+03  0.98729666295E+03 -0.59262928183E+03  0.11579677153E+04  0.12699999809E+01 0.  1.
       -4    1    3    3    0  502 -0.12216157524E+03 -0.98729666295E+03  0.19799801974E+04  0.22158522843E+04  0.12699999809E+01 0. -1.
</event>
<event>
 5   0  0.1198763E-06  0.3128757E+04  0.7818609E-02  0.8207890E-01
       -1   -1    0    0    0  501  0.00000000000E+00  0.00000000000E+00  0.13371613347E+04  0.13371613347E+04  0.50400001928E-02 0.  1.
        1   -1    0    0  501    0  0.00000000000E+00  0.00000000000E+00 -0.18302052713E+04  0.18302052713E+04  0.50400001928E-02 0. -1.
    10030    2    1    2    0    0  0.00000000000E+00  0.00000000000E+00 -0.49304393657E+03  0.31673666061E+04  0.31287567649E+04 0.  0.
        1    1    3    3  502    0  0.13226106987E+03  0.14826209815E+04 -0.73373198533E+03  0.16595242064E+04  0.50400001928E-02 0. -1.
       -1    1    3    3    0  502 -0.13226106987E+03 -0.14826209815E+04  0.24068804876E+03  0.15078423996E+04  0.50400001928E-02 0.  1.
</event>
<event>
 5   0  0.3441897E-06  0.3109800E+04  0.7818609E-02  0.8213053E-01
        2   -1    0    0  501    0  0.00000000000E+00  0.00000000000E+00  0.19458498640E+04  0.19458498640E+04  0.25500000920E-02 0.  1.
       -2   -1    0    0    0  501  0.00000000000E+00  0.00000000000E+00 -0.12424980061E+04  0.12424980061E+04  0.25500000920E-02 0. -1.
    10030    2    1    2    0    0  0.00000000000E+00  0.00000000000E+00  0.70335185788E+03  0.31883478701E+04  0.31098003642E+04 0.  0.
        5    1    3    3  502    0 -0.35409294898E+03 -0.58704888737E+03  0.17825205278E+04  0.19098192937E+04  0.46999998093E+01 0.  1.
       -5    1    3    3    0  502  0.35409294898E+03  0.58704888737E+03 -0.10791686699E+04  0.12785285764E+04  0.46999998093E+01 0. -1.
</event>
<event>
 5   0  0.3441897E-06  0.3305796E+04  0.7818609E-02  0.8161422E-01
        2   -1    0    0  501    0  0.00000000000E+00  0.00000000000E+00  0.18938283288E+04  0.18938283288E+04  0.25500000920E-02 0.  1.
       -2   -1    0    0    0  501  0.00000000000E+00  0.00000000000E+00 -0.14426184978E+04  0.14426184978E+04  0.25500000920E-02 0. -1.
    10030    2    1    2    0    0  0.00000000000E+00  0.00000000000E+00  0.45120983107E+03  0.33364468266E+04  0.33057959881E+04 0.  0.
        5    1    3    3  502    0  0.47364537025E+03  0.11813077104E+04  0.12900024747E+04  0.18121689541E+04  0.46999998093E+01 0.  1.
       -5    1    3    3    0  502 -0.47364537025E+03 -0.11813077104E+04 -0.83879264368E+03  0.15242778725E+04  0.46999998093E+01 0. -1.
</event>
<event>
 5   0  0.3441897E-06  0.3149077E+04  0.7818609E-02  0.8202397E-01
       -2   -1    0    0    0  501  0.00000000000E+00  0.00000000000E+00  0.94760462445E+03  0.94760462445E+03  0.25500000920E-02 0.  1.
        2   -1    0    0  501    0  0.00000000000E+00  0.00000000000E+00 -0.26162507352E+04  0.26162507352E+04  0.25500000920E-02 0. -1.
    10030    2    1    2    0    0  0.00000000000E+00  0.00000000000E+00 -0.16686461108E+04  0.35638553597E+04  0.31490768777E+04 0.  0.
        5    1    3    3  502    0  0.60738386142E+03 -0.45040521154E+03 -0.23973058195E+04  0.25137377135E+04  0.46999998093E+01 0. -1.
       -5    1    3    3    0  502 -0.60738386142E+03  0.45040521154E+03  0.72865970877E+03  0.10501176462E+04  0.46999998093E+01 0.  1.
</event>
<event>
 5   0  0.3374790E-06  0.3081524E+04  0.7818609E-02  0.8220827E-01
       -2   -1    0    0    0  501  0.00000000000E+00  0.00000000000E+00  0.13544810805E+04  0.13544810805E+04  0.25500000920E-02 0. -1.
        2   -1    0    0  501    0  0.00000000000E+00  0.00000000000E+00 -0.17526617409E+04  0.17526617409E+04  0.25500000920E-02 0.  1.
    10030    2    1    2    0    0  0.00000000000E+00  0.00000000000E+00 -0.39818066042E+03  0.31071428213E+04  0.30815237584E+04 0.  0.
        2    1    3    3  502    0 -0.72570204912E+03 -0.11878707103E+04  0.46690597184E+03  0.14682239186E+04  0.25500000920E-02 0.  1.
       -2    1    3    3    0  502  0.72570204912E+03  0.11878707103E+04 -0.86508663226E+03  0.16389189028E+04  0.25500000920E-02 0. -1.
</event>
<event>
 5   0  0.1235960E-06  0.3139354E+04  0.7818609E-02  0.8205020E-01
        1   -1    0    0  501    0  0.00000000000E+00  0.00000000000E+00  0.14086619349E+04  0.14086619349E+04  0.50400001928E-02 0.  1.
       -1   -1    0    0    0  501  0.00000000000E+00  0.00000000000E+00 -0.17490967029E+04  0.17490967029E+04  0.50400001928E-02 0. -1.
    10030    2    1    2    0    0  0.00000000000E+00  0.00000000000E+00 -0.34043476802E+03  0.31577586378E+04  0.31393540392E+04 0.  0.
        4    1    3    3  502    0 -0.95643404057E+03  0.52567292509E+03 -0.13050096594E+04  0.17012201275E+04  0.12699999809E+01 0. -1.
       -4    1    3    3    0  502  0.95643404057E+03 -0.52567292509E+03  0.96457489140E+03  0.14565385104E+04  0.12699999809E+01 0.  1.
</event>
<event>
 5   0  0.3445410E-06  0.3081961E+04  0.7818609E-02  0.8220706E-01
        2   -1    0    0  501    0  0.00000000000E+00  0.00000000000E+00  0.20243344807E+04  0.20243344807E+04  0.25500000920E-02 0. -1.
       -2   -1    0    0    0  501  0.00000000000E+00  0.00000000000E+00 -0.11730378770E+04  0.11730378770E+04  0.25500000920E-02 0.  1.
    10030    2    1    2    0    0  0.00000000000E+00  0.00000000000E+00  0.85129660375E+03  0.31973723577E+04  0.30819610780E+04 0.  0.
        1    1    3    3  502    0 -0.13596737597E+04 -0.71822160516E+02  0.11743014407E+04  0.17980141905E+04  0.50400001928E-02 0. -1.
       -1    1    3    3    0  502  0.13596737597E+04  0.71822160516E+02 -0.32300483697E+03  0.13993581672E+04  0.50400001928E-02 0.  1.
</event>
<event>
 5   0  0.3441897E-06  0.3094607E+04  0.7818609E-02  0.8217220E-01
       -2   -1    0    0    0  501  0.00000000000E+00  0.00000000000E+00  0.11289778698E+04  0.11289778698E+04  0.25500000920E-02 0.  1.
        2   -1    0    0  501    0  0.00000000000E+00  0.00000000000E+00 -0.21206331565E+04  0.21206331565E+04  0.25500000920E-02 0. -1.
    10030    2    1    2    0    0  0.00000000000E+00  0.00000000000E+00 -0.99165528667E+03  0.32496110263E+04  0.30946068595E+04 0.  0.
        5    1    3    3  502    0 -0.12673149834E+04  0.31369729465E+03 -0.13678643636E+04  0.18909173083E+04  0.46999998093E+01 0.  1.
       -5    1    3    3    0  502  0.12673149834E+04 -0.31369729465E+03  0.37620907695E+03  0.13586937180E+04  0.46999998093E+01 0. -1.
</event>
<event>
 5   0  0.3445959E-06  0.3078834E+04  0.7818609E-02  0.8221571E-01
        2   -1    0    0  501    0  0.00000000000E+00  0.00000000000E+00  0.23095289230E+04  0.23095289230E+04  0.25500000920E-02 0.  1.
       -2   -1    0    0    0  501  0.00000000000E+00  0.00000000000E+00 -0.10260988871E+04  0.10260988871E+04  0.25500000920E-02 0. -1.
    10030    2    1    2    0    0  0.00000000000E+00  0.00000000000E+00  0.12834300359E+04  0.33356278101E+04  0.30788342323E+04 0.  0.
        4    1    3    3  502    0  0.14984027046E+04 -0.44243575406E+02  0.10211164824E+04  0.18137939912E+04  0.12699999809E+01 0. -1.
       -4    1    3    3    0  502 -0.14984027046E+04  0.44243575406E+02  0.26231355356E+03  0.15218338189E+04  0.12699999809E+01 0.  1.
</event>
<event>
 5   0  0.3340899E-06  0.3130855E+04  0.7818609E-02  0.8207321E-01
        2   -1    0    0  501    0  0.00000000000E+00  0.00000000000E+00  0.12349494475E+04  0.12349494475E+04  0.25500000920E-02 0.  1.
       -2   -1    0    0    0  501  0.00000000000E+00  0.00000000000E+00 -0.19843428511E+04  0.19843428511E+04  0.25500000920E-02 0. -1.
    10030    2    1    2    0    0  0.00000000000E+00  0.00000000000E+00 -0.74939340360E+03  0.32192922986E+04  0.31308549040E+04 0.  0.
        3    1    3    3  502    0  0.85741210016E+03 -0.30132448035E+03 -0.16853027976E+04  0.19147316997E+04  0.10100000352E+00 0. -1.
       -3    1    3    3    0  502 -0.85741210016E+03  0.30132448035E+03  0.93590939405E+03  0.13045605988E+04  0.10100000352E+00 0.  1.
</event>
<event>
 5   0  0.3441897E-06  0.3147586E+04  0.7818609E-02  0.8202798E-01
       -2   -1    0    0    0  501  0.00000000000E+00  0.00000000000E+00  0.94953029382E+03  0.94953029382E+03  0.25500000920E-02 0. -1.
        2   -1    0    0  501    0  0.00000000000E+00  0.00000000000E+00 -0.26084733761E+04  0.26084733761E+04  0.25500000920E-02 0.  1.
    10030    2    1    2    0    0  0.00000000000E+00  0.00000000000E+00 -0.16589430823E+04  0.35580036700E+04  0.31475860536E+04 0.  0.
        5    1    3    3  502    0 -0.11225357403E+04  0.54620451478E+03 -0.19127476627E+04  0.22840865945E+04  0.46999998093E+01 0.  1.
       -5    1    3    3    0  502  0.11225357403E+04 -0.54620451478E+03  0.25380458037E+03  0.12739170755E+04  0.46999998093E+01 0. -1.
</event>
<event>
 5   0  0.1235960E-06  0.3045195E+04  0.7818609E-02  0.8230942E-01
       -1   -1    0    0    0  501  0.00000000000E+00  0.00000000000E+00  0.12495969647E+04  0.12495969647E+04  0.50400001928E-02 0. -1.
        1   -1    0    0  501    0  0.00000000000E+00  0.00000000000E+00 -0.18552406918E+04  0.18552406918E+04  0.50400001928E-02 0.  1.
    10030    2    1    2    0    0  0.00000000000E+00  0.00000000000E+00 -0.60564372716E+03  0.31048376565E+04  0.30451949936E+04 0.  0.
        4    1    3    3  502    0 -0.68252366592E+03  0.12167465748E+04 -0.92467790227E+03  0.16737208900E+04  0.12699999809E+01 0.  1.
       -4    1    3    3    0  502  0.68252366592E+03 -0.12167465748E+04  0.31903417511E+03  0.14311167666E+04  0.12699999809E+01 0. -1.
</event>
<event>
 5   0  0.1211008E-06  0.3080795E+04  0.7818609E-02  0.8221028E-01
        1   -1    0    0  501    0  0.00000000000E+00  0.00000000000E+00  0.12473265756E+04  0.12473265756E+04  0.50400001928E-02 0.  1.
       -1   -1    0    0    0  501  0.00000000000E+00  0.00000000000E+00 -0.19023285814E+04  0.19023285814E+04  0.50400001928E-02 0. -1.
    10030    2    1    2    0    0  0.00000000000E+00  0.00000000000E+00 -0.65500200582E+03  0.31496551570E+04  0.30807953487E+04 0.  0.
        3    1    3    3  502    0  0.32235952392E+03  0.30738705299E+03  0.11800503895E+04  0.12613173253E+04  0.10100000352E+00 0.  1.
       -3    1    3    3    0  502 -0.32235952392E+03 -0.30738705299E+03 -0.18350523953E+04  0.18883378318E+04  0.10100000352E+00 0. -1.
</event>
<event>
 5   0  0.1250276E-06  0.3089700E+04  0.7818609E-02  0.8218570E-01
       -1   -1    0    0    0  501  0.00000000000E+00  0.00000000000E+00  0.13665107828E+04  0.13665107828E+04  0.50400001928E-02 0. -1.
        1   -1    0    0  501    0  0.00000000000E+00  0.00000000000E+00 -0.17464637531E+04  0.17464637531E+04  0.50400001928E-02 0.  1.
    10030    2    1    2    0    0  0.00000000000E+00  0.00000000000E+00 -0.37995297031E+03  0.31129745359E+04  0.30897000181E+04 0.  0.
        5    1    3    3  502    0  0.95733869494E+03  0.91749236265E+03 -0.98856939284E+03  0.16539592337E+04  0.46999998093E+01 0.  1.
       -5    1    3    3    0  502 -0.95733869494E+03 -0.91749236265E+03  0.60861642254E+03  0.14590153022E+04  0.46999998093E+01 0. -1.
</event>
<event>
 5   0  0.3445410E-06  0.3103533E+04  0.7818609E-02  0.8214769E-01
       -2   -1    0    0    0  501  0.00000000000E+00  0.00000000000E+00  0.14097433572E+04  0.14097433572E+04  0.25500000920E-02 0.  1.
        2   -1    0    0  501    0  0.00000000000E+00  0.00000000000E+00 -0.17080973999E+04  0.17080973999E+04  0.25500000920E-02 0. -1.
    10030    2    1    2    0    0  0.00000000000E+00  0.00000000000E+00 -0.29835404268E+03  0.31178407571E+04  0.31035328018E+04 0.  0.
        1    1    3    3  502    0  0.82303884369E+03  0.91493001769E+03  0.80042628134E+03  0.14680504444E+04  0.50400001928E-02 0.  1.
       -1    1    3    3    0  502 -0.82303884369E+03 -0.91493001769E+03 -0.10987803240E+04  0.16497903127E+04  0.50400001928E-02 0. -1.
</event>
<event>
 5   0  0.3441897E-06  0.3105849E+04  0.7818609E-02  0.8214135E-01
       -2   -1    0    0    0  501  0.00000000000E+00  0.00000000000E+00  0.19551195274E+04  0.19551195274E+04  0.25500000920E-02 0.  1.
        2   -1    0    0  501    0  0.00000000000E+00  0.00000000000E+00 -0.12334663727E+04  0.12334663727E+04  0.25500000920E-02 0. -1.
    10030    2    1    2    0    0  0.00000000000E+00  0.00000000000E+00  0.72165315471E+03  0.31885859001E+04  0.31058487997E+04 0.  0.
        5    1    3    3  502    0  0.11169985257E+04  0.97727474332E+03 -0.10829299120E+03  0.14881199859E+04  0.46999998093E+01 0. -1.
       -5    1    3    3    0  502 -0.11169985257E+04 -0.97727474332E+03  0.82994614591E+03  0.17004659142E+04  0.46999998093E+01 0.  1.
</event>
<event>
 5   0  0.1250276E-06  0.2967639E+04  0.7818609E-02  0.8253032E-01
        1   -1    0    0  501    0  0.00000000000E+00  0.00000000000E+00  0.15534413228E+04  0.15534413228E+04  0.50400001928E-02 0. -1.
       -1   -1    0    0    0  501  0.00000000000E+00  0.00000000000E+00 -0.14173182633E+04  0.14173182633E+04  0.50400001928E-02 0.  1.
    10030    2    1    2    0    0  0.00000000000E+00  0.00000000000E+00  0.13612305953E+03  0.29707595862E+04  0.29676393028E+04 0.  0.
        5    1    3    3  502    0  0.11929401047E+03 -0.10231739469E+04 -0.10010420397E+04  0.14363924400E+04  0.46999998093E+01 0.  1.
       -5    1    3    3    0  502 -0.11929401047E+03  0.10231739469E+04  0.11371650992E+04  0.15343671462E+04  0.46999998093E+01 0. -1.
</event>
<event>
 5   0  0.1198763E-06  0.3068758E+04  0.7818609E-02  0.8224365E-01
       -1   -1    0    0    0  501  0.00000000000E+00  0.00000000000E+00  0.23607003249E+04  0.23607003249E+04  0.50400001928E-02 0.  1.
        1   -1    0    0  501    0  0.00000000000E+00  0.00000000000E+00 -0.99729697357E+03  0.99729697358E+03  0.50400001928E-02 0. -1.
    10030    2    1    2    0    0  0.00000000000E+00  0.00000000000E+00  0.13634033513E+04  0.33579972985E+04  0.30687582437E+04 0.  0.
        1    1    3    3  502    0  0.82120538271E+03 -0.10514444321E+04  0.15110309670E+04  0.20157202826E+04  0.50400001928E-02 0.  1.
       -1    1    3    3    0  502 -0.82120538271E+03  0.10514444321E+04 -0.14762761570E+03  0.13422770159E+04  0.50400001928E-02 0. -1.
</event>
<event>
 5   0  0.3445959E-06  0.3121841E+04  0.7818609E-02  0.8209769E-01
        2   -1    0    0  501    0  0.00000000000E+00  0.00000000000E+00  0.23431203589E+04  0.23431203589E+04  0.25500000920E-02 0.  1.
       -2   -1    0    0    0  501  0.00000000000E+00  0.00000000000E+00 -0.10398412502E+04  0.10398412502E+04  0.25500000920E-02 0. -1.
    10030    2    1    2    0    0  0.00000000000E+00  0.00000000000E+00  0.13032791088E+04  0.33829616091E+04  0.31218412537E+04 0.  0.
        4    1    3    3  502    0 -0.47467937119E+03  0.69817586281E+03  0.20743525220E+04  0.22395780941E+04  0.12699999809E+01 0.  1.
       -4    1    3    3    0  502  0.47467937119E+03 -0.69817586281E+03 -0.77107341328E+03  0.11433835150E+04  0.12699999809E+01 0. -1.
</event>
<event>
 5   0  0.1198763E-06  0.3007902E+04  0.7818609E-02  0.8241478E-01
        1   -1    0    0  501    0  0.00000000000E+00  0.00000000000E+00  0.28153825823E+04  0.28153825823E+04  0.50400001928E-02 0. -1.
       -1   -1    0    0    0  501  0.00000000000E+00  0.00000000000E+00 -0.80339662100E+03  0.80339662101E+03  0.50400001928E-02 0.  1.
    10030    2    1    2    0    0  0.00000000000E+00  0.00000000000E+00  0.20119859613E+04  0.36187792033E+04  0.30079021616E+04 0.  0.
        1    1    3    3  502    0 -0.14344872546E+04  0.18713983319E+03  0.15007161949E+04  0.20844481521E+04  0.50400001928E-02 0. -1.
       -1    1    3    3    0  502  0.14344872546E+04 -0.18713983319E+03  0.51126976638E+03  0.15343310513E+04  0.50400001928E-02 0.  1.
</event>
<event>
 5   0  0.3445959E-06  0.3109274E+04  0.7818609E-02  0.8213197E-01
       -2   -1    0    0    0  501  0.00000000000E+00  0.00000000000E+00  0.19506394970E+04  0.19506394970E+04  0.25500000920E-02 0.  1.
        2   -1    0    0  501    0  0.00000000000E+00  0.00000000000E+00 -0.12390279869E+04  0.12390279869E+04  0.25500000920E-02 0. -1.
    10030    2    1    2    0    0  0.00000000000E+00  0.00000000000E+00  0.71161151013E+03  0.31896674839E+04  0.31092744679E+04 0.  0.
        4    1    3    3  502    0 -0.60852474666E+03 -0.81221556287E+03 -0.85231053731E+03  0.13253042491E+04  0.12699999809E+01 0. -1.
       -4    1    3    3    0  502  0.60852474666E+03  0.81221556287E+03  0.15639220474E+04  0.18643632348E+04  0.12699999809E+01 0.  1.
</event>
<event>
 5   0  0.3445410E-06  0.3119323E+04  0.7818609E-02  0.8210455E-01
        2   -1    0    0  501    0  0.00000000000E+00  0.00000000000E+00  0.13375248569E+04  0.13375248569E+04  0.25500000920E-02 0.  1.
       -2   -1    0    0    0  501  0.00000000000E+00  0.00000000000E+00 -0.18186901803E+04  0.18186901803E+04  0.25500000920E-02 0. -1.
    10030    2    1    2    0    0  0.00000000000E+00  0.00000000000E+00 -0.48116532346E+03  0.31562150372E+04  0.31193225695E+04 0.  0.
        1    1    3    3  502    0 -0.11326673864E+04 -0.88508515074E+02  0.84059335084E+03  0.14132821186E+04  0.50400001928E-02 0.  1.
       -1    1    3    3    0  502  0.11326673864E+04  0.88508515074E+02 -0.13217586743E+04  0.17429329185E+04  0.50400001928E-02 0. -1.
</event>
<event>
 5   0  0.1171915E-06  0.3073270E+04  0.7818609E-02  0.8223112E-01
       -1   -1    0    0    0  501  0.00000000000E+00  0.00000000000E+00  0.15579607361E+04  0.15579607361E+04  0.50400001928E-02 0. -1.
        1   -1    0    0  501    0  0.00000000000E+00  0.00000000000E+00 -0.15156012258E+04  0.15156012258E+04  0.50400001928E-02 0.  1.
    10030    2    1    2    0    0  0.00000000000E+00  0.00000000000E+00  0.42359510307E+02  0.30735619620E+04  0.30732700509E+04 0.  0.
        2    1    3    3  502    0 -0.16987116251E+03  0.76780728442E+03 -0.12991209935E+04  0.15185847338E+04  0.25500000920E-02 0.  1.
       -2    1    3    3    0  502  0.16987116251E+03 -0.76780728442E+03  0.13414805039E+04  0.15549772282E+04  0.25500000920E-02 0. -1.
</event>
<event>
 5   0  0.1198763E-06  0.3219507E+04  0.7818609E-02  0.8183684E-01
        1   -1    0    0  501    0  0.00000000000E+00  0.00000000000E+00  0.20583810723E+04  0.20583810723E+04  0.50400001928E-02 0.  1.
       -1   -1    0    0    0  501  0.00000000000E+00  0.00000000000E+00 -0.12589052259E+04  0.12589052259E+04  0.50400001928E-02 0. -1.
    10030    2    1    2    0    0  0.00000000000E+00  0.00000000000E+00  0.79947584634E+03  0.33172862982E+04  0.32195072224E+04 0.  0.
        1    1    3    3  502    0  0.20752992695E+03 -0.59133381270E+03 -0.11280495454E+04  0.12904418334E+04  0.50400001928E-02 0. -1.
       -1    1    3    3    0  502 -0.20752992695E+03  0.59133381270E+03  0.19275253917E+04  0.20268444648E+04  0.50400001928E-02 0.  1.
</event>
<event>
 5   0  0.1109562E-06  0.3068715E+04  0.7818609E-02  0.8224377E-01
        3   -1    0    0  501    0  0.00000000000E+00  0.00000000000E+00  0.15089247775E+04  0.15089247808E+04  0.10100000352E+00 0.  1.
       -3   -1    0    0    0  501  0.00000000000E+00  0.00000000000E+00 -0.15602187719E+04  0.15602187751E+04  0.10100000352E+00 0. -1.
    10030    2    1    2    0    0  0.00000000000E+00  0.00000000000E+00 -0.51293994418E+02  0.30691435560E+04  0.30687148928E+04 0.  0.
        3    1    3    3  502    0 -0.78705039448E+03 -0.90068957119E+03 -0.98680295524E+03  0.15506353890E+04  0.10100000352E+00 0. -1.
       -3    1    3    3    0  502  0.78705039448E+03  0.90068957119E+03  0.93550896082E+03  0.15185081669E+04  0.10100000352E+00 0.  1.
</event>
<event>
 5   0  0.3445959E-06  0.3078149E+04  0.7818609E-02  0.8221760E-01
       -2   -1    0    0    0  501  0.00000000000E+00  0.00000000000E+00  0.17443383259E+04  0.17443383260E+04  0.25500000920E-02 0.  1.
        2   -1    0    0  501    0  0.00000000000E+00  0.00000000000E+00 -0.13579648649E+04  0.13579648649E+04  0.25500000920E-02 0. -1.
    10030    2    1    2    0    0  0.00000000000E+00  0.00000000000E+00  0.38637346108E+03  0.31023031908E+04  0.30781488977E+04 0.  0.
        4    1    3    3  502    0  0.11737083489E+04  0.30122198909E+03 -0.76316533938E+03  0.14320436177E+04  0.12699999809E+01 0. -1.
       -4    1    3    3    0  502 -0.11737083489E+04 -0.30122198909E+03  0.11495388005E+04  0.16702595731E+04  0.12699999809E+01 0.  1.
</event>
<event>
 5   0  0.1235960E-06  0.3149943E+04  0.7818609E-02  0.8202164E-01
       -1   -1    0    0    0  501  0.00000000000E+00  0.00000000000E+00  0.13350301926E+04  0.13350301926E+04  0.50400001928E-02 0. -1.
        1   -1    0    0  501    0  0.00000000000E+00  0.00000000000E+00 -0.18580370773E+04  0.18580370773E+04  0.50400001928E-02 0.  1.
    10030    2    1    2    0    0  0.00000000000E+00  0.00000000000E+00 -0.52300688469E+03  0.31930672700E+04  0.31499432359E+04 0.  0.
        4    1    3    3  502    0 -0.87738369665E+03 -0.62771337597E+03  0.90168488829E+03  0.14060097739E+04  0.12699999809E+01 0. -1.
       -4    1    3    3    0  502  0.87738369665E+03  0.62771337597E+03 -0.14246917730E+04  0.17870574961E+04  0.12699999809E+01 0.  1.
</event>
<event>
 5   0  0.3445959E-06  0.3094281E+04  0.7818609E-02  0.8217309E-01
        2   -1    0    0  501    0  0.00000000000E+00  0.00000000000E+00  0.88949121847E+03  0.88949121847E+03  0.25500000920E-02 0. -1.
       -2   -1    0    0    0  501  0.00000000000E+00  0.00000000000E+00 -0.26910254567E+04  0.26910254567E+04  0.25500000920E-02 0.  1.
    10030    2    1    2    0    0  0.00000000000E+00  0.00000000000E+00 -0.18015342382E+04  0.35805166752E+04  0.30942808615E+04 0.  0.
        4    1    3    3  502    0 -0.26224389383E+02 -0.89548996689E+03  0.55881368411E+03  0.10558713680E+04  0.12699999809E+01 0. -1.
       -4    1    3    3    0  502  0.26224389383E+02  0.89548996689E+03 -0.23603479223E+04  0.25246453071E+04  0.12699999809E+01 0.  1.
</event>
<event>
 5   0  0.1171915E-06  0.3125667E+04  0.7818609E-02  0.8208729E-01
        1   -1    0    0  501    0  0.00000000000E+00  0.00000000000E+00  0.19152219927E+04  0.19152219927E+04  0.50400001928E-02 0. -1.
       -1   -1    0    0    0  501  0.00000000000E+00  0.00000000000E+00 -0.12752825250E+04  0.12752825250E+04  0.50400001928E-02 0.  1.
    10030    2    1    2    0    0  0.00000000000E+00  0.00000000000E+00  0.63993946770E+03  0.31905045177E+04  0.31256673775E+04 0.  0.
        2    1    3    3  502    0  0.53201828300E+03 -0.61971146017E+03 -0.10400970494E+04  0.13224551484E+04  0.25500000920E-02 0.  1.
       -2    1    3    3    0  502 -0.53201828300E+03  0.61971146017E+03  0.16800365171E+04  0.18680493693E+04  0.25500000920E-02 0. -1.
</event>
<event>
 5   0  0.3445410E-06  0.3076041E+04  0.7818609E-02  0.8222344E-01
       -2   -1    0    0    0  501  0.00000000000E+00  0.00000000000E+00  0.11796230646E+04  0.11796230646E+04  0.25500000920E-02 0. -1.
        2   -1    0    0  501    0  0.00000000000E+00  0.00000000000E+00 -0.20053073619E+04  0.20053073619E+04  0.25500000920E-02 0.  1.
    10030    2    1    2    0    0  0.00000000000E+00  0.00000000000E+00 -0.82568429723E+03  0.31849304265E+04  0.30760408422E+04 0.  0.
        1    1    3    3  502    0  0.11826014372E+04  0.22823311066E+03 -0.14031896670E+04  0.18492100350E+04  0.50400001928E-02 0.  1.
       -1    1    3    3    0  502 -0.11826014372E+04 -0.22823311066E+03  0.57750536979E+03  0.13357203915E+04  0.50400001928E-02 0. -1.
</event>
<event>
 5   0  0.1211008E-06  0.3083826E+04  0.7818609E-02  0.8220191E-01
       -1   -1    0    0    0  501  0.00000000000E+00  0.00000000000E+00  0.16670806496E+04  0.16670806496E+04  0.50400001928E-02 0.  1.
        1   -1    0    0  501    0  0.00000000000E+00  0.00000000000E+00 -0.14261433395E+04  0.14261433395E+04  0.50400001928E-02 0. -1.
    10030    2    1    2    0    0  0.00000000000E+00  0.00000000000E+00  0.24093731012E+03  0.30932239891E+04  0.30838261720E+04 0.  0.
        3    1    3    3  502    0  0.10293902975E+04  0.10543968277E+04 -0.33489599816E+03  0.15111427446E+04  0.10100000352E+00 0.  1.
       -3    1    3    3    0  502 -0.10293902975E+04 -0.10543968277E+04  0.57583330828E+03  0.15820812444E+04  0.10100000352E+00 0. -1.
</event>
<event>
 5   0  0.1198763E-06  0.3055482E+04  0.7818609E-02  0.8228063E-01
       -1   -1    0    0    0  501  0.00000000000E+00  0.00000000000E+00  0.90332229929E+03  0.90332229930E+03  0.50400001928E-02 0.  1.
        1   -1    0    0  501    0  0.00000000000E+00  0.00000000000E+00 -0.25837863291E+04  0.25837863291E+04  0.50400001928E-02 0. -1.
    10030    2    1    2    0    0  0.00000000000E+00  0.00000000000E+00 -0.16804640298E+04  0.34871086284E+04  0.30554815056E+04 0.  0.
        1    1    3    3  502    0 -0.39678395206E+03 -0.47931525101E+03  0.75215172553E+03  0.97617254248E+03  0.50400001928E-02 0.  1.
       -1    1    3    3    0  502  0.39678395206E+03  0.47931525101E+03 -0.24326157553E+04  0.25109360859E+04  0.50400001928E-02 0. -1.
</event>
<event>
 5   0  0.1211008E-06  0.2650780E+04  0.7818609E-02  0.8351154E-01
       -1   -1    0    0    0  501  0.00000000000E+00  0.00000000000E+00  0.11016472770E+04  0.11016472770E+04  0.50400001928E-02 0.  1.
        1   -1    0    0  501    0  0.00000000000E+00  0.00000000000E+00 -0.15945743214E+04  0.15945743214E+04  0.50400001928E-02 0. -1.
    10030    2    1    2    0    0  0.00000000000E+00  0.00000000000E+00 -0.49292704445E+03  0.26962215984E+04  0.26507798544E+04 0.  0.
        3    1    3    3  502    0 -0.48405495284E+03 -0.80633241933E+02 -0.14987672762E+04  0.15770587420E+04  0.10100000352E+00 0. -1.
       -3    1    3    3    0  502  0.48405495284E+03  0.80633241933E+02  0.10058402318E+04  0.11191628564E+04  0.10100000352E+00 0.  1.
</event>
<event>
 5   0  0.3340899E-06  0.3102641E+04  0.7818609E-02  0.8215013E-01
       -2   -1    0    0    0  501  0.00000000000E+00  0.00000000000E+00  0.21716624640E+04  0.21716624640E+04  0.25500000920E-02 0.  1.
        2   -1    0    0  501    0  0.00000000000E+00  0.00000000000E+00 -0.11081814297E+04  0.11081814297E+04  0.25500000920E-02 0. -1.
    10030    2    1    2    0    0  0.00000000000E+00  0.00000000000E+00  0.10634810343E+04  0.32798438937E+04  0.31026414644E+04 0.  0.
        3    1    3    3  502    0  0.34339072367E+03 -0.15055582120E+04  0.37504048799E+03  0.15891123613E+04  0.10100000352E+00 0. -1.
       -3    1    3    3    0  502 -0.34339072367E+03  0.15055582120E+04  0.68844054633E+03  0.16907315325E+04  0.10100000352E+00 0.  1.
</event>
<event>
 5   0  0.3374790E-06  0.3103417E+04  0.7818609E-02  0.8214801E-01
        2   -1    0    0  501    0  0.00000000000E+00  0.00000000000E+00  0.99355774400E+03  0.99355774400E+03  0.25500000920E-02 0.  1.
       -2   -1    0    0    0  501  0.00000000000E+00  0.00000000000E+00 -0.24234114686E+04  0.24234114686E+04  0.25500000920E-02 0. -1.
    10030    2    1    2    0    0  0.00000000000E+00  0.00000000000E+00 -0.14298537246E+04  0.34169692126E+04  0.31034169759E+04 0.  0.
        2    1    3    3  502    0  0.10184328131E+04  0.31125506422E+03  0.52768906609E+03  0.11885036223E+04  0.25500000920E-02 0.  1.
       -2    1    3    3    0  502 -0.10184328131E+04 -0.31125506422E+03 -0.19575427907E+04  0.22284655903E+04  0.25500000920E-02 0. -1.
</event>
<event>
 5   0  0.1235960E-06  0.3131631E+04  0.7818609E-02  0.8207110E-01
       -1   -1    0    0    0  501  0.00000000000E+00  0.00000000000E+00  0.22058088709E+04  0.22058088709E+04  0.50400001928E-02 0. -1.
        1   -1    0    0  501    0  0.00000000000E+00  0.00000000000E+00 -0.11115098916E+04  0.11115098916E+04  0.50400001928E-02 0.  1.
    10030    2    1    2    0    0  0.00000000000E+00  0.00000000000E+00  0.10942989793E+04  0.33173187625E+04  0.31316311271E+04 0.  0.
        4    1    3    3  502    0  0.88009793852E+03  0.66429437007E+03 -0.63048718633E+03  0.12701870321E+04  0.12699999809E+01 0.  1.
       -4    1    3    3    0  502 -0.88009793852E+03 -0.66429437007E+03  0.17247861657E+04  0.20471317304E+04  0.12699999809E+01 0. -1.
</event>
<event>
 5   0  0.3445410E-06  0.3101149E+04  0.7818609E-02  0.8215423E-01
       -2   -1    0    0    0  501  0.00000000000E+00  0.00000000000E+00  0.11917345057E+04  0.11917345057E+04  0.25500000920E-02 0.  1.
        2   -1    0    0  501    0  0.00000000000E+00  0.00000000000E+00 -0.20174639467E+04  0.20174639467E+04  0.25500000920E-02 0. -1.
    10030    2    1    2    0    0  0.00000000000E+00  0.00000000000E+00 -0.82572944101E+03  0.32091984524E+04  0.31011490769E+04 0.  0.
        1    1    3    3  502    0  0.63878705254E+03  0.20945329253E+03  0.10330879680E+04  0.12325543923E+04  0.50400001928E-02 0.  1.
       -1    1    3    3    0  502 -0.63878705254E+03 -0.20945329253E+03 -0.18588174091E+04  0.19766440601E+04  0.50400001928E-02 0. -1.
</event>
<event>
 5   0  0.3441897E-06  0.3101588E+04  0.7818609E-02  0.8215302E-01
        2   -1    0    0  501    0  0.00000000000E+00  0.00000000000E+00  0.17161719626E+04  0.17161719626E+04  0.25500000920E-02 0.  1.
       -2   -1    0    0    0  501  0.00000000000E+00  0.00000000000E+00 -0.14013530093E+04  0.14013530093E+04  0.25500000920E-02 0. -1.
    10030    2    1    2    0    0  0.00000000000E+00  0.00000000000E+00  0.31481895330E+03  0.31175249719E+04  0.31015884603E+04 0.  0.
        5    1    3    3  502    0  0.25692720046E+03 -0.13405116556E+04  0.89736976300E+03  0.16334863534E+04  0.46999998093E+01 0.  1.
       -5    1    3    3    0  502 -0.25692720046E+03  0.13405116556E+04 -0.58255080969E+03  0.14840386185E+04  0.46999998093E+01 0. -1.
</event>
<event>
 5   0  0.1235960E-06  0.3077459E+04  0.7818609E-02  0.8221951E-01
       -1   -1    0    0    0  501  0.00000000000E+00  0.00000000000E+00  0.12086566625E+04  0.12086566625E+04  0.50400001928E-02 0.  1.
        1   -1    0    0  501    0  0.00000000000E+00  0.00000000000E+00 -0.19589425763E+04  0.19589425763E+04  0.50400001928E-02 0. -1.
    10030    2    1    2    0    0  0.00000000000E+00  0.00000000000E+00 -0.75028591380E+03  0.31675992387E+04  0.30774593393E+04 0.  0.
        4    1    3    3  502    0 -0.13140326845E+04 -0.79568828347E+03 -0.46654511738E+03  0.16054493763E+04  0.12699999809E+01 0.  1.
       -4    1    3    3    0  502  0.13140326845E+04  0.79568828347E+03 -0.28374079642E+03  0.15621498625E+04  0.12699999809E+01 0. -1.
</event>
<event>
 5   0  0.3445410E-06  0.3104277E+04  0.7818609E-02  0.8214565E-01
        2   -1    0    0  501    0  0.00000000000E+00  0.00000000000E+00  0.14155677336E+04  0.14155677336E+04  0.25500000920E-02 0. -1.
       -2   -1    0    0    0  501  0.00000000000E+00  0.00000000000E+00 -0.17018856944E+04  0.17018856944E+04  0.25500000920E-02 0.  1.
    10030    2    1    2    0    0  0.00000000000E+00  0.00000000000E+00 -0.28631796077E+03  0.31174534279E+04  0.31042773556E+04 0.  0.
        1    1    3    3  502    0 -0.76296554557E+03 -0.72744006996E+03  0.10009082337E+04  0.14536515302E+04  0.50400001928E-02 0. -1.
       -1    1    3    3    0  502  0.76296554557E+03  0.72744006996E+03 -0.12872261944E+04  0.16638018977E+04  0.50400001928E-02 0.  1.
</event>
<event>
 5   0  0.1198763E-06  0.3104927E+04  0.7818609E-02  0.8214387E-01
        1   -1    0    0  501    0  0.00000000000E+00  0.00000000000E+00  0.15446973022E+04  0.15446973022E+04  0.50400001928E-02 0. -1.
       -1   -1    0    0    0  501  0.00000000000E+00  0.00000000000E+00 -0.15602692023E+04  0.15602692023E+04  0.50400001928E-02 0.  1.
    10030    2    1    2    0    0  0.00000000000E+00  0.00000000000E+00 -0.15571900094E+02  0.31049665046E+04  0.31049274566E+04 0.  0.
        1    1    3    3  502    0 -0.80624823961E+03 -0.13256676462E+04 -0.59870149221E+02  0.15527444628E+04  0.50400001928E-02 0. -1.
       -1    1    3    3    0  502  0.80624823961E+03  0.13256676462E+04  0.44298249127E+02  0.15522220418E+04  0.50400001928E-02 0.  1.
</event>
<event>
 5   0  0.3445410E-06  0.3085343E+04  0.7818609E-02  0.8219772E-01
       -2   -1    0    0    0  501  0.00000000000E+00  0.00000000000E+00  0.17173521616E+04  0.17173521616E+04  0.25500000920E-02 0. -1.
        2   -1    0    0  501    0  0.00000000000E+00  0.00000000000E+00 -0.13857581374E+04  0.13857581374E+04  0.25500000920E-02 0.  1.
    10030    2    1    2    0    0  0.00000000000E+00  0.00000000000E+00  0.33159402421E+03  0.31031102990E+04  0.30853425954E+04 0.  0.
        1    1    3    3  502    0 -0.61088350779E+03 -0.39170165244E+03 -0.12033749495E+04  0.14052473496E+04  0.50400001928E-02 0.  1.
       -1    1    3    3    0  502  0.61088350779E+03  0.39170165244E+03  0.15349689737E+04  0.16978629494E+04  0.50400001928E-02 0. -1.
</event>
<event>
 5   0  0.1235960E-06  0.3047594E+04  0.7818609E-02  0.8230269E-01
        1   -1    0    0  501    0  0.00000000000E+00  0.00000000000E+00  0.20348638833E+04  0.20348638833E+04  0.50400001928E-02 0.  1.
       -1   -1    0    0    0  501  0.00000000000E+00  0.00000000000E+00 -0.11410873876E+04  0.11410873876E+04  0.50400001928E-02 0. -1.
    10030    2    1    2    0    0  0.00000000000E+00  0.00000000000E+00  0.89377649574E+03  0.31759512709E+04  0.30475941414E+04 0.  0.
        4    1    3    3  502    0  0.45170327195E+03 -0.14370699625E+04  0.68623516405E+03  0.16553326664E+04  0.12699999809E+01 0.  1.
       -4    1    3    3    0  502 -0.45170327195E+03  0.14370699625E+04  0.20754133169E+03  0.15206186045E+04  0.12699999809E+01 0. -1.
</event>
<event>
 5   0  0.3374790E-06  0.3090662E+04  0.7818609E-02  0.8218305E-01
       -2   -1    0    0    0  501  0.00000000000E+00  0.00000000000E+00  0.11046466402E+04  0.11046466402E+04  0.25500000920E-02 0. -1.
        2   -1    0    0  501    0  0.00000000000E+00  0.00000000000E+00 -0.21618204693E+04  0.21618204693E+04  0.25500000920E-02 0.  1.
    10030    2    1    2    0    0  0.00000000000E+00  0.00000000000E+00 -0.10571738291E+04  0.32664671096E+04  0.30906618827E+04 0.  0.
        2    1    3    3  502    0 -0.70075139106E+03  0.98147682013E+03  0.49265848771E+03  0.13027131864E+04  0.25500000920E-02 0. -1.
       -2    1    3    3    0  502  0.70075139106E+03 -0.98147682013E+03 -0.15498323168E+04  0.19637539231E+04  0.25500000920E-02 0.  1.
</event>
<event>
 5   0  0.3374790E-06  0.3106285E+04  0.7818609E-02  0.8214015E-01
        2   -1    0    0  501    0  0.00000000000E+00  0.00000000000E+00  0.24648796826E+04  0.24648796826E+04  0.25500000920E-02 0.  1.
       -2   -1    0    0    0  501  0.00000000000E+00  0.00000000000E+00 -0.97864885819E+03  0.97864885819E+03  0.25500000920E-02 0. -1.
    10030    2    1    2    0    0  0.00000000000E+00  0.00000000000E+00  0.14862308244E+04  0.34435285408E+04  0.31062850397E+04 0.  0.
        2    1    3    3  502    0  0.40911338685E+03 -0.12702960273E+04 -0.13763893632E+03  0.13416296945E+04  0.25500000920E-02 0. -1.
       -2    1    3    3    0  502 -0.40911338685E+03  0.12702960273E+04  0.16238697608E+04  0.21018988463E+04  0.25500000920E-02 0.  1.
</event>
<event>
 5   0  0.1235960E-06  0.2972627E+04  0.7818609E-02  0.8251591E-01
       -1   -1    0    0    0  501  0.00000000000E+00  0.00000000000E+00  0.13793444857E+04  0.13793444857E+04  0.50400001928E-02 0. -1.
        1   -1    0    0  501    0  0.00000000000E+00  0.00000000000E+00 -0.16015782492E+04  0.16015782492E+04  0.50400001928E-02 0.  1.
    10030    2    1    2    0    0  0.00000000000E+00  0.00000000000E+00 -0.22223376343E+03  0.29809227349E+04  0.29726272060E+04 0.  0.
        4    1    3    3  502    0  0.37748047530E+03  0.37307170881E+03 -0.15033184341E+04  0.15942527831E+04  0.12699999809E+01 0.  1.
       -4    1    3    3    0  502 -0.37748047530E+03 -0.37307170881E+03  0.12810846706E+04  0.13866699519E+04  0.12699999809E+01 0. -1.
</event>
<event>
 5   0  0.1250276E-06  0.2977844E+04  0.7818609E-02  0.8250086E-01
       -1   -1    0    0    0  501  0.00000000000E+00  0.00000000000E+00  0.11066445277E+04  0.11066445277E+04  0.50400001928E-02 0. -1.
        1   -1    0    0  501    0  0.00000000000E+00  0.00000000000E+00 -0.20032524932E+04  0.20032524932E+04  0.50400001928E-02 0.  1.
    10030    2    1    2    0    0  0.00000000000E+00  0.00000000000E+00 -0.89660796553E+03  0.31098970209E+04  0.29778437898E+04 0.  0.
        5    1    3    3  502    0  0.43773645735E+03 -0.98925513995E+03 -0.15167193906E+04  0.18629811426E+04  0.46999998093E+01 0.  1.
       -5    1    3    3    0  502 -0.43773645735E+03  0.98925513995E+03  0.62011142506E+03  0.12469158783E+04  0.46999998093E+01 0. -1.
</event>
<event>
 5   0  0.1171915E-06  0.3117319E+04  0.7818609E-02  0.8211001E-01
        1   -1    0    0  501    0  0.00000000000E+00  0.00000000000E+00  0.12961439044E+04  0.12961439044E+04  0.50400001928E-02 0.  1.
       -1   -1    0    0    0  501  0.00000000000E+00  0.00000000000E+00 -0.18743437747E+04  0.18743437747E+04  0.50400001928E-02 0. -1.
    10030    2    1    2    0    0  0.00000000000E+00  0.00000000000E+00 -0.57819987031E+03  0.31704876792E+04  0.31173188855E+04 0.  0.
        2    1    3    3  502    0  0.74526504453E+03  0.64098963882E+03 -0.15193305418E+04  0.18096002318E+04  0.25500000920E-02 0. -1.
       -2    1    3    3    0  502 -0.74526504453E+03 -0.64098963882E+03  0.94113067149E+03  0.13608874474E+04  0.25500000920E-02 0.  1.
</event>
<event>
 5   0  0.3340899E-06  0.3115428E+04  0.7818609E-02  0.8211517E-01
       -2   -1    0    0    0  501  0.00000000000E+00  0.00000000000E+00  0.16075267234E+04  0.16075267234E+04  0.25500000920E-02 0. -1.
        2   -1    0    0  501    0  0.00000000000E+00  0.00000000000E+00 -0.15094445934E+04  0.15094445934E+04  0.25500000920E-02 0.  1.
    10030    2    1    2    0    0  0.00000000000E+00  0.00000000000E+00  0.98082129996E+02  0.31169713168E+04  0.31154277532E+04 0.  0.
        3    1    3    3  502    0  0.73966470935E+03  0.13582695384E+04  0.23480074206E+03  0.15643309816E+04  0.10100000352E+00 0. -1.
       -3    1    3    3    0  502 -0.73966470935E+03 -0.13582695384E+04 -0.13671861206E+03  0.15526403352E+04  0.10100000352E+00 0.  1.
</event>
<event>
 5   0  0.1171915E-06  0.2821634E+04  0.7818609E-02  0.8296583E-01
       -1   -1    0    0    0  501  0.00000000000E+00  0.00000000000E+00  0.25723676259E+04  0.25723676259E+04  0.50400001928E-02 0. -1.
        1   -1    0    0  501    0  0.00000000000E+00  0.00000000000E+00 -0.77376371603E+03  0.77376371605E+03  0.50400001928E-02 0.  1.
    10030    2    1    2    0    0  0.00000000000E+00  0.00000000000E+00  0.17986039099E+04  0.33461313420E+04  0.28216340892E+04 0.  0.
        2    1    3    3  502    0  0.10897605418E+04  0.82971501463E+03  0.49820006083E+03  0.14574664128E+04  0.25500000920E-02 0.  1.
       -2    1    3    3    0  502 -0.10897605418E+04 -0.82971501463E+03  0.13004038491E+04  0.18886649291E+04  0.25500000920E-02 0. -1.
</event>
<event>
 5   0  0.1198763E-06  0.3096186E+04  0.7818609E-02  0.8216785E-01
       -1   -1    0    0    0  501  0.00000000000E+00  0.00000000000E+00  0.17734090095E+04  0.17734090095E+04  0.50400001928E-02 0. -1.
        1   -1    0    0  501    0  0.00000000000E+00  0.00000000000E+00 -0.13514038820E+04  0.13514038820E+04  0.50400001928E-02 0.  1.
    10030    2    1    2    0    0  0.00000000000E+00  0.00000000000E+00  0.42200512754E+03  0.31248128915E+04  0.30961859245E+04 0.  0.
        1    1    3    3  502    0  0.44352274314E+03 -0.50667819582E+03  0.16178625799E+04  0.17524025067E+04  0.50400001928E-02 0. -1.
       -1    1    3    3    0  502 -0.44352274314E+03  0.50667819582E+03 -0.11958574524E+04  0.13724103848E+04  0.50400001928E-02 0.  1.
</event>
<event>
 5   0  0.3445410E-06  0.3006155E+04  0.7818609E-02  0.8241975E-01
       -2   -1    0    0    0  501  0.00000000000E+00  0.00000000000E+00  0.10718409232E+04  0.10718409232E+04  0.25500000920E-02 0. -1.
        2   -1    0    0  501    0  0.00000000000E+00  0.00000000000E+00 -0.21078146204E+04  0.21078146204E+04  0.25500000920E-02 0.  1.
    10030    2    1    2    0    0  0.00000000000E+00  0.00000000000E+00 -0.10359736972E+04  0.31796555437E+04  0.30061549985E+04 0.  0.
        1    1    3    3  502    0  0.81533254283E+03 -0.12566662447E+04 -0.64866823538E+03  0.16324054906E+04  0.50400001928E-02 0.  1.
       -1    1    3    3    0  502 -0.81533254283E+03  0.12566662447E+04 -0.38730546182E+03  0.15472500531E+04  0.50400001928E-02 0. -1.
</event>
<event>
 5   0  0.1109562E-06  0.3079080E+04  0.7818609E-02  0.8221503E-01
        3   -1    0    0  501    0  0.00000000000E+00  0.00000000000E+00  0.13244485469E+04  0.13244485508E+04  0.10100000352E+00 0. -1.
       -3   -1    0    0    0  501  0.00000000000E+00  0.00000000000E+00 -0.17895621618E+04  0.17895621646E+04  0.10100000352E+00 0.  1.
    10030    2    1    2    0    0  0.00000000000E+00  0.00000000000E+00 -0.46511361484E+03  0.31140107154E+04  0.30790797425E+04 0.  0.
        4    1    3    3  502    0 -0.62440752175E+03 -0.11482910197E+04 -0.10552496804E+04  0.16798840794E+04  0.12699999809E+01 0.  1.
       -4    1    3    3    0  502  0.62440752175E+03  0.11482910197E+04  0.59013606561E+03  0.14341266360E+04  0.12699999809E+01 0. -1.
</event>
<event>
 5   0  0.1250276E-06  0.3030681E+04  0.7818609E-02  0.8235023E-01
       -1   -1    0    0    0  501  0.00000000000E+00  0.00000000000E+00  0.15807159689E+04  0.15807159689E+04  0.50400001928E-02 0.  1.
        1   -1    0    0  501    0  0.00000000000E+00  0.00000000000E+00 -0.14526692801E+04  0.14526692801E+04  0.50400001928E-02 0. -1.
    10030    2    1    2    0    0  0.00000000000E+00  0.00000000000E+00  0.12804668879E+03  0.30333852490E+04  0.30306814604E+04 0.  0.
        5    1    3    3  502    0  0.69057334972E+03  0.59052570075E+03  0.12777978106E+04  0.15679290447E+04  0.46999998093E+01 0.  1.
       -5    1    3    3    0  502 -0.69057334972E+03 -0.59052570075E+03 -0.11497511218E+04  0.14654562043E+04  0.46999998093E+01 0. -1.
</event>
<event>
 5   0  0.3374790E-06  0.3061104E+04  0.7818609E-02  0.8226494E-01
       -2   -1    0    0    0  501  0.00000000000E+00  0.00000000000E+00  0.99521982198E+03  0.99521982198E+03  0.25500000920E-02 0. -1.
        2   -1    0    0  501    0  0.00000000000E+00  0.00000000000E+00 -0.23538414820E+04  0.23538414820E+04  0.25500000920E-02 0.  1.
    10030    2    1    2    0    0  0.00000000000E+00  0.00000000000E+00 -0.13586216600E+04  0.33490613039E+04  0.30611041803E+04 0.  0.
        2    1    3    3  502    0 -0.27598285268E+03  0.75661262472E+03  0.74464535620E+03  0.10968709611E+04  0.25500000920E-02 0. -1.
       -2    1    3    3    0  502  0.27598285268E+03 -0.75661262472E+03 -0.21032670162E+04  0.22521903428E+04  0.25500000920E-02 0.  1.
</event>
<event>
 5   0  0.3374790E-06  0.3038480E+04  0.7818609E-02  0.8232827E-01
        2   -1    0    0  501    0  0.00000000000E+00  0.00000000000E+00  0.13985847171E+04  0.13985847171E+04  0.25500000920E-02 0. -1.
       -2   -1    0    0    0  501  0.00000000000E+00  0.00000000000E+00 -0.16503043459E+04  0.16503043459E+04  0.25500000920E-02 0.  1.
    10030    2    1    2    0    0  0.00000000000E+00  0.00000000000E+00 -0.25171962878E+03  0.30488890630E+04  0.30384801706E+04 0.  0.
        2    1    3    3  502    0  0.90911430617E+03  0.16647238898E+02  0.10954063264E+04  0.14236154579E+04  0.25500000920E-02 0. -1.
       -2    1    3    3    0  502 -0.90911430617E+03 -0.16647238898E+02 -0.13471259551E+04  0.16252736051E+04  0.25500000920E-02 0.  1.
</event>
<event>
 5   0  0.1211008E-06  0.3113392E+04  0.7818609E-02  0.8212072E-01
        1   -1    0    0  501    0  0.00000000000E+00  0.00000000000E+00  0.17287561393E+04  0.17287561393E+04  0.50400001928E-02 0. -1.
       -1   -1    0    0    0  501  0.00000000000E+00  0.00000000000E+00 -0.14017606636E+04  0.14017606637E+04  0.50400001928E-02 0.  1.
    10030    2    1    2    0    0  0.00000000000E+00  0.00000000000E+00  0.32699547560E+03  0.31305168029E+04  0.31133919465E+04 0.  0.
        3    1    3    3  502    0 -0.32237448543E+02  0.53038273796E+03 -0.13077514577E+04  0.14115803155E+04  0.10100000352E+00 0.  1.
       -3    1    3    3    0  502  0.32237448543E+02 -0.53038273796E+03  0.16347469333E+04  0.17189364874E+04  0.10100000352E+00 0. -1.
</event>
<event>
 5   0  0.3441897E-06  0.3153913E+04  0.7818609E-02  0.8201096E-01
       -2   -1    0    0    0  501  0.00000000000E+00  0.00000000000E+00  0.13444846067E+04  0.13444846067E+04  0.25500000920E-02 0.  1.
        2   -1    0    0  501    0  0.00000000000E+00  0.00000000000E+00 -0.18496243282E+04  0.18496243282E+04  0.25500000920E-02 0. -1.
    10030    2    1    2    0    0  0.00000000000E+00  0.00000000000E+00 -0.50513972151E+03  0.31941089349E+04  0.31539127683E+04 0.  0.
        5    1    3    3  502    0  0.11807480477E+04 -0.10002454043E+04 -0.55993838634E+03  0.16456639716E+04  0.46999998093E+01 0. -1.
       -5    1    3    3    0  502 -0.11807480477E+04  0.10002454043E+04  0.54798664835E+02  0.15484449634E+04  0.46999998093E+01 0.  1.
</event>
<event>
 5   0  0.1235960E-06  0.3095703E+04  0.7818609E-02  0.8216918E-01
        1   -1    0    0  501    0  0.00000000000E+00  0.00000000000E+00  0.20555295551E+04  0.20555295551E+04  0.50400001928E-02 0.  1.
       -1   -1    0    0    0  501  0.00000000000E+00  0.00000000000E+00 -0.11655608335E+04  0.11655608335E+04  0.50400001928E-02 0. -1.
    10030    2    1    2    0    0  0.00000000000E+00  0.00000000000E+00  0.88996872162E+03  0.32210903887E+04  0.30957033073E+04 0.  0.
        4    1    3    3  502    0 -0.11786100234E+04 -0.83404249928E+03  0.10253341789E+04  0.17708925064E+04  0.12699999809E+01 0.  1.
       -4    1    3    3    0  502  0.11786100234E+04  0.83404249928E+03 -0.13536545732E+03  0.14501978823E+04  0.12699999809E+01 0. -1.
</event>
<event>
 5   0  0.3374790E-06  0.3108279E+04  0.7818609E-02  0.8213470E-01
        2   -1    0    0  501    0  0.00000000000E+00  0.00000000000E+00  0.18479846820E+04  0.18479846820E+04  0.25500000920E-02 0. -1.
       -2   -1    0    0    0  501  0.00000000000E+00  0.00000000000E+00 -0.13070180960E+04  0.13070180961E+04  0.25500000920E-02 0.  1.
    10030    2    1    2    0    0  0.00000000000E+00  0.00000000000E+00  0.54096658595E+03  0.31550027781E+04  0.31082788939E+04 0.  0.
        2    1    3    3  502    0 -0.51232941516E+03  0.22435181513E+03 -0.12013252063E+04  0.13251405276E+04  0.25500000920E-02 0.  1.
       -2    1    3    3    0  502  0.51232941516E+03 -0.22435181513E+03  0.17422917922E+04  0.18298622505E+04  0.25500000920E-02 0. -1.
</event>
<event>
 5   0  0.1250276E-06  0.2954718E+04  0.7818609E-02  0.8256781E-01
        1   -1    0    0  501    0  0.00000000000E+00  0.00000000000E+00  0.12069153520E+04  0.12069153520E+04  0.50400001928E-02 0. -1.
       -1   -1    0    0    0  501  0.00000000000E+00  0.00000000000E+00 -0.18084036160E+04  0.18084036160E+04  0.50400001928E-02 0.  1.
    10030    2    1    2    0    0  0.00000000000E+00  0.00000000000E+00 -0.60148826402E+03  0.30153189680E+04  0.29547183194E+04 0.  0.
        5    1    3    3  502    0 -0.49187239452E+01  0.13665528802E+04 -0.87357385611E+03  0.16219261205E+04  0.46999998093E+01 0.  1.
       -5    1    3    3    0  502  0.49187239452E+01 -0.13665528802E+04  0.27208559209E+03  0.13933928476E+04  0.46999998093E+01 0. -1.
</event>
<event>
 5   0  0.1109562E-06  0.3096254E+04  0.7818609E-02  0.8216767E-01
       -3   -1    0    0    0  501  0.00000000000E+00  0.00000000000E+00  0.81374931491E+03  0.81374932118E+03  0.10100000352E+00 0.  1.
        3   -1    0    0  501    0  0.00000000000E+00  0.00000000000E+00 -0.29452527504E+04  0.29452527522E+04  0.10100000352E+00 0. -1.
    10030    2    1    2    0    0  0.00000000000E+00  0.00000000000E+00 -0.21315034355E+04  0.37590020733E+04  0.30962541388E+04 0.  0.
        4    1    3    3  502    0  0.40409465976E+03 -0.91750608806E+03 -0.24979098523E+04  0.26915915661E+04  0.12699999809E+01 0. -1.
       -4    1    3    3    0  502 -0.40409465976E+03  0.91750608806E+03  0.36640641682E+03  0.10674105072E+04  0.12699999809E+01 0.  1.
</event>
<event>
 5   0  0.1171915E-06  0.3060731E+04  0.7818609E-02  0.8226598E-01
        1   -1    0    0  501    0  0.00000000000E+00  0.00000000000E+00  0.18206087180E+04  0.18206087180E+04  0.50400001928E-02 0.  1.
       -1   -1    0    0    0  501  0.00000000000E+00  0.00000000000E+00 -0.12863932428E+04  0.12863932428E+04  0.50400001928E-02 0. -1.
    10030    2    1    2    0    0  0.00000000000E+00  0.00000000000E+00  0.53421547514E+03  0.31070019608E+04  0.30607311235E+04 0.  0.
        2    1    3    3  502    0 -0.13375401294E+01 -0.11265722642E+04  0.13185519488E+04  0.17342854717E+04  0.25500000920E-02 0.  1.
       -2    1    3    3    0  502  0.13375401294E+01  0.11265722642E+04 -0.78433647368E+03  0.13727164891E+04  0.25500000920E-02 0. -1.
</event>
<event>
 5   0  0.1250276E-06  0.3103672E+04  0.7818609E-02  0.8214731E-01
        1   -1    0    0  501    0  0.00000000000E+00  0.00000000000E+00  0.15747256184E+04  0.15747256184E+04  0.50400001928E-02 0.  1.
       -1   -1    0    0    0  501  0.00000000000E+00  0.00000000000E+00 -0.15292793092E+04  0.15292793092E+04  0.50400001928E-02 0. -1.
    10030    2    1    2    0    0  0.00000000000E+00  0.00000000000E+00  0.45446309125E+02  0.31040049276E+04  0.31036722159E+04 0.  0.
        5    1    3    3  502    0  0.26554639442E+03 -0.13342416658E+04 -0.72398765305E+03  0.15410697330E+04  0.46999998093E+01 0. -1.
       -5    1    3    3    0  502 -0.26554639442E+03  0.13342416658E+04  0.76943396217E+03  0.15629351946E+04  0.46999998093E+01 0.  1.
</event>
<event>
 5   0  0.3374790E-06  0.3053780E+04  0.7818609E-02  0.8228538E-01
       -2   -1    0    0    0  501  0.00000000000E+00  0.00000000000E+00  0.84166338504E+03  0.84166338505E+03  0.25500000920E-02 0. -1.
        2   -1    0    0  501    0  0.00000000000E+00  0.00000000000E+00 -0.27699836710E+04  0.27699836710E+04  0.25500000920E-02 0.  1.
    10030    2    1    2    0    0  0.00000000000E+00  0.00000000000E+00 -0.19283202860E+04  0.36116470561E+04  0.30537804984E+04 0.  0.
        2    1    3    3  502    0  0.13638352929E+04  0.57319084445E+03 -0.51723925749E+03  0.15672048047E+04  0.25500000920E-02 0. -1.
       -2    1    3    3    0  502 -0.13638352929E+04 -0.57319084445E+03 -0.14110810285E+04  0.20444422514E+04  0.25500000920E-02 0.  1.
</event>
<event>
 5   0  0.3374790E-06  0.3127564E+04  0.7818609E-02  0.8208214E-01
        2   -1    0    0  501    0  0.00000000000E+00  0.00000000000E+00  0.17107939715E+04  0.17107939715E+04  0.25500000920E-02 0.  1.
       -2   -1    0    0    0  501  0.00000000000E+00  0.00000000000E+00 -0.14294029037E+04  0.14294029037E+04  0.25500000920E-02 0. -1.
    10030    2    1    2    0    0  0.00000000000E+00  0.00000000000E+00  0.28139106783E+03  0.31401968751E+04  0.31275638253E+04 0.  0.
        2    1    3    3  502    0  0.14383660857E+04  0.41366162234E+03  0.59573797552E+03  0.16108745047E+04  0.25500000920E-02 0.  1.
       -2    1    3    3    0  502 -0.14383660857E+04 -0.41366162234E+03 -0.31434690768E+03  0.15293223705E+04  0.25500000920E-02 0. -1.
</event>
<event>
 5   0  0.1235960E-06  0.3078768E+04  0.7818609E-02  0.8221589E-01
        1   -1    0    0  501    0  0.00000000000E+00  0.00000000000E+00  0.16435101688E+04  0.16435101688E+04  0.50400001928E-02 0. -1.
       -1   -1    0    0    0  501  0.00000000000E+00  0.00000000000E+00 -0.14418545898E+04  0.14418545898E+04  0.50400001928E-02 0.  1.
    10030    2    1    2    0    0  0.00000000000E+00  0.00000000000E+00  0.20165557894E+03  0.30853647586E+04  0.30787677277E+04 0.  0.
        4    1    3    3  502    0 -0.19743285022E+03  0.14738198313E+04 -0.29824206575E+03  0.15165996730E+04  0.12699999809E+01 0.  1.
       -4    1    3    3    0  502  0.19743285022E+03 -0.14738198313E+04  0.49989764469E+03  0.15687650856E+04  0.12699999809E+01 0. -1.
</event>
<event>
 5   0  0.3445959E-06  0.3061066E+04  0.7818609E-02  0.8226505E-01
       -2   -1    0    0    0  501  0.00000000000E+00  0.00000000000E+00  0.92645520200E+03  0.92645520201E+03  0.25500000920E-02 0.  1.
        2   -1    0    0  501    0  0.00000000000E+00  0.00000000000E+00 -0.25284887979E+04  0.25284887979E+04  0.25500000920E-02 0. -1.
    10030    2    1    2    0    0  0.00000000000E+00  0.00000000000E+00 -0.16020335959E+04  0.34549439999E+04  0.30610662195E+04 0.  0.
        4    1    3    3  502    0  0.11650659077E+04 -0.27792697052E+03 -0.18764642952E+04  0.22261495534E+04  0.12699999809E+01 0. -1.
       -4    1    3    3    0  502 -0.11650659077E+04  0.27792697052E+03  0.27443069926E+03  0.12287944465E+04  0.12699999809E+01 0.  1.
</event>
<event>
 5   0  0.1109562E-06  0.3097368E+04  0.7818609E-02  0.8216461E-01
       -3   -1    0    0    0  501  0.00000000000E+00  0.00000000000E+00  0.14153048807E+04  0.14153048843E+04  0.10100000352E+00 0.  1.
        3   -1    0    0  501    0  0.00000000000E+00  0.00000000000E+00 -0.16946325954E+04  0.16946325984E+04  0.10100000352E+00 0. -1.
    10030    2    1    2    0    0  0.00000000000E+00  0.00000000000E+00 -0.27932771467E+03  0.31099374826E+04  0.30973677815E+04 0.  0.
        5    1    3    3  502    0 -0.11637923523E+04 -0.10214668328E+04 -0.11522223386E+03  0.15527734487E+04  0.46999998093E+01 0. -1.
       -5    1    3    3    0  502  0.11637923523E+04  0.10214668328E+04 -0.16410548081E+03  0.15571640340E+04  0.46999998093E+01 0.  1.
</event>
<event>
 5   0  0.1109562E-06  0.3136300E+04  0.7818609E-02  0.8205846E-01
        3   -1    0    0  501    0  0.00000000000E+00  0.00000000000E+00  0.16192730269E+04  0.16192730300E+04  0.10100000352E+00 0. -1.
       -3   -1    0    0    0  501  0.00000000000E+00  0.00000000000E+00 -0.15186413610E+04  0.15186413643E+04  0.10100000352E+00 0.  1.
    10030    2    1    2    0    0  0.00000000000E+00  0.00000000000E+00  0.10063166593E+03  0.31379143943E+04  0.31363003705E+04 0.  0.
        4    1    3    3  502    0  0.27924987784E+03 -0.12392086429E+04 -0.86965442055E+03  0.15394541172E+04  0.12699999809E+01 0.  1.
       -4    1    3    3    0  502 -0.27924987784E+03  0.12392086429E+04  0.97028608648E+03  0.15984602771E+04  0.12699999809E+01 0. -1.
</event>
<event>
 5   0  0.1211008E-06  0.3141007E+04  0.7818609E-02  0.8204573E-01
       -1   -1    0    0    0  501  0.00000000000E+00  0.00000000000E+00  0.16627927037E+04  0.16627927037E+04  0.50400001928E-02 0.  1.
        1   -1    0    0  501    0  0.00000000000E+00  0.00000000000E+00 -0.14833364315E+04  0.14833364315E+04  0.50400001928E-02 0. -1.
    10030    2    1    2    0    0  0.00000000000E+00  0.00000000000E+00  0.17945627227E+03  0.31461291352E+04  0.31410068421E+04 0.  0.
        3    1    3    3  502    0 -0.12799502702E+04  0.90585092646E+03  0.17729146483E+03  0.15780592096E+04  0.10100000352E+00 0.  1.
       -3    1    3    3    0  502  0.12799502702E+04 -0.90585092646E+03  0.21648074382E+01  0.15680699257E+04  0.10100000352E+00 0. -1.
</event>
<event>
 5   0  0.3374790E-06  0.3091223E+04  0.7818609E-02  0.8218151E-01
        2   -1    0    0  501    0  0.00000000000E+00  0.00000000000E+00  0.24539218841E+04  0.24539218841E+04  0.25500000920E-02 0. -1.
       -2   -1    0    0    0  501  0.00000000000E+00  0.00000000000E+00 -0.97350914223E+03  0.97350914223E+03  0.25500000920E-02 0.  1.
    10030    2    1    2    0    0  0.00000000000E+00  0.00000000000E+00  0.14804127418E+04  0.34274310263E+04  0.30912233103E+04 0.  0.
        2    1    3    3  502    0  0.66895098645E+03  0.10325333342E+04 -0.29712028541E+03  0.12656622664E+04  0.25500000920E-02 0.  1.
       -2    1    3    3    0  502 -0.66895098645E+03 -0.10325333342E+04  0.17775330272E+04  0.21617687599E+04  0.25500000920E-02 0. -1.
</event>
<event>
 5   0  0.1198763E-06  0.3162394E+04  0.7818609E-02  0.8198820E-01
       -1   -1    0    0    0  501  0.00000000000E+00  0.00000000000E+00  0.81082577036E+03  0.81082577038E+03  0.50400001928E-02 0. -1.
        1   -1    0    0  501    0  0.00000000000E+00  0.00000000000E+00 -0.30835035155E+04  0.30835035155E+04  0.50400001928E-02 0.  1.
    10030    2    1    2    0    0  0.00000000000E+00  0.00000000000E+00 -0.22726777451E+04  0.38943292859E+04  0.31623941016E+04 0.  0.
        1    1    3    3  502    0  0.55103123729E+03 -0.11795154260E+04 -0.31259723007E+02  0.13022554415E+04  0.50400001928E-02 0. -1.
       -1    1    3    3    0  502 -0.55103123729E+03  0.11795154260E+04 -0.22414180221E+04  0.25920738444E+04  0.50400001928E-02 0.  1.
</event>
<event>
 5   0  0.3374790E-06  0.3130769E+04  0.7818609E-02  0.8207344E-01
       -2   -1    0    0    0  501  0.00000000000E+00  0.00000000000E+00  0.13194113676E+04  0.13194113676E+04  0.25500000920E-02 0.  1.
        2   -1    0    0  501    0  0.00000000000E+00  0.00000000000E+00 -0.18572130215E+04  0.18572130215E+04  0.25500000920E-02 0. -1.
    10030    2    1    2    0    0  0.00000000000E+00  0.00000000000E+00 -0.53780165393E+03  0.31766243891E+04  0.31307685782E+04 0.  0.
        2    1    3    3  502    0 -0.38630120723E+03 -0.55589021325E+03 -0.17010220420E+04  0.18307699307E+04  0.25500000920E-02 0. -1.
       -2    1    3    3    0  502  0.38630120723E+03  0.55589021325E+03  0.11632203881E+04  0.13458544584E+04  0.25500000920E-02 0.  1.
</event>
<event>
 5   0  0.3374790E-06  0.3099080E+04  0.7818609E-02  0.8215990E-01
       -2   -1    0    0    0  501  0.00000000000E+00  0.00000000000E+00  0.10503449200E+04  0.10503449200E+04  0.25500000920E-02 0.  1.
        2   -1    0    0  501    0  0.00000000000E+00  0.00000000000E+00 -0.22859864326E+04  0.22859864326E+04  0.25500000920E-02 0. -1.
    10030    2    1    2    0    0  0.00000000000E+00  0.00000000000E+00 -0.12356415126E+04  0.33363313526E+04  0.30990800161E+04 0.  0.
        2    1    3    3  502    0  0.94134862030E+03  0.24648679368E+03  0.68039136785E+03  0.11873606772E+04  0.25500000920E-02 0.  1.
       -2    1    3    3    0  502 -0.94134862030E+03 -0.24648679368E+03 -0.19160328805E+04  0.21489706753E+04  0.25500000920E-02 0. -1.
</event>
<event>
 5   0  0.1211008E-06  0.2975893E+04  0.7818609E-02  0.8250648E-01
        1   -1    0    0  501    0  0.00000000000E+00  0.00000000000E+00  0.12969563205E+04  0.12969563205E+04  0.50400001928E-02 0.  1.
       -1   -1    0    0    0  501  0.00000000000E+00  0.00000000000E+00 -0.17070624882E+04  0.17070624882E+04  0.50400001928E-02 0. -1.
    10030    2    1    2    0    0  0.00000000000E+00  0.00000000000E+00 -0.41010616775E+03  0.30040188087E+04  0.29758934682E+04 0.  0.
        3    1    3    3  502    0 -0.25211795305E+03  0.74346086752E+03 -0.14809960060E+04  0.16762000787E+04  0.10100000352E+00 0. -1.
       -3    1    3    3    0  502  0.25211795305E+03 -0.74346086752E+03  0.10708898383E+04  0.13278187300E+04  0.10100000352E+00 0.  1.
</event>
<event>
 5   0  0.1198763E-06  0.3097113E+04  0.7818609E-02  0.8216531E-01
        1   -1    0    0  501    0  0.00000000000E+00  0.00000000000E+00  0.18928116418E+04  0.18928116418E+04  0.50400001928E-02 0. -1.
       -1   -1    0    0    0  501  0.00000000000E+00  0.00000000000E+00 -0.12669127703E+04  0.12669127703E+04  0.50400001928E-02 0.  1.
    10030    2    1    2    0    0  0.00000000000E+00  0.00000000000E+00  0.62589887144E+03  0.31597244121E+04  0.30971130046E+04 0.  0.
        1    1    3    3  502    0 -0.39643531587E+03  0.61673693893E+03  0.17045263151E+04  0.18555148532E+04  0.50400001928E-02 0. -1.
       -1    1    3    3    0  502  0.39643531587E+03 -0.61673693893E+03 -0.10786274436E+04  0.13042095590E+04  0.50400001928E-02 0.  1.
</event>
<event>
 5   0  0.1211008E-06  0.3089616E+04  0.7818609E-02  0.8218594E-01
       -1   -1    0    0    0  501  0.00000000000E+00  0.00000000000E+00  0.14271337991E+04  0.14271337992E+04  0.50400001928E-02 0. -1.
        1   -1    0    0  501    0  0.00000000000E+00  0.00000000000E+00 -0.16721845315E+04  0.16721845315E+04  0.50400001928E-02 0.  1.
    10030    2    1    2    0    0  0.00000000000E+00  0.00000000000E+00 -0.24505073231E+03  0.30993183306E+04  0.30896155510E+04 0.  0.
        3    1    3    3  502    0 -0.11495926536E+03  0.14293705224E+04 -0.69888636965E+03  0.15952297298E+04  0.10100000352E+00 0. -1.
       -3    1    3    3    0  502  0.11495926536E+03 -0.14293705224E+04  0.45383563735E+03  0.15040886008E+04  0.10100000352E+00 0.  1.
</event>
<event>
 5   0  0.1109562E-06  0.3104503E+04  0.7818609E-02  0.8214503E-01
       -3   -1    0    0    0  501  0.00000000000E+00  0.00000000000E+00  0.22301698045E+04  0.22301698068E+04  0.10100000352E+00 0.  1.
        3   -1    0    0  501    0  0.00000000000E+00  0.00000000000E+00 -0.10804041746E+04  0.10804041794E+04  0.10100000352E+00 0. -1.
    10030    2    1    2    0    0  0.00000000000E+00  0.00000000000E+00  0.11497656299E+04  0.33105739861E+04  0.31045030382E+04 0.  0.
        3    1    3    3  502    0 -0.10967792972E+04  0.98235259305E+03  0.50789369022E+02  0.14732688193E+04  0.10100000352E+00 0. -1.
       -3    1    3    3    0  502  0.10967792972E+04 -0.98235259305E+03  0.10989762608E+04  0.18373051668E+04  0.10100000352E+00 0.  1.
</event>
<event>
 5   0  0.1235960E-06  0.2883511E+04  0.7818609E-02  0.8277800E-01
        1   -1    0    0  501    0  0.00000000000E+00  0.00000000000E+00  0.21050773151E+04  0.21050773151E+04  0.50400001928E-02 0. -1.
       -1   -1    0    0    0  501  0.00000000000E+00  0.00000000000E+00 -0.98745024642E+03  0.98745024643E+03  0.50400001928E-02 0.  1.
    10030    2    1    2    0    0  0.00000000000E+00  0.00000000000E+00  0.11176270687E+04  0.30925275615E+04  0.28835111330E+04 0.  0.
        4    1    3    3  502    0 -0.94172189536E+02 -0.10754133252E+04 -0.46611314336E+03  0.11758593864E+04  0.12699999809E+01 0.  1.
       -4    1    3    3    0  502  0.94172189536E+02  0.10754133252E+04  0.15837402120E+04  0.19166681751E+04  0.12699999809E+01 0. -1.
</event>
<event>
 5   0  0.1235960E-06  0.3116526E+04  0.7818609E-02  0.8211217E-01
        1   -1    0    0  501    0  0.00000000000E+00  0.00000000000E+00  0.18795122516E+04  0.18795122516E+04  0.50400001928E-02 0. -1.
       -1   -1    0    0    0  501  0.00000000000E+00  0.00000000000E+00 -0.12919223508E+04  0.12919223508E+04  0.50400001928E-02 0.  1.
    10030    2    1    2    0    0  0.00000000000E+00  0.00000000000E+00  0.58758990077E+03  0.31714346025E+04  0.31165261985E+04 0.  0.
        4    1    3    3  502    0  0.59816962518E+03 -0.13986153592E+04  0.63775970059E+03  0.16494456257E+04  0.12699999809E+01 0. -1.
       -4    1    3    3    0  502 -0.59816962518E+03  0.13986153592E+04 -0.50169799817E+02  0.15219889767E+04  0.12699999809E+01 0.  1.
</event>
<event>
 5   0  0.3445410E-06  0.3057650E+04  0.7818609E-02  0.8227458E-01
       -2   -1    0    0    0  501  0.00000000000E+00  0.00000000000E+00  0.10073105772E+04  0.10073105772E+04  0.25500000920E-02 0.  1.
        2   -1    0    0  501    0  0.00000000000E+00  0.00000000000E+00 -0.23203429139E+04  0.23203429139E+04  0.25500000920E-02 0. -1.
    10030    2    1    2    0    0  0.00000000000E+00  0.00000000000E+00 -0.13130323367E+04  0.33276534911E+04  0.30576500518E+04 0.  0.
        1    1    3    3  502    0  0.20985162186E+03  0.57981397561E+03  0.86597594734E+03  0.10630786852E+04  0.50400001928E-02 0.  1.
       -1    1    3    3    0  502 -0.20985162186E+03 -0.57981397561E+03 -0.21790082841E+04  0.22645748059E+04  0.50400001928E-02 0. -1.
</event>
<event>
 5   0  0.3340899E-06  0.3101314E+04  0.7818609E-02  0.8215377E-01
       -2   -1    0    0    0  501  0.00000000000E+00  0.00000000000E+00  0.93325526683E+03  0.93325526684E+03  0.25500000920E-02 0.  1.
        2   -1    0    0  501    0  0.00000000000E+00  0.00000000000E+00 -0.25765054965E+04  0.25765054965E+04  0.25500000920E-02 0. -1.
    10030    2    1    2    0    0  0.00000000000E+00  0.00000000000E+00 -0.16432502297E+04  0.35097607634E+04  0.31013141245E+04 0.  0.
        3    1    3    3  502    0  0.11518890584E+04  0.53860279295E+03 -0.18259714349E+04  0.22251096743E+04  0.10100000352E+00 0. -1.
       -3    1    3    3    0  502 -0.11518890584E+04 -0.53860279295E+03  0.18272120526E+03  0.12846510890E+04  0.10100000352E+00 0.  1.
</event>
<event>
 5   0  0.1109562E-06  0.3157189E+04  0.7818609E-02  0.8200216E-01
       -3   -1    0    0    0  501  0.00000000000E+00  0.00000000000E+00  0.89081204528E+03  0.89081205100E+03  0.10100000352E+00 0.  1.
        3   -1    0    0  501    0  0.00000000000E+00  0.00000000000E+00 -0.27974031955E+04  0.27974031973E+04  0.10100000352E+00 0. -1.
    10030    2    1    2    0    0  0.00000000000E+00  0.00000000000E+00 -0.19065911502E+04  0.36882152483E+04  0.31571889243E+04 0.  0.
        4    1    3    3  502    0 -0.11498339564E+04  0.87134631706E+03 -0.17018497224E+04  0.22310662523E+04  0.12699999809E+01 0.  1.
       -4    1    3    3    0  502  0.11498339564E+04 -0.87134631706E+03 -0.20474142785E+03  0.14571489961E+04  0.12699999809E+01 0. -1.
</event>
<event>
 5   0  0.3374790E-06  0.3114157E+04  0.7818609E-02  0.8211863E-01
       -2   -1    0    0    0  501  0.00000000000E+00  0.00000000000E+00  0.10388971690E+04  0.10388971690E+04  0.25500000920E-02 0.  1.
        2   -1    0    0  501    0  0.00000000000E+00  0.00000000000E+00 -0.23337190643E+04  0.23337190643E+04  0.25500000920E-02 0. -1.
    10030    2    1    2    0    0  0.00000000000E+00  0.00000000000E+00 -0.12948218953E+04  0.33726162334E+04  0.31141574329E+04 0.  0.
        2    1    3    3  502    0  0.74191949018E+03  0.23782331843E+03 -0.21074428230E+04  0.22468466154E+04  0.25500000920E-02 0. -1.
       -2    1    3    3    0  502 -0.74191949018E+03 -0.23782331843E+03  0.81262092766E+03  0.11257696180E+04  0.25500000920E-02 0.  1.
</event>
<event>
 5   0  0.3445959E-06  0.3138008E+04  0.7818609E-02  0.8205384E-01
        2   -1    0    0  501    0  0.00000000000E+00  0.00000000000E+00  0.21195236930E+04  0.21195236930E+04  0.25500000920E-02 0.  1.
       -2   -1    0    0    0  501  0.00000000000E+00  0.00000000000E+00 -0.11614745945E+04  0.11614745945E+04  0.25500000920E-02 0. -1.
    10030    2    1    2    0    0  0.00000000000E+00  0.00000000000E+00  0.95804909851E+03  0.32809982876E+04  0.31380075984E+04 0.  0.
        4    1    3    3  502    0  0.10648242953E+04 -0.10090635777E+04 -0.10285150640E+03  0.14705917614E+04  0.12699999809E+01 0. -1.
       -4    1    3    3    0  502 -0.10648242953E+04  0.10090635777E+04  0.10609006049E+04  0.18104065261E+04  0.12699999809E+01 0.  1.
</event>
<event>
 5   0  0.1235960E-06  0.2991058E+04  0.7818609E-02  0.8246289E-01
        1   -1    0    0  501    0  0.00000000000E+00  0.00000000000E+00  0.10745814479E+04  0.10745814479E+04  0.50400001928E-02 0. -1.
       -1   -1    0    0    0  501  0.00000000000E+00  0.00000000000E+00 -0.20813744863E+04  0.20813744863E+04  0.50400001928E-02 0.  1.
    10030    2    1    2    0    0  0.00000000000E+00  0.00000000000E+00 -0.10067930384E+04  0.31559559342E+04  0.29910576117E+04 0.  0.
        4    1    3    3  502    0 -0.16624277135E+03  0.12259066584E+04  0.38324020754E+03  0.12951287440E+04  0.12699999809E+01 0. -1.
       -4    1    3    3    0  502  0.16624277135E+03 -0.12259066584E+04 -0.13900332459E+04  0.18608271902E+04  0.12699999809E+01 0.  1.
</event>
<event>
 5   0  0.3441897E-06  0.3101098E+04  0.7818609E-02  0.8215437E-01
       -2   -1    0    0    0  501  0.00000000000E+00  0.00000000000E+00  0.15073367309E+04  0.15073367309E+04  0.25500000920E-02 0. -1.
        2   -1    0    0  501    0  0.00000000000E+00  0.00000000000E+00 -0.15950001824E+04  0.15950001824E+04  0.25500000920E-02 0.  1.
    10030    2    1    2    0    0  0.00000000000E+00  0.00000000000E+00 -0.87663451451E+02  0.31023369133E+04  0.31010981028E+04 0.  0.
        5    1    3    3  502    0  0.13948768536E+03  0.45585540099E+03  0.14321963587E+04  0.15094599898E+04  0.46999998093E+01 0. -1.
       -5    1    3    3    0  502 -0.13948768536E+03 -0.45585540099E+03 -0.15198598101E+04  0.15928769235E+04  0.46999998093E+01 0.  1.
</event>
<event>
 5   0  0.3340899E-06  0.3189085E+04  0.7818609E-02  0.8191706E-01
       -2   -1    0    0    0  501  0.00000000000E+00  0.00000000000E+00  0.11251517592E+04  0.11251517592E+04  0.25500000920E-02 0. -1.
        2   -1    0    0  501    0  0.00000000000E+00  0.00000000000E+00 -0.22597532006E+04  0.22597532006E+04  0.25500000920E-02 0.  1.
    10030    2    1    2    0    0  0.00000000000E+00  0.00000000000E+00 -0.11346014413E+04  0.33849049598E+04  0.31890846894E+04 0.  0.
        3    1    3    3  502    0 -0.12223220983E+04 -0.43395875221E+03  0.41710362861E+03  0.13624855807E+04  0.10100000352E+00 0. -1.
       -3    1    3    3    0  502  0.12223220983E+04  0.43395875221E+03 -0.15517050699E+04  0.20224193791E+04  0.10100000352E+00 0.  1.
</event>
<event>
 5   0  0.1235960E-06  0.3116758E+04  0.7818609E-02  0.8211154E-01
        1   -1    0    0  501    0  0.00000000000E+00  0.00000000000E+00  0.15926317105E+04  0.15926317105E+04  0.50400001928E-02 0. -1.
       -1   -1    0    0    0  501  0.00000000000E+00  0.00000000000E+00 -0.15248628645E+04  0.15248628645E+04  0.50400001928E-02 0.  1.
    10030    2    1    2    0    0  0.00000000000E+00  0.00000000000E+00  0.67768846009E+02  0.31174945751E+04  0.31167579003E+04 0.  0.
        4    1    3    3  502    0  0.80019832429E+03 -0.62307517344E+03 -0.11496125966E+04  0.15330201450E+04  0.12699999809E+01 0.  1.
       -4    1    3    3    0  502 -0.80019832429E+03  0.62307517344E+03  0.12173814426E+04  0.15844744301E+04  0.12699999809E+01 0. -1.
</event>
<event>
 5   0  0.1211008E-06  0.3082305E+04  0.7818609E-02  0.8220611E-01
       -1   -1    0    0    0  501  0.00000000000E+00  0.00000000000E+00  0.10827340712E+04  0.10827340712E+04  0.50400001928E-02 0. -1.
        1   -1    0    0  501    0  0.00000000000E+00  0.00000000000E+00 -0.21936604439E+04  0.21936604439E+04  0.50400001928E-02 0.  1.
    10030    2    1    2    0    0  0.00000000000E+00  0.00000000000E+00 -0.11109263727E+04  0.32763945151E+04  0.30823049189E+04 0.  0.
        3    1    3    3  502    0  0.85325316903E+03  0.47709934007E+03 -0.18219077073E+04  0.20676103247E+04  0.10100000352E+00 0.  1.
       -3    1    3    3    0  502 -0.85325316903E+03 -0.47709934007E+03  0.71098133457E+03  0.12087841904E+04  0.10100000352E+00 0. -1.
</event>
<event>
 5   0  0.3445959E-06  0.3098968E+04  0.7818609E-02  0.8216021E-01
        2   -1    0    0  501    0  0.00000000000E+00  0.00000000000E+00  0.19689297654E+04  0.19689297654E+04  0.25500000920E-02 0.  1.
       -2   -1    0    0    0  501  0.00000000000E+00  0.00000000000E+00 -0.12193938662E+04  0.12193938662E+04  0.25500000920E-02 0. -1.
    10030    2    1    2    0    0  0.00000000000E+00  0.00000000000E+00  0.74953589917E+03  0.31883236317E+04  0.30989681373E+04 0.  0.
        4    1    3    3  502    0 -0.11355194054E+04 -0.89306665159E+03  0.95121517645E+03  0.17296775101E+04  0.12699999809E+01 0. -1.
       -4    1    3    3    0  502  0.11355194054E+04  0.89306665159E+03 -0.20167927728E+03  0.14586461216E+04  0.12699999809E+01 0.  1.
</event>
<event>
 5   0  0.3340899E-06  0.3077945E+04  0.7818609E-02  0.8221817E-01
       -2   -1    0    0    0  501  0.00000000000E+00  0.00000000000E+00  0.16962962226E+04  0.16962962226E+04  0.25500000920E-02 0. -1.
        2   -1    0    0  501    0  0.00000000000E+00  0.00000000000E+00 -0.13962400177E+04  0.13962400177E+04  0.25500000920E-02 0.  1.
    10030    2    1    2    0    0  0.00000000000E+00  0.00000000000E+00  0.30005620493E+03  0.30925362403E+04  0.30779452028E+04 0.  0.
        3    1    3    3  502    0  0.11443168102E+04 -0.83758516088E+03  0.75071404232E+03  0.16045502321E+04  0.10100000352E+00 0. -1.
       -3    1    3    3    0  502 -0.11443168102E+04  0.83758516088E+03 -0.45065783739E+03  0.14879860082E+04  0.10100000352E+00 0.  1.
</event>
<event>
 5   0  0.3374790E-06  0.3108067E+04  0.7818609E-02  0.8213528E-01
       -2   -1    0    0    0  501  0.00000000000E+00  0.00000000000E+00  0.18307911945E+04  0.18307911945E+04  0.25500000920E-02 0.  1.
        2   -1    0    0  501    0  0.00000000000E+00  0.00000000000E+00 -0.13191124251E+04  0.13191124251E+04  0.25500000920E-02 0. -1.
    10030    2    1    2    0    0  0.00000000000E+00  0.00000000000E+00  0.51167876935E+03  0.31499036196E+04  0.31080665453E+04 0.  0.
        2    1    3    3  502    0  0.32950455034E+03  0.51208849743E+03 -0.11931655819E+04  0.13395715672E+04  0.25500000920E-02 0. -1.
       -2    1    3    3    0  502 -0.32950455034E+03 -0.51208849743E+03  0.17048443513E+04  0.18103320524E+04  0.25500000920E-02 0.  1.
</event>
<event>
 5   0  0.3374790E-06  0.3098098E+04  0.7818609E-02  0.8216260E-01
        2   -1    0    0  501    0  0.00000000000E+00  0.00000000000E+00  0.27722549368E+04  0.27722549368E+04  0.25500000920E-02 0.  1.
       -2   -1    0    0    0  501  0.00000000000E+00  0.00000000000E+00 -0.86555967275E+03  0.86555967276E+03  0.25500000920E-02 0. -1.
    10030    2    1    2    0    0  0.00000000000E+00  0.00000000000E+00  0.19066952641E+04  0.36378146096E+04  0.30980975297E+04 0.  0.
        2    1    3    3  502    0 -0.83607920251E+03 -0.11484313803E+04  0.16787286162E+04  0.21991027341E+04  0.25500000920E-02 0.  1.
       -2    1    3    3    0  502  0.83607920251E+03  0.11484313803E+04  0.22796664785E+03  0.14387118755E+04  0.25500000920E-02 0. -1.
</event>
<event>
 5   0  0.3445959E-06  0.3073281E+04  0.7818609E-02  0.8223109E-01
        2   -1    0    0  501    0  0.00000000000E+00  0.00000000000E+00  0.15800171104E+04  0.15800171104E+04  0.25500000920E-02 0.  1.
       -2   -1    0    0    0  501  0.00000000000E+00  0.00000000000E+00 -0.14944548894E+04  0.14944548894E+04  0.25500000920E-02 0. -1.
    10030    2    1    2    0    0  0.00000000000E+00  0.00000000000E+00  0.85562221050E+02  0.30744719998E+04  0.30732811756E+04 0.  0.
        4    1    3    3  502    0  0.10639663671E+04  0.20998086154E+03  0.11318471789E+04  0.15675445900E+04  0.12699999809E+01 0.  1.
       -4    1    3    3    0  502 -0.10639663671E+04 -0.20998086154E+03 -0.10462849578E+04  0.15069274098E+04  0.12699999809E+01 0. -1.
</event>
<event>
 5   0  0.3441897E-06  0.3097117E+04  0.7818609E-02  0.8216530E-01
        2   -1    0    0  501    0  0.00000000000E+00  0.00000000000E+00  0.27530525017E+04  0.27530525017E+04  0.25500000920E-02 0.  1.
       -2   -1    0    0    0  501  0.00000000000E+00  0.00000000000E+00 -0.87104509955E+03  0.87104509955E+03  0.25500000920E-02 0. -1.
    10030    2    1    2    0    0  0.00000000000E+00  0.00000000000E+00  0.18820074021E+04  0.36240976012E+04  0.30971166529E+04 0.  0.
        5    1    3    3  502    0  0.26879898233E+03 -0.31133062289E+03  0.26879554357E+04  0.27192473525E+04  0.46999998093E+01 0.  1.
       -5    1    3    3    0  502 -0.26879898233E+03  0.31133062289E+03 -0.80594803363E+03  0.90485024870E+03  0.46999998093E+01 0. -1.
</event>
<event>
 5   0  0.3441897E-06  0.3077831E+04  0.7818609E-02  0.8221848E-01
        2   -1    0    0  501    0  0.00000000000E+00  0.00000000000E+00  0.17747923925E+04  0.17747923925E+04  0.25500000920E-02 0. -1.
       -2   -1    0    0    0  501  0.00000000000E+00  0.00000000000E+00 -0.13343874474E+04  0.13343874474E+04  0.25500000920E-02 0.  1.
    10030    2    1    2    0    0  0.00000000000E+00  0.00000000000E+00  0.44040494509E+03  0.31091798399E+04  0.30778308533E+04 0.  0.
        5    1    3    3  502    0 -0.13468329076E+04  0.95345736384E+02  0.96609215646E+03  0.16602427037E+04  0.46999998093E+01 0. -1.
       -5    1    3    3    0  502  0.13468329076E+04 -0.95345736384E+02 -0.52568721137E+03  0.14489371362E+04  0.46999998093E+01 0.  1.
</event>
<event>
 5   0  0.3340899E-06  0.3103031E+04  0.7818609E-02  0.8214907E-01
        2   -1    0    0  501    0  0.00000000000E+00  0.00000000000E+00  0.12753704698E+04  0.12753704698E+04  0.25500000920E-02 0.  1.
       -2   -1    0    0    0  501  0.00000000000E+00  0.00000000000E+00 -0.18874517796E+04  0.18874517796E+04  0.25500000920E-02 0. -1.
    10030    2    1    2    0    0  0.00000000000E+00  0.00000000000E+00 -0.61208130981E+03  0.31628222495E+04  0.31030309460E+04 0.  0.
        3    1    3    3  502    0  0.33974984459E+02 -0.28967795357E+03  0.12471765396E+04  0.12808266657E+04  0.10100000352E+00 0.  1.
       -3    1    3    3    0  502 -0.33974984459E+02  0.28967795357E+03 -0.18592578494E+04  0.18819955838E+04  0.10100000352E+00 0. -1.
</event>
<event>
 5   0  0.1198763E-06  0.3174446E+04  0.7818609E-02  0.8195599E-01
       -1   -1    0    0    0  501  0.00000000000E+00  0.00000000000E+00  0.11034941563E+04  0.11034941563E+04  0.50400001928E-02 0. -1.
        1   -1    0    0  501    0  0.00000000000E+00  0.00000000000E+00 -0.22829999284E+04  0.22829999284E+04  0.50400001928E-02 0.  1.
    10030    2    1    2    0    0  0.00000000000E+00  0.00000000000E+00 -0.11795057721E+04  0.33864940848E+04  0.31744461438E+04 0.  0.
        1    1    3    3  502    0 -0.69667511621E+03  0.81399322050E+03  0.65951127349E+03  0.12581320680E+04  0.50400001928E-02 0. -1.
       -1    1    3    3    0  502  0.69667511621E+03 -0.81399322050E+03 -0.18390170456E+04  0.21283620168E+04  0.50400001928E-02 0.  1.
</event>
<event>
 5   0  0.1198763E-06  0.3111802E+04  0.7818609E-02  0.8212506E-01
       -1   -1    0    0    0  501  0.00000000000E+00  0.00000000000E+00  0.13952582382E+04  0.13952582382E+04  0.50400001928E-02 0. -1.
        1   -1    0    0  501    0  0.00000000000E+00  0.00000000000E+00 -0.17350396523E+04  0.17350396523E+04  0.50400001928E-02 0.  1.
    10030    2    1    2    0    0  0.00000000000E+00  0.00000000000E+00 -0.33978141407E+03  0.31302978905E+04  0.31118022871E+04 0.  0.
        1    1    3    3  502    0 -0.17732001911E+03  0.43233638658E+03 -0.16627840957E+04  0.17271965984E+04  0.50400001928E-02 0.  1.
       -1    1    3    3    0  502  0.17732001911E+03 -0.43233638658E+03  0.13230026817E+04  0.14031012922E+04  0.50400001928E-02 0. -1.
</event>
<event>
 5   0  0.3374790E-06  0.3091671E+04  0.7818609E-02  0.8218027E-01
        2   -1    0    0  501    0  0.00000000000E+00  0.00000000000E+00  0.25290922831E+04  0.25290922831E+04  0.25500000920E-02 0.  1.
       -2   -1    0    0    0  501  0.00000000000E+00  0.00000000000E+00 -0.94484782027E+03  0.94484782028E+03  0.25500000920E-02 0. -1.
    10030    2    1    2    0    0  0.00000000000E+00  0.00000000000E+00  0.15842444628E+04  0.34739401033E+04  0.30916709598E+04 0.  0.
        2    1    3    3  502    0  0.71002055949E+03 -0.11238954815E+04  0.16785470342E+04  0.21412123655E+04  0.25500000920E-02 0.  1.
       -2    1    3    3    0  502 -0.71002055949E+03  0.11238954815E+04 -0.94302571394E+02  0.13327277378E+04  0.25500000920E-02 0. -1.
</event>
<event>
 5   0  0.3445959E-06  0.3104202E+04  0.7818609E-02  0.8214586E-01
        2   -1    0    0  501    0  0.00000000000E+00  0.00000000000E+00  0.21668799942E+04  0.21668799942E+04  0.25500000920E-02 0. -1.
       -2   -1    0    0    0  501  0.00000000000E+00  0.00000000000E+00 -0.11117449394E+04  0.11117449394E+04  0.25500000920E-02 0.  1.
    10030    2    1    2    0    0  0.00000000000E+00  0.00000000000E+00  0.10551350548E+04  0.32786249336E+04  0.31042022279E+04 0.  0.
        4    1    3    3  502    0  0.55758712167E+03 -0.36387411422E+03 -0.95324911715E+03  0.11627524507E+04  0.12699999809E+01 0.  1.
       -4    1    3    3    0  502 -0.55758712167E+03  0.36387411422E+03  0.20083841719E+04  0.21158724830E+04  0.12699999809E+01 0. -1.
</event>
<event>
 5   0  0.1250276E-06  0.3147431E+04  0.7818609E-02  0.8202840E-01
        1   -1    0    0  501    0  0.00000000000E+00  0.00000000000E+00  0.16991497496E+04  0.16991497496E+04  0.50400001928E-02 0.  1.
       -1   -1    0    0    0  501  0.00000000000E+00  0.00000000000E+00 -0.14575408352E+04  0.14575408352E+04  0.50400001928E-02 0. -1.
    10030    2    1    2    0    0  0.00000000000E+00  0.00000000000E+00  0.24160891433E+03  0.31566905848E+04  0.31474307904E+04 0.  0.
        5    1    3    3  502    0  0.43954871616E+03  0.25153615247E+03  0.16151828608E+04  0.16927230352E+04  0.46999998093E+01 0.  1.
       -5    1    3    3    0  502 -0.43954871616E+03 -0.25153615247E+03 -0.13735739465E+04  0.14639675496E+04  0.46999998093E+01 0. -1.
</event>
<event>
 5   0  0.3445410E-06  0.3012557E+04  0.7818609E-02  0.8240154E-01
        2   -1    0    0  501    0  0.00000000000E+00  0.00000000000E+00  0.15926807481E+04  0.15926807481E+04  0.25500000920E-02 0.  1.
       -2   -1    0    0    0  501  0.00000000000E+00  0.00000000000E+00 -0.14245632949E+04  0.14245632949E+04  0.25500000920E-02 0. -1.
    10030    2    1    2    0    0  0.00000000000E+00  0.00000000000E+00  0.16811745320E+03  0.30172440430E+04  0.30125567442E+04 0.  0.
        1    1    3    3  502    0  0.11636815836E+04 -0.55155919694E+03 -0.69850336176E+03  0.14650185399E+04  0.50400001928E-02 0. -1.
       -1    1    3    3    0  502 -0.11636815836E+04  0.55155919694E+03  0.86662081496E+03  0.15522255032E+04  0.50400001928E-02 0.  1.
</event>
<event>
 5   0  0.1250276E-06  0.3150386E+04  0.7818609E-02  0.8202044E-01
        1   -1    0    0  501    0  0.00000000000E+00  0.00000000000E+00  0.21294703375E+04  0.21294703376E+04  0.50400001928E-02 0.  1.
       -1   -1    0    0    0  501  0.00000000000E+00  0.00000000000E+00 -0.11651879702E+04  0.11651879702E+04  0.50400001928E-02 0. -1.
    10030    2    1    2    0    0  0.00000000000E+00  0.00000000000E+00  0.96428236733E+03  0.32946583078E+04  0.31503861479E+04 0.  0.
        5    1    3    3  502    0 -0.49926799228E+03 -0.37538101288E+03  0.19944026950E+04  0.20899386672E+04  0.46999998093E+01 0.  1.
       -5    1    3    3    0  502  0.49926799228E+03  0.37538101288E+03 -0.10301203277E+04  0.12047196406E+04  0.46999998093E+01 0. -1.
</event>
<event>
 5   0  0.1235960E-06  0.3053038E+04  0.7818609E-02  0.8228746E-01
        1   -1    0    0  501    0  0.00000000000E+00  0.00000000000E+00  0.17742542109E+04  0.17742542109E+04  0.50400001928E-02 0.  1.
       -1   -1    0    0    0  501  0.00000000000E+00  0.00000000000E+00 -0.13133747969E+04  0.13133747969E+04  0.50400001928E-02 0. -1.
    10030    2    1    2    0    0  0.00000000000E+00  0.00000000000E+00  0.46087941400E+03  0.30876290078E+04  0.30530383318E+04 0.  0.
        4    1    3    3  502    0 -0.10878632073E+03 -0.11479842554E+03 -0.13050662116E+04  0.13146149899E+04  0.12699999809E+01 0. -1.
       -4    1    3    3    0  502  0.10878632073E+03  0.11479842554E+03  0.17659456256E+04  0.17730140179E+04  0.12699999809E+01 0.  1.
</event>
<event>
 5   0  0.1198763E-06  0.3099613E+04  0.7818609E-02  0.8215844E-01
       -1   -1    0    0    0  501  0.00000000000E+00  0.00000000000E+00  0.13373600090E+04  0.13373600090E+04  0.50400001928E-02 0.  1.
        1   -1    0    0  501    0  0.00000000000E+00  0.00000000000E+00 -0.17960007014E+04  0.17960007014E+04  0.50400001928E-02 0. -1.
    10030    2    1    2    0    0  0.00000000000E+00  0.00000000000E+00 -0.45864069233E+03  0.31333607104E+04  0.30996125656E+04 0.  0.
        1    1    3    3  502    0 -0.11060787205E+04  0.48358230710E+03 -0.12118271775E+04  0.17104932306E+04  0.50400001928E-02 0. -1.
       -1    1    3    3    0  502  0.11060787205E+04 -0.48358230710E+03  0.75318648522E+03  0.14228674798E+04  0.50400001928E-02 0.  1.
</event>
<event>
 5   0  0.1198763E-06  0.2979597E+04  0.7818609E-02  0.8249581E-01
       -1   -1    0    0    0  501  0.00000000000E+00  0.00000000000E+00  0.10449978622E+04  0.10449978622E+04  0.50400001928E-02 0. -1.
        1   -1    0    0  501    0  0.00000000000E+00  0.00000000000E+00 -0.21239277089E+04  0.21239277089E+04  0.50400001928E-02 0.  1.
    10030    2    1    2    0    0  0.00000000000E+00  0.00000000000E+00 -0.10789298467E+04  0.31689255711E+04  0.29795972313E+04 0.  0.
        1    1    3    3  502    0 -0.11601351978E+04 -0.40584599754E+03 -0.14349108971E+04  0.18893369031E+04  0.50400001928E-02 0.  1.
       -1    1    3    3    0  502  0.11601351978E+04  0.40584599754E+03  0.35598105041E+03  0.12795886680E+04  0.50400001928E-02 0. -1.
</event>
<event>
 5   0  0.1198763E-06  0.3111510E+04  0.7818609E-02  0.8212586E-01
       -1   -1    0    0    0  501  0.00000000000E+00  0.00000000000E+00  0.16569034907E+04  0.16569034907E+04  0.50400001928E-02 0. -1.
        1   -1    0    0  501    0  0.00000000000E+00  0.00000000000E+00 -0.14607812279E+04  0.14607812279E+04  0.50400001928E-02 0.  1.
    10030    2    1    2    0    0  0.00000000000E+00  0.00000000000E+00  0.19612226277E+03  0.31176847186E+04  0.31115099329E+04 0.  0.
        1    1    3    3  502    0  0.18750559827E+03 -0.15443237526E+04  0.11480696919E+03  0.15598957793E+04  0.50400001928E-02 0.  1.
       -1    1    3    3    0  502 -0.18750559827E+03  0.15443237526E+04  0.81315293581E+02  0.15577889392E+04  0.50400001928E-02 0. -1.
</event>
<event>
 5   0  0.1171915E-06  0.2999285E+04  0.7818609E-02  0.8243935E-01
        1   -1    0    0  501    0  0.00000000000E+00  0.00000000000E+00  0.22678113388E+04  0.22678113388E+04  0.50400001928E-02 0.  1.
       -1   -1    0    0    0  501  0.00000000000E+00  0.00000000000E+00 -0.99167313601E+03  0.99167313603E+03  0.50400001928E-02 0. -1.
    10030    2    1    2    0    0  0.00000000000E+00  0.00000000000E+00  0.12761382027E+04  0.32594844748E+04  0.29992849696E+04 0.  0.
        2    1    3    3  502    0 -0.96203951467E+03  0.97845652100E+03 -0.19421817034E+02  0.13723244508E+04  0.25500000920E-02 0. -1.
       -2    1    3    3    0  502  0.96203951467E+03 -0.97845652100E+03  0.12955600198E+04  0.18871600240E+04  0.25500000920E-02 0.  1.
</event>
<event>
 5   0  0.1250276E-06  0.2794266E+04  0.7818609E-02  0.8305051E-01
       -1   -1    0    0    0  501  0.00000000000E+00  0.00000000000E+00  0.83081646223E+03  0.83081646224E+03  0.50400001928E-02 0. -1.
        1   -1    0    0  501    0  0.00000000000E+00  0.00000000000E+00 -0.23494724003E+04  0.23494724003E+04  0.50400001928E-02 0.  1.
    10030    2    1    2    0    0  0.00000000000E+00  0.00000000000E+00 -0.15186559381E+04  0.31802888626E+04  0.27942658054E+04 0.  0.
        5    1    3    3  502    0  0.53435650480E+03 -0.12442771112E+03 -0.22217219219E+04  0.22884688151E+04  0.46999998093E+01 0.  1.
       -5    1    3    3    0  502 -0.53435650480E+03  0.12442771112E+03  0.70306598378E+03  0.89182004747E+03  0.46999998093E+01 0. -1.
</event>
<event>
 5   0  0.3340899E-06  0.2932015E+04  0.7818609E-02  0.8263415E-01
       -2   -1    0    0    0  501  0.00000000000E+00  0.00000000000E+00  0.13612990749E+04  0.13612990749E+04  0.25500000920E-02 0.  1.
        2   -1    0    0  501    0  0.00000000000E+00  0.00000000000E+00 -0.15787693657E+04  0.15787693657E+04  0.25500000920E-02 0. -1.
    10030    2    1    2    0    0  0.00000000000E+00  0.00000000000E+00 -0.21747029082E+03  0.29400684406E+04  0.29320145136E+04 0.  0.
        3    1    3    3  502    0  0.10401591021E+04 -0.86487100061E+03  0.45783411813E+03  0.14281263583E+04  0.10100000352E+00 0.  1.
       -3    1    3    3    0  502 -0.10401591021E+04  0.86487100061E+03 -0.67530440896E+03  0.15119420823E+04  0.10100000352E+00 0. -1.
</event>
<event>
 5   0  0.1211008E-06  0.3119739E+04  0.7818609E-02  0.8210342E-01
       -1   -1    0    0    0  501  0.00000000000E+00  0.00000000000E+00  0.18552467963E+04  0.18552467963E+04  0.50400001928E-02 0.  1.
        1   -1    0    0  501    0  0.00000000000E+00  0.00000000000E+00 -0.13115195081E+04  0.13115195081E+04  0.50400001928E-02 0. -1.
    10030    2    1    2    0    0  0.00000000000E+00  0.00000000000E+00  0.54372728824E+03  0.31667663044E+04  0.31197386850E+04 0.  0.
        3    1    3    3  502    0 -0.13112419039E+04 -0.64377476683E+03 -0.28355086601E+03  0.14880196184E+04  0.10100000352E+00 0.  1.
       -3    1    3    3    0  502  0.13112419039E+04  0.64377476683E+03  0.82727815425E+03  0.16787466860E+04  0.10100000352E+00 0. -1.
</event>
<event>
 5   0  0.1171915E-06  0.3109394E+04  0.7818609E-02  0.8213165E-01
        1   -1    0    0  501    0  0.00000000000E+00  0.00000000000E+00  0.11876919278E+04  0.11876919278E+04  0.50400001928E-02 0.  1.
       -1   -1    0    0    0  501  0.00000000000E+00  0.00000000000E+00 -0.20351090808E+04  0.20351090808E+04  0.50400001928E-02 0. -1.
    10030    2    1    2    0    0  0.00000000000E+00  0.00000000000E+00 -0.84741715307E+03  0.32228010086E+04  0.31093939136E+04 0.  0.
        2    1    3    3  502    0 -0.90136934479E+03  0.83087160020E+03 -0.14147563301E+04  0.18719908615E+04  0.25500000920E-02 0. -1.
       -2    1    3    3    0  502  0.90136934479E+03 -0.83087160020E+03  0.56733917708E+03  0.13508101471E+04  0.25500000920E-02 0.  1.
</event>
<event>
 5   0  0.3441897E-06  0.2785980E+04  0.7818609E-02  0.8307634E-01
       -2   -1    0    0    0  501  0.00000000000E+00  0.00000000000E+00  0.13879304771E+04  0.13879304771E+04  0.25500000920E-02 0.  1.
        2   -1    0    0  501    0  0.00000000000E+00  0.00000000000E+00 -0.13980675410E+04  0.13980675410E+04  0.25500000920E-02 0. -1.
    10030    2    1    2    0    0  0.00000000000E+00  0.00000000000E+00 -0.10137063962E+02  0.27859980181E+04  0.27859795758E+04 0.  0.
        5    1    3    3  502    0 -0.12993687331E+04  0.23377146206E+03  0.43922064365E+03  0.13913824294E+04  0.46999998093E+01 0.  1.
       -5    1    3    3    0  502  0.12993687331E+04 -0.23377146206E+03 -0.44935770761E+03  0.13946155888E+04  0.46999998093E+01 0. -1.
</event>
<event>
 5   0  0.3340899E-06  0.3182815E+04  0.7818609E-02  0.8193371E-01
        2   -1    0    0  501    0  0.00000000000E+00  0.00000000000E+00  0.23140876420E+04  0.23140876420E+04  0.25500000920E-02 0.  1.
       -2   -1    0    0    0  501  0.00000000000E+00  0.00000000000E+00 -0.10944172130E+04  0.10944172130E+04  0.25500000920E-02 0. -1.
    10030    2    1    2    0    0  0.00000000000E+00  0.00000000000E+00  0.12196704290E+04  0.34085048551E+04  0.31828146964E+04 0.  0.
        3    1    3    3  502    0 -0.47953771996E+03 -0.82448644340E+03 -0.75440490739E+03  0.12160843288E+04  0.10100000352E+00 0. -1.
       -3    1    3    3    0  502  0.47953771996E+03  0.82448644340E+03  0.19740753364E+04  0.21924205263E+04  0.10100000352E+00 0.  1.
</event>
<event>
 5   0  0.1198763E-06  0.3120553E+04  0.7818609E-02  0.8210120E-01
        1   -1    0    0  501    0  0.00000000000E+00  0.00000000000E+00  0.13631803369E+04  0.13631803369E+04  0.50400001928E-02 0.  1.
       -1   -1    0    0    0  501  0.00000000000E+00  0.00000000000E+00 -0.17858702789E+04  0.17858702789E+04  0.50400001928E-02 0. -1.
    10030    2    1    2    0    0  0.00000000000E+00  0.00000000000E+00 -0.42268994205E+03  0.31490506158E+04  0.31205533153E+04 0.  0.
        1    1    3    3  502    0 -0.56437553917E+03 -0.13751817216E+04  0.26713557066E+03  0.15102999469E+04  0.50400001928E-02 0.  1.
       -1    1    3    3    0  502  0.56437553917E+03  0.13751817216E+04 -0.68982551271E+03  0.16387506688E+04  0.50400001928E-02 0. -1.
</event>
<event>
 5   0  0.3445959E-06  0.3044752E+04  0.7818609E-02  0.8231066E-01
        2   -1    0    0  501    0  0.00000000000E+00  0.00000000000E+00  0.13960740469E+04  0.13960740469E+04  0.25500000920E-02 0. -1.
       -2   -1    0    0    0  501  0.00000000000E+00  0.00000000000E+00 -0.16601041458E+04  0.16601041458E+04  0.25500000920E-02 0.  1.
    10030    2    1    2    0    0  0.00000000000E+00  0.00000000000E+00 -0.26403009890E+03  0.30561781928E+04  0.30447517555E+04 0.  0.
        4    1    3    3  502    0 -0.13779586071E+04 -0.64650915350E+03 -0.10219342340E+03  0.15255127391E+04  0.12699999809E+01 0.  1.
       -4    1    3    3    0  502  0.13779586071E+04  0.64650915350E+03 -0.16183667550E+03  0.15306654536E+04  0.12699999809E+01 0. -1.
</event>
<event>
 5   0  0.3445410E-06  0.3236683E+04  0.7818609E-02  0.8179196E-01
        2   -1    0    0  501    0  0.00000000000E+00  0.00000000000E+00  0.21295191305E+04  0.21295191305E+04  0.25500000920E-02 0.  1.
       -2   -1    0    0    0  501  0.00000000000E+00  0.00000000000E+00 -0.12298689783E+04  0.12298689783E+04  0.25500000920E-02 0. -1.
    10030    2    1    2    0    0  0.00000000000E+00  0.00000000000E+00  0.89965015216E+03  0.33593881088E+04  0.32366831895E+04 0.  0.
        1    1    3    3  502    0  0.21502174937E+03 -0.12399165658E+04 -0.60629793151E+03  0.13968624215E+04  0.50400001928E-02 0. -1.
       -1    1    3    3    0  502 -0.21502174937E+03  0.12399165658E+04  0.15059480837E+04  0.19625256873E+04  0.50400001928E-02 0.  1.
</event>
<event>
 5   0  0.3340899E-06  0.3141296E+04  0.7818609E-02  0.8204495E-01
       -2   -1    0    0    0  501  0.00000000000E+00  0.00000000000E+00  0.18063660600E+04  0.18063660600E+04  0.25500000920E-02 0. -1.
        2   -1    0    0  501    0  0.00000000000E+00  0.00000000000E+00 -0.13656896949E+04  0.13656896949E+04  0.25500000920E-02 0.  1.
    10030    2    1    2    0    0  0.00000000000E+00  0.00000000000E+00  0.44067636512E+03  0.31720557549E+04  0.31412962378E+04 0.  0.
        3    1    3    3  502    0 -0.46226012069E+03 -0.14808226594E+04 -0.27863952671E+02  0.15515465117E+04  0.10100000352E+00 0.  1.
       -3    1    3    3    0  502  0.46226012069E+03  0.14808226594E+04  0.46854031779E+03  0.16205092432E+04  0.10100000352E+00 0. -1.
</event>
<event>
 5   0  0.1250276E-06  0.3102334E+04  0.7818609E-02  0.8215098E-01
       -1   -1    0    0    0  501  0.00000000000E+00  0.00000000000E+00  0.11194470628E+04  0.11194470629E+04  0.50400001928E-02 0.  1.
        1   -1    0    0  501    0  0.00000000000E+00  0.00000000000E+00 -0.21493814941E+04  0.21493814941E+04  0.50400001928E-02 0. -1.
    10030    2    1    2    0    0  0.00000000000E+00  0.00000000000E+00 -0.10299344313E+04  0.32688285570E+04  0.31023338315E+04 0.  0.
        5    1    3    3  502    0 -0.44432938832E+03 -0.11017641621E+04 -0.15658831438E+04  0.19655342745E+04  0.46999998093E+01 0. -1.
       -5    1    3    3    0  502  0.44432938832E+03  0.11017641621E+04  0.53594871254E+03  0.13032942825E+04  0.46999998093E+01 0.  1.
</event>
<event>
 5   0  0.1171915E-06  0.3096195E+04  0.7818609E-02  0.8216783E-01
       -1   -1    0    0    0  501  0.00000000000E+00  0.00000000000E+00  0.27143923168E+04  0.27143923168E+04  0.50400001928E-02 0. -1.
        1   -1    0    0  501    0  0.00000000000E+00  0.00000000000E+00 -0.88292539426E+03  0.88292539428E+03  0.50400001928E-02 0.  1.
    10030    2    1    2    0    0  0.00000000000E+00  0.00000000000E+00  0.18314669225E+04  0.35973177111E+04  0.30961950239E+04 0.  0.
        2    1    3    3  502    0  0.11606068020E+04  0.97432793993E+03  0.12836622439E+04  0.19859788115E+04  0.25500000920E-02 0.  1.
       -2    1    3    3    0  502 -0.11606068020E+04 -0.97432793993E+03  0.54780467862E+03  0.16113388996E+04  0.25500000920E-02 0. -1.
</event>
<event>
 5   0  0.1211008E-06  0.2793232E+04  0.7818609E-02  0.8305373E-01
        1   -1    0    0  501    0  0.00000000000E+00  0.00000000000E+00  0.13702892508E+04  0.13702892508E+04  0.50400001928E-02 0. -1.
       -1   -1    0    0    0  501  0.00000000000E+00  0.00000000000E+00 -0.14234484128E+04  0.14234484128E+04  0.50400001928E-02 0.  1.
    10030    2    1    2    0    0  0.00000000000E+00  0.00000000000E+00 -0.53159162012E+02  0.27937376636E+04  0.27932318623E+04 0.  0.
        3    1    3    3  502    0  0.80691118637E+03  0.84577816006E+03 -0.79097558078E+03  0.14114137375E+04  0.10100000352E+00 0.  1.
       -3    1    3    3    0  502 -0.80691118637E+03 -0.84577816006E+03  0.73781641877E+03  0.13823239261E+04  0.10100000352E+00 0. -1.
</event>
<event>
 5   0  0.3374790E-06  0.3086171E+04  0.7818609E-02  0.8219544E-01
        2   -1    0    0  501    0  0.00000000000E+00  0.00000000000E+00  0.16231742606E+04  0.16231742606E+04  0.25500000920E-02 0.  1.
       -2   -1    0    0    0  501  0.00000000000E+00  0.00000000000E+00 -0.14669480551E+04  0.14669480551E+04  0.25500000920E-02 0. -1.
    10030    2    1    2    0    0  0.00000000000E+00  0.00000000000E+00  0.15622620550E+03  0.30901223157E+04  0.30861706529E+04 0.  0.
        2    1    3    3  502    0 -0.47114961636E+03  0.14455690040E+04  0.34200439248E+03  0.15584026151E+04  0.25500000920E-02 0. -1.
       -2    1    3    3    0  502  0.47114961636E+03 -0.14455690040E+04 -0.18577818697E+03  0.15317197006E+04  0.25500000920E-02 0.  1.
</event>
<event>
 5   0  0.3445959E-06  0.3092607E+04  0.7818609E-02  0.8217770E-01
       -2   -1    0    0    0  501  0.00000000000E+00  0.00000000000E+00  0.28721013372E+04  0.28721013372E+04  0.25500000920E-02 0.  1.
        2   -1    0    0  501    0  0.00000000000E+00  0.00000000000E+00 -0.83251068600E+03  0.83251068600E+03  0.25500000920E-02 0. -1.
    10030    2    1    2    0    0  0.00000000000E+00  0.00000000000E+00  0.20395906512E+04  0.37046120232E+04  0.30926073494E+04 0.  0.
        4    1    3    3  502    0  0.56904830000E+03  0.13810989595E+04  0.54093307782E+03  0.15886662680E+04  0.12699999809E+01 0.  1.
       -4    1    3    3    0  502 -0.56904830000E+03 -0.13810989595E+04  0.14986575733E+04  0.21159457551E+04  0.12699999809E+01 0. -1.
</event>
<event>
 5   0  0.1171915E-06  0.3086983E+04  0.7818609E-02  0.8219319E-01
       -1   -1    0    0    0  501  0.00000000000E+00  0.00000000000E+00  0.18494804289E+04  0.18494804289E+04  0.50400001928E-02 0.  1.
        1   -1    0    0  501    0  0.00000000000E+00  0.00000000000E+00 -0.12881271653E+04  0.12881271654E+04  0.50400001928E-02 0. -1.
    10030    2    1    2    0    0  0.00000000000E+00  0.00000000000E+00  0.56135326354E+03  0.31376075942E+04  0.30869829817E+04 0.  0.
        2    1    3    3  502    0  0.11509387378E+04  0.14015945076E+03  0.13162381397E+04  0.17540773900E+04  0.25500000920E-02 0.  1.
       -2    1    3    3    0  502 -0.11509387378E+04 -0.14015945076E+03 -0.75488487618E+03  0.13835302042E+04  0.25500000920E-02 0. -1.
</event>
<event>
 5   0  0.1250276E-06  0.3121057E+04  0.7818609E-02  0.8209983E-01
        1   -1    0    0  501    0  0.00000000000E+00  0.00000000000E+00  0.24753965196E+04  0.24753965196E+04  0.50400001928E-02 0. -1.
       -1   -1    0    0    0  501  0.00000000000E+00  0.00000000000E+00 -0.98378142375E+03  0.98378142376E+03  0.50400001928E-02 0.  1.
    10030    2    1    2    0    0  0.00000000000E+00  0.00000000000E+00  0.14916150958E+04  0.34591779434E+04  0.31210569443E+04 0.  0.
        5    1    3    3  502    0  0.26528743036E+03  0.59438825235E+03  0.23177508041E+04  0.24074188865E+04  0.46999998093E+01 0. -1.
       -5    1    3    3    0  502 -0.26528743036E+03 -0.59438825235E+03 -0.82613570825E+03  0.10517590569E+04  0.46999998093E+01 0.  1.
</event>
<event>
 5   0  0.1171915E-06  0.3091543E+04  0.7818609E-02  0.8218063E-01
        1   -1    0    0  501    0  0.00000000000E+00  0.00000000000E+00  0.14341722312E+04  0.14341722312E+04  0.50400001928E-02 0. -1.
       -1   -1    0    0    0  501  0.00000000000E+00  0.00000000000E+00 -0.16660544203E+04  0.16660544203E+04  0.50400001928E-02 0.  1.
    10030    2    1    2    0    0  0.00000000000E+00  0.00000000000E+00 -0.23188218906E+03  0.31002266515E+04  0.30915426474E+04 0.  0.
        2    1    3    3  502    0 -0.48516366493E+02  0.12086050261E+04 -0.10811044902E+04  0.16223029513E+04  0.25500000920E-02 0.  1.
       -2    1    3    3    0  502  0.48516366493E+02 -0.12086050261E+04  0.84922230110E+03  0.14779237002E+04  0.25500000920E-02 0. -1.
</event>
<event>
 5   0  0.3374790E-06  0.3114501E+04  0.7818609E-02  0.8211769E-01
        2   -1    0    0  501    0  0.00000000000E+00  0.00000000000E+00  0.24577159475E+04  0.24577159475E+04  0.25500000920E-02 0.  1.
       -2   -1    0    0    0  501  0.00000000000E+00  0.00000000000E+00 -0.98670048891E+03  0.98670048891E+03  0.25500000920E-02 0. -1.
    10030    2    1    2    0    0  0.00000000000E+00  0.00000000000E+00  0.14710154586E+04  0.34444164364E+04  0.31145012615E+04 0.  0.
        2    1    3    3  502    0 -0.21594651762E+03  0.33731659476E+03  0.23997795106E+04  0.24329728899E+04  0.25500000920E-02 0.  1.
       -2    1    3    3    0  502  0.21594651762E+03 -0.33731659476E+03 -0.92876405197E+03  0.10114435465E+04  0.25500000920E-02 0. -1.
</event>
<event>
 5   0  0.3340899E-06  0.3148838E+04  0.7818609E-02  0.8202461E-01
       -2   -1    0    0    0  501  0.00000000000E+00  0.00000000000E+00  0.13521027114E+04  0.13521027114E+04  0.25500000920E-02 0. -1.
        2   -1    0    0  501    0  0.00000000000E+00  0.00000000000E+00 -0.18332895003E+04  0.18332895003E+04  0.25500000920E-02 0.  1.
    10030    2    1    2    0    0  0.00000000000E+00  0.00000000000E+00 -0.48118678895E+03  0.31853922117E+04  0.31488383281E+04 0.  0.
        3    1    3    3  502    0 -0.10336232379E+04 -0.55707321111E+03  0.82043325192E+03  0.14324169405E+04  0.10100000352E+00 0. -1.
       -3    1    3    3    0  502  0.10336232379E+04  0.55707321111E+03 -0.13016200409E+04  0.17529752712E+04  0.10100000352E+00 0.  1.
</event>
<event>
 5   0  0.3374790E-06  0.3053975E+04  0.7818609E-02  0.8228484E-01
       -2   -1    0    0    0  501  0.00000000000E+00  0.00000000000E+00  0.97535764924E+03  0.97535764924E+03  0.25500000920E-02 0. -1.
        2   -1    0    0  501    0  0.00000000000E+00  0.00000000000E+00 -0.23906005731E+04  0.23906005731E+04  0.25500000920E-02 0.  1.
    10030    2    1    2    0    0  0.00000000000E+00  0.00000000000E+00 -0.14152429239E+04  0.33659582224E+04  0.30539748233E+04 0.  0.
        2    1    3    3  502    0 -0.59495979257E+03  0.14031612630E+04 -0.81131717315E+03  0.17265787675E+04  0.25500000920E-02 0. -1.
       -2    1    3    3    0  502  0.59495979257E+03 -0.14031612630E+04 -0.60392575072E+03  0.16393794549E+04  0.25500000920E-02 0.  1.
</event>
<event>
 5   0  0.1211008E-06  0.3026111E+04  0.7818609E-02  0.8236314E-01
       -1   -1    0    0    0  501  0.00000000000E+00  0.00000000000E+00  0.13213177014E+04  0.13213177014E+04  0.50400001928E-02 0.  1.
        1   -1    0    0  501    0  0.00000000000E+00  0.00000000000E+00 -0.17326162921E+04  0.17326162921E+04  0.50400001928E-02 0. -1.
    10030    2    1    2    0    0  0.00000000000E+00  0.00000000000E+00 -0.41129859070E+03  0.30539339936E+04  0.30261107558E+04 0.  0.
        3    1    3    3  502    0 -0.45764516237E+03 -0.94933535019E+02  0.12466389700E+04  0.13313753049E+04  0.10100000352E+00 0.  1.
       -3    1    3    3    0  502  0.45764516237E+03  0.94933535019E+02 -0.16579375607E+04  0.17225586887E+04  0.10100000352E+00 0. -1.
</event>
<event>
 5   0  0.1250276E-06  0.3074715E+04  0.7818609E-02  0.8222712E-01
        1   -1    0    0  501    0  0.00000000000E+00  0.00000000000E+00  0.27185283724E+04  0.27185283724E+04  0.50400001928E-02 0.  1.
       -1   -1    0    0    0  501  0.00000000000E+00  0.00000000000E+00 -0.86939242005E+03  0.86939242006E+03  0.50400001928E-02 0. -1.
    10030    2    1    2    0    0  0.00000000000E+00  0.00000000000E+00  0.18491359524E+04  0.35879207925E+04  0.30747149206E+04 0.  0.
        5    1    3    3  502    0  0.17654859959E+03  0.33827184431E+02  0.27062140773E+04  0.27121818539E+04  0.46999998093E+01 0.  1.
       -5    1    3    3    0  502 -0.17654859959E+03 -0.33827184431E+02 -0.85707812490E+03  0.87573893862E+03  0.46999998093E+01 0. -1.
</event>
<event>
 5   0  0.3441897E-06  0.3088586E+04  0.7818609E-02  0.8218877E-01
       -2   -1    0    0    0  501  0.00000000000E+00  0.00000000000E+00  0.13269419295E+04  0.13269419295E+04  0.25500000920E-02 0. -1.
        2   -1    0    0  501    0  0.00000000000E+00  0.00000000000E+00 -0.17972463641E+04  0.17972463641E+04  0.25500000920E-02 0.  1.
    10030    2    1    2    0    0  0.00000000000E+00  0.00000000000E+00 -0.47030443464E+03  0.31241882936E+04  0.30885864457E+04 0.  0.
        5    1    3    3  502    0 -0.47939387136E+02  0.11735743554E+04 -0.12493281397E+04  0.17147646612E+04  0.46999998093E+01 0.  1.
       -5    1    3    3    0  502  0.47939387136E+02 -0.11735743554E+04  0.77902370508E+03  0.14094236324E+04  0.46999998093E+01 0. -1.
</event>
<event>
 5   0  0.1250276E-06  0.3084462E+04  0.7818609E-02  0.8220015E-01
        1   -1    0    0  501    0  0.00000000000E+00  0.00000000000E+00  0.15625836137E+04  0.15625836137E+04  0.50400001928E-02 0. -1.
       -1   -1    0    0    0  501  0.00000000000E+00  0.00000000000E+00 -0.15221431190E+04  0.15221431190E+04  0.50400001928E-02 0.  1.
    10030    2    1    2    0    0  0.00000000000E+00  0.00000000000E+00  0.40440494683E+02  0.30847267327E+04  0.30844616356E+04 0.  0.
        5    1    3    3  502    0  0.14720599919E+04  0.42775253802E+03  0.18911623447E+03  0.15445775778E+04  0.46999998093E+01 0.  1.
       -5    1    3    3    0  502 -0.14720599919E+04 -0.42775253802E+03 -0.14867573979E+03  0.15401491549E+04  0.46999998093E+01 0. -1.
</event>
<event>
 5   0  0.1171915E-06  0.3071738E+04  0.7818609E-02  0.8223537E-01
        1   -1    0    0  501    0  0.00000000000E+00  0.00000000000E+00  0.11764128730E+04  0.11764128730E+04  0.50400001928E-02 0. -1.
       -1   -1    0    0    0  501  0.00000000000E+00  0.00000000000E+00 -0.20051584394E+04  0.20051584394E+04  0.50400001928E-02 0.  1.
    10030    2    1    2    0    0  0.00000000000E+00  0.00000000000E+00 -0.82874556643E+03  0.31815713124E+04  0.30717384007E+04 0.  0.
        2    1    3    3  502    0 -0.13120144445E+04  0.66912902588E+03 -0.86558526554E+03  0.17083188835E+04  0.25500000920E-02 0.  1.
       -2    1    3    3    0  502  0.13120144445E+04 -0.66912902588E+03  0.36839699110E+02  0.14732524289E+04  0.25500000920E-02 0. -1.
</event>
<event>
 5   0  0.3441897E-06  0.3061557E+04  0.7818609E-02  0.8226368E-01
       -2   -1    0    0    0  501  0.00000000000E+00  0.00000000000E+00  0.10559691133E+04  0.10559691133E+04  0.25500000920E-02 0. -1.
        2   -1    0    0  501    0  0.00000000000E+00  0.00000000000E+00 -0.22190827229E+04  0.22190827229E+04  0.25500000920E-02 0.  1.
    10030    2    1    2    0    0  0.00000000000E+00  0.00000000000E+00 -0.11631136096E+04  0.32750518362E+04  0.30615569994E+04 0.  0.
        5    1    3    3  502    0  0.13028980493E+04 -0.36155435768E+03 -0.13492323237E+04  0.19101609445E+04  0.46999998093E+01 0.  1.
       -5    1    3    3    0  502 -0.13028980493E+04  0.36155435768E+03  0.18611871415E+03  0.13648908917E+04  0.46999998093E+01 0. -1.
</event>
<event>
 5   0  0.1198763E-06  0.3148296E+04  0.7818609E-02  0.8202607E-01
       -1   -1    0    0    0  501  0.00000000000E+00  0.00000000000E+00  0.87302713713E+03  0.87302713715E+03  0.50400001928E-02 0. -1.
        1   -1    0    0  501    0  0.00000000000E+00  0.00000000000E+00 -0.28383338549E+04  0.28383338549E+04  0.50400001928E-02 0.  1.
    10030    2    1    2    0    0  0.00000000000E+00  0.00000000000E+00 -0.19653067178E+04  0.37113609920E+04  0.31482963517E+04 0.  0.
        1    1    3    3  502    0  0.14567404241E+04  0.54934849868E+03 -0.12567602080E+04  0.20008304917E+04  0.50400001928E-02 0. -1.
       -1    1    3    3    0  502 -0.14567404241E+04 -0.54934849868E+03 -0.70854650979E+03  0.17105305004E+04  0.50400001928E-02 0.  1.
</event>
<event>
 5   0  0.3340899E-06  0.3110236E+04  0.7818609E-02  0.8212934E-01
        2   -1    0    0  501    0  0.00000000000E+00  0.00000000000E+00  0.23648846720E+04  0.23648846720E+04  0.25500000920E-02 0. -1.
       -2   -1    0    0    0  501  0.00000000000E+00  0.00000000000E+00 -0.10226258495E+04  0.10226258495E+04  0.25500000920E-02 0.  1.
    10030    2    1    2    0    0  0.00000000000E+00  0.00000000000E+00  0.13422588225E+04  0.33875105215E+04  0.31102361304E+04 0.  0.
        3    1    3    3  502    0 -0.14551151509E+03  0.21615954241E+03  0.23409385388E+04  0.23553963152E+04  0.10100000352E+00 0. -1.
       -3    1    3    3    0  502  0.14551151509E+03 -0.21615954241E+03 -0.99867971636E+03  0.10321142063E+04  0.10100000352E+00 0.  1.
</event>
<event>
 5   0  0.3445410E-06  0.3130368E+04  0.7818609E-02  0.8207453E-01
        2   -1    0    0  501    0  0.00000000000E+00  0.00000000000E+00  0.20598135802E+04  0.20598135802E+04  0.25500000920E-02 0. -1.
       -2   -1    0    0    0  501  0.00000000000E+00  0.00000000000E+00 -0.11893312639E+04  0.11893312639E+04  0.25500000920E-02 0.  1.
    10030    2    1    2    0    0  0.00000000000E+00  0.00000000000E+00  0.87048231624E+03  0.32491448441E+04  0.31303678307E+04 0.  0.
        1    1    3    3  502    0 -0.87743925774E+03  0.11886409650E+04 -0.10111927422E+03  0.14808754514E+04  0.50400001928E-02 0. -1.
       -1    1    3    3    0  502  0.87743925774E+03 -0.11886409650E+04  0.97160159046E+03  0.17682693928E+04  0.50400001928E-02 0.  1.
</event>
<event>
 5   0  0.3340899E-06  0.2794166E+04  0.7818609E-02  0.8305082E-01
       -2   -1    0    0    0  501  0.00000000000E+00  0.00000000000E+00  0.11145114130E+04  0.11145114130E+04  0.25500000920E-02 0. -1.
        2   -1    0    0  501    0  0.00000000000E+00  0.00000000000E+00 -0.17512979322E+04  0.17512979322E+04  0.25500000920E-02 0.  1.
    10030    2    1    2    0    0  0.00000000000E+00  0.00000000000E+00 -0.63678651926E+03  0.28658093452E+04  0.27941664467E+04 0.  0.
        3    1    3    3  502    0  0.86670013829E+03 -0.10176346998E+04 -0.73512641071E+03  0.15255033143E+04  0.10100000352E+00 0. -1.
       -3    1    3    3    0  502 -0.86670013829E+03  0.10176346998E+04  0.98339891445E+02  0.13403060309E+04  0.10100000352E+00 0.  1.
</event>
<event>
 5   0  0.1171915E-06  0.3091572E+04  0.7818609E-02  0.8218055E-01
       -1   -1    0    0    0  501  0.00000000000E+00  0.00000000000E+00  0.13071617686E+04  0.13071617686E+04  0.50400001928E-02 0. -1.
        1   -1    0    0  501    0  0.00000000000E+00  0.00000000000E+00 -0.18279719937E+04  0.18279719937E+04  0.50400001928E-02 0.  1.
    10030    2    1    2    0    0  0.00000000000E+00  0.00000000000E+00 -0.52081022506E+03  0.31351337623E+04  0.30915724829E+04 0.  0.
        2    1    3    3  502    0 -0.62130753224E+03  0.26876598168E+03  0.11488509762E+04  0.13334604486E+04  0.25500000920E-02 0. -1.
       -2    1    3    3    0  502  0.62130753224E+03 -0.26876598168E+03 -0.16696612012E+04  0.18016733137E+04  0.25500000920E-02 0.  1.
</event>
<event>
 5   0  0.3445959E-06  0.3032448E+04  0.7818609E-02  0.8234525E-01
       -2   -1    0    0    0  501  0.00000000000E+00  0.00000000000E+00  0.12785165830E+04  0.12785165830E+04  0.25500000920E-02 0.  1.
        2   -1    0    0  501    0  0.00000000000E+00  0.00000000000E+00 -0.17981275785E+04  0.17981275785E+04  0.25500000920E-02 0. -1.
    10030    2    1    2    0    0  0.00000000000E+00  0.00000000000E+00 -0.51961099550E+03  0.30766441615E+04  0.30324484678E+04 0.  0.
        4    1    3    3  502    0 -0.97913334369E+02  0.15030445154E+04 -0.83478217067E+02  0.15085423633E+04  0.12699999809E+01 0. -1.
       -4    1    3    3    0  502  0.97913334369E+02 -0.15030445154E+04 -0.43613277843E+03  0.15681017982E+04  0.12699999809E+01 0.  1.
</event>
<event>
 5   0  0.1250276E-06  0.3072508E+04  0.7818609E-02  0.8223324E-01
       -1   -1    0    0    0  501  0.00000000000E+00  0.00000000000E+00  0.11543663252E+04  0.11543663252E+04  0.50400001928E-02 0. -1.
        1   -1    0    0  501    0  0.00000000000E+00  0.00000000000E+00 -0.20444781312E+04  0.20444781312E+04  0.50400001928E-02 0.  1.
    10030    2    1    2    0    0  0.00000000000E+00  0.00000000000E+00 -0.89011180606E+03  0.31988444564E+04  0.30725082309E+04 0.  0.
        5    1    3    3  502    0 -0.56800839833E+03 -0.11445765085E+04  0.44286948686E+03  0.13523477351E+04  0.46999998093E+01 0. -1.
       -5    1    3    3    0  502  0.56800839833E+03  0.11445765085E+04 -0.13329812929E+04  0.18464967213E+04  0.46999998093E+01 0.  1.
</event>
<event>
 5   0  0.1171915E-06  0.3248748E+04  0.7818609E-02  0.8176060E-01
        1   -1    0    0  501    0  0.00000000000E+00  0.00000000000E+00  0.14789724363E+04  0.14789724363E+04  0.50400001928E-02 0.  1.
       -1   -1    0    0    0  501  0.00000000000E+00  0.00000000000E+00 -0.17840709025E+04  0.17840709025E+04  0.50400001928E-02 0. -1.
    10030    2    1    2    0    0  0.00000000000E+00  0.00000000000E+00 -0.30509846622E+03  0.32630433388E+04  0.32487484909E+04 0.  0.
        2    1    3    3  502    0  0.38624473484E+03  0.13681992733E+03  0.14262089565E+04  0.14839058849E+04  0.25500000920E-02 0.  1.
       -2    1    3    3    0  502 -0.38624473484E+03 -0.13681992733E+03 -0.17313074227E+04  0.17791374539E+04  0.25500000920E-02 0. -1.
</event>
<event>
 5   0  0.1171915E-06  0.3072630E+04  0.7818609E-02  0.8223290E-01
        1   -1    0    0  501    0  0.00000000000E+00  0.00000000000E+00  0.74570759174E+03  0.74570759175E+03  0.50400001928E-02 0. -1.
       -1   -1    0    0    0  501  0.00000000000E+00  0.00000000000E+00 -0.31651333197E+04  0.31651333197E+04  0.50400001928E-02 0.  1.
    10030    2    1    2    0    0  0.00000000000E+00  0.00000000000E+00 -0.24194257279E+04  0.39108409114E+04  0.30726301082E+04 0.  0.
        2    1    3    3  502    0  0.10871780940E+04  0.16519857755E+02 -0.25911748337E+04  0.28100562508E+04  0.25500000920E-02 0.  1.
       -2    1    3    3    0  502 -0.10871780940E+04 -0.16519857755E+02  0.17174910572E+03  0.11007846607E+04  0.25500000920E-02 0. -1.
</event>
<event>
 5   0  0.1211008E-06  0.3054156E+04  0.7818609E-02  0.8228433E-01
        1   -1    0    0  501    0  0.00000000000E+00  0.00000000000E+00  0.22830303147E+04  0.22830303147E+04  0.50400001928E-02 0.  1.
       -1   -1    0    0    0  501  0.00000000000E+00  0.00000000000E+00 -0.10214348151E+04  0.10214348151E+04  0.50400001928E-02 0. -1.
    10030    2    1    2    0    0  0.00000000000E+00  0.00000000000E+00  0.12615954996E+04  0.33044651298E+04  0.30541556262E+04 0.  0.
        3    1    3    3  502    0 -0.97960713122E+03  0.11377978887E+04  0.32910344792E+03  0.15370501803E+04  0.10100000352E+00 0. -1.
       -3    1    3    3    0  502  0.97960713122E+03 -0.11377978887E+04  0.93249205172E+03  0.17674149495E+04  0.10100000352E+00 0.  1.
</event>
<event>
 5   0  0.1250276E-06  0.3103880E+04  0.7818609E-02  0.8214674E-01
        1   -1    0    0  501    0  0.00000000000E+00  0.00000000000E+00  0.18335103888E+04  0.18335103888E+04  0.50400001928E-02 0.  1.
       -1   -1    0    0    0  501  0.00000000000E+00  0.00000000000E+00 -0.13136101792E+04  0.13136101792E+04  0.50400001928E-02 0. -1.
    10030    2    1    2    0    0  0.00000000000E+00  0.00000000000E+00  0.51990020962E+03  0.31471205680E+04  0.31038800946E+04 0.  0.
        5    1    3    3  502    0  0.92876712815E+03 -0.11850850673E+04 -0.12140234379E+03  0.15105613573E+04  0.46999998093E+01 0. -1.
       -5    1    3    3    0  502 -0.92876712815E+03  0.11850850673E+04  0.64130255340E+03  0.16365592107E+04  0.46999998093E+01 0.  1.
</event>
<event>
 5   0  0.3441897E-06  0.3060039E+04  0.7818609E-02  0.8226791E-01
       -2   -1    0    0    0  501  0.00000000000E+00  0.00000000000E+00  0.11537674374E+04  0.11537674374E+04  0.25500000920E-02 0.  1.
        2   -1    0    0  501    0  0.00000000000E+00  0.00000000000E+00 -0.20289701141E+04  0.20289701141E+04  0.25500000920E-02 0. -1.
    10030    2    1    2    0    0  0.00000000000E+00  0.00000000000E+00 -0.87520267671E+03  0.31827375516E+04  0.30600389862E+04 0.  0.
        5    1    3    3  502    0  0.15163597831E+04  0.15552713942E+03 -0.30039571623E+03  0.15536393916E+04  0.46999998093E+01 0.  1.
       -5    1    3    3    0  502 -0.15163597831E+04 -0.15552713942E+03 -0.57480696049E+03  0.16290981599E+04  0.46999998093E+01 0. -1.
</event>
<event>
 5   0  0.1198763E-06  0.3116740E+04  0.7818609E-02  0.8211159E-01
        1   -1    0    0  501    0  0.00000000000E+00  0.00000000000E+00  0.21238641903E+04  0.21238641903E+04  0.50400001928E-02 0. -1.
       -1   -1    0    0    0  501  0.00000000000E+00  0.00000000000E+00 -0.11434428384E+04  0.11434428384E+04  0.50400001928E-02 0.  1.
    10030    2    1    2    0    0  0.00000000000E+00  0.00000000000E+00  0.98042135195E+03  0.32673070287E+04  0.31167401548E+04 0.  0.
        1    1    3    3  502    0 -0.10575402952E+04 -0.11024581150E+04  0.81283097318E+03  0.17304622395E+04  0.50400001928E-02 0. -1.
       -1    1    3    3    0  502  0.10575402952E+04  0.11024581150E+04  0.16759037877E+03  0.15368447893E+04  0.50400001928E-02 0.  1.
</event>
<event>
 5   0  0.1250276E-06  0.3082205E+04  0.7818609E-02  0.8220639E-01
        1   -1    0    0  501    0  0.00000000000E+00  0.00000000000E+00  0.25873700235E+04  0.25873700235E+04  0.50400001928E-02 0. -1.
       -1   -1    0    0    0  501  0.00000000000E+00  0.00000000000E+00 -0.91791937944E+03  0.91791937945E+03  0.50400001928E-02 0.  1.
    10030    2    1    2    0    0  0.00000000000E+00  0.00000000000E+00  0.16694506441E+04  0.35052894030E+04  0.30822051109E+04 0.  0.
        5    1    3    3  502    0  0.50389812953E+03 -0.10593757096E+04 -0.30185020619E+03  0.12113322649E+04  0.46999998093E+01 0.  1.
       -5    1    3    3    0  502 -0.50389812953E+03  0.10593757096E+04  0.19713008503E+04  0.22939571381E+04  0.46999998093E+01 0. -1.
</event>
<event>
 5   0  0.1235960E-06  0.3127420E+04  0.7818609E-02  0.8208253E-01
       -1   -1    0    0    0  501  0.00000000000E+00  0.00000000000E+00  0.12081422301E+04  0.12081422301E+04  0.50400001928E-02 0.  1.
        1   -1    0    0  501    0  0.00000000000E+00  0.00000000000E+00 -0.20239242353E+04  0.20239242353E+04  0.50400001928E-02 0. -1.
    10030    2    1    2    0    0  0.00000000000E+00  0.00000000000E+00 -0.81578200525E+03  0.32320664655E+04  0.31274196004E+04 0.  0.
        4    1    3    3  502    0 -0.29730460932E+03 -0.74866791393E+03  0.97721408454E+03  0.12664290963E+04  0.12699999809E+01 0.  1.
       -4    1    3    3    0  502  0.29730460932E+03  0.74866791393E+03 -0.17929960898E+04  0.19656373691E+04  0.12699999809E+01 0. -1.
</event>
<event>
 5   0  0.1171915E-06  0.3130983E+04  0.7818609E-02  0.8207286E-01
       -1   -1    0    0    0  501  0.00000000000E+00  0.00000000000E+00  0.15106021127E+04  0.15106021127E+04  0.50400001928E-02 0.  1.
        1   -1    0    0  501    0  0.00000000000E+00  0.00000000000E+00 -0.16223757558E+04  0.16223757558E+04  0.50400001928E-02 0. -1.
    10030    2    1    2    0    0  0.00000000000E+00  0.00000000000E+00 -0.11177364305E+03  0.31329778685E+04  0.31309833882E+04 0.  0.
        2    1    3    3  502    0 -0.51864147408E+03 -0.13393561138E+04  0.56732648035E+03  0.15442548732E+04  0.25500000920E-02 0.  1.
       -2    1    3    3    0  502  0.51864147408E+03  0.13393561138E+04 -0.67910012340E+03  0.15887229953E+04  0.25500000920E-02 0. -1.
</event>
<event>
 5   0  0.3374790E-06  0.2933202E+04  0.7818609E-02  0.8263067E-01
        2   -1    0    0  501    0  0.00000000000E+00  0.00000000000E+00  0.77513132728E+03  0.77513132729E+03  0.25500000920E-02 0. -1.
       -2   -1    0    0    0  501  0.00000000000E+00  0.00000000000E+00 -0.27749081629E+04  0.27749081629E+04  0.25500000920E-02 0.  1.
    10030    2    1    2    0    0  0.00000000000E+00  0.00000000000E+00 -0.19997768356E+04  0.35500394902E+04  0.29332018324E+04 0.  0.
        2    1    3    3  502    0 -0.44021185912E+03  0.53227813118E+03  0.56594134444E+03  0.89297037756E+03  0.25500000920E-02 0. -1.
       -2    1    3    3    0  502  0.44021185912E+03 -0.53227813118E+03 -0.25657181801E+04  0.26570691127E+04  0.25500000920E-02 0.  1.
</event>
<event>
 5   0  0.3340899E-06  0.3083827E+04  0.7818609E-02  0.8220190E-01
       -2   -1    0    0    0  501  0.00000000000E+00  0.00000000000E+00  0.14213283502E+04  0.14213283502E+04  0.25500000920E-02 0.  1.
        2   -1    0    0  501    0  0.00000000000E+00  0.00000000000E+00 -0.16727293501E+04  0.16727293501E+04  0.25500000920E-02 0. -1.
    10030    2    1    2    0    0  0.00000000000E+00  0.00000000000E+00 -0.25140099992E+03  0.30940577003E+04  0.30838272633E+04 0.  0.
        3    1    3    3  502    0  0.14172868447E+04 -0.53020749728E+03 -0.42278353651E+03  0.15711676930E+04  0.10100000352E+00 0. -1.
       -3    1    3    3    0  502 -0.14172868447E+04  0.53020749728E+03  0.17138253659E+03  0.15228900074E+04  0.10100000352E+00 0.  1.
</event>
<event>
 5   0  0.3445959E-06  0.3093042E+04  0.7818609E-02  0.8217650E-01
        2   -1    0    0  501    0  0.00000000000E+00  0.00000000000E+00  0.20094210708E+04  0.20094210708E+04  0.25500000920E-02 0. -1.
       -2   -1    0    0    0  501  0.00000000000E+00  0.00000000000E+00 -0.11902567377E+04  0.11902567377E+04  0.25500000920E-02 0.  1.
    10030    2    1    2    0    0  0.00000000000E+00  0.00000000000E+00  0.81916433305E+03  0.31996778085E+04  0.30930418481E+04 0.  0.
        4    1    3    3  502    0 -0.73828190941E+03  0.11558755278E+04  0.11487925583E+04  0.17890875799E+04  0.12699999809E+01 0. -1.
       -4    1    3    3    0  502  0.73828190941E+03 -0.11558755278E+04 -0.32962822530E+03  0.14105902287E+04  0.12699999809E+01 0.  1.
</event>
<event>
 5   0  0.1250276E-06  0.3292911E+04  0.7818609E-02  0.8164702E-01
       -1   -1    0    0    0  501  0.00000000000E+00  0.00000000000E+00  0.12109692452E+04  0.12109692452E+04  0.50400001928E-02 0.  1.
        1   -1    0    0  501    0  0.00000000000E+00  0.00000000000E+00 -0.22385502856E+04  0.22385502856E+04  0.50400001928E-02 0. -1.
    10030    2    1    2    0    0  0.00000000000E+00  0.00000000000E+00 -0.10275810404E+04  0.34495195308E+04  0.32929109005E+04 0.  0.
        5    1    3    3  502    0 -0.48096827934E+03 -0.11599940268E+04  0.60168891797E+03  0.13924684096E+04  0.46999998093E+01 0.  1.
       -5    1    3    3    0  502  0.48096827934E+03  0.11599940268E+04 -0.16292699584E+04  0.20570511212E+04  0.46999998093E+01 0. -1.
</event>
<event>
 5   0  0.3445410E-06  0.2949325E+04  0.7818609E-02  0.8258351E-01
        2   -1    0    0  501    0  0.00000000000E+00  0.00000000000E+00  0.10876055787E+04  0.10876055787E+04  0.25500000920E-02 0.  1.
       -2   -1    0    0    0  501  0.00000000000E+00  0.00000000000E+00 -0.19994655325E+04  0.19994655325E+04  0.25500000920E-02 0. -1.
    10030    2    1    2    0    0  0.00000000000E+00  0.00000000000E+00 -0.91185995378E+03  0.30870711112E+04  0.29493252568E+04 0.  0.
        1    1    3    3  502    0 -0.12304965164E+03 -0.93758016130E+03 -0.16403404499E+04  0.18933870622E+04  0.50400001928E-02 0. -1.
       -1    1    3    3    0  502  0.12304965164E+03  0.93758016130E+03  0.72848049612E+03  0.11936840490E+04  0.50400001928E-02 0.  1.
</event>
<event>
 5   0  0.3441897E-06  0.3095860E+04  0.7818609E-02  0.8216875E-01
       -2   -1    0    0    0  501  0.00000000000E+00  0.00000000000E+00  0.20500991884E+04  0.20500991884E+04  0.25500000920E-02 0. -1.
        2   -1    0    0  501    0  0.00000000000E+00  0.00000000000E+00 -0.11687668139E+04  0.11687668139E+04  0.25500000920E-02 0.  1.
    10030    2    1    2    0    0  0.00000000000E+00  0.00000000000E+00  0.88133237448E+03  0.32188660023E+04  0.30958603952E+04 0.  0.
        5    1    3    3  502    0  0.73819221468E+03 -0.11485625761E+04  0.11989882626E+04  0.18170632023E+04  0.46999998093E+01 0. -1.
       -5    1    3    3    0  502 -0.73819221468E+03  0.11485625761E+04 -0.31765588815E+03  0.14018028001E+04  0.46999998093E+01 0.  1.
</event>
<event>
 5   0  0.1235960E-06  0.2985312E+04  0.7818609E-02  0.8247938E-01
        1   -1    0    0  501    0  0.00000000000E+00  0.00000000000E+00  0.15454503863E+04  0.15454503864E+04  0.50400001928E-02 0. -1.
       -1   -1    0    0    0  501  0.00000000000E+00  0.00000000000E+00 -0.14416653670E+04  0.14416653670E+04  0.50400001928E-02 0.  1.
    10030    2    1    2    0    0  0.00000000000E+00  0.00000000000E+00  0.10378501931E+03  0.29871157534E+04  0.29853122440E+04 0.  0.
        4    1    3    3  502    0 -0.17143712249E+03 -0.67386358487E+03  0.13734999972E+04  0.15394761035E+04  0.12699999809E+01 0. -1.
       -4    1    3    3    0  502  0.17143712249E+03  0.67386358487E+03 -0.12697149779E+04  0.14476396499E+04  0.12699999809E+01 0.  1.
</event>
<event>
 5   0  0.1171915E-06  0.2723142E+04  0.7818609E-02  0.8327535E-01
       -1   -1    0    0    0  501  0.00000000000E+00  0.00000000000E+00  0.10232396909E+04  0.10232396910E+04  0.50400001928E-02 0. -1.
        1   -1    0    0  501    0  0.00000000000E+00  0.00000000000E+00 -0.18117702884E+04  0.18117702884E+04  0.50400001928E-02 0.  1.
    10030    2    1    2    0    0  0.00000000000E+00  0.00000000000E+00 -0.78853059749E+03  0.28350099794E+04  0.27231417664E+04 0.  0.
        2    1    3    3  502    0 -0.13197384637E+04 -0.30153645084E+03 -0.54599694740E+03  0.14597076798E+04  0.25500000920E-02 0. -1.
       -2    1    3    3    0  502  0.13197384637E+04  0.30153645084E+03 -0.24253365009E+03  0.13753022996E+04  0.25500000920E-02 0.  1.
</event>
<event>
 5   0  0.1171915E-06  0.3086313E+04  0.7818609E-02  0.8219504E-01
        1   -1    0    0  501    0  0.00000000000E+00  0.00000000000E+00  0.17238101259E+04  0.17238101259E+04  0.50400001928E-02 0.  1.
       -1   -1    0    0    0  501  0.00000000000E+00  0.00000000000E+00 -0.13814349561E+04  0.13814349561E+04  0.50400001928E-02 0. -1.
    10030    2    1    2    0    0  0.00000000000E+00  0.00000000000E+00  0.34237516976E+03  0.31052450820E+04  0.30863127292E+04 0.  0.
        2    1    3    3  502    0 -0.10111120845E+04 -0.41042295366E+03  0.12689980996E+04  0.16736638925E+04  0.25500000920E-02 0.  1.
       -2    1    3    3    0  502  0.10111120845E+04  0.41042295366E+03 -0.92662292983E+03  0.14315811896E+04  0.25500000920E-02 0. -1.
</event>
<event>
 5   0  0.1250276E-06  0.3085679E+04  0.7818609E-02  0.8219679E-01
        1   -1    0    0  501    0  0.00000000000E+00  0.00000000000E+00  0.24079176025E+04  0.24079176025E+04  0.50400001928E-02 0.  1.
       -1   -1    0    0    0  501  0.00000000000E+00  0.00000000000E+00 -0.98855266208E+03  0.98855266209E+03  0.50400001928E-02 0. -1.
    10030    2    1    2    0    0  0.00000000000E+00  0.00000000000E+00  0.14193649404E+04  0.33964702646E+04  0.30856787623E+04 0.  0.
        5    1    3    3  502    0  0.18319073531E+03  0.48632292398E+03 -0.88930602623E+03  0.10300272473E+04  0.46999998093E+01 0. -1.
       -5    1    3    3    0  502 -0.18319073531E+03 -0.48632292398E+03  0.23086709667E+04  0.23664430173E+04  0.46999998093E+01 0.  1.
</event>
<event>
 5   0  0.1171915E-06  0.2737154E+04  0.7818609E-02  0.8323050E-01
       -1   -1    0    0    0  501  0.00000000000E+00  0.00000000000E+00  0.10118515626E+04  0.10118515626E+04  0.50400001928E-02 0.  1.
        1   -1    0    0  501    0  0.00000000000E+00  0.00000000000E+00 -0.18510646902E+04  0.18510646902E+04  0.50400001928E-02 0. -1.
    10030    2    1    2    0    0  0.00000000000E+00  0.00000000000E+00 -0.83921312764E+03  0.28629162529E+04  0.27371537767E+04 0.  0.
        2    1    3    3  502    0  0.10450503706E+04  0.85189202837E+03 -0.17397078120E+03  0.13594543529E+04  0.25500000920E-02 0.  1.
       -2    1    3    3    0  502 -0.10450503706E+04 -0.85189202837E+03 -0.66524234645E+03  0.15034618999E+04  0.25500000920E-02 0. -1.
</event>
<event>
 5   0  0.3374790E-06  0.3087097E+04  0.7818609E-02  0.8219288E-01
       -2   -1    0    0    0  501  0.00000000000E+00  0.00000000000E+00  0.90323415302E+03  0.90323415302E+03  0.25500000920E-02 0. -1.
        2   -1    0    0  501    0  0.00000000000E+00  0.00000000000E+00 -0.26377903328E+04  0.26377903328E+04  0.25500000920E-02 0.  1.
    10030    2    1    2    0    0  0.00000000000E+00  0.00000000000E+00 -0.17345561798E+04  0.35410244859E+04  0.30870972237E+04 0.  0.
        2    1    3    3  502    0  0.82787520426E+02 -0.86745779778E+03  0.59410937272E+03  0.10546576465E+04  0.25500000920E-02 0. -1.
       -2    1    3    3    0  502 -0.82787520426E+02  0.86745779778E+03 -0.23286655525E+04  0.24863668394E+04  0.25500000920E-02 0.  1.
</event>
<event>
 5   0  0.3374790E-06  0.3087481E+04  0.7818609E-02  0.8219182E-01
        2   -1    0    0  501    0  0.00000000000E+00  0.00000000000E+00  0.10546245547E+04  0.10546245547E+04  0.25500000920E-02 0. -1.
       -2   -1    0    0    0  501  0.00000000000E+00  0.00000000000E+00 -0.22596989530E+04  0.22596989530E+04  0.25500000920E-02 0.  1.
    10030    2    1    2    0    0  0.00000000000E+00  0.00000000000E+00 -0.12050743983E+04  0.33143235077E+04  0.30874805276E+04 0.  0.
        2    1    3    3  502    0 -0.64776993428E+03 -0.20794492758E+03 -0.20900946354E+04  0.21980315206E+04  0.25500000920E-02 0.  1.
       -2    1    3    3    0  502  0.64776993428E+03  0.20794492758E+03  0.88502023703E+03  0.11162919872E+04  0.25500000920E-02 0. -1.
</event>
<event>
 5   0  0.3340899E-06  0.3100002E+04  0.7818609E-02  0.8215737E-01
       -2   -1    0    0    0  501  0.00000000000E+00  0.00000000000E+00  0.12696161606E+04  0.12696161606E+04  0.25500000920E-02 0. -1.
        2   -1    0    0  501    0  0.00000000000E+00  0.00000000000E+00 -0.18923070870E+04  0.18923070870E+04  0.25500000920E-02 0.  1.
    10030    2    1    2    0    0  0.00000000000E+00  0.00000000000E+00 -0.62269092636E+03  0.31619232476E+04  0.31000023603E+04 0.  0.
        3    1    3    3  502    0 -0.11211714211E+04 -0.50167513055E+03  0.65294875078E+03  0.13910590834E+04  0.10100000352E+00 0.  1.
       -3    1    3    3    0  502  0.11211714211E+04  0.50167513055E+03 -0.12756396771E+04  0.17708641642E+04  0.10100000352E+00 0. -1.
</event>
<event>
 5   0  0.1198763E-06  0.3121725E+04  0.7818609E-02  0.8209801E-01
        1   -1    0    0  501    0  0.00000000000E+00  0.00000000000E+00  0.18664220500E+04  0.18664220500E+04  0.50400001928E-02 0. -1.
       -1   -1    0    0    0  501  0.00000000000E+00  0.00000000000E+00 -0.13053275984E+04  0.13053275984E+04  0.50400001928E-02 0.  1.
    10030    2    1    2    0    0  0.00000000000E+00  0.00000000000E+00  0.56109445160E+03  0.31717496484E+04  0.31217253000E+04 0.  0.
        1    1    3    3  502    0 -0.87609343335E+03  0.12569372288E+04 -0.22325784507E+02  0.15322954486E+04  0.50400001928E-02 0. -1.
       -1    1    3    3    0  502  0.87609343335E+03 -0.12569372288E+04  0.58342023611E+03  0.16394541998E+04  0.50400001928E-02 0.  1.
</event>
<event>
 5   0  0.1171915E-06  0.3023699E+04  0.7818609E-02  0.8236996E-01
       -1   -1    0    0    0  501  0.00000000000E+00  0.00000000000E+00  0.95138017277E+03  0.95138017278E+03  0.50400001928E-02 0.  1.
        1   -1    0    0  501    0  0.00000000000E+00  0.00000000000E+00 -0.24024976718E+04  0.24024976718E+04  0.50400001928E-02 0. -1.
    10030    2    1    2    0    0  0.00000000000E+00  0.00000000000E+00 -0.14511174990E+04  0.33538778445E+04  0.30236988276E+04 0.  0.
        2    1    3    3  502    0  0.10055140744E+04  0.37848149408E+03  0.45425462132E+03  0.11664707695E+04  0.25500000920E-02 0.  1.
       -2    1    3    3    0  502 -0.10055140744E+04 -0.37848149408E+03 -0.19053721203E+04  0.21874070750E+04  0.25500000920E-02 0. -1.
</event>
<event>
 5   0  0.1171915E-06  0.3088577E+04  0.7818609E-02  0.8218880E-01
       -1   -1    0    0    0  501  0.00000000000E+00  0.00000000000E+00  0.19682162820E+04  0.19682162820E+04  0.50400001928E-02 0.  1.
        1   -1    0    0  501    0  0.00000000000E+00  0.00000000000E+00 -0.12116694994E+04  0.12116694994E+04  0.50400001928E-02 0. -1.
    10030    2    1    2    0    0  0.00000000000E+00  0.00000000000E+00  0.75654678262E+03  0.31798857814E+04  0.30885774311E+04 0.  0.
        2    1    3    3  502    0  0.48233668508E+03 -0.76046101658E+03 -0.91335790585E+03  0.12826427015E+04  0.25500000920E-02 0. -1.
       -2    1    3    3    0  502 -0.48233668508E+03  0.76046101658E+03  0.16699046885E+04  0.18972430799E+04  0.25500000920E-02 0.  1.
</event>
<event>
 5   0  0.3340899E-06  0.3108182E+04  0.7818609E-02  0.8213496E-01
        2   -1    0    0  501    0  0.00000000000E+00  0.00000000000E+00  0.19021551837E+04  0.19021551837E+04  0.25500000920E-02 0.  1.
       -2   -1    0    0    0  501  0.00000000000E+00  0.00000000000E+00 -0.12697173587E+04  0.12697173587E+04  0.25500000920E-02 0. -1.
    10030    2    1    2    0    0  0.00000000000E+00  0.00000000000E+00  0.63243782507E+03  0.31718725424E+04  0.31081823985E+04 0.  0.
        3    1    3    3  502    0  0.27645278914E+03 -0.53657541690E+03  0.17776463309E+04  0.18773294358E+04  0.10100000352E+00 0.  1.
       -3    1    3    3    0  502 -0.27645278914E+03  0.53657541690E+03 -0.11452085058E+04  0.12945431065E+04  0.10100000352E+00 0. -1.
</event>
<event>
 5   0  0.3374790E-06  0.3077407E+04  0.7818609E-02  0.8221966E-01
        2   -1    0    0  501    0  0.00000000000E+00  0.00000000000E+00  0.17440155755E+04  0.17440155755E+04  0.25500000920E-02 0. -1.
       -2   -1    0    0    0  501  0.00000000000E+00  0.00000000000E+00 -0.13575619639E+04  0.13575619639E+04  0.25500000920E-02 0.  1.
    10030    2    1    2    0    0  0.00000000000E+00  0.00000000000E+00  0.38645361152E+03  0.31015775394E+04  0.30774074867E+04 0.  0.
        2    1    3    3  502    0  0.77106559052E+02 -0.90413980674E+03 -0.10591894840E+04  0.13947388912E+04  0.25500000920E-02 0.  1.
       -2    1    3    3    0  502 -0.77106559052E+02  0.90413980674E+03  0.14456430955E+04  0.17068386482E+04  0.25500000920E-02 0. -1.
</event>
<event>
 5   0  0.3374790E-06  0.3111529E+04  0.7818609E-02  0.8212581E-01
        2   -1    0    0  501    0  0.00000000000E+00  0.00000000000E+00  0.20752484769E+04  0.20752484769E+04  0.25500000920E-02 0.  1.
       -2   -1    0    0    0  501  0.00000000000E+00  0.00000000000E+00 -0.11663195528E+04  0.11663195528E+04  0.25500000920E-02 0. -1.
    10030    2    1    2    0    0  0.00000000000E+00  0.00000000000E+00  0.90892892404E+03  0.32415680297E+04  0.31115288047E+04 0.  0.
        2    1    3    3  502    0 -0.10343228082E+04  0.83458071445E+03  0.12969999367E+04  0.18570292071E+04  0.25500000920E-02 0.  1.
       -2    1    3    3    0  502  0.10343228082E+04 -0.83458071445E+03 -0.38807101261E+03  0.13845388226E+04  0.25500000920E-02 0. -1.
</event>
<event>
 5   0  0.1235960E-06  0.3090904E+04  0.7818609E-02  0.8218239E-01
       -1   -1    0    0    0  501  0.00000000000E+00  0.00000000000E+00  0.12332928828E+04  0.12332928828E+04  0.50400001928E-02 0.  1.
        1   -1    0    0  501    0  0.00000000000E+00  0.00000000000E+00 -0.19366221493E+04  0.19366221493E+04  0.50400001928E-02 0. -1.
    10030    2    1    2    0    0  0.00000000000E+00  0.00000000000E+00 -0.70332926647E+03  0.31699150321E+04  0.30909042776E+04 0.  0.
        4    1    3    3  502    0 -0.52034474992E+03 -0.40413406058E+03  0.10820472041E+04  0.12668507262E+04  0.12699999809E+01 0.  1.
       -4    1    3    3    0  502  0.52034474992E+03  0.40413406058E+03 -0.17853764706E+04  0.19030643059E+04  0.12699999809E+01 0. -1.
</event>
<event>
 5   0  0.1109562E-06  0.3083919E+04  0.7818609E-02  0.8220165E-01
        3   -1    0    0  501    0  0.00000000000E+00  0.00000000000E+00  0.17379756085E+04  0.17379756115E+04  0.10100000352E+00 0.  1.
       -3   -1    0    0    0  501  0.00000000000E+00  0.00000000000E+00 -0.13680513216E+04  0.13680513253E+04  0.10100000352E+00 0. -1.
    10030    2    1    2    0    0  0.00000000000E+00  0.00000000000E+00  0.36992428692E+03  0.31060269368E+04  0.30839194792E+04 0.  0.
        3    1    3    3  502    0  0.29569836970E+03 -0.14095010442E+04  0.73982806522E+03  0.16190973706E+04  0.10100000352E+00 0.  1.
       -3    1    3    3    0  502 -0.29569836970E+03  0.14095010442E+04 -0.36990377830E+03  0.14869295662E+04  0.10100000352E+00 0. -1.
</event>
<event>
 5   0  0.3445410E-06  0.3103487E+04  0.7818609E-02  0.8214782E-01
        2   -1    0    0  501    0  0.00000000000E+00  0.00000000000E+00  0.24594807685E+04  0.24594807685E+04  0.25500000920E-02 0.  1.
       -2   -1    0    0    0  501  0.00000000000E+00  0.00000000000E+00 -0.97903096517E+03  0.97903096517E+03  0.25500000920E-02 0. -1.
    10030    2    1    2    0    0  0.00000000000E+00  0.00000000000E+00  0.14804498034E+04  0.34385117337E+04  0.31034869619E+04 0.  0.
        1    1    3    3  502    0  0.94900221174E+03  0.22785057099E+03  0.20768505604E+04  0.22947394908E+04  0.50400001928E-02 0. -1.
       -1    1    3    3    0  502 -0.94900221174E+03 -0.22785057099E+03 -0.59640075701E+03  0.11437722429E+04  0.50400001928E-02 0.  1.
</event>
<event>
 5   0  0.3340899E-06  0.3088558E+04  0.7818609E-02  0.8218885E-01
       -2   -1    0    0    0  501  0.00000000000E+00  0.00000000000E+00  0.13119771195E+04  0.13119771195E+04  0.25500000920E-02 0. -1.
        2   -1    0    0  501    0  0.00000000000E+00  0.00000000000E+00 -0.18177130176E+04  0.18177130176E+04  0.25500000920E-02 0.  1.
    10030    2    1    2    0    0  0.00000000000E+00  0.00000000000E+00 -0.50573589807E+03  0.31296901372E+04  0.30885581678E+04 0.  0.
        3    1    3    3  502    0  0.60757219617E+03 -0.83198329986E+03  0.91286906929E+03  0.13764701714E+04  0.10100000352E+00 0. -1.
       -3    1    3    3    0  502 -0.60757219617E+03  0.83198329986E+03 -0.14186049674E+04  0.17532199658E+04  0.10100000352E+00 0.  1.
</event>
<event>
 5   0  0.1171915E-06  0.3133857E+04  0.7818609E-02  0.8206507E-01
        1   -1    0    0  501    0  0.00000000000E+00  0.00000000000E+00  0.16900082975E+04  0.16900082975E+04  0.50400001928E-02 0. -1.
       -1   -1    0    0    0  501  0.00000000000E+00  0.00000000000E+00 -0.14528118899E+04  0.14528118899E+04  0.50400001928E-02 0.  1.
    10030    2    1    2    0    0  0.00000000000E+00  0.00000000000E+00  0.23719640759E+03  0.31428201875E+04  0.31338565052E+04 0.  0.
        2    1    3    3  502    0  0.44620074055E+03  0.13980926873E+04 -0.43206787480E+03  0.15298499637E+04  0.25500000920E-02 0. -1.
       -2    1    3    3    0  502 -0.44620074055E+03 -0.13980926873E+04  0.66926428240E+03  0.16129702238E+04  0.25500000920E-02 0.  1.
</event>
<event>
 5   0  0.3340899E-06  0.3253810E+04  0.7818609E-02  0.8174749E-01
       -2   -1    0    0    0  501  0.00000000000E+00  0.00000000000E+00  0.10088905113E+04  0.10088905113E+04  0.25500000920E-02 0.  1.
        2   -1    0    0  501    0  0.00000000000E+00  0.00000000000E+00 -0.26234955748E+04  0.26234955748E+04  0.25500000920E-02 0. -1.
    10030    2    1    2    0    0  0.00000000000E+00  0.00000000000E+00 -0.16146050635E+04  0.36323860861E+04  0.32538099464E+04 0.  0.
        3    1    3    3  502    0 -0.39280114434E+02 -0.79940108193E+03 -0.23885166991E+04  0.25190468534E+04  0.10100000352E+00 0. -1.
       -3    1    3    3    0  502  0.39280114434E+02  0.79940108193E+03  0.77391163561E+03  0.11133392327E+04  0.10100000352E+00 0.  1.
</event>
<event>
 5   0  0.3374790E-06  0.3017209E+04  0.7818609E-02  0.8238834E-01
        2   -1    0    0  501    0  0.00000000000E+00  0.00000000000E+00  0.19792027368E+04  0.19792027368E+04  0.25500000920E-02 0. -1.
       -2   -1    0    0    0  501  0.00000000000E+00  0.00000000000E+00 -0.11499008322E+04  0.11499008322E+04  0.25500000920E-02 0.  1.
    10030    2    1    2    0    0  0.00000000000E+00  0.00000000000E+00  0.82930190461E+03  0.31291035690E+04  0.30172085603E+04 0.  0.
        2    1    3    3  502    0 -0.13038771012E+04 -0.26781738432E+03 -0.32165443215E+03  0.13694098072E+04  0.25500000920E-02 0.  1.
       -2    1    3    3    0  502  0.13038771012E+04  0.26781738432E+03  0.11509563368E+04  0.17596937618E+04  0.25500000920E-02 0. -1.
</event>
<event>
 5   0  0.3441897E-06  0.3094389E+04  0.7818609E-02  0.8217279E-01
       -2   -1    0    0    0  501  0.00000000000E+00  0.00000000000E+00  0.11784387725E+04  0.11784387725E+04  0.25500000920E-02 0.  1.
        2   -1    0    0  501    0  0.00000000000E+00  0.00000000000E+00 -0.20313411690E+04  0.20313411690E+04  0.25500000920E-02 0. -1.
    10030    2    1    2    0    0  0.00000000000E+00  0.00000000000E+00 -0.85290239652E+03  0.32097799416E+04  0.30943892411E+04 0.  0.
        5    1    3    3  502    0 -0.10203500208E+04  0.10992580040E+04 -0.32408137882E+02  0.15001848892E+04  0.46999998093E+01 0.  1.
       -5    1    3    3    0  502  0.10203500208E+04 -0.10992580040E+04 -0.82049425864E+03  0.17095950523E+04  0.46999998093E+01 0. -1.
</event>
<event>
 5   0  0.1250276E-06  0.3093108E+04  0.7818609E-02  0.8217632E-01
        1   -1    0    0  501    0  0.00000000000E+00  0.00000000000E+00  0.14097862324E+04  0.14097862324E+04  0.50400001928E-02 0. -1.
       -1   -1    0    0    0  501  0.00000000000E+00  0.00000000000E+00 -0.16965904063E+04  0.16965904063E+04  0.50400001928E-02 0.  1.
    10030    2    1    2    0    0  0.00000000000E+00  0.00000000000E+00 -0.28680417389E+03  0.31063766387E+04  0.30931083375E+04 0.  0.
        5    1    3    3  502    0  0.41604493159E+03  0.77004367171E+03 -0.14239194429E+04  0.16714153617E+04  0.46999998093E+01 0.  1.
       -5    1    3    3    0  502 -0.41604493159E+03 -0.77004367171E+03  0.11371152690E+04  0.14349612770E+04  0.46999998093E+01 0. -1.
</event>
<event>
 5   0  0.1250276E-06  0.3091002E+04  0.7818609E-02  0.8218212E-01
       -1   -1    0    0    0  501  0.00000000000E+00  0.00000000000E+00  0.13563891673E+04  0.13563891673E+04  0.50400001928E-02 0.  1.
        1   -1    0    0  501    0  0.00000000000E+00  0.00000000000E+00 -0.17609789289E+04  0.17609789289E+04  0.50400001928E-02 0. -1.
    10030    2    1    2    0    0  0.00000000000E+00  0.00000000000E+00 -0.40458976152E+03  0.31173680962E+04  0.30910016131E+04 0.  0.
        5    1    3    3  502    0 -0.25339344913E+03 -0.41355928810E+03  0.12776387763E+04  0.13666098410E+04  0.46999998093E+01 0.  1.
       -5    1    3    3    0  502  0.25339344913E+03  0.41355928810E+03 -0.16822285378E+04  0.17507582552E+04  0.46999998093E+01 0. -1.
</event>
<event>
 5   0  0.3445410E-06  0.3086995E+04  0.7818609E-02  0.8219316E-01
       -2   -1    0    0    0  501  0.00000000000E+00  0.00000000000E+00  0.14522282447E+04  0.14522282447E+04  0.25500000920E-02 0. -1.
        2   -1    0    0  501    0  0.00000000000E+00  0.00000000000E+00 -0.16405032154E+04  0.16405032154E+04  0.25500000920E-02 0.  1.
    10030    2    1    2    0    0  0.00000000000E+00  0.00000000000E+00 -0.18827497062E+03  0.30927314601E+04  0.30869953709E+04 0.  0.
        1    1    3    3  502    0  0.12299862736E+04  0.93202589133E+03 -0.12328810593E+03  0.15481403207E+04  0.50400001928E-02 0. -1.
       -1    1    3    3    0  502 -0.12299862736E+04 -0.93202589133E+03 -0.64986864682E+02  0.15445911394E+04  0.50400001928E-02 0.  1.
</event>
<event>
 5   0  0.1235960E-06  0.3114268E+04  0.7818609E-02  0.8211833E-01
       -1   -1    0    0    0  501  0.00000000000E+00  0.00000000000E+00  0.25558679727E+04  0.25558679727E+04  0.50400001928E-02 0. -1.
        1   -1    0    0  501    0  0.00000000000E+00  0.00000000000E+00 -0.94866665745E+03  0.94866665746E+03  0.50400001928E-02 0.  1.
    10030    2    1    2    0    0  0.00000000000E+00  0.00000000000E+00  0.16072013153E+04  0.35045346302E+04  0.31142682778E+04 0.  0.
        4    1    3    3  502    0  0.14022725745E+04 -0.67383187677E+03  0.73026199713E+03  0.17186337506E+04  0.12699999809E+01 0.  1.
       -4    1    3    3    0  502 -0.14022725745E+04  0.67383187677E+03  0.87693931815E+03  0.17859008796E+04  0.12699999809E+01 0. -1.
</event>
<event>
 5   0  0.3374790E-06  0.3088341E+04  0.7818609E-02  0.8218945E-01
        2   -1    0    0  501    0  0.00000000000E+00  0.00000000000E+00  0.81013506482E+03  0.81013506482E+03  0.25500000920E-02 0.  1.
       -2   -1    0    0    0  501  0.00000000000E+00  0.00000000000E+00 -0.29432896223E+04  0.29432896223E+04  0.25500000920E-02 0. -1.
    10030    2    1    2    0    0  0.00000000000E+00  0.00000000000E+00 -0.21331545575E+04  0.37534246872E+04  0.30883407383E+04 0.  0.
        2    1    3    3  502    0 -0.37166770443E+03 -0.74626584289E+03 -0.26462617626E+04  0.27744820971E+04  0.25500000920E-02 0. -1.
       -2    1    3    3    0  502  0.37166770443E+03  0.74626584289E+03  0.51310720508E+03  0.97894259009E+03  0.25500000920E-02 0.  1.
</event>
<event>
 5   0  0.1198763E-06  0.3097902E+04  0.7818609E-02  0.8216314E-01
        1   -1    0    0  501    0  0.00000000000E+00  0.00000000000E+00  0.16638912946E+04  0.16638912946E+04  0.50400001928E-02 0.  1.
       -1   -1    0    0    0  501  0.00000000000E+00  0.00000000000E+00 -0.14419510375E+04  0.14419510375E+04  0.50400001928E-02 0. -1.
    10030    2    1    2    0    0  0.00000000000E+00  0.00000000000E+00  0.22194025715E+03  0.31058423321E+04  0.30979023732E+04 0.  0.
        1    1    3    3  502    0 -0.82120748066E+03 -0.36359002174E+03  0.13762151147E+04  0.16433342545E+04  0.50400001928E-02 0.  1.
       -1    1    3    3    0  502  0.82120748066E+03  0.36359002174E+03 -0.11542748575E+04  0.14625080776E+04  0.50400001928E-02 0. -1.
</event>
<event>
 5   0  0.3445959E-06  0.3039893E+04  0.7818609E-02  0.8232430E-01
       -2   -1    0    0    0  501  0.00000000000E+00  0.00000000000E+00  0.11121059841E+04  0.11121059841E+04  0.25500000920E-02 0.  1.
        2   -1    0    0  501    0  0.00000000000E+00  0.00000000000E+00 -0.20773542040E+04  0.20773542040E+04  0.25500000920E-02 0. -1.
    10030    2    1    2    0    0  0.00000000000E+00  0.00000000000E+00 -0.96524821984E+03  0.31894601881E+04  0.30398934464E+04 0.  0.
        4    1    3    3  502    0 -0.74210191265E+03  0.99956872743E+03 -0.13975273753E+04  0.18716135465E+04  0.12699999809E+01 0. -1.
       -4    1    3    3    0  502  0.74210191265E+03 -0.99956872743E+03  0.43227915550E+03  0.13178466416E+04  0.12699999809E+01 0.  1.
</event>
<event>
 5   0  0.1235960E-06  0.3115308E+04  0.7818609E-02  0.8211549E-01
        1   -1    0    0  501    0  0.00000000000E+00  0.00000000000E+00  0.17018156291E+04  0.17018156291E+04  0.50400001928E-02 0. -1.
       -1   -1    0    0    0  501  0.00000000000E+00  0.00000000000E+00 -0.14257040853E+04  0.14257040853E+04  0.50400001928E-02 0.  1.
    10030    2    1    2    0    0  0.00000000000E+00  0.00000000000E+00  0.27611154383E+03  0.31275197144E+04  0.31153076861E+04 0.  0.
        4    1    3    3  502    0 -0.20531184245E+03  0.15383772624E+04  0.51497760834E+01  0.15520263165E+04  0.12699999809E+01 0.  1.
       -4    1    3    3    0  502  0.20531184245E+03 -0.15383772624E+04  0.27096176775E+03  0.15754933978E+04  0.12699999809E+01 0. -1.
</event>
<event>
 5   0  0.3441897E-06  0.3108847E+04  0.7818609E-02  0.8213314E-01
       -2   -1    0    0    0  501  0.00000000000E+00  0.00000000000E+00  0.17974826663E+04  0.17974826663E+04  0.25500000920E-02 0. -1.
        2   -1    0    0  501    0  0.00000000000E+00  0.00000000000E+00 -0.13442309122E+04  0.13442309122E+04  0.25500000920E-02 0.  1.
    10030    2    1    2    0    0  0.00000000000E+00  0.00000000000E+00  0.45325175414E+03  0.31417135785E+04  0.31088465798E+04 0.  0.
        5    1    3    3  502    0  0.14050239458E+04  0.64101439016E+03  0.40517980256E+03  0.15966165786E+04  0.46999998093E+01 0. -1.
       -5    1    3    3    0  502 -0.14050239458E+04 -0.64101439016E+03  0.48071951584E+02  0.15450969999E+04  0.46999998093E+01 0.  1.
</event>
<event>
 5   0  0.1235960E-06  0.3022805E+04  0.7818609E-02  0.8237248E-01
       -1   -1    0    0    0  501  0.00000000000E+00  0.00000000000E+00  0.14193582044E+04  0.14193582044E+04  0.50400001928E-02 0. -1.
        1   -1    0    0  501    0  0.00000000000E+00  0.00000000000E+00 -0.16094162853E+04  0.16094162853E+04  0.50400001928E-02 0.  1.
    10030    2    1    2    0    0  0.00000000000E+00  0.00000000000E+00 -0.19005808090E+03  0.30287744897E+04  0.30228054577E+04 0.  0.
        4    1    3    3  502    0 -0.36936770921E+02 -0.95662691913E+03 -0.12668842303E+04  0.15879221182E+04  0.12699999809E+01 0.  1.
       -4    1    3    3    0  502  0.36936770921E+02  0.95662691913E+03  0.10768261494E+04  0.14408523715E+04  0.12699999809E+01 0. -1.
</event>
<event>
 5   0  0.1250276E-06  0.3105530E+04  0.7818609E-02  0.8214222E-01
       -1   -1    0    0    0  501  0.00000000000E+00  0.00000000000E+00  0.75034034654E+03  0.75034034656E+03  0.50400001928E-02 0.  1.
        1   -1    0    0  501    0  0.00000000000E+00  0.00000000000E+00 -0.32133145473E+04  0.32133145473E+04  0.50400001928E-02 0. -1.
    10030    2    1    2    0    0  0.00000000000E+00  0.00000000000E+00 -0.24629742008E+04  0.39636548939E+04  0.31055302613E+04 0.  0.
        5    1    3    3  502    0 -0.29106262120E+03  0.13084381465E+04 -0.22318574237E+04  0.26034472305E+04  0.46999998093E+01 0. -1.
       -5    1    3    3    0  502  0.29106262120E+03 -0.13084381465E+04 -0.23111677712E+03  0.13602076633E+04  0.46999998093E+01 0.  1.
</event>
<event>
 5   0  0.3445410E-06  0.3071236E+04  0.7818609E-02  0.8223676E-01
       -2   -1    0    0    0  501  0.00000000000E+00  0.00000000000E+00  0.18805974585E+04  0.18805974585E+04  0.25500000920E-02 0.  1.
        2   -1    0    0  501    0  0.00000000000E+00  0.00000000000E+00 -0.12539223736E+04  0.12539223736E+04  0.25500000920E-02 0. -1.
    10030    2    1    2    0    0  0.00000000000E+00  0.00000000000E+00  0.62667508489E+03  0.31345198321E+04  0.30712363823E+04 0.  0.
        1    1    3    3  502    0  0.11532857367E+04 -0.49005586345E+02  0.13469509919E+04  0.17739071318E+04  0.50400001928E-02 0.  1.
       -1    1    3    3    0  502 -0.11532857367E+04  0.49005586345E+02 -0.72027590697E+03  0.13606127003E+04  0.50400001928E-02 0. -1.
</event>
<event>
 5   0  0.1250276E-06  0.3053428E+04  0.7818609E-02  0.8228637E-01
        1   -1    0    0  501    0  0.00000000000E+00  0.00000000000E+00  0.14294948742E+04  0.14294948742E+04  0.50400001928E-02 0. -1.
       -1   -1    0    0    0  501  0.00000000000E+00  0.00000000000E+00 -0.16305448855E+04  0.16305448855E+04  0.50400001928E-02 0.  1.
    10030    2    1    2    0    0  0.00000000000E+00  0.00000000000E+00 -0.20105001135E+03  0.30600397597E+04  0.30534279464E+04 0.  0.
        5    1    3    3  502    0  0.64717755491E+03  0.13142505112E+04  0.33021993289E+03  0.15017191774E+04  0.46999998093E+01 0.  1.
       -5    1    3    3    0  502 -0.64717755491E+03 -0.13142505112E+04 -0.53126994424E+03  0.15583205823E+04  0.46999998093E+01 0. -1.
</event>
<event>
 5   0  0.3445410E-06  0.3095788E+04  0.7818609E-02  0.8216895E-01
        2   -1    0    0  501    0  0.00000000000E+00  0.00000000000E+00  0.30314585409E+04  0.30314585409E+04  0.25500000920E-02 0. -1.
       -2   -1    0    0    0  501  0.00000000000E+00  0.00000000000E+00 -0.79037069045E+03  0.79037069045E+03  0.25500000920E-02 0.  1.
    10030    2    1    2    0    0  0.00000000000E+00  0.00000000000E+00  0.22410878504E+04  0.38218292313E+04  0.30957880935E+04 0.  0.
        1    1    3    3  502    0 -0.13399542272E+04 -0.70958283855E+03  0.73607130098E+03  0.16854631696E+04  0.50400001928E-02 0.  1.
       -1    1    3    3    0  502  0.13399542272E+04  0.70958283855E+03  0.15050165495E+04  0.21363660618E+04  0.50400001928E-02 0. -1.
</event>
<event>
 5   0  0.1211008E-06  0.3074113E+04  0.7818609E-02  0.8222879E-01
       -1   -1    0    0    0  501  0.00000000000E+00  0.00000000000E+00  0.20519818708E+04  0.20519818708E+04  0.50400001928E-02 0.  1.
        1   -1    0    0  501    0  0.00000000000E+00  0.00000000000E+00 -0.11513465396E+04  0.11513465396E+04  0.50400001928E-02 0. -1.
    10030    2    1    2    0    0  0.00000000000E+00  0.00000000000E+00  0.90063533128E+03  0.32033284104E+04  0.30741127021E+04 0.  0.
        3    1    3    3  502    0 -0.56425821479E+03  0.23851094515E+03  0.19192772107E+04  0.20146711458E+04  0.10100000352E+00 0.  1.
       -3    1    3    3    0  502  0.56425821479E+03 -0.23851094515E+03 -0.10186418795E+04  0.11886572646E+04  0.10100000352E+00 0. -1.
</event>
<event>
 5   0  0.1250276E-06  0.3073853E+04  0.7818609E-02  0.8222951E-01
       -1   -1    0    0    0  501  0.00000000000E+00  0.00000000000E+00  0.76414067630E+03  0.76414067631E+03  0.50400001928E-02 0. -1.
        1   -1    0    0  501    0  0.00000000000E+00  0.00000000000E+00 -0.30912402332E+04  0.30912402332E+04  0.50400001928E-02 0.  1.
    10030    2    1    2    0    0  0.00000000000E+00  0.00000000000E+00 -0.23270995569E+04  0.38553809095E+04  0.30738525680E+04 0.  0.
        5    1    3    3  502    0  0.41708939039E+03 -0.30660566407E+03 -0.29785978135E+04  0.30232495130E+04  0.46999998093E+01 0.  1.
       -5    1    3    3    0  502 -0.41708939039E+03  0.30660566407E+03  0.65149825661E+03  0.83213139658E+03  0.46999998093E+01 0. -1.
</event>
<event>
 5   0  0.3445959E-06  0.3106630E+04  0.7818609E-02  0.8213921E-01
       -2   -1    0    0    0  501  0.00000000000E+00  0.00000000000E+00  0.12994764555E+04  0.12994764555E+04  0.25500000920E-02 0. -1.
        2   -1    0    0  501    0  0.00000000000E+00  0.00000000000E+00 -0.18567381049E+04  0.18567381049E+04  0.25500000920E-02 0.  1.
    10030    2    1    2    0    0  0.00000000000E+00  0.00000000000E+00 -0.55726164937E+03  0.31562145604E+04  0.31066299756E+04 0.  0.
        4    1    3    3  502    0 -0.88988260352E+03 -0.91302451191E+03  0.62281967621E+03  0.14189470636E+04  0.12699999809E+01 0. -1.
       -4    1    3    3    0  502  0.88988260352E+03  0.91302451191E+03 -0.11800813256E+04  0.17372674968E+04  0.12699999809E+01 0.  1.
</event>
<event>
 5   0  0.3374790E-06  0.3120476E+04  0.7818609E-02  0.8210141E-01
        2   -1    0    0  501    0  0.00000000000E+00  0.00000000000E+00  0.16472794027E+04  0.16472794027E+04  0.25500000920E-02 0.  1.
       -2   -1    0    0    0  501  0.00000000000E+00  0.00000000000E+00 -0.14777960386E+04  0.14777960386E+04  0.25500000920E-02 0. -1.
    10030    2    1    2    0    0  0.00000000000E+00  0.00000000000E+00  0.16948336411E+03  0.31250754413E+04  0.31204762302E+04 0.  0.
        2    1    3    3  502    0  0.10464358016E+04  0.78012662171E+03  0.94082176705E+03  0.16089658263E+04  0.25500000920E-02 0.  1.
       -2    1    3    3    0  502 -0.10464358016E+04 -0.78012662171E+03 -0.77133840294E+03  0.15161096150E+04  0.25500000920E-02 0. -1.
</event>
<event>
 5   0  0.1235960E-06  0.3135722E+04  0.7818609E-02  0.8206002E-01
       -1   -1    0    0    0  501  0.00000000000E+00  0.00000000000E+00  0.10683141101E+04  0.10683141101E+04  0.50400001928E-02 0.  1.
        1   -1    0    0  501    0  0.00000000000E+00  0.00000000000E+00 -0.23009978288E+04  0.23009978289E+04  0.50400001928E-02 0. -1.
    10030    2    1    2    0    0  0.00000000000E+00  0.00000000000E+00 -0.12326837188E+04  0.33693119389E+04  0.31357222121E+04 0.  0.
        4    1    3    3  502    0  0.43972562092E+03 -0.92722227387E+03 -0.18900069831E+04  0.21506342729E+04  0.12699999809E+01 0. -1.
       -4    1    3    3    0  502 -0.43972562092E+03  0.92722227387E+03  0.65732326431E+03  0.12186776660E+04  0.12699999809E+01 0.  1.
</event>
<event>
 5   0  0.3441897E-06  0.2993181E+04  0.7818609E-02  0.8245681E-01
        2   -1    0    0  501    0  0.00000000000E+00  0.00000000000E+00  0.25318468623E+04  0.25318468623E+04  0.25500000920E-02 0. -1.
       -2   -1    0    0    0  501  0.00000000000E+00  0.00000000000E+00 -0.88464417323E+03  0.88464417323E+03  0.25500000920E-02 0.  1.
    10030    2    1    2    0    0  0.00000000000E+00  0.00000000000E+00  0.16472026891E+04  0.34164910356E+04  0.29931813004E+04 0.  0.
        5    1    3    3  502    0  0.10026370182E+04  0.34684346545E+03  0.20284290944E+04  0.22891326001E+04  0.46999998093E+01 0. -1.
       -5    1    3    3    0  502 -0.10026370182E+04 -0.34684346545E+03 -0.38122640530E+03  0.11273584354E+04  0.46999998093E+01 0.  1.
</event>
<event>
 5   0  0.1198763E-06  0.3114765E+04  0.7818609E-02  0.8211698E-01
       -1   -1    0    0    0  501  0.00000000000E+00  0.00000000000E+00  0.10836629823E+04  0.10836629823E+04  0.50400001928E-02 0.  1.
        1   -1    0    0  501    0  0.00000000000E+00  0.00000000000E+00 -0.22381864713E+04  0.22381864713E+04  0.50400001928E-02 0. -1.
    10030    2    1    2    0    0  0.00000000000E+00  0.00000000000E+00 -0.11545234890E+04  0.33218494536E+04  0.31147647272E+04 0.  0.
        1    1    3    3  502    0  0.82690887076E+03 -0.35155704826E+03  0.77934272105E+03  0.11894308368E+04  0.50400001928E-02 0.  1.
       -1    1    3    3    0  502 -0.82690887076E+03  0.35155704826E+03 -0.19338662100E+04  0.21324186167E+04  0.50400001928E-02 0. -1.
</event>
<event>
 5   0  0.3445959E-06  0.3110178E+04  0.7818609E-02  0.8212950E-01
       -2   -1    0    0    0  501  0.00000000000E+00  0.00000000000E+00  0.13331366534E+04  0.13331366534E+04  0.25500000920E-02 0. -1.
        2   -1    0    0  501    0  0.00000000000E+00  0.00000000000E+00 -0.18139939320E+04  0.18139939320E+04  0.25500000920E-02 0.  1.
    10030    2    1    2    0    0  0.00000000000E+00  0.00000000000E+00 -0.48085727860E+03  0.31471305854E+04  0.31101780012E+04 0.  0.
        4    1    3    3  502    0  0.31548546180E+03  0.12777675995E+04 -0.10785687101E+04  0.17016266307E+04  0.12699999809E+01 0.  1.
       -4    1    3    3    0  502 -0.31548546180E+03 -0.12777675995E+04  0.59771143146E+03  0.14455039547E+04  0.12699999809E+01 0. -1.
</event>
<event>
 5   0  0.1171915E-06  0.3106706E+04  0.7818609E-02  0.8213900E-01
       -1   -1    0    0    0  501  0.00000000000E+00  0.00000000000E+00  0.84535640175E+03  0.84535640177E+03  0.50400001928E-02 0. -1.
        1   -1    0    0  501    0  0.00000000000E+00  0.00000000000E+00 -0.28543064343E+04  0.28543064344E+04  0.50400001928E-02 0.  1.
    10030    2    1    2    0    0  0.00000000000E+00  0.00000000000E+00 -0.20089500326E+04  0.36996628361E+04  0.31067064341E+04 0.  0.
        2    1    3    3  502    0 -0.21502584724E+03 -0.95264919363E+02  0.82403146112E+03  0.85693603540E+03  0.25500000920E-02 0. -1.
       -2    1    3    3    0  502  0.21502584724E+03  0.95264919363E+02 -0.28329814937E+04  0.28427268007E+04  0.25500000920E-02 0.  1.
</event>
<event>
 5   0  0.1171915E-06  0.2634583E+04  0.7818609E-02  0.8356548E-01
       -1   -1    0    0    0  501  0.00000000000E+00  0.00000000000E+00  0.79156431260E+03  0.79156431262E+03  0.50400001928E-02 0. -1.
        1   -1    0    0  501    0  0.00000000000E+00  0.00000000000E+00 -0.21921861314E+04  0.21921861314E+04  0.50400001928E-02 0.  1.
    10030    2    1    2    0    0  0.00000000000E+00  0.00000000000E+00 -0.14006218188E+04  0.29837504440E+04  0.26345825538E+04 0.  0.
        2    1    3    3  502    0  0.19576983681E+03  0.12401544052E+04 -0.24879030095E+03  0.12799239789E+04  0.25500000920E-02 0. -1.
       -2    1    3    3    0  502 -0.19576983681E+03 -0.12401544052E+04 -0.11518315179E+04  0.17038264652E+04  0.25500000920E-02 0.  1.
</event>
<event>
 5   0  0.3374790E-06  0.3083143E+04  0.7818609E-02  0.8220380E-01
       -2   -1    0    0    0  501  0.00000000000E+00  0.00000000000E+00  0.19532034531E+04  0.19532034531E+04  0.25500000920E-02 0. -1.
        2   -1    0    0  501    0  0.00000000000E+00  0.00000000000E+00 -0.12166895615E+04  0.12166895615E+04  0.25500000920E-02 0.  1.
    10030    2    1    2    0    0  0.00000000000E+00  0.00000000000E+00  0.73651389160E+03  0.31698930147E+04  0.30831427168E+04 0.  0.
        2    1    3    3  502    0  0.22808546148E+03  0.12331736869E+04  0.12899758246E+04  0.17991047629E+04  0.25500000920E-02 0. -1.
       -2    1    3    3    0  502 -0.22808546148E+03 -0.12331736869E+04 -0.55346193305E+03  0.13707882518E+04  0.25500000920E-02 0.  1.
</event>
<event>
 5   0  0.1250276E-06  0.3045947E+04  0.7818609E-02  0.8230731E-01
        1   -1    0    0  501    0  0.00000000000E+00  0.00000000000E+00  0.26648044550E+04  0.26648044550E+04  0.50400001928E-02 0.  1.
       -1   -1    0    0    0  501  0.00000000000E+00  0.00000000000E+00 -0.87040121084E+03  0.87040121085E+03  0.50400001928E-02 0. -1.
    10030    2    1    2    0    0  0.00000000000E+00  0.00000000000E+00  0.17944032442E+04  0.35352056659E+04  0.30459474876E+04 0.  0.
        5    1    3    3  502    0  0.83726047150E+03 -0.44818657349E+03 -0.48465047789E+03  0.10662009555E+04  0.46999998093E+01 0. -1.
       -5    1    3    3    0  502 -0.83726047150E+03  0.44818657349E+03  0.22790537221E+04  0.24690047104E+04  0.46999998093E+01 0.  1.
</event>
<event>
 5   0  0.1198763E-06  0.3151946E+04  0.7818609E-02  0.8201625E-01
        1   -1    0    0  501    0  0.00000000000E+00  0.00000000000E+00  0.14469088666E+04  0.14469088666E+04  0.50400001928E-02 0.  1.
       -1   -1    0    0    0  501  0.00000000000E+00  0.00000000000E+00 -0.17165491744E+04  0.17165491744E+04  0.50400001928E-02 0. -1.
    10030    2    1    2    0    0  0.00000000000E+00  0.00000000000E+00 -0.26964030777E+03  0.31634580410E+04  0.31519455709E+04 0.  0.
        1    1    3    3  502    0  0.13260710123E+03 -0.56963865776E+03 -0.16035919018E+04  0.17069211555E+04  0.50400001928E-02 0. -1.
       -1    1    3    3    0  502 -0.13260710123E+03  0.56963865776E+03  0.13339515940E+04  0.14565368855E+04  0.50400001928E-02 0.  1.
</event>
<event>
 5   0  0.1250276E-06  0.3098894E+04  0.7818609E-02  0.8216042E-01
        1   -1    0    0  501    0  0.00000000000E+00  0.00000000000E+00  0.17507652855E+04  0.17507652855E+04  0.50400001928E-02 0.  1.
       -1   -1    0    0    0  501  0.00000000000E+00  0.00000000000E+00 -0.13712780089E+04  0.13712780089E+04  0.50400001928E-02 0. -1.
    10030    2    1    2    0    0  0.00000000000E+00  0.00000000000E+00  0.37948727662E+03  0.31220432944E+04  0.30988939542E+04 0.  0.
        5    1    3    3  502    0  0.84905903667E+03 -0.12081711807E+04  0.66248768311E+03  0.16184841271E+04  0.46999998093E+01 0.  1.
       -5    1    3    3    0  502 -0.84905903667E+03  0.12081711807E+04 -0.28300040649E+03  0.15035591673E+04  0.46999998093E+01 0. -1.
</event>
<event>
 5   0  0.3374790E-06  0.3112234E+04  0.7818609E-02  0.8212388E-01
       -2   -1    0    0    0  501  0.00000000000E+00  0.00000000000E+00  0.94679287852E+03  0.94679287852E+03  0.25500000920E-02 0. -1.
        2   -1    0    0  501    0  0.00000000000E+00  0.00000000000E+00 -0.25575811560E+04  0.25575811560E+04  0.25500000920E-02 0.  1.
    10030    2    1    2    0    0  0.00000000000E+00  0.00000000000E+00 -0.16107882775E+04  0.35043740345E+04  0.31122336832E+04 0.  0.
        2    1    3    3  502    0  0.96920729946E+03  0.71597660275E+03 -0.19140975240E+04  0.22618033991E+04  0.25500000920E-02 0.  1.
       -2    1    3    3    0  502 -0.96920729946E+03 -0.71597660275E+03  0.30330924645E+03  0.12425706354E+04  0.25500000920E-02 0. -1.
</event>
<event>
 5   0  0.3374790E-06  0.3137952E+04  0.7818609E-02  0.8205399E-01
       -2   -1    0    0    0  501  0.00000000000E+00  0.00000000000E+00  0.16209356246E+04  0.16209356246E+04  0.25500000920E-02 0.  1.
        2   -1    0    0  501    0  0.00000000000E+00  0.00000000000E+00 -0.15186821311E+04  0.15186821311E+04  0.25500000920E-02 0. -1.
    10030    2    1    2    0    0  0.00000000000E+00  0.00000000000E+00  0.10225349354E+03  0.31396177557E+04  0.31379521786E+04 0.  0.
        2    1    3    3  502    0  0.25383641445E+03  0.37366501675E+03  0.15544646207E+04  0.16187707457E+04  0.25500000920E-02 0.  1.
       -2    1    3    3    0  502 -0.25383641445E+03 -0.37366501675E+03 -0.14522111272E+04  0.15208470100E+04  0.25500000920E-02 0. -1.
</event>
<event>
 5   0  0.1198763E-06  0.3101711E+04  0.7818609E-02  0.8215269E-01
        1   -1    0    0  501    0  0.00000000000E+00  0.00000000000E+00  0.11489976015E+04  0.11489976015E+04  0.50400001928E-02 0.  1.
       -1   -1    0    0    0  501  0.00000000000E+00  0.00000000000E+00 -0.20932612215E+04  0.20932612215E+04  0.50400001928E-02 0. -1.
    10030    2    1    2    0    0  0.00000000000E+00  0.00000000000E+00 -0.94426361998E+03  0.32422588230E+04  0.31017105750E+04 0.  0.
        1    1    3    3  502    0  0.11897950332E+04  0.84712111573E+03  0.72962377730E+02  0.14623781708E+04  0.50400001928E-02 0. -1.
       -1    1    3    3    0  502 -0.11897950332E+04 -0.84712111573E+03 -0.10172259977E+04  0.17798806522E+04  0.50400001928E-02 0.  1.
</event>
<event>
 5   0  0.3340899E-06  0.3042547E+04  0.7818609E-02  0.8231685E-01
       -2   -1    0    0    0  501  0.00000000000E+00  0.00000000000E+00  0.11820258281E+04  0.11820258281E+04  0.25500000920E-02 0. -1.
        2   -1    0    0  501    0  0.00000000000E+00  0.00000000000E+00 -0.19578871677E+04  0.19578871677E+04  0.25500000920E-02 0.  1.
    10030    2    1    2    0    0  0.00000000000E+00  0.00000000000E+00 -0.77586133966E+03  0.31399129958E+04  0.30425470913E+04 0.  0.
        3    1    3    3  502    0 -0.12400231473E+04  0.36414539566E+02  0.52075217950E+03  0.13454241960E+04  0.10100000352E+00 0. -1.
       -3    1    3    3    0  502  0.12400231473E+04 -0.36414539566E+02 -0.12966135192E+04  0.17944887998E+04  0.10100000352E+00 0.  1.
</event>
<event>
 5   0  0.3340899E-06  0.3090180E+04  0.7818609E-02  0.8218438E-01
       -2   -1    0    0    0  501  0.00000000000E+00  0.00000000000E+00  0.17063126274E+04  0.17063126274E+04  0.25500000920E-02 0.  1.
        2   -1    0    0  501    0  0.00000000000E+00  0.00000000000E+00 -0.13991007973E+04  0.13991007973E+04  0.25500000920E-02 0. -1.
    10030    2    1    2    0    0  0.00000000000E+00  0.00000000000E+00  0.30721183005E+03  0.31054134247E+04  0.30901801614E+04 0.  0.
        3    1    3    3  502    0  0.11043064956E+04  0.32720982615E+03  0.11886073866E+04  0.16550971682E+04  0.10100000352E+00 0.  1.
       -3    1    3    3    0  502 -0.11043064956E+04 -0.32720982615E+03 -0.88139555658E+03  0.14503162565E+04  0.10100000352E+00 0. -1.
</event>
<event>
 5   0  0.3445959E-06  0.3092744E+04  0.7818609E-02  0.8217732E-01
       -2   -1    0    0    0  501  0.00000000000E+00  0.00000000000E+00  0.11691082609E+04  0.11691082609E+04  0.25500000920E-02 0. -1.
        2   -1    0    0  501    0  0.00000000000E+00  0.00000000000E+00 -0.20453769312E+04  0.20453769312E+04  0.25500000920E-02 0.  1.
    10030    2    1    2    0    0  0.00000000000E+00  0.00000000000E+00 -0.87626867039E+03  0.32144851921E+04  0.30927444556E+04 0.  0.
        4    1    3    3  502    0 -0.12439346605E+04  0.87427423416E+03 -0.14501069666E+03  0.15273370915E+04  0.12699999809E+01 0. -1.
       -4    1    3    3    0  502  0.12439346605E+04 -0.87427423416E+03 -0.73125797373E+03  0.16871481006E+04  0.12699999809E+01 0.  1.
</event>
<event>
 5   0  0.1235960E-06  0.3124193E+04  0.7818609E-02  0.8209129E-01
        1   -1    0    0  501    0  0.00000000000E+00  0.00000000000E+00  0.21729103705E+04  0.21729103705E+04  0.50400001928E-02 0. -1.
       -1   -1    0    0    0  501  0.00000000000E+00  0.00000000000E+00 -0.11229850466E+04  0.11229850466E+04  0.50400001928E-02 0.  1.
    10030    2    1    2    0    0  0.00000000000E+00  0.00000000000E+00  0.10499253239E+04  0.32958954170E+04  0.31241932421E+04 0.  0.
        4    1    3    3  502    0  0.10455642015E+04 -0.64231149566E+03 -0.49479340501E+03  0.13230988940E+04  0.12699999809E+01 0.  1.
       -4    1    3    3    0  502 -0.10455642015E+04  0.64231149566E+03  0.15447187289E+04  0.19727965230E+04  0.12699999809E+01 0. -1.
</event>
<event>
 5   0  0.1235960E-06  0.3103074E+04  0.7818609E-02  0.8214895E-01
       -1   -1    0    0    0  501  0.00000000000E+00  0.00000000000E+00  0.11299955558E+04  0.11299955558E+04  0.50400001928E-02 0. -1.
        1   -1    0    0  501    0  0.00000000000E+00  0.00000000000E+00 -0.21303326843E+04  0.21303326843E+04  0.50400001928E-02 0.  1.
    10030    2    1    2    0    0  0.00000000000E+00  0.00000000000E+00 -0.10003371286E+04  0.32603282401E+04  0.31030736154E+04 0.  0.
        4    1    3    3  502    0 -0.44251889487E+03 -0.10596913694E+04 -0.15963506041E+04  0.19664957754E+04  0.12699999809E+01 0.  1.
       -4    1    3    3    0  502  0.44251889487E+03  0.10596913694E+04  0.59601347553E+03  0.12938324647E+04  0.12699999809E+01 0. -1.
</event>
<event>
 5   0  0.3441897E-06  0.3101220E+04  0.7818609E-02  0.8215403E-01
       -2   -1    0    0    0  501  0.00000000000E+00  0.00000000000E+00  0.19454556293E+04  0.19454556293E+04  0.25500000920E-02 0. -1.
        2   -1    0    0  501    0  0.00000000000E+00  0.00000000000E+00 -0.12359015297E+04  0.12359015297E+04  0.25500000920E-02 0.  1.
    10030    2    1    2    0    0  0.00000000000E+00  0.00000000000E+00  0.70955409956E+03  0.31813571590E+04  0.31012201394E+04 0.  0.
        5    1    3    3  502    0  0.13743050357E+04 -0.69609749252E+03  0.17385808205E+03  0.15503273115E+04  0.46999998093E+01 0. -1.
       -5    1    3    3    0  502 -0.13743050357E+04  0.69609749252E+03  0.53569601751E+03  0.16310298475E+04  0.46999998093E+01 0.  1.
</event>
<event>
 5   0  0.1235960E-06  0.2755005E+04  0.7818609E-02  0.8317375E-01
        1   -1    0    0  501    0  0.00000000000E+00  0.00000000000E+00  0.14592257048E+04  0.14592257048E+04  0.50400001928E-02 0.  1.
       -1   -1    0    0    0  501  0.00000000000E+00  0.00000000000E+00 -0.13003562080E+04  0.13003562081E+04  0.50400001928E-02 0. -1.
    10030    2    1    2    0    0  0.00000000000E+00  0.00000000000E+00  0.15886949672E+03  0.27595819128E+04  0.27550050484E+04 0.  0.
        4    1    3    3  502    0 -0.44831427292E+03 -0.36977382226E+03 -0.11715568860E+04  0.13077712021E+04  0.12699999809E+01 0. -1.
       -4    1    3    3    0  502  0.44831427292E+03  0.36977382226E+03  0.13304263828E+04  0.14518107107E+04  0.12699999809E+01 0.  1.
</event>
<event>
 5   0  0.3340899E-06  0.3074234E+04  0.7818609E-02  0.8222845E-01
        2   -1    0    0  501    0  0.00000000000E+00  0.00000000000E+00  0.13795469584E+04  0.13795469584E+04  0.25500000920E-02 0.  1.
       -2   -1    0    0    0  501  0.00000000000E+00  0.00000000000E+00 -0.17126843228E+04  0.17126843228E+04  0.25500000920E-02 0. -1.
    10030    2    1    2    0    0  0.00000000000E+00  0.00000000000E+00 -0.33313736439E+03  0.30922312811E+04  0.30742338546E+04 0.  0.
        3    1    3    3  502    0 -0.61402826059E+03  0.11626713133E+04 -0.96740377867E+03  0.16323925290E+04  0.10100000352E+00 0. -1.
       -3    1    3    3    0  502  0.61402826059E+03 -0.11626713133E+04  0.63426641427E+03  0.14598387521E+04  0.10100000352E+00 0.  1.
</event>
<event>
 5   0  0.3340899E-06  0.3098394E+04  0.7818609E-02  0.8216179E-01
       -2   -1    0    0    0  501  0.00000000000E+00  0.00000000000E+00  0.15018712061E+04  0.15018712061E+04  0.25500000920E-02 0. -1.
        2   -1    0    0  501    0  0.00000000000E+00  0.00000000000E+00 -0.15980144753E+04  0.15980144753E+04  0.25500000920E-02 0.  1.
    10030    2    1    2    0    0  0.00000000000E+00  0.00000000000E+00 -0.96143269193E+02  0.30998856813E+04  0.30983943760E+04 0.  0.
        3    1    3    3  502    0 -0.58607315611E+03 -0.34125962959E+03 -0.14416067296E+04  0.15931634731E+04  0.10100000352E+00 0.  1.
       -3    1    3    3    0  502  0.58607315611E+03  0.34125962959E+03  0.13454634604E+04  0.15067222082E+04  0.10100000352E+00 0. -1.
</event>
<event>
 5   0  0.1235960E-06  0.2990097E+04  0.7818609E-02  0.8246564E-01
        1   -1    0    0  501    0  0.00000000000E+00  0.00000000000E+00  0.17413780656E+04  0.17413780656E+04  0.50400001928E-02 0.  1.
       -1   -1    0    0    0  501  0.00000000000E+00  0.00000000000E+00 -0.12835640134E+04  0.12835640135E+04  0.50400001928E-02 0. -1.
    10030    2    1    2    0    0  0.00000000000E+00  0.00000000000E+00  0.45781405217E+03  0.30249420791E+04  0.29900971348E+04 0.  0.
        4    1    3    3  502    0  0.39977807284E+03 -0.35427094495E+03 -0.11837315226E+04  0.12986733002E+04  0.12699999809E+01 0. -1.
       -4    1    3    3    0  502 -0.39977807284E+03  0.35427094495E+03  0.16415455748E+04  0.17262687789E+04  0.12699999809E+01 0.  1.
</event>
<event>
 5   0  0.1211008E-06  0.3090080E+04  0.7818609E-02  0.8218466E-01
       -1   -1    0    0    0  501  0.00000000000E+00  0.00000000000E+00  0.10954661968E+04  0.10954661968E+04  0.50400001928E-02 0.  1.
        1   -1    0    0  501    0  0.00000000000E+00  0.00000000000E+00 -0.21791166320E+04  0.21791166320E+04  0.50400001928E-02 0. -1.
    10030    2    1    2    0    0  0.00000000000E+00  0.00000000000E+00 -0.10836504352E+04  0.32745828289E+04  0.30900800050E+04 0.  0.
        3    1    3    3  502    0 -0.13912327204E+03  0.11149549604E+04 -0.16656499109E+04  0.20091962285E+04  0.10100000352E+00 0. -1.
       -3    1    3    3    0  502  0.13912327204E+03 -0.11149549604E+04  0.58199947568E+03  0.12653866004E+04  0.10100000352E+00 0.  1.
</event>
<event>
 5   0  0.1235960E-06  0.3095325E+04  0.7818609E-02  0.8217022E-01
        1   -1    0    0  501    0  0.00000000000E+00  0.00000000000E+00  0.18609850971E+04  0.18609850971E+04  0.50400001928E-02 0.  1.
       -1   -1    0    0    0  501  0.00000000000E+00  0.00000000000E+00 -0.12870922911E+04  0.12870922911E+04  0.50400001928E-02 0. -1.
    10030    2    1    2    0    0  0.00000000000E+00  0.00000000000E+00  0.57389280601E+03  0.31480773883E+04  0.30953252316E+04 0.  0.
        4    1    3    3  502    0  0.94922820089E+03  0.64297808725E+03 -0.77038802867E+03  0.13812871988E+04  0.12699999809E+01 0. -1.
       -4    1    3    3    0  502 -0.94922820089E+03 -0.64297808725E+03  0.13442808347E+04  0.17667901894E+04  0.12699999809E+01 0.  1.
</event>
<event>
 5   0  0.3441897E-06  0.3098278E+04  0.7818609E-02  0.8216211E-01
        2   -1    0    0  501    0  0.00000000000E+00  0.00000000000E+00  0.24491574485E+04  0.24491574485E+04  0.25500000920E-02 0. -1.
       -2   -1    0    0    0  501  0.00000000000E+00  0.00000000000E+00 -0.97985997546E+03  0.97985997546E+03  0.25500000920E-02 0.  1.
    10030    2    1    2    0    0  0.00000000000E+00  0.00000000000E+00  0.14692974730E+04  0.34290174239E+04  0.30982778167E+04 0.  0.
        5    1    3    3  502    0  0.80519838313E+03  0.29629909434E+03  0.21621718410E+04  0.23261871699E+04  0.46999998093E+01 0. -1.
       -5    1    3    3    0  502 -0.80519838313E+03 -0.29629909434E+03 -0.69287436794E+03  0.11028302541E+04  0.46999998093E+01 0.  1.
</event>
<event>
 5   0  0.1235960E-06  0.3101367E+04  0.7818609E-02  0.8215363E-01
        1   -1    0    0  501    0  0.00000000000E+00  0.00000000000E+00  0.16218746970E+04  0.16218746970E+04  0.50400001928E-02 0.  1.
       -1   -1    0    0    0  501  0.00000000000E+00  0.00000000000E+00 -0.14826170632E+04  0.14826170632E+04  0.50400001928E-02 0. -1.
    10030    2    1    2    0    0  0.00000000000E+00  0.00000000000E+00  0.13925763377E+03  0.31044917603E+04  0.31013668601E+04 0.  0.
        4    1    3    3  502    0  0.11636344221E+04 -0.10149753970E+04  0.21259205474E+03  0.15586587566E+04  0.12699999809E+01 0.  1.
       -4    1    3    3    0  502 -0.11636344221E+04  0.10149753970E+04 -0.73334420977E+02  0.15458330036E+04  0.12699999809E+01 0. -1.
</event>
<event>
 5   0  0.1171915E-06  0.3115539E+04  0.7818609E-02  0.8211486E-01
       -1   -1    0    0    0  501  0.00000000000E+00  0.00000000000E+00  0.22817404614E+04  0.22817404614E+04  0.50400001928E-02 0.  1.
        1   -1    0    0  501    0  0.00000000000E+00  0.00000000000E+00 -0.10635066259E+04  0.10635066259E+04  0.50400001928E-02 0. -1.
    10030    2    1    2    0    0  0.00000000000E+00  0.00000000000E+00  0.12182338355E+04  0.33452470873E+04  0.31155391824E+04 0.  0.
        2    1    3    3  502    0  0.30649573517E+03 -0.13844927505E+03 -0.10240603522E+04  0.10778717189E+04  0.25500000920E-02 0. -1.
       -2    1    3    3    0  502 -0.30649573517E+03  0.13844927505E+03  0.22422941877E+04  0.22673753685E+04  0.25500000920E-02 0.  1.
</event>
<event>
 5   0  0.1250276E-06  0.3069410E+04  0.7818609E-02  0.8224184E-01
       -1   -1    0    0    0  501  0.00000000000E+00  0.00000000000E+00  0.11349528710E+04  0.11349528710E+04  0.50400001928E-02 0.  1.
        1   -1    0    0  501    0  0.00000000000E+00  0.00000000000E+00 -0.20752570669E+04  0.20752570670E+04  0.50400001928E-02 0. -1.
    10030    2    1    2    0    0  0.00000000000E+00  0.00000000000E+00 -0.94030419597E+03  0.32102099379E+04  0.30694096932E+04 0.  0.
        5    1    3    3  502    0 -0.10160133607E+04  0.64345158300E+03 -0.14672932575E+04  0.18971780839E+04  0.46999998093E+01 0. -1.
       -5    1    3    3    0  502  0.10160133607E+04 -0.64345158300E+03  0.52698906148E+03  0.13130318540E+04  0.46999998093E+01 0.  1.
</event>
<event>
 5   0  0.3374790E-06  0.3104337E+04  0.7818609E-02  0.8214549E-01
       -2   -1    0    0    0  501  0.00000000000E+00  0.00000000000E+00  0.17490665184E+04  0.17490665184E+04  0.25500000920E-02 0.  1.
        2   -1    0    0  501    0  0.00000000000E+00  0.00000000000E+00 -0.13774359088E+04  0.13774359088E+04  0.25500000920E-02 0. -1.
    10030    2    1    2    0    0  0.00000000000E+00  0.00000000000E+00  0.37163060961E+03  0.31265024273E+04  0.31043369852E+04 0.  0.
        2    1    3    3  502    0 -0.31875968353E+03  0.14432023382E+04 -0.29168629941E+03  0.15064931537E+04  0.25500000920E-02 0. -1.
       -2    1    3    3    0  502  0.31875968353E+03 -0.14432023382E+04  0.66331690903E+03  0.16200092736E+04  0.25500000920E-02 0.  1.
</event>
<event>
 5   0  0.3445959E-06  0.3102965E+04  0.7818609E-02  0.8214925E-01
        2   -1    0    0  501    0  0.00000000000E+00  0.00000000000E+00  0.21842167275E+04  0.21842167275E+04  0.25500000920E-02 0. -1.
       -2   -1    0    0    0  501  0.00000000000E+00  0.00000000000E+00 -0.11020419536E+04  0.11020419536E+04  0.25500000920E-02 0.  1.
    10030    2    1    2    0    0  0.00000000000E+00  0.00000000000E+00  0.10821747738E+04  0.32862586811E+04  0.31029653362E+04 0.  0.
        4    1    3    3  502    0 -0.95478983568E+03 -0.92688646309E+03 -0.30375258616E+03  0.13649210205E+04  0.12699999809E+01 0.  1.
       -4    1    3    3    0  502  0.95478983568E+03  0.92688646309E+03  0.13859273600E+04  0.19213376606E+04  0.12699999809E+01 0. -1.
</event>
<event>
 5   0  0.3340899E-06  0.2961544E+04  0.7818609E-02  0.8254798E-01
       -2   -1    0    0    0  501  0.00000000000E+00  0.00000000000E+00  0.88365760701E+03  0.88365760702E+03  0.25500000920E-02 0.  1.
        2   -1    0    0  501    0  0.00000000000E+00  0.00000000000E+00 -0.24813739871E+04  0.24813739871E+04  0.25500000920E-02 0. -1.
    10030    2    1    2    0    0  0.00000000000E+00  0.00000000000E+00 -0.15977163801E+04  0.33650315941E+04  0.29615435162E+04 0.  0.
        3    1    3    3  502    0  0.29322713927E+03 -0.84712946486E+03  0.54030590806E+03  0.10466809303E+04  0.10100000352E+00 0.  1.
       -3    1    3    3    0  502 -0.29322713927E+03  0.84712946486E+03 -0.21380222881E+04  0.23183506638E+04  0.10100000352E+00 0. -1.
</event>
<event>
 5   0  0.1198763E-06  0.3044420E+04  0.7818609E-02  0.8231159E-01
        1   -1    0    0  501    0  0.00000000000E+00  0.00000000000E+00  0.14630449022E+04  0.14630449023E+04  0.50400001928E-02 0.  1.
       -1   -1    0    0    0  501  0.00000000000E+00  0.00000000000E+00 -0.15837681499E+04  0.15837681499E+04  0.50400001928E-02 0. -1.
    10030    2    1    2    0    0  0.00000000000E+00  0.00000000000E+00 -0.12072324762E+03  0.30468130521E+04  0.30444204164E+04 0.  0.
        1    1    3    3  502    0  0.10943260538E+04 -0.23676503720E+03  0.97171833118E+03  0.14825126340E+04  0.50400001928E-02 0.  1.
       -1    1    3    3    0  502 -0.10943260538E+04  0.23676503720E+03 -0.10924415788E+04  0.15643004181E+04  0.50400001928E-02 0. -1.
</event>
<event>
 5   0  0.1211008E-06  0.3027964E+04  0.7818609E-02  0.8235790E-01
        1   -1    0    0  501    0  0.00000000000E+00  0.00000000000E+00  0.17020694899E+04  0.17020694899E+04  0.50400001928E-02 0. -1.
       -1   -1    0    0    0  501  0.00000000000E+00  0.00000000000E+00 -0.13466795380E+04  0.13466795381E+04  0.50400001928E-02 0.  1.
    10030    2    1    2    0    0  0.00000000000E+00  0.00000000000E+00  0.35538995181E+03  0.30487490279E+04  0.30279644346E+04 0.  0.
        3    1    3    3  502    0 -0.62198870342E+03  0.99558112725E+03 -0.78494852432E+03  0.14121600207E+04  0.10100000352E+00 0.  1.
       -3    1    3    3    0  502  0.62198870342E+03 -0.99558112725E+03  0.11403384761E+04  0.16365890072E+04  0.10100000352E+00 0. -1.
</event>
<event>
 5   0  0.1250276E-06  0.3104580E+04  0.7818609E-02  0.8214482E-01
        1   -1    0    0  501    0  0.00000000000E+00  0.00000000000E+00  0.15349987037E+04  0.15349987037E+04  0.50400001928E-02 0. -1.
       -1   -1    0    0    0  501  0.00000000000E+00  0.00000000000E+00 -0.15697760776E+04  0.15697760776E+04  0.50400001928E-02 0.  1.
    10030    2    1    2    0    0  0.00000000000E+00  0.00000000000E+00 -0.34777373915E+02  0.31047747812E+04  0.31045800000E+04 0.  0.
        5    1    3    3  502    0  0.10881289903E+04 -0.83599612725E+03  0.70837575016E+03  0.15442579181E+04  0.46999998093E+01 0. -1.
       -5    1    3    3    0  502 -0.10881289903E+04  0.83599612725E+03 -0.74315312407E+03  0.15605168631E+04  0.46999998093E+01 0.  1.
</event>
<event>
 5   0  0.1250276E-06  0.2767926E+04  0.7818609E-02  0.8313296E-01
        1   -1    0    0  501    0  0.00000000000E+00  0.00000000000E+00  0.26363926589E+04  0.26363926589E+04  0.50400001928E-02 0.  1.
       -1   -1    0    0    0  501  0.00000000000E+00  0.00000000000E+00 -0.72650547309E+03  0.72650547310E+03  0.50400001928E-02 0. -1.
    10030    2    1    2    0    0  0.00000000000E+00  0.00000000000E+00  0.19098871859E+04  0.33628981320E+04  0.27679260799E+04 0.  0.
        5    1    3    3  502    0 -0.93296656887E+03 -0.73899223606E+03  0.18130091532E+04  0.21687693338E+04  0.46999998093E+01 0.  1.
       -5    1    3    3    0  502  0.93296656887E+03  0.73899223606E+03  0.96878032630E+02  0.11941287982E+04  0.46999998093E+01 0. -1.
</event>
<event>
 5   0  0.3374790E-06  0.3053113E+04  0.7818609E-02  0.8228725E-01
        2   -1    0    0  501    0  0.00000000000E+00  0.00000000000E+00  0.31791949044E+04  0.31791949044E+04  0.25500000920E-02 0.  1.
       -2   -1    0    0    0  501  0.00000000000E+00  0.00000000000E+00 -0.73300776629E+03  0.73300776629E+03  0.25500000920E-02 0. -1.
    10030    2    1    2    0    0  0.00000000000E+00  0.00000000000E+00  0.24461871381E+04  0.39122026706E+04  0.30531128741E+04 0.  0.
        2    1    3    3  502    0  0.12882533927E+04  0.75630437865E+03  0.82036155158E+03  0.17042846571E+04  0.25500000920E-02 0. -1.
       -2    1    3    3    0  502 -0.12882533927E+04 -0.75630437865E+03  0.16258255865E+04  0.22079180136E+04  0.25500000920E-02 0.  1.
</event>
<event>
 5   0  0.3374790E-06  0.3091205E+04  0.7818609E-02  0.8218156E-01
        2   -1    0    0  501    0  0.00000000000E+00  0.00000000000E+00  0.26897940953E+04  0.26897940953E+04  0.25500000920E-02 0.  1.
       -2   -1    0    0    0  501  0.00000000000E+00  0.00000000000E+00 -0.88812999382E+03  0.88812999382E+03  0.25500000920E-02 0. -1.
    10030    2    1    2    0    0  0.00000000000E+00  0.00000000000E+00  0.18016641015E+04  0.35779240891E+04  0.30912048222E+04 0.  0.
        2    1    3    3  502    0  0.14441585195E+04 -0.15383339090E+03  0.28877221839E+03  0.14807592430E+04  0.25500000920E-02 0. -1.
       -2    1    3    3    0  502 -0.14441585195E+04  0.15383339090E+03  0.15128918831E+04  0.20971648461E+04  0.25500000920E-02 0.  1.
</event>
<event>
 5   0  0.1211008E-06  0.2873219E+04  0.7818609E-02  0.8280890E-01
       -1   -1    0    0    0  501  0.00000000000E+00  0.00000000000E+00  0.11646606028E+04  0.11646606028E+04  0.50400001928E-02 0.  1.
        1   -1    0    0  501    0  0.00000000000E+00  0.00000000000E+00 -0.17720592266E+04  0.17720592266E+04  0.50400001928E-02 0. -1.
    10030    2    1    2    0    0  0.00000000000E+00  0.00000000000E+00 -0.60739862388E+03  0.29367198294E+04  0.28732194953E+04 0.  0.
        3    1    3    3  502    0  0.72975499312E+03  0.76635433036E+03  0.68937362181E+03  0.12629637011E+04  0.10100000352E+00 0.  1.
       -3    1    3    3    0  502 -0.72975499312E+03 -0.76635433036E+03 -0.12967722457E+04  0.16737561283E+04  0.10100000352E+00 0. -1.
</event>
<event>
 5   0  0.1198763E-06  0.3116936E+04  0.7818609E-02  0.8211105E-01
        1   -1    0    0  501    0  0.00000000000E+00  0.00000000000E+00  0.20019195167E+04  0.20019195167E+04  0.50400001928E-02 0. -1.
       -1   -1    0    0    0  501  0.00000000000E+00  0.00000000000E+00 -0.12132466108E+04  0.12132466108E+04  0.50400001928E-02 0.  1.
    10030    2    1    2    0    0  0.00000000000E+00  0.00000000000E+00  0.78867290592E+03  0.32151661275E+04  0.31169357187E+04 0.  0.
        1    1    3    3  502    0 -0.30876049536E+03  0.92871824148E+03  0.16453951728E+04  0.19144649096E+04  0.50400001928E-02 0. -1.
       -1    1    3    3    0  502  0.30876049536E+03 -0.92871824148E+03 -0.85672226686E+03  0.13007012178E+04  0.50400001928E-02 0.  1.
</event>
<event>
 5   0  0.3445410E-06  0.3090597E+04  0.7818609E-02  0.8218323E-01
        2   -1    0    0  501    0  0.00000000000E+00  0.00000000000E+00  0.31637868010E+04  0.31637868010E+04  0.25500000920E-02 0.  1.
       -2   -1    0    0    0  501  0.00000000000E+00  0.00000000000E+00 -0.75477489389E+03  0.75477489390E+03  0.25500000920E-02 0. -1.
    10030    2    1    2    0    0  0.00000000000E+00  0.00000000000E+00  0.24090119071E+04  0.39185616949E+04  0.30905966071E+04 0.  0.
        1    1    3    3  502    0 -0.64579383249E+03 -0.78330184548E+03 -0.27265545133E+03  0.10511671848E+04  0.50400001928E-02 0. -1.
       -1    1    3    3    0  502  0.64579383249E+03  0.78330184548E+03  0.26816673584E+04  0.28673945101E+04  0.50400001928E-02 0.  1.
</event>
<event>
 5   0  0.3441897E-06  0.3157997E+04  0.7818609E-02  0.8199999E-01
       -2   -1    0    0    0  501  0.00000000000E+00  0.00000000000E+00  0.13008247564E+04  0.13008247564E+04  0.25500000920E-02 0. -1.
        2   -1    0    0  501    0  0.00000000000E+00  0.00000000000E+00 -0.19166580757E+04  0.19166580757E+04  0.25500000920E-02 0.  1.
    10030    2    1    2    0    0  0.00000000000E+00  0.00000000000E+00 -0.61583331931E+03  0.32174828321E+04  0.31579970072E+04 0.  0.
        5    1    3    3  502    0  0.11813106973E+03 -0.12802318856E+04 -0.12418433869E+04  0.17874970541E+04  0.46999998093E+01 0.  1.
       -5    1    3    3    0  502 -0.11813106973E+03  0.12802318856E+04  0.62601006762E+03  0.14299857780E+04  0.46999998093E+01 0. -1.
</event>
<event>
 5   0  0.1171915E-06  0.3114607E+04  0.7818609E-02  0.8211741E-01
       -1   -1    0    0    0  501  0.00000000000E+00  0.00000000000E+00  0.10776751784E+04  0.10776751784E+04  0.50400001928E-02 0. -1.
        1   -1    0    0  501    0  0.00000000000E+00  0.00000000000E+00 -0.22503944052E+04  0.22503944052E+04  0.50400001928E-02 0.  1.
    10030    2    1    2    0    0  0.00000000000E+00  0.00000000000E+00 -0.11727192268E+04  0.33280695837E+04  0.31146070007E+04 0.  0.
        2    1    3    3  502    0 -0.14734109672E+04 -0.28524966825E+03 -0.10306533974E+04  0.18205915734E+04  0.25500000920E-02 0. -1.
       -2    1    3    3    0  502  0.14734109672E+04  0.28524966825E+03 -0.14206582936E+03  0.15074780102E+04  0.25500000920E-02 0.  1.
</event>
<event>
 5   0  0.1171915E-06  0.3099320E+04  0.7818609E-02  0.8215925E-01
       -1   -1    0    0    0  501  0.00000000000E+00  0.00000000000E+00  0.15739132608E+04  0.15739132608E+04  0.50400001928E-02 0.  1.
        1   -1    0    0  501    0  0.00000000000E+00  0.00000000000E+00 -0.15257805479E+04  0.15257805479E+04  0.50400001928E-02 0. -1.
    10030    2    1    2    0    0  0.00000000000E+00  0.00000000000E+00  0.48132712882E+02  0.30996938087E+04  0.30993200786E+04 0.  0.
        2    1    3    3  502    0  0.56378195132E+02  0.10093528613E+04  0.11987183239E+04  0.15680871530E+04  0.25500000920E-02 0.  1.
       -2    1    3    3    0  502 -0.56378195132E+02 -0.10093528613E+04 -0.11505856110E+04  0.15316066557E+04  0.25500000920E-02 0. -1.
</event>
<event>
 5   0  0.1211008E-06  0.3118602E+04  0.7818609E-02  0.8210651E-01
       -1   -1    0    0    0  501  0.00000000000E+00  0.00000000000E+00  0.13065518259E+04  0.13065518259E+04  0.50400001928E-02 0. -1.
        1   -1    0    0  501    0  0.00000000000E+00  0.00000000000E+00 -0.18609438461E+04  0.18609438461E+04  0.50400001928E-02 0.  1.
    10030    2    1    2    0    0  0.00000000000E+00  0.00000000000E+00 -0.55439202027E+03  0.31674956720E+04  0.31186019817E+04 0.  0.
        3    1    3    3  502    0 -0.98479260553E+03 -0.72682174584E+03  0.70404218976E+03  0.14120062823E+04  0.10100000352E+00 0. -1.
       -3    1    3    3    0  502  0.98479260553E+03  0.72682174584E+03 -0.12584342100E+04  0.17554893897E+04  0.10100000352E+00 0.  1.
</event>
<event>
 5   0  0.3340899E-06  0.3107318E+04  0.7818609E-02  0.8213732E-01
        2   -1    0    0  501    0  0.00000000000E+00  0.00000000000E+00  0.17352981631E+04  0.17352981631E+04  0.25500000920E-02 0.  1.
       -2   -1    0    0    0  501  0.00000000000E+00  0.00000000000E+00 -0.13910330146E+04  0.13910330146E+04  0.25500000920E-02 0. -1.
    10030    2    1    2    0    0  0.00000000000E+00  0.00000000000E+00  0.34426514852E+03  0.31263311777E+04  0.31073184807E+04 0.  0.
        3    1    3    3  502    0  0.84080427626E+03 -0.76652539379E+02  0.14843480244E+04  0.17076640508E+04  0.10100000352E+00 0.  1.
       -3    1    3    3    0  502 -0.84080427626E+03  0.76652539379E+02 -0.11400828759E+04  0.14186671269E+04  0.10100000352E+00 0. -1.
</event>
<event>
 5   0  0.1250276E-06  0.3048038E+04  0.7818609E-02  0.8230145E-01
       -1   -1    0    0    0  501  0.00000000000E+00  0.00000000000E+00  0.15749580327E+04  0.15749580327E+04  0.50400001928E-02 0.  1.
        1   -1    0    0  501    0  0.00000000000E+00  0.00000000000E+00 -0.14747270854E+04  0.14747270854E+04  0.50400001928E-02 0. -1.
    10030    2    1    2    0    0  0.00000000000E+00  0.00000000000E+00  0.10023094730E+03  0.30496851180E+04  0.30480375779E+04 0.  0.
        5    1    3    3  502    0  0.92056088573E+03 -0.41525718191E+03 -0.10918779656E+04  0.14873098041E+04  0.46999998093E+01 0. -1.
       -5    1    3    3    0  502 -0.92056088573E+03  0.41525718191E+03  0.11921089129E+04  0.15623753140E+04  0.46999998093E+01 0.  1.
</event>
<event>
 5   0  0.1235960E-06  0.3093603E+04  0.7818609E-02  0.8217496E-01
       -1   -1    0    0    0  501  0.00000000000E+00  0.00000000000E+00  0.16697632254E+04  0.16697632254E+04  0.50400001928E-02 0.  1.
        1   -1    0    0  501    0  0.00000000000E+00  0.00000000000E+00 -0.14328943808E+04  0.14328943808E+04  0.50400001928E-02 0. -1.
    10030    2    1    2    0    0  0.00000000000E+00  0.00000000000E+00  0.23686884459E+03  0.31026576061E+04  0.30936026525E+04 0.  0.
        4    1    3    3  502    0  0.13424958595E+04  0.22748173878E+03  0.85444184881E+03  0.16075184478E+04  0.12699999809E+01 0.  1.
       -4    1    3    3    0  502 -0.13424958595E+04 -0.22748173878E+03 -0.61757300422E+03  0.14951391583E+04  0.12699999809E+01 0. -1.
</event>
<event>
 5   0  0.3340899E-06  0.3099589E+04  0.7818609E-02  0.8215851E-01
       -2   -1    0    0    0  501  0.00000000000E+00  0.00000000000E+00  0.89952572664E+03  0.89952572665E+03  0.25500000920E-02 0.  1.
        2   -1    0    0  501    0  0.00000000000E+00  0.00000000000E+00 -0.26701436828E+04  0.26701436828E+04  0.25500000920E-02 0. -1.
    10030    2    1    2    0    0  0.00000000000E+00  0.00000000000E+00 -0.17706179561E+04  0.35696694094E+04  0.30995889640E+04 0.  0.
        3    1    3    3  502    0  0.40893476626E+03  0.24155341478E+03 -0.25842644578E+04  0.26275460973E+04  0.10100000352E+00 0. -1.
       -3    1    3    3    0  502 -0.40893476626E+03 -0.24155341478E+03  0.81364650172E+03  0.94212331210E+03  0.10100000352E+00 0.  1.
</event>
<event>
 5   0  0.3441897E-06  0.3148084E+04  0.7818609E-02  0.8202664E-01
        2   -1    0    0  501    0  0.00000000000E+00  0.00000000000E+00  0.17574578049E+04  0.17574578049E+04  0.25500000920E-02 0.  1.
       -2   -1    0    0    0  501  0.00000000000E+00  0.00000000000E+00 -0.14097684457E+04  0.14097684457E+04  0.25500000920E-02 0. -1.
    10030    2    1    2    0    0  0.00000000000E+00  0.00000000000E+00  0.34768935919E+03  0.31672262506E+04  0.31480842162E+04 0.  0.
        5    1    3    3  502    0 -0.11264301144E+04  0.49389293455E+03 -0.81437606743E+03  0.14751289783E+04  0.46999998093E+01 0. -1.
       -5    1    3    3    0  502  0.11264301144E+04 -0.49389293455E+03  0.11620654266E+04  0.16920972724E+04  0.46999998093E+01 0.  1.
</event>
<event>
 5   0  0.3441897E-06  0.3112180E+04  0.7818609E-02  0.8212403E-01
        2   -1    0    0  501    0  0.00000000000E+00  0.00000000000E+00  0.17311921668E+04  0.17311921668E+04  0.25500000920E-02 0. -1.
       -2   -1    0    0    0  501  0.00000000000E+00  0.00000000000E+00 -0.13986982681E+04  0.13986982681E+04  0.25500000920E-02 0.  1.
    10030    2    1    2    0    0  0.00000000000E+00  0.00000000000E+00  0.33249389870E+03  0.31298904348E+04  0.31121796126E+04 0.  0.
        5    1    3    3  502    0 -0.14017346167E+04 -0.44174142814E+03 -0.34793353271E+03  0.15103228986E+04  0.46999998093E+01 0.  1.
       -5    1    3    3    0  502  0.14017346167E+04  0.44174142814E+03  0.68042743141E+03  0.16195675362E+04  0.46999998093E+01 0. -1.
</event>
<event>
 5   0  0.3441897E-06  0.3083498E+04  0.7818609E-02  0.8220281E-01
        2   -1    0    0  501    0  0.00000000000E+00  0.00000000000E+00  0.22879465202E+04  0.22879465202E+04  0.25500000920E-02 0.  1.
       -2   -1    0    0    0  501  0.00000000000E+00  0.00000000000E+00 -0.10389188405E+04  0.10389188406E+04  0.25500000920E-02 0. -1.
    10030    2    1    2    0    0  0.00000000000E+00  0.00000000000E+00  0.12490276796E+04  0.33268653607E+04  0.30834984975E+04 0.  0.
        5    1    3    3  502    0 -0.14531052612E+04 -0.49914710664E+03  0.76228685495E+03  0.17151577401E+04  0.46999998093E+01 0.  1.
       -5    1    3    3    0  502  0.14531052612E+04  0.49914710664E+03  0.48674082466E+03  0.16117076206E+04  0.46999998093E+01 0. -1.
</event>
<event>
 5   0  0.3374790E-06  0.3138600E+04  0.7818609E-02  0.8205224E-01
        2   -1    0    0  501    0  0.00000000000E+00  0.00000000000E+00  0.21311607497E+04  0.21311607497E+04  0.25500000920E-02 0.  1.
       -2   -1    0    0    0  501  0.00000000000E+00  0.00000000000E+00 -0.11555683164E+04  0.11555683164E+04  0.25500000920E-02 0. -1.
    10030    2    1    2    0    0  0.00000000000E+00  0.00000000000E+00  0.97559243330E+03  0.32867290661E+04  0.31385995855E+04 0.  0.
        2    1    3    3  502    0 -0.54996298557E+03 -0.18280292848E+03  0.20149892577E+04  0.20966778257E+04  0.25500000920E-02 0.  1.
       -2    1    3    3    0  502  0.54996298557E+03  0.18280292848E+03 -0.10393968244E+04  0.11900512404E+04  0.25500000920E-02 0. -1.
</event>
<event>
 5   0  0.3445959E-06  0.3085505E+04  0.7818609E-02  0.8219727E-01
        2   -1    0    0  501    0  0.00000000000E+00  0.00000000000E+00  0.21672924272E+04  0.21672924272E+04  0.25500000920E-02 0. -1.
       -2   -1    0    0    0  501  0.00000000000E+00  0.00000000000E+00 -0.10981834701E+04  0.10981834701E+04  0.25500000920E-02 0.  1.
    10030    2    1    2    0    0  0.00000000000E+00  0.00000000000E+00  0.10691089571E+04  0.32654758973E+04  0.30855046384E+04 0.  0.
        4    1    3    3  502    0 -0.13557169306E+04 -0.65381613033E+03  0.89288748168E+03  0.17500553123E+04  0.12699999809E+01 0. -1.
       -4    1    3    3    0  502  0.13557169306E+04  0.65381613033E+03  0.17622147542E+03  0.15154205850E+04  0.12699999809E+01 0.  1.
</event>
<event>
 5   0  0.3340899E-06  0.3073663E+04  0.7818609E-02  0.8223003E-01
       -2   -1    0    0    0  501  0.00000000000E+00  0.00000000000E+00  0.11949080717E+04  0.11949080717E+04  0.25500000920E-02 0. -1.
        2   -1    0    0  501    0  0.00000000000E+00  0.00000000000E+00 -0.19765961619E+04  0.19765961619E+04  0.25500000920E-02 0.  1.
    10030    2    1    2    0    0  0.00000000000E+00  0.00000000000E+00 -0.78168809019E+03  0.31715042336E+04  0.30736627716E+04 0.  0.
        3    1    3    3  502    0  0.22842239513E+03 -0.83025534135E+03  0.92260579506E+03  0.12620230528E+04  0.10100000352E+00 0. -1.
       -3    1    3    3    0  502 -0.22842239513E+03  0.83025534135E+03 -0.17042938852E+04  0.19094811808E+04  0.10100000352E+00 0.  1.
</event>
<event>
 5   0  0.3441897E-06  0.3037890E+04  0.7818609E-02  0.8232993E-01
       -2   -1    0    0    0  501  0.00000000000E+00  0.00000000000E+00  0.14597816313E+04  0.14597816313E+04  0.25500000920E-02 0. -1.
        2   -1    0    0  501    0  0.00000000000E+00  0.00000000000E+00 -0.15805065927E+04  0.15805065927E+04  0.25500000920E-02 0.  1.
    10030    2    1    2    0    0  0.00000000000E+00  0.00000000000E+00 -0.12072496135E+03  0.30402882240E+04  0.30378903813E+04 0.  0.
        5    1    3    3  502    0 -0.11861942360E+04  0.43786458111E+03 -0.90268603377E+03  0.15535914272E+04  0.46999998093E+01 0.  1.
       -5    1    3    3    0  502  0.11861942360E+04 -0.43786458111E+03  0.78196107242E+03  0.14866967969E+04  0.46999998093E+01 0. -1.
</event>
<event>
 5   0  0.3445410E-06  0.3106858E+04  0.7818609E-02  0.8213858E-01
        2   -1    0    0  501    0  0.00000000000E+00  0.00000000000E+00  0.21698462385E+04  0.21698462385E+04  0.25500000920E-02 0. -1.
       -2   -1    0    0    0  501  0.00000000000E+00  0.00000000000E+00 -0.11121257287E+04  0.11121257287E+04  0.25500000920E-02 0.  1.
    10030    2    1    2    0    0  0.00000000000E+00  0.00000000000E+00  0.10577205098E+04  0.32819719672E+04  0.31068581102E+04 0.  0.
        1    1    3    3  502    0  0.14746674905E+03  0.81561727320E+03  0.19167483688E+04  0.20882773493E+04  0.50400001928E-02 0. -1.
       -1    1    3    3    0  502 -0.14746674905E+03 -0.81561727320E+03 -0.85902785892E+03  0.11936946179E+04  0.50400001928E-02 0.  1.
</event>
<event>
 5   0  0.3445410E-06  0.2817751E+04  0.7818609E-02  0.8297779E-01
       -2   -1    0    0    0  501  0.00000000000E+00  0.00000000000E+00  0.98003361369E+03  0.98003361369E+03  0.25500000920E-02 0. -1.
        2   -1    0    0  501    0  0.00000000000E+00  0.00000000000E+00 -0.20253691487E+04  0.20253691487E+04  0.25500000920E-02 0.  1.
    10030    2    1    2    0    0  0.00000000000E+00  0.00000000000E+00 -0.10453355351E+04  0.30054027624E+04  0.28177507668E+04 0.  0.
        1    1    3    3  502    0  0.11861923934E+04 -0.61660044744E+03 -0.99689112691E+03  0.16676451735E+04  0.50400001928E-02 0.  1.
       -1    1    3    3    0  502 -0.11861923934E+04  0.61660044744E+03 -0.48444408138E+02  0.13377575889E+04  0.50400001928E-02 0. -1.
</event>
<event>
 5   0  0.1171915E-06  0.3039829E+04  0.7818609E-02  0.8232448E-01
       -1   -1    0    0    0  501  0.00000000000E+00  0.00000000000E+00  0.13074805815E+04  0.13074805815E+04  0.50400001928E-02 0. -1.
        1   -1    0    0  501    0  0.00000000000E+00  0.00000000000E+00 -0.17668635656E+04  0.17668635656E+04  0.50400001928E-02 0.  1.
    10030    2    1    2    0    0  0.00000000000E+00  0.00000000000E+00 -0.45938298412E+03  0.30743441470E+04  0.30398288123E+04 0.  0.
        2    1    3    3  502    0  0.70619098657E+03  0.84929270386E+03 -0.12856423187E+04  0.16949572201E+04  0.25500000920E-02 0.  1.
       -2    1    3    3    0  502 -0.70619098657E+03 -0.84929270386E+03  0.82625933455E+03  0.13793869270E+04  0.25500000920E-02 0. -1.
</event>
<event>
 5   0  0.3340899E-06  0.3121458E+04  0.7818609E-02  0.8209873E-01
       -2   -1    0    0    0  501  0.00000000000E+00  0.00000000000E+00  0.96173115769E+03  0.96173115769E+03  0.25500000920E-02 0.  1.
        2   -1    0    0  501    0  0.00000000000E+00  0.00000000000E+00 -0.25328028420E+04  0.25328028420E+04  0.25500000920E-02 0. -1.
    10030    2    1    2    0    0  0.00000000000E+00  0.00000000000E+00 -0.15710716843E+04  0.34945339997E+04  0.31214582550E+04 0.  0.
        3    1    3    3  502    0  0.66651887857E+03 -0.26491266455E+03 -0.23373731897E+04  0.24449416299E+04  0.10100000352E+00 0. -1.
       -3    1    3    3    0  502 -0.66651887857E+03  0.26491266455E+03  0.76630150542E+03  0.10495923698E+04  0.10100000352E+00 0.  1.
</event>
<event>
 5   0  0.1235960E-06  0.3175674E+04  0.7818609E-02  0.8195271E-01
        1   -1    0    0  501    0  0.00000000000E+00  0.00000000000E+00  0.17549749245E+04  0.17549749245E+04  0.50400001928E-02 0.  1.
       -1   -1    0    0    0  501  0.00000000000E+00  0.00000000000E+00 -0.14366164973E+04  0.14366164973E+04  0.50400001928E-02 0. -1.
    10030    2    1    2    0    0  0.00000000000E+00  0.00000000000E+00  0.31835842719E+03  0.31915914218E+04  0.31756737420E+04 0.  0.
        4    1    3    3  502    0 -0.61172722219E+03 -0.74689816746E+03  0.14261157121E+04  0.17221715083E+04  0.12699999809E+01 0.  1.
       -4    1    3    3    0  502  0.61172722219E+03  0.74689816746E+03 -0.11077572849E+04  0.14694199135E+04  0.12699999809E+01 0. -1.
</event>
<event>
 5   0  0.1198763E-06  0.3089254E+04  0.7818609E-02  0.8218693E-01
        1   -1    0    0  501    0  0.00000000000E+00  0.00000000000E+00  0.15469533883E+04  0.15469533883E+04  0.50400001928E-02 0. -1.
       -1   -1    0    0    0  501  0.00000000000E+00  0.00000000000E+00 -0.15423045439E+04  0.15423045439E+04  0.50400001928E-02 0.  1.
    10030    2    1    2    0    0  0.00000000000E+00  0.00000000000E+00  0.46488443874E+01  0.30892579323E+04  0.30892544344E+04 0.  0.
        1    1    3    3  502    0  0.62709971485E+03  0.13926533799E+04 -0.22818777176E+03  0.15442820818E+04  0.50400001928E-02 0.  1.
       -1    1    3    3    0  502 -0.62709971485E+03 -0.13926533799E+04  0.23283661615E+03  0.15449758505E+04  0.50400001928E-02 0. -1.
</event>
<event>
 5   0  0.1250276E-06  0.3079812E+04  0.7818609E-02  0.8221300E-01
       -1   -1    0    0    0  501  0.00000000000E+00  0.00000000000E+00  0.11661294963E+04  0.11661294963E+04  0.50400001928E-02 0. -1.
        1   -1    0    0  501    0  0.00000000000E+00  0.00000000000E+00 -0.20334880171E+04  0.20334880171E+04  0.50400001928E-02 0.  1.
    10030    2    1    2    0    0  0.00000000000E+00  0.00000000000E+00 -0.86735852079E+03  0.31996175134E+04  0.30798119144E+04 0.  0.
        5    1    3    3  502    0  0.11319354724E+04  0.10109870585E+04 -0.70442297856E+03  0.16732024889E+04  0.46999998093E+01 0.  1.
       -5    1    3    3    0  502 -0.11319354724E+04 -0.10109870585E+04 -0.16293554223E+03  0.15264150245E+04  0.46999998093E+01 0. -1.
</event>
<event>
 5   0  0.3445959E-06  0.3248024E+04  0.7818609E-02  0.8176248E-01
        2   -1    0    0  501    0  0.00000000000E+00  0.00000000000E+00  0.25208247247E+04  0.25208247247E+04  0.25500000920E-02 0. -1.
       -2   -1    0    0    0  501  0.00000000000E+00  0.00000000000E+00 -0.10462509422E+04  0.10462509423E+04  0.25500000920E-02 0.  1.
    10030    2    1    2    0    0  0.00000000000E+00  0.00000000000E+00  0.14745737824E+04  0.35670756669E+04  0.32480241646E+04 0.  0.
        4    1    3    3  502    0 -0.58207172060E+03  0.15087869324E+04  0.57377187191E+03  0.17159432594E+04  0.12699999809E+01 0.  1.
       -4    1    3    3    0  502  0.58207172060E+03 -0.15087869324E+04  0.90080191050E+03  0.18511324076E+04  0.12699999809E+01 0. -1.
</event>
<event>
 5   0  0.1171915E-06  0.3070179E+04  0.7818609E-02  0.8223970E-01
        1   -1    0    0  501    0  0.00000000000E+00  0.00000000000E+00  0.13603163407E+04  0.13603163407E+04  0.50400001928E-02 0.  1.
       -1   -1    0    0    0  501  0.00000000000E+00  0.00000000000E+00 -0.17323169870E+04  0.17323169870E+04  0.50400001928E-02 0. -1.
    10030    2    1    2    0    0  0.00000000000E+00  0.00000000000E+00 -0.37200064632E+03  0.30926333277E+04  0.30701785646E+04 0.  0.
        2    1    3    3  502    0 -0.14381299122E+04 -0.41838409102E+03  0.15296671149E+03  0.15055436582E+04  0.25500000920E-02 0.  1.
       -2    1    3    3    0  502  0.14381299122E+04  0.41838409102E+03 -0.52496735781E+03  0.15870896694E+04  0.25500000920E-02 0. -1.
</event>
<event>
 5   0  0.3374790E-06  0.3075882E+04  0.7818609E-02  0.8222388E-01
        2   -1    0    0  501    0  0.00000000000E+00  0.00000000000E+00  0.22649797749E+04  0.22649797749E+04  0.25500000920E-02 0.  1.
       -2   -1    0    0    0  501  0.00000000000E+00  0.00000000000E+00 -0.10442755809E+04  0.10442755809E+04  0.25500000920E-02 0. -1.
    10030    2    1    2    0    0  0.00000000000E+00  0.00000000000E+00  0.12207041940E+04  0.33092553557E+04  0.30758823580E+04 0.  0.
        2    1    3    3  502    0 -0.13103170354E+04 -0.68935732247E+03  0.10579960263E+04  0.18197526873E+04  0.25500000920E-02 0.  1.
       -2    1    3    3    0  502  0.13103170354E+04  0.68935732247E+03  0.16270816764E+03  0.14895026684E+04  0.25500000920E-02 0. -1.
</event>
<event>
 5   0  0.3445410E-06  0.3142488E+04  0.7818609E-02  0.8204173E-01
       -2   -1    0    0    0  501  0.00000000000E+00  0.00000000000E+00  0.18800631193E+04  0.18800631193E+04  0.25500000920E-02 0.  1.
        2   -1    0    0  501    0  0.00000000000E+00  0.00000000000E+00 -0.13131515228E+04  0.13131515228E+04  0.25500000920E-02 0. -1.
    10030    2    1    2    0    0  0.00000000000E+00  0.00000000000E+00  0.56691159653E+03  0.31932146422E+04  0.31424880259E+04 0.  0.
        1    1    3    3  502    0 -0.10111647275E+04  0.53784830520E+03  0.13764927162E+04  0.17906610800E+04  0.50400001928E-02 0.  1.
       -1    1    3    3    0  502  0.10111647275E+04 -0.53784830520E+03 -0.80958111967E+03  0.14025535622E+04  0.50400001928E-02 0. -1.
</event>
<event>
 5   0  0.3441897E-06  0.3116515E+04  0.7818609E-02  0.8211220E-01
       -2   -1    0    0    0  501  0.00000000000E+00  0.00000000000E+00  0.15347267086E+04  0.15347267086E+04  0.25500000920E-02 0.  1.
        2   -1    0    0  501    0  0.00000000000E+00  0.00000000000E+00 -0.15821489149E+04  0.15821489149E+04  0.25500000920E-02 0. -1.
    10030    2    1    2    0    0  0.00000000000E+00  0.00000000000E+00 -0.47422206304E+02  0.31168756235E+04  0.31165148462E+04 0.  0.
        5    1    3    3  502    0  0.92788202732E+02  0.19053819022E+03 -0.15676610589E+04  0.15819284871E+04  0.46999998093E+01 0. -1.
       -5    1    3    3    0  502 -0.92788202732E+02 -0.19053819022E+03  0.15202388526E+04  0.15349471364E+04  0.46999998093E+01 0.  1.
</event>
<event>
 5   0  0.1171915E-06  0.3141968E+04  0.7818609E-02  0.8204314E-01
        1   -1    0    0  501    0  0.00000000000E+00  0.00000000000E+00  0.14334894092E+04  0.14334894092E+04  0.50400001928E-02 0.  1.
       -1   -1    0    0    0  501  0.00000000000E+00  0.00000000000E+00 -0.17216665346E+04  0.17216665346E+04  0.50400001928E-02 0. -1.
    10030    2    1    2    0    0  0.00000000000E+00  0.00000000000E+00 -0.28817712538E+03  0.31551559438E+04  0.31419680097E+04 0.  0.
        2    1    3    3  502    0  0.79450782925E+03  0.96279959178E+03  0.81373095474E+03  0.14900952357E+04  0.25500000920E-02 0.  1.
       -2    1    3    3    0  502 -0.79450782925E+03 -0.96279959178E+03 -0.11019080801E+04  0.16650607081E+04  0.25500000920E-02 0. -1.
</event>
<event>
 5   0  0.1235960E-06  0.2925959E+04  0.7818609E-02  0.8265195E-01
        1   -1    0    0  501    0  0.00000000000E+00  0.00000000000E+00  0.16662502923E+04  0.16662502923E+04  0.50400001928E-02 0.  1.
       -1   -1    0    0    0  501  0.00000000000E+00  0.00000000000E+00 -0.12845067201E+04  0.12845067201E+04  0.50400001928E-02 0. -1.
    10030    2    1    2    0    0  0.00000000000E+00  0.00000000000E+00  0.38174357216E+03  0.29507570124E+04  0.29259594651E+04 0.  0.
        4    1    3    3  502    0 -0.90274156467E+03  0.11248912484E+04 -0.56123142871E+02  0.14434244259E+04  0.12699999809E+01 0. -1.
       -4    1    3    3    0  502  0.90274156467E+03 -0.11248912484E+04  0.43786671503E+03  0.15073325865E+04  0.12699999809E+01 0.  1.
</event>
<event>
 5   0  0.3445959E-06  0.3240010E+04  0.7818609E-02  0.8178330E-01
       -2   -1    0    0    0  501  0.00000000000E+00  0.00000000000E+00  0.15534720822E+04  0.15534720822E+04  0.25500000920E-02 0. -1.
        2   -1    0    0  501    0  0.00000000000E+00  0.00000000000E+00 -0.16893870270E+04  0.16893870270E+04  0.25500000920E-02 0.  1.
    10030    2    1    2    0    0  0.00000000000E+00  0.00000000000E+00 -0.13591494480E+03  0.32428591092E+04  0.32400096188E+04 0.  0.
        4    1    3    3  502    0 -0.47270088432E+03  0.15455483649E+04 -0.17872591730E+03  0.16260720896E+04  0.12699999809E+01 0.  1.
       -4    1    3    3    0  502  0.47270088432E+03 -0.15455483649E+04  0.42810972505E+02  0.16167870195E+04  0.12699999809E+01 0. -1.
</event>
<event>
 5   0  0.3340899E-06  0.3060393E+04  0.7818609E-02  0.8226692E-01
       -2   -1    0    0    0  501  0.00000000000E+00  0.00000000000E+00  0.12297686243E+04  0.12297686243E+04  0.25500000920E-02 0.  1.
        2   -1    0    0  501    0  0.00000000000E+00  0.00000000000E+00 -0.19040184012E+04  0.19040184012E+04  0.25500000920E-02 0. -1.
    10030    2    1    2    0    0  0.00000000000E+00  0.00000000000E+00 -0.67424977693E+03  0.31337870255E+04  0.30603934975E+04 0.  0.
        3    1    3    3  502    0  0.23058421718E+03  0.11346452291E+04 -0.13615740623E+04  0.17873088190E+04  0.10100000352E+00 0. -1.
       -3    1    3    3    0  502 -0.23058421718E+03 -0.11346452291E+04  0.68732428537E+03  0.13464782065E+04  0.10100000352E+00 0.  1.
</event>
<event>
 5   0  0.1198763E-06  0.3095434E+04  0.7818609E-02  0.8216992E-01
        1   -1    0    0  501    0  0.00000000000E+00  0.00000000000E+00  0.20826220762E+04  0.20826220762E+04  0.50400001928E-02 0.  1.
       -1   -1    0    0    0  501  0.00000000000E+00  0.00000000000E+00 -0.11501981582E+04  0.11501981582E+04  0.50400001928E-02 0. -1.
    10030    2    1    2    0    0  0.00000000000E+00  0.00000000000E+00  0.93242391798E+03  0.32328202344E+04  0.30954341061E+04 0.  0.
        1    1    3    3  502    0 -0.45123134440E+03 -0.79017225444E+03 -0.84133202899E+03  0.12392826558E+04  0.50400001928E-02 0. -1.
       -1    1    3    3    0  502  0.45123134440E+03  0.79017225444E+03  0.17737559470E+04  0.19935375786E+04  0.50400001928E-02 0.  1.
</event>
<event>
 5   0  0.1211008E-06  0.3113032E+04  0.7818609E-02  0.8212171E-01
       -1   -1    0    0    0  501  0.00000000000E+00  0.00000000000E+00  0.17331923240E+04  0.17331923240E+04  0.50400001928E-02 0.  1.
        1   -1    0    0  501    0  0.00000000000E+00  0.00000000000E+00 -0.13978494210E+04  0.13978494210E+04  0.50400001928E-02 0. -1.
    10030    2    1    2    0    0  0.00000000000E+00  0.00000000000E+00  0.33534290295E+03  0.31310417450E+04  0.31130318897E+04 0.  0.
        3    1    3    3  502    0  0.98424490401E+03 -0.55283067916E+02  0.13791930382E+04  0.16952780584E+04  0.10100000352E+00 0.  1.
       -3    1    3    3    0  502 -0.98424490401E+03  0.55283067916E+02 -0.10438501352E+04  0.14357636866E+04  0.10100000352E+00 0. -1.
</event>
<event>
 5   0  0.1171915E-06  0.3078187E+04  0.7818609E-02  0.8221750E-01
        1   -1    0    0  501    0  0.00000000000E+00  0.00000000000E+00  0.18313966992E+04  0.18313966992E+04  0.50400001928E-02 0. -1.
       -1   -1    0    0    0  501  0.00000000000E+00  0.00000000000E+00 -0.12934439710E+04  0.12934439710E+04  0.50400001928E-02 0.  1.
    10030    2    1    2    0    0  0.00000000000E+00  0.00000000000E+00  0.53795272821E+03  0.31248406702E+04  0.30781871413E+04 0.  0.
        2    1    3    3  502    0 -0.18342159571E+02 -0.13612987694E+04  0.99772716613E+03  0.16878774459E+04  0.25500000920E-02 0. -1.
       -2    1    3    3    0  502  0.18342159571E+02  0.13612987694E+04 -0.45977443792E+03  0.14369632243E+04  0.25500000920E-02 0.  1.
</event>
<event>
 5   0  0.1171915E-06  0.2962263E+04  0.7818609E-02  0.8254590E-01
       -1   -1    0    0    0  501  0.00000000000E+00  0.00000000000E+00  0.15536565745E+04  0.15536565745E+04  0.50400001928E-02 0.  1.
        1   -1    0    0  501    0  0.00000000000E+00  0.00000000000E+00 -0.14119922636E+04  0.14119922637E+04  0.50400001928E-02 0. -1.
    10030    2    1    2    0    0  0.00000000000E+00  0.00000000000E+00  0.14166431080E+03  0.29656488381E+04  0.29622633668E+04 0.  0.
        2    1    3    3  502    0 -0.17497809188E+03 -0.79307017697E+03  0.13108652758E+04  0.15420588217E+04  0.25500000920E-02 0.  1.
       -2    1    3    3    0  502  0.17497809188E+03  0.79307017697E+03 -0.11692009650E+04  0.14235900164E+04  0.25500000920E-02 0. -1.
</event>
<event>
 5   0  0.3441897E-06  0.3127780E+04  0.7818609E-02  0.8208155E-01
        2   -1    0    0  501    0  0.00000000000E+00  0.00000000000E+00  0.26099102107E+04  0.26099102107E+04  0.25500000920E-02 0.  1.
       -2   -1    0    0    0  501  0.00000000000E+00  0.00000000000E+00 -0.93710220794E+03  0.93710220794E+03  0.25500000920E-02 0. -1.
    10030    2    1    2    0    0  0.00000000000E+00  0.00000000000E+00  0.16728080028E+04  0.35470124186E+04  0.31277804405E+04 0.  0.
        5    1    3    3  502    0  0.72979627647E+03 -0.74867160347E+03 -0.48250293457E+03  0.11514959604E+04  0.46999998093E+01 0. -1.
       -5    1    3    3    0  502 -0.72979627647E+03  0.74867160347E+03  0.21553109373E+04  0.23955164582E+04  0.46999998093E+01 0.  1.
</event>
<event>
 5   0  0.1250276E-06  0.3108537E+04  0.7818609E-02  0.8213399E-01
        1   -1    0    0  501    0  0.00000000000E+00  0.00000000000E+00  0.19348878747E+04  0.19348878747E+04  0.50400001928E-02 0.  1.
       -1   -1    0    0    0  501  0.00000000000E+00  0.00000000000E+00 -0.12485223238E+04  0.12485223238E+04  0.50400001928E-02 0. -1.
    10030    2    1    2    0    0  0.00000000000E+00  0.00000000000E+00  0.68636555093E+03  0.31834101985E+04  0.31085370871E+04 0.  0.
        5    1    3    3  502    0  0.11686050102E+04  0.84502649001E+03 -0.25045273824E+03  0.14637131218E+04  0.46999998093E+01 0. -1.
       -5    1    3    3    0  502 -0.11686050102E+04 -0.84502649001E+03  0.93681828916E+03  0.17196970767E+04  0.46999998093E+01 0.  1.
</event>
<event>
 5   0  0.1211008E-06  0.3072027E+04  0.7818609E-02  0.8223457E-01
       -1   -1    0    0    0  501  0.00000000000E+00  0.00000000000E+00  0.86170088874E+03  0.86170088875E+03  0.50400001928E-02 0. -1.
        1   -1    0    0  501    0  0.00000000000E+00  0.00000000000E+00 -0.27380000209E+04  0.27380000209E+04  0.50400001928E-02 0.  1.
    10030    2    1    2    0    0  0.00000000000E+00  0.00000000000E+00 -0.18762991321E+04  0.35997009096E+04  0.30720267260E+04 0.  0.
        3    1    3    3  502    0 -0.40956545420E+03 -0.13726391100E+04 -0.15878785581E+04  0.21385135756E+04  0.10100000352E+00 0. -1.
       -3    1    3    3    0  502  0.40956545420E+03  0.13726391100E+04 -0.28842057403E+03  0.14611873340E+04  0.10100000352E+00 0.  1.
</event>
<event>
 5   0  0.1250276E-06  0.3089402E+04  0.7818609E-02  0.8218653E-01
       -1   -1    0    0    0  501  0.00000000000E+00  0.00000000000E+00  0.10342360421E+04  0.10342360421E+04  0.50400001928E-02 0.  1.
        1   -1    0    0  501    0  0.00000000000E+00  0.00000000000E+00 -0.23071143765E+04  0.23071143765E+04  0.50400001928E-02 0. -1.
    10030    2    1    2    0    0  0.00000000000E+00  0.00000000000E+00 -0.12728783344E+04  0.33413504186E+04  0.30894017812E+04 0.  0.
        5    1    3    3  502    0  0.84316022429E+03  0.28396128592E+03  0.72928620001E+03  0.11504058533E+04  0.46999998093E+01 0.  1.
       -5    1    3    3    0  502 -0.84316022429E+03 -0.28396128592E+03 -0.20021645344E+04  0.21909445653E+04  0.46999998093E+01 0. -1.
</event>
<event>
 5   0  0.1198763E-06  0.2982489E+04  0.7818609E-02  0.8248749E-01
       -1   -1    0    0    0  501  0.00000000000E+00  0.00000000000E+00  0.18789487941E+04  0.18789487941E+04  0.50400001928E-02 0.  1.
        1   -1    0    0  501    0  0.00000000000E+00  0.00000000000E+00 -0.11835393474E+04  0.11835393474E+04  0.50400001928E-02 0. -1.
    10030    2    1    2    0    0  0.00000000000E+00  0.00000000000E+00  0.69540944675E+03  0.30624881415E+04  0.29824887792E+04 0.  0.
        1    1    3    3  502    0  0.10441561633E+04  0.10584269955E+04  0.22937464653E+03  0.15043744636E+04  0.50400001928E-02 0.  1.
       -1    1    3    3    0  502 -0.10441561633E+04 -0.10584269955E+04  0.46603480021E+03  0.15581136779E+04  0.50400001928E-02 0. -1.
</event>
<event>
 5   0  0.3374790E-06  0.3093461E+04  0.7818609E-02  0.8217535E-01
       -2   -1    0    0    0  501  0.00000000000E+00  0.00000000000E+00  0.22852867117E+04  0.22852867117E+04  0.25500000920E-02 0. -1.
        2   -1    0    0  501    0  0.00000000000E+00  0.00000000000E+00 -0.10468601858E+04  0.10468601858E+04  0.25500000920E-02 0.  1.
    10030    2    1    2    0    0  0.00000000000E+00  0.00000000000E+00  0.12384265259E+04  0.33321468975E+04  0.30934612793E+04 0.  0.
        2    1    3    3  502    0 -0.15056036255E+04  0.38847883194E+01  0.10008348948E+04  0.18079070372E+04  0.25500000920E-02 0. -1.
       -2    1    3    3    0  502  0.15056036255E+04 -0.38847883194E+01  0.23759163104E+03  0.15242398603E+04  0.25500000920E-02 0.  1.
</event>
<event>
 5   0  0.3445410E-06  0.2834719E+04  0.7818609E-02  0.8292570E-01
        2   -1    0    0  501    0  0.00000000000E+00  0.00000000000E+00  0.95421946426E+03  0.95421946427E+03  0.25500000920E-02 0.  1.
       -2   -1    0    0    0  501  0.00000000000E+00  0.00000000000E+00 -0.21052890021E+04  0.21052890021E+04  0.25500000920E-02 0. -1.
    10030    2    1    2    0    0  0.00000000000E+00  0.00000000000E+00 -0.11510695378E+04  0.30595084664E+04  0.28347188529E+04 0.  0.
        1    1    3    3  502    0  0.72665419981E+03 -0.73314166314E+03 -0.16238359762E+04  0.19241533987E+04  0.50400001928E-02 0. -1.
       -1    1    3    3    0  502 -0.72665419981E+03  0.73314166314E+03  0.47276643835E+03  0.11353550676E+04  0.50400001928E-02 0.  1.
</event>
<event>
 5   0  0.1109562E-06  0.3112918E+04  0.7818609E-02  0.8212202E-01
        3   -1    0    0  501    0  0.00000000000E+00  0.00000000000E+00  0.12813041972E+04  0.12813042011E+04  0.10100000352E+00 0. -1.
       -3   -1    0    0    0  501  0.00000000000E+00  0.00000000000E+00 -0.18907018257E+04  0.18907018284E+04  0.10100000352E+00 0.  1.
    10030    2    1    2    0    0  0.00000000000E+00  0.00000000000E+00 -0.60939762853E+03  0.31720060295E+04  0.31129177281E+04 0.  0.
        2    1    3    3  502    0  0.51759512393E+03 -0.55749271323E+03  0.10789647115E+04  0.13201771420E+04  0.25500000920E-02 0. -1.
       -2    1    3    3    0  502 -0.51759512393E+03  0.55749271323E+03 -0.16883623400E+04  0.18518288875E+04  0.25500000920E-02 0.  1.
</event>
<event>
 5   0  0.1171915E-06  0.3085042E+04  0.7818609E-02  0.8219855E-01
        1   -1    0    0  501    0  0.00000000000E+00  0.00000000000E+00  0.31998496672E+04  0.31998496672E+04  0.50400001928E-02 0.  1.
       -1   -1    0    0    0  501  0.00000000000E+00  0.00000000000E+00 -0.74358857004E+03  0.74358857006E+03  0.50400001928E-02 0. -1.
    10030    2    1    2    0    0  0.00000000000E+00  0.00000000000E+00  0.24562610971E+04  0.39434382372E+04  0.30850423909E+04 0.  0.
        2    1    3    3  502    0 -0.14419741118E+04 -0.50288459904E+03  0.95045602251E+03  0.17987631612E+04  0.25500000920E-02 0. -1.
       -2    1    3    3    0  502  0.14419741118E+04  0.50288459904E+03  0.15058050746E+04  0.21446750761E+04  0.25500000920E-02 0.  1.
</event>
<event>
 5   0  0.1211008E-06  0.3113682E+04  0.7818609E-02  0.8211993E-01
        1   -1    0    0  501    0  0.00000000000E+00  0.00000000000E+00  0.18368775865E+04  0.18368775865E+04  0.50400001928E-02 0.  1.
       -1   -1    0    0    0  501  0.00000000000E+00  0.00000000000E+00 -0.13194963310E+04  0.13194963310E+04  0.50400001928E-02 0. -1.
    10030    2    1    2    0    0  0.00000000000E+00  0.00000000000E+00  0.51738125550E+03  0.31563739176E+04  0.31136815740E+04 0.  0.
        3    1    3    3  502    0 -0.11358187759E+04  0.10138731418E+04  0.58831077426E+03  0.16322170863E+04  0.10100000352E+00 0.  1.
       -3    1    3    3    0  502  0.11358187759E+04 -0.10138731418E+04 -0.70929518762E+02  0.15241568313E+04  0.10100000352E+00 0. -1.
</event>
<event>
 5   0  0.3374790E-06  0.3086896E+04  0.7818609E-02  0.8219344E-01
       -2   -1    0    0    0  501  0.00000000000E+00  0.00000000000E+00  0.11307040112E+04  0.11307040112E+04  0.25500000920E-02 0.  1.
        2   -1    0    0  501    0  0.00000000000E+00  0.00000000000E+00 -0.21068564906E+04  0.21068564906E+04  0.25500000920E-02 0. -1.
    10030    2    1    2    0    0  0.00000000000E+00  0.00000000000E+00 -0.97615247944E+03  0.32375605018E+04  0.30868955829E+04 0.  0.
        2    1    3    3  502    0  0.46814682308E+03 -0.90028955846E+03 -0.17078305257E+04  0.19865467127E+04  0.25500000920E-02 0. -1.
       -2    1    3    3    0  502 -0.46814682308E+03  0.90028955846E+03  0.73167804629E+03  0.12510137891E+04  0.25500000920E-02 0.  1.
</event>
<event>
 5   0  0.3445410E-06  0.3149782E+04  0.7818609E-02  0.8202207E-01
        2   -1    0    0  501    0  0.00000000000E+00  0.00000000000E+00  0.21061931318E+04  0.21061931318E+04  0.25500000920E-02 0.  1.
       -2   -1    0    0    0  501  0.00000000000E+00  0.00000000000E+00 -0.11776136308E+04  0.11776136308E+04  0.25500000920E-02 0. -1.
    10030    2    1    2    0    0  0.00000000000E+00  0.00000000000E+00  0.92857950107E+03  0.32838067626E+04  0.31497820503E+04 0.  0.
        1    1    3    3  502    0 -0.72066538823E+03 -0.13358911220E+04  0.26520275604E+02  0.15181129789E+04  0.50400001928E-02 0. -1.
       -1    1    3    3    0  502  0.72066538823E+03  0.13358911220E+04  0.90205922546E+03  0.17656937837E+04  0.50400001928E-02 0.  1.
</event>
<event>
 5   0  0.1198763E-06  0.3116580E+04  0.7818609E-02  0.8211202E-01
        1   -1    0    0  501    0  0.00000000000E+00  0.00000000000E+00  0.86200312769E+03  0.86200312771E+03  0.50400001928E-02 0.  1.
       -1   -1    0    0    0  501  0.00000000000E+00  0.00000000000E+00 -0.28170050247E+04  0.28170050247E+04  0.50400001928E-02 0. -1.
    10030    2    1    2    0    0  0.00000000000E+00  0.00000000000E+00 -0.19550018970E+04  0.36790081524E+04  0.31165796265E+04 0.  0.
        1    1    3    3  502    0 -0.25944420781E+03 -0.15139147572E+04 -0.12876236511E+04  0.20043013386E+04  0.50400001928E-02 0. -1.
       -1    1    3    3    0  502  0.25944420781E+03  0.15139147572E+04 -0.66737824586E+03  0.16747068138E+04  0.50400001928E-02 0.  1.
</event>
<event>
 5   0  0.3374790E-06  0.2883080E+04  0.7818609E-02  0.8277930E-01
        2   -1    0    0  501    0  0.00000000000E+00  0.00000000000E+00  0.13672374358E+04  0.13672374358E+04  0.25500000920E-02 0.  1.
       -2   -1    0    0    0  501  0.00000000000E+00  0.00000000000E+00 -0.15198802107E+04  0.15198802107E+04  0.25500000920E-02 0. -1.
    10030    2    1    2    0    0  0.00000000000E+00  0.00000000000E+00 -0.15264277488E+03  0.28871176465E+04  0.28830796881E+04 0.  0.
        2    1    3    3  502    0 -0.57138869325E+03 -0.39358951741E+03 -0.13416730861E+04  0.15104583466E+04  0.25500000920E-02 0. -1.
       -2    1    3    3    0  502  0.57138869325E+03  0.39358951741E+03  0.11890303112E+04  0.13766592999E+04  0.25500000920E-02 0.  1.
</event>
<event>
 5   0  0.1235960E-06  0.2965889E+04  0.7818609E-02  0.8253539E-01
        1   -1    0    0  501    0  0.00000000000E+00  0.00000000000E+00  0.16999458245E+04  0.16999458245E+04  0.50400001928E-02 0. -1.
       -1   -1    0    0    0  501  0.00000000000E+00  0.00000000000E+00 -0.12936436780E+04  0.12936436780E+04  0.50400001928E-02 0.  1.
    10030    2    1    2    0    0  0.00000000000E+00  0.00000000000E+00  0.40630214654E+03  0.29935895025E+04  0.29658888507E+04 0.  0.
        4    1    3    3  502    0 -0.42589280365E+03 -0.94043373294E+03 -0.87136789677E+03  0.13509566650E+04  0.12699999809E+01 0.  1.
       -4    1    3    3    0  502  0.42589280365E+03  0.94043373294E+03  0.12776700433E+04  0.16426328375E+04  0.12699999809E+01 0. -1.
</event>
<event>
 5   0  0.1211008E-06  0.3194659E+04  0.7818609E-02  0.8190229E-01
        1   -1    0    0  501    0  0.00000000000E+00  0.00000000000E+00  0.19179922448E+04  0.19179922448E+04  0.50400001928E-02 0.  1.
       -1   -1    0    0    0  501  0.00000000000E+00  0.00000000000E+00 -0.13302775749E+04  0.13302775749E+04  0.50400001928E-02 0. -1.
    10030    2    1    2    0    0  0.00000000000E+00  0.00000000000E+00  0.58771466983E+03  0.32482698197E+04  0.31946593384E+04 0.  0.
        3    1    3    3  502    0  0.14218630320E+03  0.57288873811E+03  0.18030305550E+04  0.18971920418E+04  0.10100000352E+00 0.  1.
       -3    1    3    3    0  502 -0.14218630320E+03 -0.57288873811E+03 -0.12153158851E+04  0.13510777779E+04  0.10100000352E+00 0. -1.
</event>
<event>
 5   0  0.3441897E-06  0.3109188E+04  0.7818609E-02  0.8213221E-01
        2   -1    0    0  501    0  0.00000000000E+00  0.00000000000E+00  0.11827711159E+04  0.11827711159E+04  0.25500000920E-02 0.  1.
       -2   -1    0    0    0  501  0.00000000000E+00  0.00000000000E+00 -0.20433051209E+04  0.20433051209E+04  0.25500000920E-02 0. -1.
    10030    2    1    2    0    0  0.00000000000E+00  0.00000000000E+00 -0.86053400503E+03  0.32260762368E+04  0.31091878540E+04 0.  0.
        5    1    3    3  502    0  0.75192139668E+03  0.51070269706E+02  0.98053580169E+03  0.12367160174E+04  0.46999998093E+01 0.  1.
       -5    1    3    3    0  502 -0.75192139668E+03 -0.51070269706E+02 -0.18410698067E+04  0.19893602194E+04  0.46999998093E+01 0. -1.
</event>
<event>
 5   0  0.3374790E-06  0.3074465E+04  0.7818609E-02  0.8222781E-01
        2   -1    0    0  501    0  0.00000000000E+00  0.00000000000E+00  0.21846219129E+04  0.21846219129E+04  0.25500000920E-02 0. -1.
       -2   -1    0    0    0  501  0.00000000000E+00  0.00000000000E+00 -0.10816897010E+04  0.10816897010E+04  0.25500000920E-02 0.  1.
    10030    2    1    2    0    0  0.00000000000E+00  0.00000000000E+00  0.11029322119E+04  0.32663116139E+04  0.30744645217E+04 0.  0.
        2    1    3    3  502    0  0.98614976870E+03 -0.11686407308E+04  0.71901068659E+03  0.16897304198E+04  0.25500000920E-02 0. -1.
       -2    1    3    3    0  502 -0.98614976870E+03  0.11686407308E+04  0.38392152531E+03  0.15765811941E+04  0.25500000920E-02 0.  1.
</event>
<event>
 5   0  0.1109562E-06  0.3110408E+04  0.7818609E-02  0.8212887E-01
        3   -1    0    0  501    0  0.00000000000E+00  0.00000000000E+00  0.87123605865E+03  0.87123606450E+03  0.10100000352E+00 0. -1.
       -3   -1    0    0    0  501  0.00000000000E+00  0.00000000000E+00 -0.27761245582E+04  0.27761245600E+04  0.10100000352E+00 0.  1.
    10030    2    1    2    0    0  0.00000000000E+00  0.00000000000E+00 -0.19048884995E+04  0.36473606245E+04  0.31104082256E+04 0.  0.
        5    1    3    3  502    0  0.43464651568E+03 -0.46926931385E+03 -0.26147312820E+04  0.26918345138E+04  0.46999998093E+01 0.  1.
       -5    1    3    3    0  502 -0.43464651568E+03  0.46926931385E+03  0.70984278246E+03  0.95552611075E+03  0.46999998093E+01 0. -1.
</event>
<event>
 5   0  0.1250276E-06  0.3053676E+04  0.7818609E-02  0.8228567E-01
        1   -1    0    0  501    0  0.00000000000E+00  0.00000000000E+00  0.23595096742E+04  0.23595096742E+04  0.50400001928E-02 0.  1.
       -1   -1    0    0    0  501  0.00000000000E+00  0.00000000000E+00 -0.98801656205E+03  0.98801656206E+03  0.50400001928E-02 0. -1.
    10030    2    1    2    0    0  0.00000000000E+00  0.00000000000E+00  0.13714931121E+04  0.33475262362E+04  0.30536762346E+04 0.  0.
        5    1    3    3  502    0  0.11980672940E+04  0.52386469808E+03 -0.17840754775E+03  0.13197161839E+04  0.46999998093E+01 0. -1.
       -5    1    3    3    0  502 -0.11980672940E+04 -0.52386469808E+03  0.15499006599E+04  0.20278100524E+04  0.46999998093E+01 0.  1.
</event>
<event>
 5   0  0.1171915E-06  0.3105544E+04  0.7818609E-02  0.8214218E-01
       -1   -1    0    0    0  501  0.00000000000E+00  0.00000000000E+00  0.10797385206E+04  0.10797385206E+04  0.50400001928E-02 0. -1.
        1   -1    0    0  501    0  0.00000000000E+00  0.00000000000E+00 -0.22330415422E+04  0.22330415422E+04  0.50400001928E-02 0.  1.
    10030    2    1    2    0    0  0.00000000000E+00  0.00000000000E+00 -0.11533030216E+04  0.33127800628E+04  0.31055440562E+04 0.  0.
        2    1    3    3  502    0 -0.59240826706E+03 -0.69660231531E+03  0.76204216541E+03  0.11903405405E+04  0.25500000920E-02 0. -1.
       -2    1    3    3    0  502  0.59240826706E+03  0.69660231531E+03 -0.19153451870E+04  0.21224395223E+04  0.25500000920E-02 0.  1.
</event>
<event>
 5   0  0.1198763E-06  0.3081135E+04  0.7818609E-02  0.8220934E-01
       -1   -1    0    0    0  501  0.00000000000E+00  0.00000000000E+00  0.31155809785E+04  0.31155809785E+04  0.50400001928E-02 0.  1.
        1   -1    0    0  501    0  0.00000000000E+00  0.00000000000E+00 -0.76176736384E+03  0.76176736385E+03  0.50400001928E-02 0. -1.
    10030    2    1    2    0    0  0.00000000000E+00  0.00000000000E+00  0.23538136146E+04  0.38773483423E+04  0.30811347967E+04 0.  0.
        1    1    3    3  502    0  0.10185835803E+04 -0.83345793791E+03  0.21845695712E+04  0.25503938629E+04  0.50400001928E-02 0.  1.
       -1    1    3    3    0  502 -0.10185835803E+04  0.83345793791E+03  0.16924404339E+03  0.13269544794E+04  0.50400001928E-02 0. -1.
</event>
<event>
 5   0  0.3374790E-06  0.3102503E+04  0.7818609E-02  0.8215051E-01
       -2   -1    0    0    0  501  0.00000000000E+00  0.00000000000E+00  0.16022960124E+04  0.16022960124E+04  0.25500000920E-02 0.  1.
        2   -1    0    0  501    0  0.00000000000E+00  0.00000000000E+00 -0.15018334855E+04  0.15018334855E+04  0.25500000920E-02 0. -1.
    10030    2    1    2    0    0  0.00000000000E+00  0.00000000000E+00  0.10046252683E+03  0.31041294979E+04  0.31025033796E+04 0.  0.
        2    1    3    3  502    0  0.11632727104E+04 -0.10023105332E+04 -0.17022941344E+03  0.15449297255E+04  0.25500000920E-02 0.  1.
       -2    1    3    3    0  502 -0.11632727104E+04  0.10023105332E+04  0.27069194027E+03  0.15591997724E+04  0.25500000920E-02 0. -1.
</event>
<event>
 5   0  0.1198763E-06  0.3114007E+04  0.7818609E-02  0.8211904E-01
        1   -1    0    0  501    0  0.00000000000E+00  0.00000000000E+00  0.16792351930E+04  0.16792351931E+04  0.50400001928E-02 0. -1.
       -1   -1    0    0    0  501  0.00000000000E+00  0.00000000000E+00 -0.14436686872E+04  0.14436686872E+04  0.50400001928E-02 0.  1.
    10030    2    1    2    0    0  0.00000000000E+00  0.00000000000E+00  0.23556650584E+03  0.31229038803E+04  0.31140065939E+04 0.  0.
        1    1    3    3  502    0 -0.10709408249E+04  0.86602795900E+03  0.84604029019E+03  0.16163857364E+04  0.50400001928E-02 0.  1.
       -1    1    3    3    0  502  0.10709408249E+04 -0.86602795900E+03 -0.61047378435E+03  0.15065181438E+04  0.50400001928E-02 0. -1.
</event>
<event>
 5   0  0.3441897E-06  0.3079709E+04  0.7818609E-02  0.8221329E-01
       -2   -1    0    0    0  501  0.00000000000E+00  0.00000000000E+00  0.15387404413E+04  0.15387404413E+04  0.25500000920E-02 0. -1.
        2   -1    0    0  501    0  0.00000000000E+00  0.00000000000E+00 -0.15409692282E+04  0.15409692282E+04  0.25500000920E-02 0.  1.
    10030    2    1    2    0    0  0.00000000000E+00  0.00000000000E+00 -0.22287869496E+01  0.30797096695E+04  0.30797088631E+04 0.  0.
        5    1    3    3  502    0 -0.14319181121E+04  0.10335257312E+03 -0.55794336954E+03  0.15402578121E+04  0.46999998093E+01 0.  1.
       -5    1    3    3    0  502  0.14319181121E+04 -0.10335257312E+03  0.55571458259E+03  0.15394518575E+04  0.46999998093E+01 0. -1.
</event>
<event>
 5   0  0.1211008E-06  0.3063526E+04  0.7818609E-02  0.8225820E-01
        1   -1    0    0  501    0  0.00000000000E+00  0.00000000000E+00  0.13387793405E+04  0.13387793405E+04  0.50400001928E-02 0.  1.
       -1   -1    0    0    0  501  0.00000000000E+00  0.00000000000E+00 -0.17525648834E+04  0.17525648834E+04  0.50400001928E-02 0. -1.
    10030    2    1    2    0    0  0.00000000000E+00  0.00000000000E+00 -0.41378554295E+03  0.30913442239E+04  0.30635258502E+04 0.  0.
        3    1    3    3  502    0  0.69726040400E+03  0.60272791695E+03 -0.14414583959E+04  0.17109223624E+04  0.10100000352E+00 0. -1.
       -3    1    3    3    0  502 -0.69726040400E+03 -0.60272791695E+03  0.10276728529E+04  0.13804218615E+04  0.10100000352E+00 0.  1.
</event>
<event>
 5   0  0.1109562E-06  0.3098133E+04  0.7818609E-02  0.8216251E-01
       -3   -1    0    0    0  501  0.00000000000E+00  0.00000000000E+00  0.12203838160E+04  0.12203838202E+04  0.10100000352E+00 0.  1.
        3   -1    0    0  501    0  0.00000000000E+00  0.00000000000E+00 -0.19662721345E+04  0.19662721371E+04  0.10100000352E+00 0. -1.
    10030    2    1    2    0    0  0.00000000000E+00  0.00000000000E+00 -0.74588831846E+03  0.31866559573E+04  0.30981327936E+04 0.  0.
        3    1    3    3  502    0  0.13523232791E+04  0.46891545505E+02 -0.11485657496E+04  0.17748747448E+04  0.10100000352E+00 0. -1.
       -3    1    3    3    0  502 -0.13523232791E+04 -0.46891545505E+02  0.40267743117E+03  0.14117812125E+04  0.10100000352E+00 0.  1.
</event>
<event>
 5   0  0.1250276E-06  0.3090475E+04  0.7818609E-02  0.8218357E-01
       -1   -1    0    0    0  501  0.00000000000E+00  0.00000000000E+00  0.14842070350E+04  0.14842070350E+04  0.50400001928E-02 0.  1.
        1   -1    0    0  501    0  0.00000000000E+00  0.00000000000E+00 -0.16087780028E+04  0.16087780028E+04  0.50400001928E-02 0. -1.
    10030    2    1    2    0    0  0.00000000000E+00  0.00000000000E+00 -0.12457096782E+03  0.30929850378E+04  0.30904754518E+04 0.  0.
        5    1    3    3  502    0  0.22761463492E+03 -0.15260138495E+04  0.22700187210E+02  0.15430696937E+04  0.46999998093E+01 0. -1.
       -5    1    3    3    0  502 -0.22761463492E+03  0.15260138495E+04 -0.14727115503E+03  0.15499153442E+04  0.46999998093E+01 0.  1.
</event>
<event>
 5   0  0.3374790E-06  0.3044036E+04  0.7818609E-02  0.8231267E-01
       -2   -1    0    0    0  501  0.00000000000E+00  0.00000000000E+00  0.89579269763E+03  0.89579269763E+03  0.25500000920E-02 0.  1.
        2   -1    0    0  501    0  0.00000000000E+00  0.00000000000E+00 -0.25860213814E+04  0.25860213814E+04  0.25500000920E-02 0. -1.
    10030    2    1    2    0    0  0.00000000000E+00  0.00000000000E+00 -0.16902286837E+04  0.34818140790E+04  0.30440361820E+04 0.  0.
        2    1    3    3  502    0  0.76449619441E+03 -0.91997664821E+03 -0.19215940729E+04  0.22634785719E+04  0.25500000920E-02 0. -1.
       -2    1    3    3    0  502 -0.76449619441E+03  0.91997664821E+03  0.23136538916E+03  0.12183355071E+04  0.25500000920E-02 0.  1.
</event>
<event>
 5   0  0.1109562E-06  0.3078773E+04  0.7818609E-02  0.8221588E-01
       -3   -1    0    0    0  501  0.00000000000E+00  0.00000000000E+00  0.14186793369E+04  0.14186793405E+04  0.10100000352E+00 0. -1.
        3   -1    0    0  501    0  0.00000000000E+00  0.00000000000E+00 -0.16703637266E+04  0.16703637296E+04  0.10100000352E+00 0.  1.
    10030    2    1    2    0    0  0.00000000000E+00  0.00000000000E+00 -0.25168438963E+03  0.30890430702E+04  0.30787728168E+04 0.  0.
        5    1    3    3  502    0  0.14963220184E+04  0.31743305588E+03 -0.29946596407E+03  0.15586677905E+04  0.46999998093E+01 0. -1.
       -5    1    3    3    0  502 -0.14963220184E+04 -0.31743305588E+03  0.47781574446E+02  0.15303752796E+04  0.46999998093E+01 0.  1.
</event>
<event>
 5   0  0.1198763E-06  0.3108800E+04  0.7818609E-02  0.8213327E-01
       -1   -1    0    0    0  501  0.00000000000E+00  0.00000000000E+00  0.88570901458E+03  0.88570901459E+03  0.50400001928E-02 0. -1.
        1   -1    0    0  501    0  0.00000000000E+00  0.00000000000E+00 -0.27279389219E+04  0.27279389219E+04  0.50400001928E-02 0.  1.
    10030    2    1    2    0    0  0.00000000000E+00  0.00000000000E+00 -0.18422299073E+04  0.36136479365E+04  0.31088004725E+04 0.  0.
        1    1    3    3  502    0 -0.13056075728E+04 -0.92663429556E+02  0.53468542476E+02  0.13099834084E+04  0.50400001928E-02 0. -1.
       -1    1    3    3    0  502  0.13056075728E+04  0.92663429556E+02 -0.18956984498E+04  0.23036645281E+04  0.50400001928E-02 0.  1.
</event>
<event>
 5   0  0.3374790E-06  0.3189985E+04  0.7818609E-02  0.8191467E-01
       -2   -1    0    0    0  501  0.00000000000E+00  0.00000000000E+00  0.10268970282E+04  0.10268970282E+04  0.25500000920E-02 0. -1.
        2   -1    0    0  501    0  0.00000000000E+00  0.00000000000E+00 -0.24773676613E+04  0.24773676613E+04  0.25500000920E-02 0.  1.
    10030    2    1    2    0    0  0.00000000000E+00  0.00000000000E+00 -0.14504706331E+04  0.35042646894E+04  0.31899852596E+04 0.  0.
        2    1    3    3  502    0  0.46995970449E+03 -0.12253615925E+03 -0.23941641531E+04  0.24429284120E+04  0.25500000920E-02 0.  1.
       -2    1    3    3    0  502 -0.46995970449E+03  0.12253615925E+03  0.94369352000E+03  0.10613362775E+04  0.25500000920E-02 0. -1.
</event>
<event>
 5   0  0.1171915E-06  0.2975914E+04  0.7818609E-02  0.8250642E-01
        1   -1    0    0  501    0  0.00000000000E+00  0.00000000000E+00  0.15690800096E+04  0.15690800096E+04  0.50400001928E-02 0.  1.
       -1   -1    0    0    0  501  0.00000000000E+00  0.00000000000E+00 -0.14110281466E+04  0.14110281466E+04  0.50400001928E-02 0. -1.
    10030    2    1    2    0    0  0.00000000000E+00  0.00000000000E+00  0.15805186301E+03  0.29801081562E+04  0.29759140161E+04 0.  0.
        2    1    3    3  502    0  0.17262423868E+03 -0.13801602660E+03 -0.13944990325E+04  0.14119047783E+04  0.25500000920E-02 0. -1.
       -2    1    3    3    0  502 -0.17262423868E+03  0.13801602660E+03  0.15525508955E+04  0.15682033779E+04  0.25500000920E-02 0.  1.
</event>
<event>
 5   0  0.1171915E-06  0.3095355E+04  0.7818609E-02  0.8217014E-01
       -1   -1    0    0    0  501  0.00000000000E+00  0.00000000000E+00  0.89945879874E+03  0.89945879875E+03  0.50400001928E-02 0.  1.
        1   -1    0    0  501    0  0.00000000000E+00  0.00000000000E+00 -0.26630515931E+04  0.26630515931E+04  0.50400001928E-02 0. -1.
    10030    2    1    2    0    0  0.00000000000E+00  0.00000000000E+00 -0.17635927944E+04  0.35625103919E+04  0.30953547047E+04 0.  0.
        2    1    3    3  502    0  0.94794124249E+03  0.12123149823E+04 -0.69266328154E+03  0.16876263322E+04  0.25500000920E-02 0.  1.
       -2    1    3    3    0  502 -0.94794124249E+03 -0.12123149823E+04 -0.10709295128E+04  0.18748840596E+04  0.25500000920E-02 0. -1.
</event>
<event>
 5   0  0.1235960E-06  0.2952237E+04  0.7818609E-02  0.8257503E-01
        1   -1    0    0  501    0  0.00000000000E+00  0.00000000000E+00  0.17551599729E+04  0.17551599729E+04  0.50400001928E-02 0.  1.
       -1   -1    0    0    0  501  0.00000000000E+00  0.00000000000E+00 -0.12414399301E+04  0.12414399301E+04  0.50400001928E-02 0. -1.
    10030    2    1    2    0    0  0.00000000000E+00  0.00000000000E+00  0.51372004279E+03  0.29965999030E+04  0.29522368971E+04 0.  0.
        4    1    3    3  502    0 -0.45082239783E+03  0.99530764559E+03  0.12642689486E+04  0.16710044079E+04  0.12699999809E+01 0.  1.
       -4    1    3    3    0  502  0.45082239783E+03 -0.99530764559E+03 -0.75054890584E+03  0.13255954951E+04  0.12699999809E+01 0. -1.
</event>
<event>
 5   0  0.1235960E-06  0.3102279E+04  0.7818609E-02  0.8215113E-01
       -1   -1    0    0    0  501  0.00000000000E+00  0.00000000000E+00  0.12857262901E+04  0.12857262901E+04  0.50400001928E-02 0. -1.
        1   -1    0    0  501    0  0.00000000000E+00  0.00000000000E+00 -0.18713425322E+04  0.18713425322E+04  0.50400001928E-02 0.  1.
    10030    2    1    2    0    0  0.00000000000E+00  0.00000000000E+00 -0.58561624205E+03  0.31570688223E+04  0.31022793500E+04 0.  0.
        4    1    3    3  502    0  0.38521808011E+03 -0.12406018675E+04  0.56983398334E+03  0.14185197723E+04  0.12699999809E+01 0. -1.
       -4    1    3    3    0  502 -0.38521808011E+03  0.12406018675E+04 -0.11554502254E+04  0.17385490500E+04  0.12699999809E+01 0.  1.
</event>
<event>
 5   0  0.1250276E-06  0.3114654E+04  0.7818609E-02  0.8211728E-01
       -1   -1    0    0    0  501  0.00000000000E+00  0.00000000000E+00  0.12068770226E+04  0.12068770226E+04  0.50400001928E-02 0.  1.
        1   -1    0    0  501    0  0.00000000000E+00  0.00000000000E+00 -0.20095394568E+04  0.20095394568E+04  0.50400001928E-02 0. -1.
    10030    2    1    2    0    0  0.00000000000E+00  0.00000000000E+00 -0.80266243426E+03  0.32164164794E+04  0.31146537505E+04 0.  0.
        5    1    3    3  502    0 -0.93987978058E+03  0.24458698841E+03 -0.16585001939E+04  0.19219369865E+04  0.46999998093E+01 0. -1.
       -5    1    3    3    0  502  0.93987978058E+03 -0.24458698841E+03  0.85583775961E+03  0.12944794929E+04  0.46999998093E+01 0.  1.
</event>
<event>
 5   0  0.1211008E-06  0.3103281E+04  0.7818609E-02  0.8214838E-01
        1   -1    0    0  501    0  0.00000000000E+00  0.00000000000E+00  0.10267570819E+04  0.10267570819E+04  0.50400001928E-02 0. -1.
       -1   -1    0    0    0  501  0.00000000000E+00  0.00000000000E+00 -0.23448469574E+04  0.23448469574E+04  0.50400001928E-02 0.  1.
    10030    2    1    2    0    0  0.00000000000E+00  0.00000000000E+00 -0.13180898756E+04  0.33716040393E+04  0.31032809860E+04 0.  0.
        3    1    3    3  502    0 -0.70813526007E+03  0.11863936656E+04 -0.14262170237E+04  0.19857191355E+04  0.10100000352E+00 0. -1.
       -3    1    3    3    0  502  0.70813526007E+03 -0.11863936656E+04  0.10812714808E+03  0.13858849038E+04  0.10100000352E+00 0.  1.
</event>
<event>
 5   0  0.3441897E-06  0.3091760E+04  0.7818609E-02  0.8218003E-01
       -2   -1    0    0    0  501  0.00000000000E+00  0.00000000000E+00  0.13228057337E+04  0.13228057337E+04  0.25500000920E-02 0. -1.
        2   -1    0    0  501    0  0.00000000000E+00  0.00000000000E+00 -0.18065728095E+04  0.18065728095E+04  0.25500000920E-02 0.  1.
    10030    2    1    2    0    0  0.00000000000E+00  0.00000000000E+00 -0.48376707585E+03  0.31293785432E+04  0.30917599330E+04 0.  0.
        5    1    3    3  502    0  0.13398112393E+04  0.69770168262E+03  0.90503638922E+02  0.15133059153E+04  0.46999998093E+01 0.  1.
       -5    1    3    3    0  502 -0.13398112393E+04 -0.69770168262E+03 -0.57427071477E+03  0.16160726279E+04  0.46999998093E+01 0. -1.
</event>
<event>
 5   0  0.1250276E-06  0.3116282E+04  0.7818609E-02  0.8211284E-01
        1   -1    0    0  501    0  0.00000000000E+00  0.00000000000E+00  0.22688230576E+04  0.22688230576E+04  0.50400001928E-02 0.  1.
       -1   -1    0    0    0  501  0.00000000000E+00  0.00000000000E+00 -0.10700715912E+04  0.10700715912E+04  0.50400001928E-02 0. -1.
    10030    2    1    2    0    0  0.00000000000E+00  0.00000000000E+00  0.11987514664E+04  0.33388946489E+04  0.31162818226E+04 0.  0.
        5    1    3    3  502    0 -0.45783070487E+03 -0.14172132585E+04  0.10875818234E+03  0.14933026507E+04  0.46999998093E+01 0.  1.
       -5    1    3    3    0  502  0.45783070487E+03  0.14172132585E+04  0.10899932840E+04  0.18455919982E+04  0.46999998093E+01 0. -1.
</event>
<event>
 5   0  0.3445410E-06  0.3108113E+04  0.7818609E-02  0.8213515E-01
       -2   -1    0    0    0  501  0.00000000000E+00  0.00000000000E+00  0.14718818342E+04  0.14718818342E+04  0.25500000920E-02 0. -1.
        2   -1    0    0  501    0  0.00000000000E+00  0.00000000000E+00 -0.16408193974E+04  0.16408193974E+04  0.25500000920E-02 0.  1.
    10030    2    1    2    0    0  0.00000000000E+00  0.00000000000E+00 -0.16893756318E+03  0.31127012316E+04  0.31081134241E+04 0.  0.
        1    1    3    3  502    0  0.37033207180E+03  0.12076449797E+04  0.82215198482E+03  0.15071450251E+04  0.50400001928E-02 0. -1.
       -1    1    3    3    0  502 -0.37033207180E+03 -0.12076449797E+04 -0.99108954800E+03  0.16055562066E+04  0.50400001928E-02 0.  1.
</event>
<event>
 5   0  0.1211008E-06  0.3085518E+04  0.7818609E-02  0.8219724E-01
        1   -1    0    0  501    0  0.00000000000E+00  0.00000000000E+00  0.15739646871E+04  0.15739646871E+04  0.50400001928E-02 0.  1.
       -1   -1    0    0    0  501  0.00000000000E+00  0.00000000000E+00 -0.15121718646E+04  0.15121718646E+04  0.50400001928E-02 0. -1.
    10030    2    1    2    0    0  0.00000000000E+00  0.00000000000E+00  0.61792822444E+02  0.30861365517E+04  0.30855178597E+04 0.  0.
        3    1    3    3  502    0 -0.55928396845E+03  0.48785907181E+03  0.13836838118E+04  0.15701547480E+04  0.10100000352E+00 0.  1.
       -3    1    3    3    0  502  0.55928396845E+03 -0.48785907181E+03 -0.13218909894E+04  0.15159818037E+04  0.10100000352E+00 0. -1.
</event>
<event>
 5   0  0.1235960E-06  0.3093878E+04  0.7818609E-02  0.8217420E-01
        1   -1    0    0  501    0  0.00000000000E+00  0.00000000000E+00  0.12608475490E+04  0.12608475491E+04  0.50400001928E-02 0. -1.
       -1   -1    0    0    0  501  0.00000000000E+00  0.00000000000E+00 -0.18979458459E+04  0.18979458459E+04  0.50400001928E-02 0.  1.
    10030    2    1    2    0    0  0.00000000000E+00  0.00000000000E+00 -0.63709829683E+03  0.31587933949E+04  0.30938780635E+04 0.  0.
        4    1    3    3  502    0 -0.89071072051E+03  0.48136659227E+03  0.87558042125E+03  0.13385522294E+04  0.12699999809E+01 0. -1.
       -4    1    3    3    0  502  0.89071072051E+03 -0.48136659227E+03 -0.15126787181E+04  0.18202411656E+04  0.12699999809E+01 0.  1.
</event>
<event>
 5   0  0.3445410E-06  0.3118065E+04  0.7818609E-02  0.8210797E-01
        2   -1    0    0  501    0  0.00000000000E+00  0.00000000000E+00  0.15533131241E+04  0.15533131241E+04  0.25500000920E-02 0. -1.
       -2   -1    0    0    0  501  0.00000000000E+00  0.00000000000E+00 -0.15647734254E+04  0.15647734254E+04  0.25500000920E-02 0.  1.
    10030    2    1    2    0    0  0.00000000000E+00  0.00000000000E+00 -0.11460301313E+02  0.31180865495E+04  0.31180654887E+04 0.  0.
        1    1    3    3  502    0 -0.68522747637E+03 -0.95155243997E+03 -0.10331583075E+04  0.15628195125E+04  0.50400001928E-02 0.  1.
       -1    1    3    3    0  502  0.68522747637E+03  0.95155243997E+03  0.10216980062E+04  0.15552670370E+04  0.50400001928E-02 0. -1.
</event>
<event>
 5   0  0.3340899E-06  0.3318794E+04  0.7818609E-02  0.8158130E-01
       -2   -1    0    0    0  501  0.00000000000E+00  0.00000000000E+00  0.13533486554E+04  0.13533486554E+04  0.25500000920E-02 0.  1.
        2   -1    0    0  501    0  0.00000000000E+00  0.00000000000E+00 -0.20346552461E+04  0.20346552461E+04  0.25500000920E-02 0. -1.
    10030    2    1    2    0    0  0.00000000000E+00  0.00000000000E+00 -0.68130659067E+03  0.33880039015E+04  0.33187937215E+04 0.  0.
        3    1    3    3  502    0  0.99629740901E+03 -0.31837433742E+03 -0.16557839835E+04  0.19584665829E+04  0.10100000352E+00 0. -1.
       -3    1    3    3    0  502 -0.99629740901E+03  0.31837433742E+03  0.97447739286E+03  0.14295373186E+04  0.10100000352E+00 0.  1.
</event>
<event>
 5   0  0.3445410E-06  0.3088027E+04  0.7818609E-02  0.8219032E-01
        2   -1    0    0  501    0  0.00000000000E+00  0.00000000000E+00  0.17413597826E+04  0.17413597826E+04  0.25500000920E-02 0.  1.
       -2   -1    0    0    0  501  0.00000000000E+00  0.00000000000E+00 -0.13690320228E+04  0.13690320228E+04  0.25500000920E-02 0. -1.
    10030    2    1    2    0    0  0.00000000000E+00  0.00000000000E+00  0.37232775984E+03  0.31103918054E+04  0.30880267522E+04 0.  0.
        1    1    3    3  502    0 -0.12977914033E+04 -0.51569548273E+03 -0.47722055456E+03  0.14757858297E+04  0.50400001928E-02 0. -1.
       -1    1    3    3    0  502  0.12977914033E+04  0.51569548273E+03  0.84954831440E+03  0.16346059757E+04  0.50400001928E-02 0.  1.
</event>
<event>
 5   0  0.3340899E-06  0.3089038E+04  0.7818609E-02  0.8218753E-01
        2   -1    0    0  501    0  0.00000000000E+00  0.00000000000E+00  0.20130223089E+04  0.20130223089E+04  0.25500000920E-02 0. -1.
       -2   -1    0    0    0  501  0.00000000000E+00  0.00000000000E+00 -0.11850534709E+04  0.11850534709E+04  0.25500000920E-02 0.  1.
    10030    2    1    2    0    0  0.00000000000E+00  0.00000000000E+00  0.82796883794E+03  0.31980757798E+04  0.30890380860E+04 0.  0.
        3    1    3    3  502    0  0.14728019256E+04  0.42544009582E+03  0.21920995858E+03  0.15486115727E+04  0.10100000352E+00 0.  1.
       -3    1    3    3    0  502 -0.14728019256E+04 -0.42544009582E+03  0.60875887936E+03  0.16494642071E+04  0.10100000352E+00 0. -1.
</event>
<event>
 5   0  0.3374790E-06  0.3136371E+04  0.7818609E-02  0.8205827E-01
       -2   -1    0    0    0  501  0.00000000000E+00  0.00000000000E+00  0.13644890901E+04  0.13644890901E+04  0.25500000920E-02 0. -1.
        2   -1    0    0  501    0  0.00000000000E+00  0.00000000000E+00 -0.18022903338E+04  0.18022903338E+04  0.25500000920E-02 0.  1.
    10030    2    1    2    0    0  0.00000000000E+00  0.00000000000E+00 -0.43780124374E+03  0.31667794240E+04  0.31363708312E+04 0.  0.
        2    1    3    3  502    0  0.84033374270E+03  0.56616064405E+03  0.98957740420E+03  0.14163199190E+04  0.25500000920E-02 0. -1.
       -2    1    3    3    0  502 -0.84033374270E+03 -0.56616064405E+03 -0.14273786479E+04  0.17504595050E+04  0.25500000920E-02 0.  1.
</event>
<event>
 5   0  0.3445410E-06  0.3091944E+04  0.7818609E-02  0.8217952E-01
        2   -1    0    0  501    0  0.00000000000E+00  0.00000000000E+00  0.18899099372E+04  0.18899099372E+04  0.25500000920E-02 0.  1.
       -2   -1    0    0    0  501  0.00000000000E+00  0.00000000000E+00 -0.12646262138E+04  0.12646262138E+04  0.25500000920E-02 0. -1.
    10030    2    1    2    0    0  0.00000000000E+00  0.00000000000E+00  0.62528372343E+03  0.31545361510E+04  0.30919441446E+04 0.  0.
        1    1    3    3  502    0  0.64570278127E+03  0.15306160211E+03 -0.11119300971E+04  0.12948932298E+04  0.50400001928E-02 0. -1.
       -1    1    3    3    0  502 -0.64570278127E+03 -0.15306160211E+03  0.17372138206E+04  0.18596429211E+04  0.50400001928E-02 0.  1.
</event>
<event>
 5   0  0.1250276E-06  0.3079601E+04  0.7818609E-02  0.8221359E-01
       -1   -1    0    0    0  501  0.00000000000E+00  0.00000000000E+00  0.96069783242E+03  0.96069783244E+03  0.50400001928E-02 0. -1.
        1   -1    0    0  501    0  0.00000000000E+00  0.00000000000E+00 -0.24679827513E+04  0.24679827514E+04  0.50400001928E-02 0.  1.
    10030    2    1    2    0    0  0.00000000000E+00  0.00000000000E+00 -0.15072849189E+04  0.34286805838E+04  0.30796010649E+04 0.  0.
        5    1    3    3  502    0 -0.48226966629E+03  0.11424219927E+04  0.26265451316E+03  0.12675651950E+04  0.46999998093E+01 0. -1.
       -5    1    3    3    0  502  0.48226966629E+03 -0.11424219927E+04 -0.17699394321E+04  0.21611153888E+04  0.46999998093E+01 0.  1.
</event>
<event>
 5   0  0.1250276E-06  0.3065477E+04  0.7818609E-02  0.8225277E-01
       -1   -1    0    0    0  501  0.00000000000E+00  0.00000000000E+00  0.10940783375E+04  0.10940783376E+04  0.50400001928E-02 0. -1.
        1   -1    0    0  501    0  0.00000000000E+00  0.00000000000E+00 -0.21472756272E+04  0.21472756272E+04  0.50400001928E-02 0.  1.
    10030    2    1    2    0    0  0.00000000000E+00  0.00000000000E+00 -0.10531972897E+04  0.32413539648E+04  0.30654772865E+04 0.  0.
        5    1    3    3  502    0  0.82489355803E+02 -0.14905411478E+04 -0.15917357734E+03  0.15012913524E+04  0.46999998093E+01 0. -1.
       -5    1    3    3    0  502 -0.82489355803E+02  0.14905411478E+04 -0.89402371233E+03  0.17400626124E+04  0.46999998093E+01 0.  1.
</event>
<event>
 5   0  0.3374790E-06  0.3067231E+04  0.7818609E-02  0.8224789E-01
       -2   -1    0    0    0  501  0.00000000000E+00  0.00000000000E+00  0.14538874634E+04  0.14538874634E+04  0.25500000920E-02 0. -1.
        2   -1    0    0  501    0  0.00000000000E+00  0.00000000000E+00 -0.16177152057E+04  0.16177152057E+04  0.25500000920E-02 0.  1.
    10030    2    1    2    0    0  0.00000000000E+00  0.00000000000E+00 -0.16382774231E+03  0.30716026691E+04  0.30672305795E+04 0.  0.
        2    1    3    3  502    0 -0.28837917623E+03 -0.21372050000E+03 -0.15750579288E+04  0.16154400269E+04  0.25500000920E-02 0.  1.
       -2    1    3    3    0  502  0.28837917623E+03  0.21372050000E+03  0.14112301865E+04  0.14561626422E+04  0.25500000920E-02 0. -1.
</event>
<event>
 5   0  0.1211008E-06  0.3084584E+04  0.7818609E-02  0.8219981E-01
        1   -1    0    0  501    0  0.00000000000E+00  0.00000000000E+00  0.16464364261E+04  0.16464364261E+04  0.50400001928E-02 0. -1.
       -1   -1    0    0    0  501  0.00000000000E+00  0.00000000000E+00 -0.14447355829E+04  0.14447355829E+04  0.50400001928E-02 0.  1.
    10030    2    1    2    0    0  0.00000000000E+00  0.00000000000E+00  0.20170084321E+03  0.30911720090E+04  0.30845844386E+04 0.  0.
        3    1    3    3  502    0 -0.38421084105E+03 -0.14559969902E+04 -0.23320826510E+03  0.15237884731E+04  0.10100000352E+00 0.  1.
       -3    1    3    3    0  502  0.38421084105E+03  0.14559969902E+04  0.43490910831E+03  0.15673835358E+04  0.10100000352E+00 0. -1.
</event>
<event>
 5   0  0.1250276E-06  0.3132489E+04  0.7818609E-02  0.8206878E-01
       -1   -1    0    0    0  501  0.00000000000E+00  0.00000000000E+00  0.12186722334E+04  0.12186722334E+04  0.50400001928E-02 0. -1.
        1   -1    0    0  501    0  0.00000000000E+00  0.00000000000E+00 -0.20129458331E+04  0.20129458331E+04  0.50400001928E-02 0.  1.
    10030    2    1    2    0    0  0.00000000000E+00  0.00000000000E+00 -0.79427359971E+03  0.32316180665E+04  0.31324885916E+04 0.  0.
        5    1    3    3  502    0  0.16395842261E+03 -0.27017156065E+03 -0.19797040355E+04  0.20047755971E+04  0.46999998093E+01 0.  1.
       -5    1    3    3    0  502 -0.16395842261E+03  0.27017156065E+03  0.11854304358E+04  0.12268424694E+04  0.46999998093E+01 0. -1.
</event>
<event>
 5   0  0.1109562E-06  0.3087850E+04  0.7818609E-02  0.8219080E-01
       -4   -1    0    0    0  501  0.00000000000E+00  0.00000000000E+00  0.18252005456E+04  0.18252009875E+04  0.12699999809E+01 0.  1.
        4   -1    0    0  501    0  0.00000000000E+00  0.00000000000E+00 -0.13059947334E+04  0.13059953509E+04  0.12699999809E+01 0. -1.
    10030    2    1    2    0    0  0.00000000000E+00  0.00000000000E+00  0.51920581221E+03  0.31311963384E+04  0.30878497104E+04 0.  0.
        4    1    3    3  502    0  0.66861501121E+03  0.11934120626E+04 -0.46628382991E+03  0.14452337552E+04  0.12699999809E+01 0. -1.
       -4    1    3    3    0  502 -0.66861501121E+03 -0.11934120626E+04  0.98548964212E+03  0.16859625832E+04  0.12699999809E+01 0.  1.
</event>
<event>
 5   0  0.3340899E-06  0.3139390E+04  0.7818609E-02  0.8205010E-01
        2   -1    0    0  501    0  0.00000000000E+00  0.00000000000E+00  0.16866921998E+04  0.16866921998E+04  0.25500000920E-02 0. -1.
       -2   -1    0    0    0  501  0.00000000000E+00  0.00000000000E+00 -0.14608129627E+04  0.14608129627E+04  0.25500000920E-02 0.  1.
    10030    2    1    2    0    0  0.00000000000E+00  0.00000000000E+00  0.22587923715E+03  0.31475051625E+04  0.31393896411E+04 0.  0.
        3    1    3    3  502    0  0.38602920749E+03  0.14659861332E+04 -0.29530820295E+03  0.15444548671E+04  0.10100000352E+00 0.  1.
       -3    1    3    3    0  502 -0.38602920749E+03 -0.14659861332E+04  0.52118744010E+03  0.16030502954E+04  0.10100000352E+00 0. -1.
</event>
<event>
 5   0  0.1109562E-06  0.3114713E+04  0.7818609E-02  0.8211712E-01
        3   -1    0    0  501    0  0.00000000000E+00  0.00000000000E+00  0.11627756443E+04  0.11627756487E+04  0.10100000352E+00 0. -1.
       -3   -1    0    0    0  501  0.00000000000E+00  0.00000000000E+00 -0.20858359896E+04  0.20858359920E+04  0.10100000352E+00 0.  1.
    10030    2    1    2    0    0  0.00000000000E+00  0.00000000000E+00 -0.92306034531E+03  0.32486116407E+04  0.31147130190E+04 0.  0.
        2    1    3    3  502    0  0.26866979334E+03 -0.72325531039E+03  0.94942920451E+03  0.12233958951E+04  0.25500000920E-02 0. -1.
       -2    1    3    3    0  502 -0.26866979334E+03  0.72325531039E+03 -0.18724895498E+04  0.20252157456E+04  0.25500000920E-02 0.  1.
</event>
<event>
 5   0  0.3374790E-06  0.3199880E+04  0.7818609E-02  0.8188849E-01
       -2   -1    0    0    0  501  0.00000000000E+00  0.00000000000E+00  0.17055002372E+04  0.17055002372E+04  0.25500000920E-02 0.  1.
        2   -1    0    0  501    0  0.00000000000E+00  0.00000000000E+00 -0.15009131264E+04  0.15009131264E+04  0.25500000920E-02 0. -1.
    10030    2    1    2    0    0  0.00000000000E+00  0.00000000000E+00  0.20458711082E+03  0.32064133637E+04  0.31998798060E+04 0.  0.
        2    1    3    3  502    0  0.31378797839E+02 -0.26769761085E+02 -0.15003802920E+04  0.15009471242E+04  0.25500000920E-02 0. -1.
       -2    1    3    3    0  502 -0.31378797839E+02  0.26769761085E+02  0.17049674028E+04  0.17054662394E+04  0.25500000920E-02 0.  1.
</event>
<event>
 5   0  0.1198763E-06  0.2501345E+04  0.7818609E-02  0.8402507E-01
       -1   -1    0    0    0  501  0.00000000000E+00  0.00000000000E+00  0.11910354719E+04  0.11910354719E+04  0.50400001928E-02 0.  1.
        1   -1    0    0  501    0  0.00000000000E+00  0.00000000000E+00 -0.13132956263E+04  0.13132956263E+04  0.50400001928E-02 0. -1.
    10030    2    1    2    0    0  0.00000000000E+00  0.00000000000E+00 -0.12226015438E+03  0.25043310982E+04  0.25013449790E+04 0.  0.
        1    1    3    3  502    0  0.97793347389E+03  0.16506132383E+03 -0.82399939011E+03  0.12894084360E+04  0.50400001928E-02 0. -1.
       -1    1    3    3    0  502 -0.97793347389E+03 -0.16506132383E+03  0.70173923573E+03  0.12149226621E+04  0.50400001928E-02 0.  1.
</event>
<event>
 5   0  0.3340899E-06  0.2991421E+04  0.7818609E-02  0.8246185E-01
       -2   -1    0    0    0  501  0.00000000000E+00  0.00000000000E+00  0.10011939662E+04  0.10011939662E+04  0.25500000920E-02 0.  1.
        2   -1    0    0  501    0  0.00000000000E+00  0.00000000000E+00 -0.22344824815E+04  0.22344824815E+04  0.25500000920E-02 0. -1.
    10030    2    1    2    0    0  0.00000000000E+00  0.00000000000E+00 -0.12332885153E+04  0.32356764476E+04  0.29914213197E+04 0.  0.
        3    1    3    3  502    0 -0.11746167443E+04 -0.92287083733E+03 -0.69855958415E+03  0.16490605147E+04  0.10100000352E+00 0. -1.
       -3    1    3    3    0  502  0.11746167443E+04  0.92287083733E+03 -0.53472893115E+03  0.15866159329E+04  0.10100000352E+00 0.  1.
</event>
<event>
 5   0  0.1171915E-06  0.3057595E+04  0.7818609E-02  0.8227473E-01
       -1   -1    0    0    0  501  0.00000000000E+00  0.00000000000E+00  0.13408510452E+04  0.13408510453E+04  0.50400001928E-02 0. -1.
        1   -1    0    0  501    0  0.00000000000E+00  0.00000000000E+00 -0.17430878378E+04  0.17430878379E+04  0.50400001928E-02 0.  1.
    10030    2    1    2    0    0  0.00000000000E+00  0.00000000000E+00 -0.40223679260E+03  0.30839388831E+04  0.30575945770E+04 0.  0.
        2    1    3    3  502    0  0.75214666336E+03 -0.13308997255E+04 -0.21547007348E+03  0.15438413245E+04  0.25500000920E-02 0. -1.
       -2    1    3    3    0  502 -0.75214666336E+03  0.13308997255E+04 -0.18676671911E+03  0.15400975586E+04  0.25500000920E-02 0.  1.
</event>
<event>
 5   0  0.1211008E-06  0.3224743E+04  0.7818609E-02  0.8182313E-01
       -1   -1    0    0    0  501  0.00000000000E+00  0.00000000000E+00  0.13669143196E+04  0.13669143196E+04  0.50400001928E-02 0.  1.
        1   -1    0    0  501    0  0.00000000000E+00  0.00000000000E+00 -0.19019053016E+04  0.19019053016E+04  0.50400001928E-02 0. -1.
    10030    2    1    2    0    0  0.00000000000E+00  0.00000000000E+00 -0.53499098202E+03  0.32688196213E+04  0.32247428371E+04 0.  0.
        3    1    3    3  502    0 -0.11369156529E+04 -0.11066159535E+04  0.23774139998E+02  0.15867392005E+04  0.10100000352E+00 0.  1.
       -3    1    3    3    0  502  0.11369156529E+04  0.11066159535E+04 -0.55876512202E+03  0.16820804208E+04  0.10100000352E+00 0. -1.
</event>
<event>
 5   0  0.1250276E-06  0.3100676E+04  0.7818609E-02  0.8215552E-01
        1   -1    0    0  501    0  0.00000000000E+00  0.00000000000E+00  0.16702512284E+04  0.16702512284E+04  0.50400001928E-02 0.  1.
       -1   -1    0    0    0  501  0.00000000000E+00  0.00000000000E+00 -0.14390335843E+04  0.14390335843E+04  0.50400001928E-02 0. -1.
    10030    2    1    2    0    0  0.00000000000E+00  0.00000000000E+00  0.23121764405E+03  0.31092848127E+04  0.31006758050E+04 0.  0.
        5    1    3    3  502    0 -0.91948088117E+03 -0.12467877774E+04  0.55436640433E+02  0.15501677857E+04  0.46999998093E+01 0. -1.
       -5    1    3    3    0  502  0.91948088117E+03  0.12467877774E+04  0.17578100362E+03  0.15591170270E+04  0.46999998093E+01 0.  1.
</event>
<event>
 5   0  0.1171915E-06  0.3098188E+04  0.7818609E-02  0.8216235E-01
        1   -1    0    0  501    0  0.00000000000E+00  0.00000000000E+00  0.79770414382E+03  0.79770414384E+03  0.50400001928E-02 0.  1.
       -1   -1    0    0    0  501  0.00000000000E+00  0.00000000000E+00 -0.30082484076E+04  0.30082484076E+04  0.50400001928E-02 0. -1.
    10030    2    1    2    0    0  0.00000000000E+00  0.00000000000E+00 -0.22105442638E+04  0.38059525515E+04  0.30981879998E+04 0.  0.
        2    1    3    3  502    0 -0.13144123019E+04  0.19118546133E+03 -0.20845364501E+04  0.24717450904E+04  0.25500000920E-02 0.  1.
       -2    1    3    3    0  502  0.13144123019E+04 -0.19118546133E+03 -0.12600781369E+03  0.13342074611E+04  0.25500000920E-02 0. -1.
</event>
<event>
 5   0  0.3445959E-06  0.3163942E+04  0.7818609E-02  0.8198405E-01
        2   -1    0    0  501    0  0.00000000000E+00  0.00000000000E+00  0.16972134664E+04  0.16972134664E+04  0.25500000920E-02 0. -1.
       -2   -1    0    0    0  501  0.00000000000E+00  0.00000000000E+00 -0.14745540465E+04  0.14745540465E+04  0.25500000920E-02 0.  1.
    10030    2    1    2    0    0  0.00000000000E+00  0.00000000000E+00  0.22265941984E+03  0.31717675129E+04  0.31639424676E+04 0.  0.
        4    1    3    3  502    0 -0.61242745335E+03  0.11583661895E+04 -0.77728899189E+03  0.15235023480E+04  0.12699999809E+01 0.  1.
       -4    1    3    3    0  502  0.61242745335E+03 -0.11583661895E+04  0.99994841173E+03  0.16482651648E+04  0.12699999809E+01 0. -1.
</event>
<event>
 5   0  0.1235960E-06  0.3184046E+04  0.7818609E-02  0.8193043E-01
       -1   -1    0    0    0  501  0.00000000000E+00  0.00000000000E+00  0.10597995474E+04  0.10597995474E+04  0.50400001928E-02 0.  1.
        1   -1    0    0  501    0  0.00000000000E+00  0.00000000000E+00 -0.23915252442E+04  0.23915252442E+04  0.50400001928E-02 0. -1.
    10030    2    1    2    0    0  0.00000000000E+00  0.00000000000E+00 -0.13317256968E+04  0.34513247917E+04  0.31840460873E+04 0.  0.
        4    1    3    3  502    0 -0.14662209472E+04 -0.42781250001E+03 -0.17904282593E+03  0.15378183728E+04  0.12699999809E+01 0.  1.
       -4    1    3    3    0  502  0.14662209472E+04  0.42781250001E+03 -0.11526828709E+04  0.19135064189E+04  0.12699999809E+01 0. -1.
</event>
<event>
 5   0  0.1250276E-06  0.3116957E+04  0.7818609E-02  0.8211100E-01
       -1   -1    0    0    0  501  0.00000000000E+00  0.00000000000E+00  0.18001298431E+04  0.18001298431E+04  0.50400001928E-02 0. -1.
        1   -1    0    0  501    0  0.00000000000E+00  0.00000000000E+00 -0.13492664303E+04  0.13492664303E+04  0.50400001928E-02 0.  1.
    10030    2    1    2    0    0  0.00000000000E+00  0.00000000000E+00  0.45086341284E+03  0.31493962734E+04  0.31169567000E+04 0.  0.
        5    1    3    3  502    0  0.39048549116E+03 -0.17113499624E+03  0.17400545744E+04  0.17915295470E+04  0.46999998093E+01 0. -1.
       -5    1    3    3    0  502 -0.39048549116E+03  0.17113499624E+03 -0.12891911616E+04  0.13578667264E+04  0.46999998093E+01 0.  1.
</event>
<event>
 5   0  0.1171915E-06  0.3117119E+04  0.7818609E-02  0.8211055E-01
        1   -1    0    0  501    0  0.00000000000E+00  0.00000000000E+00  0.34194151599E+04  0.34194151599E+04  0.50400001928E-02 0.  1.
       -1   -1    0    0    0  501  0.00000000000E+00  0.00000000000E+00 -0.71038696748E+03  0.71038696750E+03  0.50400001928E-02 0. -1.
    10030    2    1    2    0    0  0.00000000000E+00  0.00000000000E+00  0.27090281925E+04  0.41298021274E+04  0.31171191611E+04 0.  0.
        2    1    3    3  502    0 -0.13863777246E+04 -0.53007418784E+03  0.72455435626E+03  0.16516660847E+04  0.25500000920E-02 0. -1.
       -2    1    3    3    0  502  0.13863777246E+04  0.53007418784E+03  0.19844738362E+04  0.24781360428E+04  0.25500000920E-02 0.  1.
</event>
<event>
 5   0  0.3445410E-06  0.3081870E+04  0.7818609E-02  0.8220731E-01
        2   -1    0    0  501    0  0.00000000000E+00  0.00000000000E+00  0.15933632150E+04  0.15933632150E+04  0.25500000920E-02 0. -1.
       -2   -1    0    0    0  501  0.00000000000E+00  0.00000000000E+00 -0.14902314392E+04  0.14902314392E+04  0.25500000920E-02 0.  1.
    10030    2    1    2    0    0  0.00000000000E+00  0.00000000000E+00  0.10313177580E+03  0.30835946543E+04  0.30818695347E+04 0.  0.
        1    1    3    3  502    0  0.53533228586E+03  0.24619926144E+03  0.14761905621E+04  0.15894443395E+04  0.50400001928E-02 0. -1.
       -1    1    3    3    0  502 -0.53533228586E+03 -0.24619926144E+03 -0.13730587863E+04  0.14941503148E+04  0.50400001928E-02 0.  1.
</event>
<event>
 5   0  0.3340899E-06  0.3005875E+04  0.7818609E-02  0.8242055E-01
        2   -1    0    0  501    0  0.00000000000E+00  0.00000000000E+00  0.18814862752E+04  0.18814862752E+04  0.25500000920E-02 0. -1.
       -2   -1    0    0    0  501  0.00000000000E+00  0.00000000000E+00 -0.12005511438E+04  0.12005511438E+04  0.25500000920E-02 0.  1.
    10030    2    1    2    0    0  0.00000000000E+00  0.00000000000E+00  0.68093513145E+03  0.30820374190E+04  0.30058745814E+04 0.  0.
        3    1    3    3  502    0 -0.19109285662E+02  0.14035088906E+04 -0.21037671801E+03  0.14193169993E+04  0.10100000352E+00 0.  1.
       -3    1    3    3    0  502  0.19109285662E+02 -0.14035088906E+04  0.89131184946E+03  0.16627204197E+04  0.10100000352E+00 0. -1.
</event>
<event>
 5   0  0.3340899E-06  0.3153885E+04  0.7818609E-02  0.8201103E-01
        2   -1    0    0  501    0  0.00000000000E+00  0.00000000000E+00  0.24841487471E+04  0.24841487471E+04  0.25500000920E-02 0. -1.
       -2   -1    0    0    0  501  0.00000000000E+00  0.00000000000E+00 -0.10010460869E+04  0.10010460869E+04  0.25500000920E-02 0.  1.
    10030    2    1    2    0    0  0.00000000000E+00  0.00000000000E+00  0.14831026602E+04  0.34851948340E+04  0.31538848315E+04 0.  0.
        3    1    3    3  502    0 -0.11243865409E+03 -0.81887598189E+03 -0.74248649087E+03  0.11110744907E+04  0.10100000352E+00 0.  1.
       -3    1    3    3    0  502  0.11243865409E+03  0.81887598189E+03  0.22255891511E+04  0.23741203433E+04  0.10100000352E+00 0. -1.
</event>
<event>
 5   0  0.1235960E-06  0.2775620E+04  0.7818609E-02  0.8310878E-01
        1   -1    0    0  501    0  0.00000000000E+00  0.00000000000E+00  0.94112868344E+03  0.94112868345E+03  0.50400001928E-02 0.  1.
       -1   -1    0    0    0  501  0.00000000000E+00  0.00000000000E+00 -0.20464967484E+04  0.20464967484E+04  0.50400001928E-02 0. -1.
    10030    2    1    2    0    0  0.00000000000E+00  0.00000000000E+00 -0.11053680650E+04  0.29876254319E+04  0.27756201401E+04 0.  0.
        4    1    3    3  502    0 -0.66401745743E+03  0.73751986809E+02  0.75663834678E+03  0.10093868139E+04  0.12699999809E+01 0.  1.
       -4    1    3    3    0  502  0.66401745743E+03 -0.73751986809E+02 -0.18620064118E+04  0.19782386180E+04  0.12699999809E+01 0. -1.
</event>
<event>
 5   0  0.3445410E-06  0.3107951E+04  0.7818609E-02  0.8213559E-01
       -2   -1    0    0    0  501  0.00000000000E+00  0.00000000000E+00  0.12493756215E+04  0.12493756215E+04  0.25500000920E-02 0. -1.
        2   -1    0    0  501    0  0.00000000000E+00  0.00000000000E+00 -0.19328368564E+04  0.19328368564E+04  0.25500000920E-02 0.  1.
    10030    2    1    2    0    0  0.00000000000E+00  0.00000000000E+00 -0.68346123491E+03  0.31822124778E+04  0.31079506100E+04 0.  0.
        1    1    3    3  502    0  0.83419403457E+03 -0.11314532046E+04 -0.10199576814E+04  0.17367727869E+04  0.50400001928E-02 0. -1.
       -1    1    3    3    0  502 -0.83419403457E+03  0.11314532046E+04  0.33649644648E+03  0.14454396909E+04  0.50400001928E-02 0.  1.
</event>
<event>
 5   0  0.1171915E-06  0.3127902E+04  0.7818609E-02  0.8208122E-01
        1   -1    0    0  501    0  0.00000000000E+00  0.00000000000E+00  0.15469141883E+04  0.15469141883E+04  0.50400001928E-02 0. -1.
       -1   -1    0    0    0  501  0.00000000000E+00  0.00000000000E+00 -0.15811752243E+04  0.15811752243E+04  0.50400001928E-02 0.  1.
    10030    2    1    2    0    0  0.00000000000E+00  0.00000000000E+00 -0.34261036006E+02  0.31280894126E+04  0.31279017815E+04 0.  0.
        2    1    3    3  502    0  0.50611206518E+03 -0.10752265106E+04 -0.10338925030E+04  0.15751809989E+04  0.25500000920E-02 0.  1.
       -2    1    3    3    0  502 -0.50611206518E+03  0.10752265106E+04  0.99963146697E+03  0.15529084137E+04  0.25500000920E-02 0. -1.
</event>
<event>
 5   0  0.1198763E-06  0.3072492E+04  0.7818609E-02  0.8223328E-01
       -1   -1    0    0    0  501  0.00000000000E+00  0.00000000000E+00  0.15556804235E+04  0.15556804235E+04  0.50400001928E-02 0. -1.
        1   -1    0    0  501    0  0.00000000000E+00  0.00000000000E+00 -0.15170542903E+04  0.15170542903E+04  0.50400001928E-02 0.  1.
    10030    2    1    2    0    0  0.00000000000E+00  0.00000000000E+00  0.38626133156E+02  0.30727347138E+04  0.30724919273E+04 0.  0.
        1    1    3    3  502    0  0.11652039223E+04 -0.88424062748E+03  0.48889249254E+03  0.15422702542E+04  0.50400001928E-02 0. -1.
       -1    1    3    3    0  502 -0.11652039223E+04  0.88424062748E+03 -0.45026635938E+03  0.15304644596E+04  0.50400001928E-02 0.  1.
</event>
<event>
 5   0  0.1250276E-06  0.3097990E+04  0.7818609E-02  0.8216290E-01
        1   -1    0    0  501    0  0.00000000000E+00  0.00000000000E+00  0.85119872547E+03  0.85119872549E+03  0.50400001928E-02 0.  1.
       -1   -1    0    0    0  501  0.00000000000E+00  0.00000000000E+00 -0.28188309359E+04  0.28188309359E+04  0.50400001928E-02 0. -1.
    10030    2    1    2    0    0  0.00000000000E+00  0.00000000000E+00 -0.19676322104E+04  0.36700296614E+04  0.30979898644E+04 0.  0.
        5    1    3    3  502    0 -0.73528426088E+03  0.96634138384E+03  0.15548377147E+03  0.12241960250E+04  0.46999998093E+01 0.  1.
       -5    1    3    3    0  502  0.73528426088E+03 -0.96634138384E+03 -0.21231159819E+04  0.24458336364E+04  0.46999998093E+01 0. -1.
</event>
<event>
 5   0  0.3374790E-06  0.3097555E+04  0.7818609E-02  0.8216409E-01
        2   -1    0    0  501    0  0.00000000000E+00  0.00000000000E+00  0.19100134292E+04  0.19100134292E+04  0.25500000920E-02 0.  1.
       -2   -1    0    0    0  501  0.00000000000E+00  0.00000000000E+00 -0.12558614376E+04  0.12558614376E+04  0.25500000920E-02 0. -1.
    10030    2    1    2    0    0  0.00000000000E+00  0.00000000000E+00  0.65415199156E+03  0.31658748668E+04  0.30975553012E+04 0.  0.
        2    1    3    3  502    0 -0.79193152933E+02 -0.10045265936E+04  0.15291836951E+04  0.18313241128E+04  0.25500000920E-02 0.  1.
       -2    1    3    3    0  502  0.79193152933E+02  0.10045265936E+04 -0.87503170350E+03  0.13345507540E+04  0.25500000920E-02 0. -1.
</event>
<event>
 5   0  0.3445410E-06  0.3082056E+04  0.7818609E-02  0.8220680E-01
       -2   -1    0    0    0  501  0.00000000000E+00  0.00000000000E+00  0.15335572002E+04  0.15335572002E+04  0.25500000920E-02 0.  1.
        2   -1    0    0  501    0  0.00000000000E+00  0.00000000000E+00 -0.15485355594E+04  0.15485355594E+04  0.25500000920E-02 0. -1.
    10030    2    1    2    0    0  0.00000000000E+00  0.00000000000E+00 -0.14978359205E+02  0.30820927596E+04  0.30820563635E+04 0.  0.
        1    1    3    3  502    0  0.47527530678E+03 -0.12019176115E+04 -0.84671020444E+03  0.15451248275E+04  0.50400001928E-02 0. -1.
       -1    1    3    3    0  502 -0.47527530678E+03  0.12019176115E+04  0.83173184523E+03  0.15369679322E+04  0.50400001928E-02 0.  1.
</event>
<event>
 5   0  0.3441897E-06  0.3107680E+04  0.7818609E-02  0.8213633E-01
        2   -1    0    0  501    0  0.00000000000E+00  0.00000000000E+00  0.24566370647E+04  0.24566370647E+04  0.25500000920E-02 0. -1.
       -2   -1    0    0    0  501  0.00000000000E+00  0.00000000000E+00 -0.98281451869E+03  0.98281451870E+03  0.25500000920E-02 0.  1.
    10030    2    1    2    0    0  0.00000000000E+00  0.00000000000E+00  0.14738225460E+04  0.34394515834E+04  0.31076798898E+04 0.  0.
        5    1    3    3  502    0 -0.98578960964E+03 -0.99341142003E+03 -0.10252529109E+02  0.13995622917E+04  0.46999998093E+01 0.  1.
       -5    1    3    3    0  502  0.98578960964E+03  0.99341142003E+03  0.14840750751E+04  0.20398892917E+04  0.46999998093E+01 0. -1.
</event>
<event>
 5   0  0.1171915E-06  0.3130311E+04  0.7818609E-02  0.8207468E-01
       -1   -1    0    0    0  501  0.00000000000E+00  0.00000000000E+00  0.15365543835E+04  0.15365543835E+04  0.50400001928E-02 0. -1.
        1   -1    0    0  501    0  0.00000000000E+00  0.00000000000E+00 -0.15942885953E+04  0.15942885953E+04  0.50400001928E-02 0.  1.
    10030    2    1    2    0    0  0.00000000000E+00  0.00000000000E+00 -0.57734211812E+02  0.31308429787E+04  0.31303106105E+04 0.  0.
        2    1    3    3  502    0  0.37528458687E+03  0.14582176983E+04 -0.45610922028E+03  0.15733000342E+04  0.25500000920E-02 0.  1.
       -2    1    3    3    0  502 -0.37528458687E+03 -0.14582176983E+04  0.39837500847E+03  0.15575429446E+04  0.25500000920E-02 0. -1.
</event>
<event>
 5   0  0.3445959E-06  0.3079703E+04  0.7818609E-02  0.8221331E-01
       -2   -1    0    0    0  501  0.00000000000E+00  0.00000000000E+00  0.19192761274E+04  0.19192761274E+04  0.25500000920E-02 0.  1.
        2   -1    0    0  501    0  0.00000000000E+00  0.00000000000E+00 -0.12354355635E+04  0.12354355635E+04  0.25500000920E-02 0. -1.
    10030    2    1    2    0    0  0.00000000000E+00  0.00000000000E+00  0.68384056390E+03  0.31547116909E+04  0.30797025726E+04 0.  0.
        4    1    3    3  502    0 -0.10643129372E+04 -0.83308570376E+02 -0.79480934501E+03  0.13309492304E+04  0.12699999809E+01 0. -1.
       -4    1    3    3    0  502  0.10643129372E+04  0.83308570376E+02  0.14786499089E+04  0.18237624605E+04  0.12699999809E+01 0.  1.
</event>
<event>
 5   0  0.3445410E-06  0.3178389E+04  0.7818609E-02  0.8194548E-01
        2   -1    0    0  501    0  0.00000000000E+00  0.00000000000E+00  0.23456211323E+04  0.23456211323E+04  0.25500000920E-02 0.  1.
       -2   -1    0    0    0  501  0.00000000000E+00  0.00000000000E+00 -0.10767034784E+04  0.10767034784E+04  0.25500000920E-02 0. -1.
    10030    2    1    2    0    0  0.00000000000E+00  0.00000000000E+00  0.12689176539E+04  0.34223246106E+04  0.31783885427E+04 0.  0.
        1    1    3    3  502    0 -0.13856675978E+04  0.56502327575E+03  0.12105065518E+04  0.19247472836E+04  0.50400001928E-02 0.  1.
       -1    1    3    3    0  502  0.13856675978E+04 -0.56502327575E+03  0.58411102060E+02  0.14975773270E+04  0.50400001928E-02 0. -1.
</event>
<event>
 5   0  0.1198763E-06  0.3115469E+04  0.7818609E-02  0.8211505E-01
       -1   -1    0    0    0  501  0.00000000000E+00  0.00000000000E+00  0.13742666445E+04  0.13742666445E+04  0.50400001928E-02 0.  1.
        1   -1    0    0  501    0  0.00000000000E+00  0.00000000000E+00 -0.17656957898E+04  0.17656957898E+04  0.50400001928E-02 0. -1.
    10030    2    1    2    0    0  0.00000000000E+00  0.00000000000E+00 -0.39142914526E+03  0.31399624343E+04  0.31154690358E+04 0.  0.
        1    1    3    3  502    0 -0.34955468633E+03  0.48089640144E+02 -0.17248890601E+04  0.17606088043E+04  0.50400001928E-02 0. -1.
       -1    1    3    3    0  502  0.34955468633E+03 -0.48089640144E+02  0.13334599148E+04  0.13793536300E+04  0.50400001928E-02 0.  1.
</event>
<event>
 5   0  0.1250276E-06  0.3051820E+04  0.7818609E-02  0.8229086E-01
        1   -1    0    0  501    0  0.00000000000E+00  0.00000000000E+00  0.15021218518E+04  0.15021218518E+04  0.50400001928E-02 0.  1.
       -1   -1    0    0    0  501  0.00000000000E+00  0.00000000000E+00 -0.15500743711E+04  0.15500743712E+04  0.50400001928E-02 0. -1.
    10030    2    1    2    0    0  0.00000000000E+00  0.00000000000E+00 -0.47952519366E+02  0.30521962229E+04  0.30518195129E+04 0.  0.
        5    1    3    3  502    0  0.27078295318E+03 -0.13289293688E+04 -0.72334922890E+03  0.15370858375E+04  0.46999998093E+01 0.  1.
       -5    1    3    3    0  502 -0.27078295318E+03  0.13289293688E+04  0.67539670954E+03  0.15151103855E+04  0.46999998093E+01 0. -1.
</event>
<event>
 5   0  0.3441897E-06  0.2773329E+04  0.7818609E-02  0.8311597E-01
        2   -1    0    0  501    0  0.00000000000E+00  0.00000000000E+00  0.20893354052E+04  0.20893354052E+04  0.25500000920E-02 0.  1.
       -2   -1    0    0    0  501  0.00000000000E+00  0.00000000000E+00 -0.92031119981E+03  0.92031119982E+03  0.25500000920E-02 0. -1.
    10030    2    1    2    0    0  0.00000000000E+00  0.00000000000E+00  0.11690242054E+04  0.30096466050E+04  0.27733292438E+04 0.  0.
        5    1    3    3  502    0 -0.21513441993E+03  0.95204666889E+03  0.16533983836E+04  0.19200062456E+04  0.46999998093E+01 0.  1.
       -5    1    3    3    0  502  0.21513441993E+03 -0.95204666889E+03 -0.48437417818E+03  0.10896403594E+04  0.46999998093E+01 0. -1.
</event>
<event>
 5   0  0.3441897E-06  0.3132059E+04  0.7818609E-02  0.8206994E-01
       -2   -1    0    0    0  501  0.00000000000E+00  0.00000000000E+00  0.16310248549E+04  0.16310248549E+04  0.25500000920E-02 0. -1.
        2   -1    0    0  501    0  0.00000000000E+00  0.00000000000E+00 -0.15036244625E+04  0.15036244625E+04  0.25500000920E-02 0.  1.
    10030    2    1    2    0    0  0.00000000000E+00  0.00000000000E+00  0.12740039237E+03  0.31346493174E+04  0.31320593039E+04 0.  0.
        5    1    3    3  502    0  0.12441641665E+04 -0.93811560890E+03 -0.92702548461E+02  0.15609680398E+04  0.46999998093E+01 0. -1.
       -5    1    3    3    0  502 -0.12441641665E+04  0.93811560890E+03  0.22010294083E+03  0.15736812776E+04  0.46999998093E+01 0.  1.
</event>
<event>
 5   0  0.3441897E-06  0.3104219E+04  0.7818609E-02  0.8214581E-01
       -2   -1    0    0    0  501  0.00000000000E+00  0.00000000000E+00  0.30271382619E+04  0.30271382619E+04  0.25500000920E-02 0.  1.
        2   -1    0    0  501    0  0.00000000000E+00  0.00000000000E+00 -0.79581544799E+03  0.79581544800E+03  0.25500000920E-02 0. -1.
    10030    2    1    2    0    0  0.00000000000E+00  0.00000000000E+00  0.22313228139E+04  0.38229537099E+04  0.31042186728E+04 0.  0.
        5    1    3    3  502    0 -0.98341849091E+03 -0.11509610932E+04  0.15372673396E+04  0.21575533203E+04  0.46999998093E+01 0. -1.
       -5    1    3    3    0  502  0.98341849091E+03  0.11509610932E+04  0.69405547431E+03  0.16654003896E+04  0.46999998093E+01 0.  1.
</event>
<event>
 5   0  0.3445959E-06  0.3111552E+04  0.7818609E-02  0.8212575E-01
       -2   -1    0    0    0  501  0.00000000000E+00  0.00000000000E+00  0.12053759447E+04  0.12053759447E+04  0.25500000920E-02 0.  1.
        2   -1    0    0  501    0  0.00000000000E+00  0.00000000000E+00 -0.20080366597E+04  0.20080366597E+04  0.25500000920E-02 0. -1.
    10030    2    1    2    0    0  0.00000000000E+00  0.00000000000E+00 -0.80266071497E+03  0.32134126044E+04  0.31115520794E+04 0.  0.
        4    1    3    3  502    0 -0.96510812640E+03 -0.92872095976E+03 -0.12187469040E+04  0.18108842994E+04  0.12699999809E+01 0. -1.
       -4    1    3    3    0  502  0.96510812640E+03  0.92872095976E+03  0.41608618906E+03  0.14025283050E+04  0.12699999809E+01 0.  1.
</event>
<event>
 5   0  0.3445959E-06  0.3113345E+04  0.7818609E-02  0.8212085E-01
        2   -1    0    0  501    0  0.00000000000E+00  0.00000000000E+00  0.23155573454E+04  0.23155573454E+04  0.25500000920E-02 0.  1.
       -2   -1    0    0    0  501  0.00000000000E+00  0.00000000000E+00 -0.10464993673E+04  0.10464993674E+04  0.25500000920E-02 0. -1.
    10030    2    1    2    0    0  0.00000000000E+00  0.00000000000E+00  0.12690579780E+04  0.33620567127E+04  0.31133450159E+04 0.  0.
        4    1    3    3  502    0  0.86331619491E+03 -0.70835874866E+03 -0.53660726700E+03  0.12389656739E+04  0.12699999809E+01 0. -1.
       -4    1    3    3    0  502 -0.86331619491E+03  0.70835874866E+03  0.18056652450E+04  0.21230910388E+04  0.12699999809E+01 0.  1.
</event>
<event>
 5   0  0.1250276E-06  0.2994802E+04  0.7818609E-02  0.8245217E-01
       -1   -1    0    0    0  501  0.00000000000E+00  0.00000000000E+00  0.10475288612E+04  0.10475288612E+04  0.50400001928E-02 0.  1.
        1   -1    0    0  501    0  0.00000000000E+00  0.00000000000E+00 -0.21404748835E+04  0.21404748835E+04  0.50400001928E-02 0. -1.
    10030    2    1    2    0    0  0.00000000000E+00  0.00000000000E+00 -0.10929460223E+04  0.31880037448E+04  0.29948016410E+04 0.  0.
        5    1    3    3  502    0  0.37038404141E+03  0.11106772639E+04  0.44723602804E+03  0.12533277614E+04  0.46999998093E+01 0.  1.
       -5    1    3    3    0  502 -0.37038404141E+03 -0.11106772639E+04 -0.15401820503E+04  0.19346759834E+04  0.46999998093E+01 0. -1.
</event>
<event>
 5   0  0.3340899E-06  0.3159631E+04  0.7818609E-02  0.8199561E-01
        2   -1    0    0  501    0  0.00000000000E+00  0.00000000000E+00  0.10238040498E+04  0.10238040498E+04  0.25500000920E-02 0.  1.
       -2   -1    0    0    0  501  0.00000000000E+00  0.00000000000E+00 -0.24377879564E+04  0.24377879564E+04  0.25500000920E-02 0. -1.
    10030    2    1    2    0    0  0.00000000000E+00  0.00000000000E+00 -0.14139839066E+04  0.34615920061E+04  0.31596311064E+04 0.  0.
        3    1    3    3  502    0 -0.15370486097E+04 -0.19224560069E+03 -0.10470426423E+04  0.18696992016E+04  0.10100000352E+00 0. -1.
       -3    1    3    3    0  502  0.15370486097E+04  0.19224560069E+03 -0.36694126438E+03  0.15918928046E+04  0.10100000352E+00 0.  1.
</event>
<event>
 5   0  0.3374790E-06  0.3083406E+04  0.7818609E-02  0.8220307E-01
       -2   -1    0    0    0  501  0.00000000000E+00  0.00000000000E+00  0.84532140960E+03  0.84532140961E+03  0.25500000920E-02 0. -1.
        2   -1    0    0  501    0  0.00000000000E+00  0.00000000000E+00 -0.28117681280E+04  0.28117681280E+04  0.25500000920E-02 0.  1.
    10030    2    1    2    0    0  0.00000000000E+00  0.00000000000E+00 -0.19664467184E+04  0.36570895376E+04  0.30834057777E+04 0.  0.
        2    1    3    3  502    0  0.99243036526E+03 -0.57619794044E+03 -0.22042991560E+04  0.24851271327E+04  0.25500000920E-02 0.  1.
       -2    1    3    3    0  502 -0.99243036526E+03  0.57619794044E+03  0.23785243761E+03  0.11719624049E+04  0.25500000920E-02 0. -1.
</event>
<event>
 5   0  0.1211008E-06  0.3119668E+04  0.7818609E-02  0.8210361E-01
       -1   -1    0    0    0  501  0.00000000000E+00  0.00000000000E+00  0.10791685997E+04  0.10791685997E+04  0.50400001928E-02 0.  1.
        1   -1    0    0  501    0  0.00000000000E+00  0.00000000000E+00 -0.22545899461E+04  0.22545899461E+04  0.50400001928E-02 0. -1.
    10030    2    1    2    0    0  0.00000000000E+00  0.00000000000E+00 -0.11754213464E+04  0.33337585458E+04  0.31196683638E+04 0.  0.
        3    1    3    3  502    0 -0.30129673071E+03  0.11565783995E+04  0.48338593545E+03  0.12892305018E+04  0.10100000352E+00 0.  1.
       -3    1    3    3    0  502  0.30129673071E+03 -0.11565783995E+04 -0.16588072819E+04  0.20445280440E+04  0.10100000352E+00 0. -1.
</event>
<event>
 5   0  0.3441897E-06  0.3090212E+04  0.7818609E-02  0.8218429E-01
        2   -1    0    0  501    0  0.00000000000E+00  0.00000000000E+00  0.15422938750E+04  0.15422938750E+04  0.25500000920E-02 0. -1.
       -2   -1    0    0    0  501  0.00000000000E+00  0.00000000000E+00 -0.15479231167E+04  0.15479231167E+04  0.25500000920E-02 0.  1.
    10030    2    1    2    0    0  0.00000000000E+00  0.00000000000E+00 -0.56292417077E+01  0.30902169918E+04  0.30902118646E+04 0.  0.
        5    1    3    3  502    0  0.14563203888E+04  0.41919190647E+03 -0.30404480501E+03  0.15456572268E+04  0.46999998093E+01 0.  1.
       -5    1    3    3    0  502 -0.14563203888E+04 -0.41919190647E+03  0.29841556330E+03  0.15445597650E+04  0.46999998093E+01 0. -1.
</event>
<event>
 5   0  0.3374790E-06  0.3112919E+04  0.7818609E-02  0.8212201E-01
       -2   -1    0    0    0  501  0.00000000000E+00  0.00000000000E+00  0.20711701193E+04  0.20711701193E+04  0.25500000920E-02 0.  1.
        2   -1    0    0  501    0  0.00000000000E+00  0.00000000000E+00 -0.11696605339E+04  0.11696605339E+04  0.25500000920E-02 0. -1.
    10030    2    1    2    0    0  0.00000000000E+00  0.00000000000E+00  0.90150958538E+03  0.32408306532E+04  0.31129188537E+04 0.  0.
        2    1    3    3  502    0  0.11525871572E+04 -0.10262653870E+04  0.66127183402E+03  0.16789753536E+04  0.25500000920E-02 0.  1.
       -2    1    3    3    0  502 -0.11525871572E+04  0.10262653870E+04  0.24023775136E+03  0.15618552996E+04  0.25500000920E-02 0. -1.
</event>
<event>
 5   0  0.1198763E-06  0.2839986E+04  0.7818609E-02  0.8290961E-01
       -1   -1    0    0    0  501  0.00000000000E+00  0.00000000000E+00  0.10682889116E+04  0.10682889116E+04  0.50400001928E-02 0.  1.
        1   -1    0    0  501    0  0.00000000000E+00  0.00000000000E+00 -0.18874859359E+04  0.18874859359E+04  0.50400001928E-02 0. -1.
    10030    2    1    2    0    0  0.00000000000E+00  0.00000000000E+00 -0.81919702431E+03  0.29557748474E+04  0.28399861239E+04 0.  0.
        1    1    3    3  502    0  0.13330846784E+04 -0.36096551147E+03 -0.66034645356E+02  0.13826682301E+04  0.50400001928E-02 0.  1.
       -1    1    3    3    0  502 -0.13330846784E+04  0.36096551147E+03 -0.75316237896E+03  0.15731066173E+04  0.50400001928E-02 0. -1.
</event>
<event>
 5   0  0.3441897E-06  0.3091705E+04  0.7818609E-02  0.8218018E-01
       -2   -1    0    0    0  501  0.00000000000E+00  0.00000000000E+00  0.15682603533E+04  0.15682603533E+04  0.25500000920E-02 0.  1.
        2   -1    0    0  501    0  0.00000000000E+00  0.00000000000E+00 -0.15237648728E+04  0.15237648728E+04  0.25500000920E-02 0. -1.
    10030    2    1    2    0    0  0.00000000000E+00  0.00000000000E+00  0.44495480457E+02  0.30920252261E+04  0.30917050556E+04 0.  0.
        5    1    3    3  502    0  0.42504442712E+03 -0.14191014867E+04  0.46402434552E+03  0.15523699552E+04  0.46999998093E+01 0. -1.
       -5    1    3    3    0  502 -0.42504442712E+03  0.14191014867E+04 -0.41952886507E+03  0.15396552709E+04  0.46999998093E+01 0.  1.
</event>
<event>
 5   0  0.1109562E-06  0.3156829E+04  0.7818609E-02  0.8200313E-01
       -4   -1    0    0    0  501  0.00000000000E+00  0.00000000000E+00  0.14510049470E+04  0.14510055027E+04  0.12699999809E+01 0.  1.
        4   -1    0    0  501    0  0.00000000000E+00  0.00000000000E+00 -0.17170099493E+04  0.17170104190E+04  0.12699999809E+01 0. -1.
    10030    2    1    2    0    0  0.00000000000E+00  0.00000000000E+00 -0.26600500236E+03  0.31680159217E+04  0.31568285065E+04 0.  0.
        2    1    3    3  502    0 -0.96726558147E+03 -0.95113413759E+03  0.67678509407E+03  0.15160134948E+04  0.25500000920E-02 0.  1.
       -2    1    3    3    0  502  0.96726558147E+03  0.95113413759E+03 -0.94279009643E+03  0.16520024270E+04  0.25500000920E-02 0. -1.
</event>
<event>
 5   0  0.3340899E-06  0.3130953E+04  0.7818609E-02  0.8207294E-01
       -2   -1    0    0    0  501  0.00000000000E+00  0.00000000000E+00  0.10279250475E+04  0.10279250475E+04  0.25500000920E-02 0. -1.
        2   -1    0    0  501    0  0.00000000000E+00  0.00000000000E+00 -0.23841395425E+04  0.23841395425E+04  0.25500000920E-02 0.  1.
    10030    2    1    2    0    0  0.00000000000E+00  0.00000000000E+00 -0.13562144950E+04  0.34120645900E+04  0.31309530514E+04 0.  0.
        3    1    3    3  502    0  0.10833968472E+04  0.88343712397E+03 -0.14460048573E+04  0.20112533251E+04  0.10100000352E+00 0.  1.
       -3    1    3    3    0  502 -0.10833968472E+04 -0.88343712397E+03  0.89790362255E+02  0.14008112649E+04  0.10100000352E+00 0. -1.
</event>
<event>
 5   0  0.1171915E-06  0.3098812E+04  0.7818609E-02  0.8216064E-01
       -1   -1    0    0    0  501  0.00000000000E+00  0.00000000000E+00  0.17939337251E+04  0.17939337252E+04  0.50400001928E-02 0.  1.
        1   -1    0    0  501    0  0.00000000000E+00  0.00000000000E+00 -0.13382091692E+04  0.13382091692E+04  0.50400001928E-02 0. -1.
    10030    2    1    2    0    0  0.00000000000E+00  0.00000000000E+00  0.45572455593E+03  0.31321428944E+04  0.30988117464E+04 0.  0.
        2    1    3    3  502    0 -0.15161702601E+04  0.26285737393E+03  0.41089651577E+03  0.15927027982E+04  0.25500000920E-02 0. -1.
       -2    1    3    3    0  502  0.15161702601E+04 -0.26285737393E+03  0.44828040163E+02  0.15394400962E+04  0.25500000920E-02 0.  1.
</event>
<event>
 5   0  0.1250276E-06  0.3094713E+04  0.7818609E-02  0.8217191E-01
       -1   -1    0    0    0  501  0.00000000000E+00  0.00000000000E+00  0.12418919338E+04  0.12418919338E+04  0.50400001928E-02 0.  1.
        1   -1    0    0  501    0  0.00000000000E+00  0.00000000000E+00 -0.19279547215E+04  0.19279547215E+04  0.50400001928E-02 0. -1.
    10030    2    1    2    0    0  0.00000000000E+00  0.00000000000E+00 -0.68606278775E+03  0.31698466553E+04  0.30947125342E+04 0.  0.
        5    1    3    3  502    0 -0.91635001709E+03 -0.69748022470E+03 -0.14016185071E+04  0.18140376366E+04  0.46999998093E+01 0. -1.
       -5    1    3    3    0  502  0.91635001709E+03  0.69748022470E+03  0.71555571934E+03  0.13558090187E+04  0.46999998093E+01 0.  1.
</event>
<event>
 5   0  0.3374790E-06  0.3109163E+04  0.7818609E-02  0.8213228E-01
       -2   -1    0    0    0  501  0.00000000000E+00  0.00000000000E+00  0.11656732189E+04  0.11656732189E+04  0.25500000920E-02 0. -1.
        2   -1    0    0  501    0  0.00000000000E+00  0.00000000000E+00 -0.20732421793E+04  0.20732421793E+04  0.25500000920E-02 0.  1.
    10030    2    1    2    0    0  0.00000000000E+00  0.00000000000E+00 -0.90756896034E+03  0.32389153982E+04  0.31091625141E+04 0.  0.
        2    1    3    3  502    0 -0.27924089951E+03  0.61638620938E+03 -0.19117690950E+04  0.20279961814E+04  0.25500000920E-02 0.  1.
       -2    1    3    3    0  502  0.27924089951E+03 -0.61638620938E+03  0.10042001347E+04  0.12109192168E+04  0.25500000920E-02 0. -1.
</event>
<event>
 5   0  0.3445410E-06  0.2812052E+04  0.7818609E-02  0.8299537E-01
       -2   -1    0    0    0  501  0.00000000000E+00  0.00000000000E+00  0.74483129784E+03  0.74483129785E+03  0.25500000920E-02 0.  1.
        2   -1    0    0  501    0  0.00000000000E+00  0.00000000000E+00 -0.26541697857E+04  0.26541697857E+04  0.25500000920E-02 0. -1.
    10030    2    1    2    0    0  0.00000000000E+00  0.00000000000E+00 -0.19093384878E+04  0.33990010835E+04  0.28120517251E+04 0.  0.
        1    1    3    3  502    0  0.12837334887E+03 -0.26283644633E+03 -0.26169848885E+04  0.26332817207E+04  0.50400001928E-02 0. -1.
       -1    1    3    3    0  502 -0.12837334887E+03  0.26283644633E+03  0.70764640063E+03  0.76571936280E+03  0.50400001928E-02 0.  1.
</event>
<event>
 5   0  0.1235960E-06  0.3123371E+04  0.7818609E-02  0.8209353E-01
       -1   -1    0    0    0  501  0.00000000000E+00  0.00000000000E+00  0.11035569147E+04  0.11035569147E+04  0.50400001928E-02 0. -1.
        1   -1    0    0  501    0  0.00000000000E+00  0.00000000000E+00 -0.22100003628E+04  0.22100003628E+04  0.50400001928E-02 0.  1.
    10030    2    1    2    0    0  0.00000000000E+00  0.00000000000E+00 -0.11064434481E+04  0.33135572775E+04  0.31233707316E+04 0.  0.
        4    1    3    3  502    0 -0.14680421532E+04 -0.48238233506E+03 -0.31359387398E+03  0.15767635243E+04  0.12699999809E+01 0.  1.
       -4    1    3    3    0  502  0.14680421532E+04  0.48238233506E+03 -0.79284957413E+03  0.17367937532E+04  0.12699999809E+01 0. -1.
</event>
<event>
 5   0  0.1211008E-06  0.3130778E+04  0.7818609E-02  0.8207342E-01
        1   -1    0    0  501    0  0.00000000000E+00  0.00000000000E+00  0.22132976758E+04  0.22132976758E+04  0.50400001928E-02 0.  1.
       -1   -1    0    0    0  501  0.00000000000E+00  0.00000000000E+00 -0.11071454561E+04  0.11071454561E+04  0.50400001928E-02 0. -1.
    10030    2    1    2    0    0  0.00000000000E+00  0.00000000000E+00  0.11061522197E+04  0.33204431320E+04  0.31307778362E+04 0.  0.
        3    1    3    3  502    0  0.13878711117E+04 -0.22780319235E+03  0.12819984213E+04  0.19030503093E+04  0.10100000352E+00 0.  1.
       -3    1    3    3    0  502 -0.13878711117E+04  0.22780319235E+03 -0.17584620162E+03  0.14173928227E+04  0.10100000352E+00 0. -1.
</event>
<event>
 5   0  0.3374790E-06  0.3113246E+04  0.7818609E-02  0.8212112E-01
       -2   -1    0    0    0  501  0.00000000000E+00  0.00000000000E+00  0.99615374216E+03  0.99615374216E+03  0.25500000920E-02 0. -1.
        2   -1    0    0  501    0  0.00000000000E+00  0.00000000000E+00 -0.24324306783E+04  0.24324306783E+04  0.25500000920E-02 0.  1.
    10030    2    1    2    0    0  0.00000000000E+00  0.00000000000E+00 -0.14362769361E+04  0.34285844204E+04  0.31132458449E+04 0.  0.
        2    1    3    3  502    0  0.12660019690E+04  0.90549336072E+03 -0.74004584598E+03  0.17234694851E+04  0.25500000920E-02 0.  1.
       -2    1    3    3    0  502 -0.12660019690E+04 -0.90549336072E+03 -0.69623109013E+03  0.17051149353E+04  0.25500000920E-02 0. -1.
</event>
<event>
 5   0  0.1198763E-06  0.3022335E+04  0.7818609E-02  0.8237382E-01
        1   -1    0    0  501    0  0.00000000000E+00  0.00000000000E+00  0.30261448344E+04  0.30261448344E+04  0.50400001928E-02 0. -1.
       -1   -1    0    0    0  501  0.00000000000E+00  0.00000000000E+00 -0.75463240606E+03  0.75463240608E+03  0.50400001928E-02 0.  1.
    10030    2    1    2    0    0  0.00000000000E+00  0.00000000000E+00  0.22715124283E+04  0.37807772404E+04  0.30223348309E+04 0.  0.
        1    1    3    3  502    0  0.95061923988E+03  0.68619189785E+03  0.23284861529E+04  0.26069875381E+04  0.50400001928E-02 0. -1.
       -1    1    3    3    0  502 -0.95061923988E+03 -0.68619189785E+03 -0.56973724576E+02  0.11737897023E+04  0.50400001928E-02 0.  1.
</event>
<event>
 5   0  0.1198763E-06  0.2980301E+04  0.7818609E-02  0.8249378E-01
       -1   -1    0    0    0  501  0.00000000000E+00  0.00000000000E+00  0.86599060760E+03  0.86599060762E+03  0.50400001928E-02 0.  1.
        1   -1    0    0  501    0  0.00000000000E+00  0.00000000000E+00 -0.25641717984E+04  0.25641717984E+04  0.50400001928E-02 0. -1.
    10030    2    1    2    0    0  0.00000000000E+00  0.00000000000E+00 -0.16981811908E+04  0.34301624060E+04  0.29803011215E+04 0.  0.
        1    1    3    3  502    0  0.12991432720E+04  0.71120175985E+03 -0.66008487245E+03  0.16215095508E+04  0.50400001928E-02 0.  1.
       -1    1    3    3    0  502 -0.12991432720E+04 -0.71120175985E+03 -0.10380963183E+04  0.18086528552E+04  0.50400001928E-02 0. -1.
</event>
<event>
 5   0  0.1171915E-06  0.3114925E+04  0.7818609E-02  0.8211654E-01
        1   -1    0    0  501    0  0.00000000000E+00  0.00000000000E+00  0.19613597649E+04  0.19613597649E+04  0.50400001928E-02 0.  1.
       -1   -1    0    0    0  501  0.00000000000E+00  0.00000000000E+00 -0.12367386074E+04  0.12367386074E+04  0.50400001928E-02 0. -1.
    10030    2    1    2    0    0  0.00000000000E+00  0.00000000000E+00  0.72462115745E+03  0.31980983723E+04  0.31149249392E+04 0.  0.
        2    1    3    3  502    0 -0.34487785664E+01  0.13206558144E+04  0.12099120736E+04  0.17910976802E+04  0.25500000920E-02 0.  1.
       -2    1    3    3    0  502  0.34487785664E+01 -0.13206558144E+04 -0.48529091619E+03  0.14070006921E+04  0.25500000920E-02 0. -1.
</event>
<event>
 5   0  0.3445959E-06  0.3083329E+04  0.7818609E-02  0.8220328E-01
        2   -1    0    0  501    0  0.00000000000E+00  0.00000000000E+00  0.17628662629E+04  0.17628662629E+04  0.25500000920E-02 0.  1.
       -2   -1    0    0    0  501  0.00000000000E+00  0.00000000000E+00 -0.13482191346E+04  0.13482191346E+04  0.25500000920E-02 0. -1.
    10030    2    1    2    0    0  0.00000000000E+00  0.00000000000E+00  0.41464712832E+03  0.31110853975E+04  0.30833293871E+04 0.  0.
        4    1    3    3  502    0 -0.20435750598E+03 -0.83574516752E+03 -0.10834484556E+04  0.13835079125E+04  0.12699999809E+01 0. -1.
       -4    1    3    3    0  502  0.20435750598E+03  0.83574516752E+03  0.14980955839E+04  0.17275774850E+04  0.12699999809E+01 0.  1.
</event>
<event>
 5   0  0.1109562E-06  0.3143278E+04  0.7818609E-02  0.8203960E-01
        4   -1    0    0  501    0  0.00000000000E+00  0.00000000000E+00  0.22559708072E+04  0.22559711647E+04  0.12699999809E+01 0.  1.
       -4   -1    0    0    0  501  0.00000000000E+00  0.00000000000E+00 -0.10948930208E+04  0.10948937573E+04  0.12699999809E+01 0. -1.
    10030    2    1    2    0    0  0.00000000000E+00  0.00000000000E+00  0.11610777864E+04  0.33508649220E+04  0.31432776046E+04 0.  0.
        5    1    3    3  502    0  0.27121292255E+03 -0.10556937873E+04 -0.62648234460E+03  0.12571984887E+04  0.46999998093E+01 0. -1.
       -5    1    3    3    0  502 -0.27121292255E+03  0.10556937873E+04  0.17875601310E+04  0.20936664333E+04  0.46999998093E+01 0.  1.
</event>
<event>
 5   0  0.3445959E-06  0.3166165E+04  0.7818609E-02  0.8197811E-01
       -2   -1    0    0    0  501  0.00000000000E+00  0.00000000000E+00  0.11289803858E+04  0.11289803858E+04  0.25500000920E-02 0.  1.
        2   -1    0    0  501    0  0.00000000000E+00  0.00000000000E+00 -0.22198347230E+04  0.22198347230E+04  0.25500000920E-02 0. -1.
    10030    2    1    2    0    0  0.00000000000E+00  0.00000000000E+00 -0.10908543372E+04  0.33488151089E+04  0.31661647854E+04 0.  0.
        4    1    3    3  502    0 -0.13509273362E+04  0.60077622310E+03 -0.11439436668E+04  0.18693703388E+04  0.12699999809E+01 0. -1.
       -4    1    3    3    0  502  0.13509273362E+04 -0.60077622310E+03  0.53089329611E+02  0.14794447701E+04  0.12699999809E+01 0.  1.
</event>
<event>
 5   0  0.3445410E-06  0.3080496E+04  0.7818609E-02  0.8221111E-01
        2   -1    0    0  501    0  0.00000000000E+00  0.00000000000E+00  0.17594981358E+04  0.17594981359E+04  0.25500000920E-02 0. -1.
       -2   -1    0    0    0  501  0.00000000000E+00  0.00000000000E+00 -0.13483185266E+04  0.13483185266E+04  0.25500000920E-02 0.  1.
    10030    2    1    2    0    0  0.00000000000E+00  0.00000000000E+00  0.41117960925E+03  0.31078166625E+04  0.30804960212E+04 0.  0.
        1    1    3    3  502    0 -0.11204126098E+04  0.91183268910E+03  0.74474568438E+03  0.16252413370E+04  0.50400001928E-02 0. -1.
       -1    1    3    3    0  502  0.11204126098E+04 -0.91183268910E+03 -0.33356607513E+03  0.14825753254E+04  0.50400001928E-02 0.  1.
</event>
<event>
 5   0  0.3441897E-06  0.3038319E+04  0.7818609E-02  0.8232873E-01
       -2   -1    0    0    0  501  0.00000000000E+00  0.00000000000E+00  0.16163216115E+04  0.16163216115E+04  0.25500000920E-02 0.  1.
        2   -1    0    0  501    0  0.00000000000E+00  0.00000000000E+00 -0.14278381925E+04  0.14278381925E+04  0.25500000920E-02 0. -1.
    10030    2    1    2    0    0  0.00000000000E+00  0.00000000000E+00  0.18848341900E+03  0.30441598039E+04  0.30383190933E+04 0.  0.
        5    1    3    3  502    0 -0.46466397012E+03  0.26694334267E+03 -0.13299873981E+04  0.14338967615E+04  0.46999998093E+01 0. -1.
       -5    1    3    3    0  502  0.46466397012E+03 -0.26694334267E+03  0.15184708171E+04  0.16102630424E+04  0.46999998093E+01 0.  1.
</event>
<event>
 5   0  0.3340899E-06  0.3127247E+04  0.7818609E-02  0.8208300E-01
       -2   -1    0    0    0  501  0.00000000000E+00  0.00000000000E+00  0.20733005811E+04  0.20733005811E+04  0.25500000920E-02 0.  1.
        2   -1    0    0  501    0  0.00000000000E+00  0.00000000000E+00 -0.11792395527E+04  0.11792395527E+04  0.25500000920E-02 0. -1.
    10030    2    1    2    0    0  0.00000000000E+00  0.00000000000E+00  0.89406102835E+03  0.32525401338E+04  0.31272467443E+04 0.  0.
        3    1    3    3  502    0 -0.80250847017E+03  0.70948667553E+03  0.16317586219E+04  0.19519291477E+04  0.10100000352E+00 0.  1.
       -3    1    3    3    0  502  0.80250847017E+03 -0.70948667553E+03 -0.73769759351E+03  0.13006109861E+04  0.10100000352E+00 0. -1.
</event>
<event>
 5   0  0.3445959E-06  0.3118465E+04  0.7818609E-02  0.8210689E-01
        2   -1    0    0  501    0  0.00000000000E+00  0.00000000000E+00  0.22337993550E+04  0.22337993550E+04  0.25500000920E-02 0. -1.
       -2   -1    0    0    0  501  0.00000000000E+00  0.00000000000E+00 -0.10883723565E+04  0.10883723565E+04  0.25500000920E-02 0.  1.
    10030    2    1    2    0    0  0.00000000000E+00  0.00000000000E+00  0.11454269985E+04  0.33221717114E+04  0.31184646657E+04 0.  0.
        4    1    3    3  502    0 -0.15115276337E+04 -0.55831837742E+02  0.97609103980E+03  0.18001634127E+04  0.12699999809E+01 0. -1.
       -4    1    3    3    0  502  0.15115276337E+04  0.55831837742E+02  0.16933595873E+03  0.15220082987E+04  0.12699999809E+01 0.  1.
</event>
<event>
 5   0  0.1211008E-06  0.3080050E+04  0.7818609E-02  0.8221234E-01
       -1   -1    0    0    0  501  0.00000000000E+00  0.00000000000E+00  0.12807392656E+04  0.12807392656E+04  0.50400001928E-02 0. -1.
        1   -1    0    0  501    0  0.00000000000E+00  0.00000000000E+00 -0.18518035273E+04  0.18518035273E+04  0.50400001928E-02 0.  1.
    10030    2    1    2    0    0  0.00000000000E+00  0.00000000000E+00 -0.57106426171E+03  0.31325427930E+04  0.30800503176E+04 0.  0.
        3    1    3    3  502    0 -0.14728505331E+04 -0.32997983697E+03  0.25460335892E+02  0.15095773000E+04  0.10100000352E+00 0. -1.
       -3    1    3    3    0  502  0.14728505331E+04  0.32997983697E+03 -0.59652459760E+03  0.16229654930E+04  0.10100000352E+00 0.  1.
</event>
<event>
 5   0  0.1171915E-06  0.3078137E+04  0.7818609E-02  0.8221764E-01
        1   -1    0    0  501    0  0.00000000000E+00  0.00000000000E+00  0.30152289907E+04  0.30152289907E+04  0.50400001928E-02 0. -1.
       -1   -1    0    0    0  501  0.00000000000E+00  0.00000000000E+00 -0.78558944477E+03  0.78558944478E+03  0.50400001928E-02 0.  1.
    10030    2    1    2    0    0  0.00000000000E+00  0.00000000000E+00  0.22296395460E+04  0.38008184355E+04  0.30781371436E+04 0.  0.
        2    1    3    3  502    0 -0.17844794651E+03 -0.14265111005E+04  0.17933354657E+04  0.22984407067E+04  0.25500000920E-02 0.  1.
       -2    1    3    3    0  502  0.17844794651E+03  0.14265111005E+04  0.43630408023E+03  0.15023777288E+04  0.25500000920E-02 0. -1.
</event>
<event>
 5   0  0.1250276E-06  0.3117814E+04  0.7818609E-02  0.8210866E-01
        1   -1    0    0  501    0  0.00000000000E+00  0.00000000000E+00  0.15412178845E+04  0.15412178845E+04  0.50400001928E-02 0.  1.
       -1   -1    0    0    0  501  0.00000000000E+00  0.00000000000E+00 -0.15767988737E+04  0.15767988737E+04  0.50400001928E-02 0. -1.
    10030    2    1    2    0    0  0.00000000000E+00  0.00000000000E+00 -0.35580989196E+02  0.31180167582E+04  0.31178137369E+04 0.  0.
        5    1    3    3  502    0  0.48588273570E+03 -0.63853864268E+03 -0.13544234112E+04  0.15742612546E+04  0.46999998093E+01 0. -1.
       -5    1    3    3    0  502 -0.48588273570E+03  0.63853864268E+03  0.13188424220E+04  0.15437555036E+04  0.46999998093E+01 0.  1.
</event>
<event>
 5   0  0.3445959E-06  0.3060884E+04  0.7818609E-02  0.8226556E-01
        2   -1    0    0  501    0  0.00000000000E+00  0.00000000000E+00  0.22019839005E+04  0.22019839005E+04  0.25500000920E-02 0.  1.
       -2   -1    0    0    0  501  0.00000000000E+00  0.00000000000E+00 -0.10637008882E+04  0.10637008883E+04  0.25500000920E-02 0. -1.
    10030    2    1    2    0    0  0.00000000000E+00  0.00000000000E+00  0.11382830123E+04  0.32656847888E+04  0.30608836835E+04 0.  0.
        4    1    3    3  502    0 -0.91653087109E+03 -0.51461196048E+03  0.17559532781E+04  0.20465160237E+04  0.12699999809E+01 0. -1.
       -4    1    3    3    0  502  0.91653087109E+03  0.51461196048E+03 -0.61767026582E+03  0.12191687651E+04  0.12699999809E+01 0.  1.
</event>
<event>
 5   0  0.1198763E-06  0.3095870E+04  0.7818609E-02  0.8216872E-01
        1   -1    0    0  501    0  0.00000000000E+00  0.00000000000E+00  0.27448126900E+04  0.27448126900E+04  0.50400001928E-02 0.  1.
       -1   -1    0    0    0  501  0.00000000000E+00  0.00000000000E+00 -0.87295665548E+03  0.87295665549E+03  0.50400001928E-02 0. -1.
    10030    2    1    2    0    0  0.00000000000E+00  0.00000000000E+00  0.18718560345E+04  0.36177693455E+04  0.30958698331E+04 0.  0.
        1    1    3    3  502    0 -0.10103464814E+04  0.11383290218E+04  0.12654373952E+04  0.19793748446E+04  0.50400001928E-02 0.  1.
       -1    1    3    3    0  502  0.10103464814E+04 -0.11383290218E+04  0.60641863927E+03  0.16383945008E+04  0.50400001928E-02 0. -1.
</event>
<event>
 5   0  0.1250276E-06  0.3085022E+04  0.7818609E-02  0.8219861E-01
        1   -1    0    0  501    0  0.00000000000E+00  0.00000000000E+00  0.24167536579E+04  0.24167536579E+04  0.50400001928E-02 0.  1.
       -1   -1    0    0    0  501  0.00000000000E+00  0.00000000000E+00 -0.98451904422E+03  0.98451904423E+03  0.50400001928E-02 0. -1.
    10030    2    1    2    0    0  0.00000000000E+00  0.00000000000E+00  0.14322346137E+04  0.34012727022E+04  0.30850218809E+04 0.  0.
        5    1    3    3  502    0  0.15412666110E+04 -0.42489337691E+02  0.66669081513E+03  0.16798234559E+04  0.46999998093E+01 0.  1.
       -5    1    3    3    0  502 -0.15412666110E+04  0.42489337691E+02  0.76554379859E+03  0.17214492463E+04  0.46999998093E+01 0. -1.
</event>
<event>
 5   0  0.1198763E-06  0.3072295E+04  0.7818609E-02  0.8223383E-01
       -1   -1    0    0    0  501  0.00000000000E+00  0.00000000000E+00  0.19360077225E+04  0.19360077225E+04  0.50400001928E-02 0. -1.
        1   -1    0    0  501    0  0.00000000000E+00  0.00000000000E+00 -0.12188734630E+04  0.12188734630E+04  0.50400001928E-02 0.  1.
    10030    2    1    2    0    0  0.00000000000E+00  0.00000000000E+00  0.71713425949E+03  0.31548811855E+04  0.30722945413E+04 0.  0.
        1    1    3    3  502    0  0.38862989490E+03 -0.11428376729E+04  0.13341783712E+04  0.17992062327E+04  0.50400001928E-02 0. -1.
       -1    1    3    3    0  502 -0.38862989490E+03  0.11428376729E+04 -0.61704411172E+03  0.13556749528E+04  0.50400001928E-02 0.  1.
</event>
<event>
 5   0  0.1171915E-06  0.2855693E+04  0.7818609E-02  0.8286184E-01
       -1   -1    0    0    0  501  0.00000000000E+00  0.00000000000E+00  0.99217249645E+03  0.99217249646E+03  0.50400001928E-02 0. -1.
        1   -1    0    0  501    0  0.00000000000E+00  0.00000000000E+00 -0.20548296602E+04  0.20548296602E+04  0.50400001928E-02 0.  1.
    10030    2    1    2    0    0  0.00000000000E+00  0.00000000000E+00 -0.10626571637E+04  0.30470021566E+04  0.28556928923E+04 0.  0.
        2    1    3    3  502    0  0.13833909219E+03 -0.46448925392E+03 -0.19643819840E+04  0.20232855831E+04  0.25500000920E-02 0.  1.
       -2    1    3    3    0  502 -0.13833909219E+03  0.46448925392E+03  0.90172482031E+03  0.10237165736E+04  0.25500000920E-02 0. -1.
</event>
<event>
 5   0  0.3441897E-06  0.3102046E+04  0.7818609E-02  0.8215177E-01
        2   -1    0    0  501    0  0.00000000000E+00  0.00000000000E+00  0.20244648581E+04  0.20244648581E+04  0.25500000920E-02 0. -1.
       -2   -1    0    0    0  501  0.00000000000E+00  0.00000000000E+00 -0.11883006730E+04  0.11883006730E+04  0.25500000920E-02 0.  1.
    10030    2    1    2    0    0  0.00000000000E+00  0.00000000000E+00  0.83616418509E+03  0.32127655311E+04  0.31020463913E+04 0.  0.
        5    1    3    3  502    0  0.62134698093E+03  0.14612943260E+03 -0.10459578834E+04  0.12253472429E+04  0.46999998093E+01 0.  1.
       -5    1    3    3    0  502 -0.62134698093E+03 -0.14612943260E+03  0.18821220685E+04  0.19874182883E+04  0.46999998093E+01 0. -1.
</event>
<event>
 5   0  0.3445959E-06  0.2629652E+04  0.7818609E-02  0.8358198E-01
       -2   -1    0    0    0  501  0.00000000000E+00  0.00000000000E+00  0.84358492430E+03  0.84358492430E+03  0.25500000920E-02 0.  1.
        2   -1    0    0  501    0  0.00000000000E+00  0.00000000000E+00 -0.20493107822E+04  0.20493107822E+04  0.25500000920E-02 0. -1.
    10030    2    1    2    0    0  0.00000000000E+00  0.00000000000E+00 -0.12057258579E+04  0.28928957065E+04  0.26296522060E+04 0.  0.
        4    1    3    3  502    0 -0.43262139275E+03 -0.73885190539E+03 -0.17006024439E+04  0.19039731333E+04  0.12699999809E+01 0. -1.
       -4    1    3    3    0  502  0.43262139275E+03  0.73885190539E+03  0.49487658593E+03  0.98892257319E+03  0.12699999809E+01 0.  1.
</event>
<event>
 5   0  0.1211008E-06  0.3199542E+04  0.7818609E-02  0.8188938E-01
       -1   -1    0    0    0  501  0.00000000000E+00  0.00000000000E+00  0.31319657825E+04  0.31319657825E+04  0.50400001928E-02 0.  1.
        1   -1    0    0  501    0  0.00000000000E+00  0.00000000000E+00 -0.81714422765E+03  0.81714422767E+03  0.50400001928E-02 0. -1.
    10030    2    1    2    0    0  0.00000000000E+00  0.00000000000E+00  0.23148215548E+04  0.39491100101E+04  0.31995423175E+04 0.  0.
        3    1    3    3  502    0  0.90874638268E+03 -0.21259214449E+02 -0.46742745530E+03  0.10221352055E+04  0.10100000352E+00 0. -1.
       -3    1    3    3    0  502 -0.90874638268E+03  0.21259214449E+02  0.27822490101E+04  0.29269748046E+04  0.10100000352E+00 0.  1.
</event>
<event>
 5   0  0.1171915E-06  0.3092612E+04  0.7818609E-02  0.8217768E-01
       -1   -1    0    0    0  501  0.00000000000E+00  0.00000000000E+00  0.13536160680E+04  0.13536160680E+04  0.50400001928E-02 0.  1.
        1   -1    0    0  501    0  0.00000000000E+00  0.00000000000E+00 -0.17664261324E+04  0.17664261324E+04  0.50400001928E-02 0. -1.
    10030    2    1    2    0    0  0.00000000000E+00  0.00000000000E+00 -0.41281006439E+03  0.31200422004E+04  0.30926123558E+04 0.  0.
        2    1    3    3  502    0 -0.12983210304E+04  0.80832658332E+03 -0.43653661258E+03  0.15904696091E+04  0.25500000920E-02 0. -1.
       -2    1    3    3    0  502  0.12983210304E+04 -0.80832658332E+03  0.23726548186E+02  0.15295725914E+04  0.25500000920E-02 0.  1.
</event>
<event>
 5   0  0.3445959E-06  0.3067846E+04  0.7818609E-02  0.8224618E-01
       -2   -1    0    0    0  501  0.00000000000E+00  0.00000000000E+00  0.12678128965E+04  0.12678128965E+04  0.25500000920E-02 0. -1.
        2   -1    0    0  501    0  0.00000000000E+00  0.00000000000E+00 -0.18558888584E+04  0.18558888584E+04  0.25500000920E-02 0.  1.
    10030    2    1    2    0    0  0.00000000000E+00  0.00000000000E+00 -0.58807596189E+03  0.31237017549E+04  0.30678460386E+04 0.  0.
        4    1    3    3  502    0  0.10963869655E+04 -0.42302854629E+03 -0.12978374130E+04  0.17508286874E+04  0.12699999809E+01 0.  1.
       -4    1    3    3    0  502 -0.10963869655E+04  0.42302854629E+03  0.70976145110E+03  0.13728730675E+04  0.12699999809E+01 0. -1.
</event>
<event>
 5   0  0.1198763E-06  0.3135951E+04  0.7818609E-02  0.8205940E-01
       -1   -1    0    0    0  501  0.00000000000E+00  0.00000000000E+00  0.17922175644E+04  0.17922175644E+04  0.50400001928E-02 0.  1.
        1   -1    0    0  501    0  0.00000000000E+00  0.00000000000E+00 -0.13717908738E+04  0.13717908738E+04  0.50400001928E-02 0. -1.
    10030    2    1    2    0    0  0.00000000000E+00  0.00000000000E+00  0.42042669059E+03  0.31640084381E+04  0.31359513380E+04 0.  0.
        1    1    3    3  502    0 -0.13857601607E+04  0.53467548385E+03 -0.29661414725E+03  0.15146580632E+04  0.50400001928E-02 0. -1.
       -1    1    3    3    0  502  0.13857601607E+04 -0.53467548385E+03  0.71704083784E+03  0.16493503749E+04  0.50400001928E-02 0.  1.
</event>
<event>
 5   0  0.3445410E-06  0.3112686E+04  0.7818609E-02  0.8212265E-01
        2   -1    0    0  501    0  0.00000000000E+00  0.00000000000E+00  0.19922476584E+04  0.19922476584E+04  0.25500000920E-02 0. -1.
       -2   -1    0    0    0  501  0.00000000000E+00  0.00000000000E+00 -0.12158141538E+04  0.12158141538E+04  0.25500000920E-02 0.  1.
    10030    2    1    2    0    0  0.00000000000E+00  0.00000000000E+00  0.77643350460E+03  0.32080618123E+04  0.31126855935E+04 0.  0.
        1    1    3    3  502    0 -0.10198708788E+04 -0.96793723212E+03 -0.29943316560E+03  0.14376019322E+04  0.50400001928E-02 0.  1.
       -1    1    3    3    0  502  0.10198708788E+04  0.96793723212E+03  0.10758666702E+04  0.17704598801E+04  0.50400001928E-02 0. -1.
</event>
<event>
 5   0  0.1198763E-06  0.3105745E+04  0.7818609E-02  0.8214163E-01
        1   -1    0    0  501    0  0.00000000000E+00  0.00000000000E+00  0.23390284858E+04  0.23390284858E+04  0.50400001928E-02 0. -1.
       -1   -1    0    0    0  501  0.00000000000E+00  0.00000000000E+00 -0.10309463179E+04  0.10309463179E+04  0.50400001928E-02 0.  1.
    10030    2    1    2    0    0  0.00000000000E+00  0.00000000000E+00  0.13080821679E+04  0.33699748037E+04  0.31057448736E+04 0.  0.
        1    1    3    3  502    0 -0.64010428203E+03 -0.12531992748E+03  0.21831826053E+04  0.22785356842E+04  0.50400001928E-02 0. -1.
       -1    1    3    3    0  502  0.64010428203E+03  0.12531992748E+03 -0.87510043738E+03  0.10914391195E+04  0.50400001928E-02 0.  1.
</event>
<event>
 5   0  0.1198763E-06  0.3090474E+04  0.7818609E-02  0.8218357E-01
        1   -1    0    0  501    0  0.00000000000E+00  0.00000000000E+00  0.16083349517E+04  0.16083349517E+04  0.50400001928E-02 0. -1.
       -1   -1    0    0    0  501  0.00000000000E+00  0.00000000000E+00 -0.14846149320E+04  0.14846149320E+04  0.50400001928E-02 0.  1.
    10030    2    1    2    0    0  0.00000000000E+00  0.00000000000E+00  0.12372001973E+03  0.30929498838E+04  0.30904744523E+04 0.  0.
        1    1    3    3  502    0 -0.15408203307E+04  0.87113061797E+02 -0.15933249402E+02  0.15433631606E+04  0.50400001928E-02 0.  1.
       -1    1    3    3    0  502  0.15408203307E+04 -0.87113061797E+02  0.13965326913E+03  0.15495867232E+04  0.50400001928E-02 0. -1.
</event>
<event>
 5   0  0.3340899E-06  0.3101055E+04  0.7818609E-02  0.8215449E-01
       -2   -1    0    0    0  501  0.00000000000E+00  0.00000000000E+00  0.12227661135E+04  0.12227661135E+04  0.25500000920E-02 0. -1.
        2   -1    0    0  501    0  0.00000000000E+00  0.00000000000E+00 -0.19661446733E+04  0.19661446733E+04  0.25500000920E-02 0.  1.
    10030    2    1    2    0    0  0.00000000000E+00  0.00000000000E+00 -0.74337855979E+03  0.31889107868E+04  0.31010547114E+04 0.  0.
        3    1    3    3  502    0 -0.10237785314E+04 -0.11584590541E+04 -0.25007980186E+03  0.15661065669E+04  0.10100000352E+00 0. -1.
       -3    1    3    3    0  502  0.10237785314E+04  0.11584590541E+04 -0.49329875793E+03  0.16228042199E+04  0.10100000352E+00 0.  1.
</event>
<event>
 5   0  0.1109562E-06  0.2796628E+04  0.7818609E-02  0.8304316E-01
       -3   -1    0    0    0  501  0.00000000000E+00  0.00000000000E+00  0.12970840827E+04  0.12970840866E+04  0.10100000352E+00 0. -1.
        3   -1    0    0  501    0  0.00000000000E+00  0.00000000000E+00 -0.15074446545E+04  0.15074446578E+04  0.10100000352E+00 0.  1.
    10030    2    1    2    0    0  0.00000000000E+00  0.00000000000E+00 -0.21036057179E+03  0.28045287444E+04  0.27966283107E+04 0.  0.
        2    1    3    3  502    0  0.11140586224E+04  0.18425600462E+02 -0.95244358510E+03  0.14658154385E+04  0.25500000920E-02 0.  1.
       -2    1    3    3    0  502 -0.11140586224E+04 -0.18425600462E+02  0.74208301331E+03  0.13387133060E+04  0.25500000920E-02 0. -1.
</event>
<event>
 5   0  0.3340899E-06  0.3096499E+04  0.7818609E-02  0.8216699E-01
       -2   -1    0    0    0  501  0.00000000000E+00  0.00000000000E+00  0.12970458976E+04  0.12970458976E+04  0.25500000920E-02 0.  1.
        2   -1    0    0  501    0  0.00000000000E+00  0.00000000000E+00 -0.18481045978E+04  0.18481045978E+04  0.25500000920E-02 0. -1.
    10030    2    1    2    0    0  0.00000000000E+00  0.00000000000E+00 -0.55105870020E+03  0.31451504955E+04  0.30964989824E+04 0.  0.
        3    1    3    3  502    0 -0.32605519932E+03  0.87529140673E+02  0.12592051455E+04  0.13036759383E+04  0.10100000352E+00 0.  1.
       -3    1    3    3    0  502  0.32605519932E+03 -0.87529140673E+02 -0.18102638457E+04  0.18414745572E+04  0.10100000352E+00 0. -1.
</event>
<event>
 5   0  0.3445959E-06  0.3082401E+04  0.7818609E-02  0.8220584E-01
       -2   -1    0    0    0  501  0.00000000000E+00  0.00000000000E+00  0.12856125160E+04  0.12856125160E+04  0.25500000920E-02 0.  1.
        2   -1    0    0  501    0  0.00000000000E+00  0.00000000000E+00 -0.18476007734E+04  0.18476007734E+04  0.25500000920E-02 0. -1.
    10030    2    1    2    0    0  0.00000000000E+00  0.00000000000E+00 -0.56198825744E+03  0.31332132894E+04  0.30824008038E+04 0.  0.
        4    1    3    3  502    0  0.56699009287E+03  0.12540002559E+04  0.42420209991E+03  0.14401192456E+04  0.12699999809E+01 0.  1.
       -4    1    3    3    0  502 -0.56699009287E+03 -0.12540002559E+04 -0.98619035735E+03  0.16930940437E+04  0.12699999809E+01 0. -1.
</event>
<event>
 5   0  0.3340899E-06  0.2948882E+04  0.7818609E-02  0.8258480E-01
        2   -1    0    0  501    0  0.00000000000E+00  0.00000000000E+00  0.13524642285E+04  0.13524642285E+04  0.25500000920E-02 0.  1.
       -2   -1    0    0    0  501  0.00000000000E+00  0.00000000000E+00 -0.16074191233E+04  0.16074191233E+04  0.25500000920E-02 0. -1.
    10030    2    1    2    0    0  0.00000000000E+00  0.00000000000E+00 -0.25495489485E+03  0.29598833518E+04  0.29488824083E+04 0.  0.
        3    1    3    3  502    0 -0.96150190640E+03  0.82772823462E+03 -0.88151689046E+03  0.15448922243E+04  0.10100000352E+00 0. -1.
       -3    1    3    3    0  502  0.96150190640E+03 -0.82772823462E+03  0.62656199561E+03  0.14149911275E+04  0.10100000352E+00 0.  1.
</event>
<event>
 5   0  0.3445410E-06  0.3069323E+04  0.7818609E-02  0.8224208E-01
       -2   -1    0    0    0  501  0.00000000000E+00  0.00000000000E+00  0.11569666181E+04  0.11569666181E+04  0.25500000920E-02 0. -1.
        2   -1    0    0  501    0  0.00000000000E+00  0.00000000000E+00 -0.20356554348E+04  0.20356554348E+04  0.25500000920E-02 0.  1.
    10030    2    1    2    0    0  0.00000000000E+00  0.00000000000E+00 -0.87868881672E+03  0.31926220529E+04  0.30693226510E+04 0.  0.
        1    1    3    3  502    0 -0.89520278712E+03  0.38097320100E+03  0.79520239367E+03  0.12565331101E+04  0.50400001928E-02 0. -1.
       -1    1    3    3    0  502  0.89520278712E+03 -0.38097320100E+03 -0.16738912104E+04  0.19360889427E+04  0.50400001928E-02 0.  1.
</event>
<event>
 5   0  0.1171915E-06  0.3107797E+04  0.7818609E-02  0.8213601E-01
       -1   -1    0    0    0  501  0.00000000000E+00  0.00000000000E+00  0.19477194152E+04  0.19477194152E+04  0.50400001928E-02 0.  1.
        1   -1    0    0  501    0  0.00000000000E+00  0.00000000000E+00 -0.12397064110E+04  0.12397064110E+04  0.50400001928E-02 0. -1.
    10030    2    1    2    0    0  0.00000000000E+00  0.00000000000E+00  0.70801300425E+03  0.31874258262E+04  0.31077968054E+04 0.  0.
        2    1    3    3  502    0  0.14401816515E+04  0.61070735904E+02  0.94917455434E+03  0.17259157450E+04  0.25500000920E-02 0.  1.
       -2    1    3    3    0  502 -0.14401816515E+04 -0.61070735904E+02 -0.24116155008E+03  0.14615100812E+04  0.25500000920E-02 0. -1.
</event>
<event>
 5   0  0.1235960E-06  0.3290651E+04  0.7818609E-02  0.8165278E-01
        1   -1    0    0  501    0  0.00000000000E+00  0.00000000000E+00  0.13280927235E+04  0.13280927235E+04  0.50400001928E-02 0.  1.
       -1   -1    0    0    0  501  0.00000000000E+00  0.00000000000E+00 -0.20383335106E+04  0.20383335106E+04  0.50400001928E-02 0. -1.
    10030    2    1    2    0    0  0.00000000000E+00  0.00000000000E+00 -0.71024078709E+03  0.33664262341E+04  0.32906509408E+04 0.  0.
        4    1    3    3  502    0  0.99813684409E+03  0.12210399730E+04  0.12458950947E+03  0.15820050360E+04  0.12699999809E+01 0.  1.
       -4    1    3    3    0  502 -0.99813684409E+03 -0.12210399730E+04 -0.83483029656E+03  0.17844211981E+04  0.12699999809E+01 0. -1.
</event>
<event>
 5   0  0.3441897E-06  0.3085685E+04  0.7818609E-02  0.8219677E-01
       -2   -1    0    0    0  501  0.00000000000E+00  0.00000000000E+00  0.99346463411E+03  0.99346463412E+03  0.25500000920E-02 0. -1.
        2   -1    0    0  501    0  0.00000000000E+00  0.00000000000E+00 -0.23960223942E+04  0.23960223942E+04  0.25500000920E-02 0.  1.
    10030    2    1    2    0    0  0.00000000000E+00  0.00000000000E+00 -0.14025577601E+04  0.33894870283E+04  0.30856853444E+04 0.  0.
        5    1    3    3  502    0 -0.11187222470E+04  0.10313983732E+04 -0.42118497797E+03  0.15788416468E+04  0.46999998093E+01 0.  1.
       -5    1    3    3    0  502  0.11187222470E+04 -0.10313983732E+04 -0.98137278212E+03  0.18106453815E+04  0.46999998093E+01 0. -1.
</event>
<event>
 5   0  0.1198763E-06  0.3081276E+04  0.7818609E-02  0.8220896E-01
       -1   -1    0    0    0  501  0.00000000000E+00  0.00000000000E+00  0.12495039208E+04  0.12495039208E+04  0.50400001928E-02 0.  1.
        1   -1    0    0  501    0  0.00000000000E+00  0.00000000000E+00 -0.18996057035E+04  0.18996057035E+04  0.50400001928E-02 0. -1.
    10030    2    1    2    0    0  0.00000000000E+00  0.00000000000E+00 -0.65010178270E+03  0.31491096243E+04  0.30812755634E+04 0.  0.
        1    1    3    3  502    0  0.48401112401E+03 -0.29435590604E+02  0.11694800696E+04  0.12660240343E+04  0.50400001928E-02 0.  1.
       -1    1    3    3    0  502 -0.48401112401E+03  0.29435590604E+02 -0.18195818523E+04  0.18830855900E+04  0.50400001928E-02 0. -1.
</event>
<event>
 5   0  0.1235960E-06  0.3181930E+04  0.7818609E-02  0.8193606E-01
        1   -1    0    0  501    0  0.00000000000E+00  0.00000000000E+00  0.18514730254E+04  0.18514730254E+04  0.50400001928E-02 0.  1.
       -1   -1    0    0    0  501  0.00000000000E+00  0.00000000000E+00 -0.13671109764E+04  0.13671109764E+04  0.50400001928E-02 0. -1.
    10030    2    1    2    0    0  0.00000000000E+00  0.00000000000E+00  0.48436204907E+03  0.32185840018E+04  0.31819296633E+04 0.  0.
        4    1    3    3  502    0  0.15763033129E+04 -0.24776171162E+02  0.25655611764E+02  0.15767072703E+04  0.12699999809E+01 0.  1.
       -4    1    3    3    0  502 -0.15763033129E+04  0.24776171162E+02  0.45870643730E+03  0.16418767315E+04  0.12699999809E+01 0. -1.
</event>
<event>
 5   0  0.1250276E-06  0.3074165E+04  0.7818609E-02  0.8222864E-01
        1   -1    0    0  501    0  0.00000000000E+00  0.00000000000E+00  0.13947508115E+04  0.13947508115E+04  0.50400001928E-02 0. -1.
       -1   -1    0    0    0  501  0.00000000000E+00  0.00000000000E+00 -0.16939391914E+04  0.16939391914E+04  0.50400001928E-02 0.  1.
    10030    2    1    2    0    0  0.00000000000E+00  0.00000000000E+00 -0.29918837999E+03  0.30886900029E+04  0.30741652928E+04 0.  0.
        5    1    3    3  502    0  0.15046754524E+04  0.24221827104E+03  0.51056826821E+02  0.15249087833E+04  0.46999998093E+01 0. -1.
       -5    1    3    3    0  502 -0.15046754524E+04 -0.24221827104E+03 -0.35024520681E+03  0.15637812196E+04  0.46999998093E+01 0.  1.
</event>
<event>
 5   0  0.3445959E-06  0.2674121E+04  0.7818609E-02  0.8343451E-01
        2   -1    0    0  501    0  0.00000000000E+00  0.00000000000E+00  0.13107228546E+04  0.13107228546E+04  0.25500000920E-02 0. -1.
       -2   -1    0    0    0  501  0.00000000000E+00  0.00000000000E+00 -0.13639277465E+04  0.13639277466E+04  0.25500000920E-02 0.  1.
    10030    2    1    2    0    0  0.00000000000E+00  0.00000000000E+00 -0.53204891996E+02  0.26746506011E+04  0.26741213655E+04 0.  0.
        4    1    3    3  502    0 -0.12593244390E+04  0.20821102034E+03 -0.42477642878E+03  0.13452458879E+04  0.12699999809E+01 0.  1.
       -4    1    3    3    0  502  0.12593244390E+04 -0.20821102034E+03  0.37157153678E+03  0.13294047132E+04  0.12699999809E+01 0. -1.
</event>
<event>
 5   0  0.1198763E-06  0.3117959E+04  0.7818609E-02  0.8210826E-01
       -1   -1    0    0    0  501  0.00000000000E+00  0.00000000000E+00  0.94226663109E+03  0.94226663110E+03  0.50400001928E-02 0.  1.
        1   -1    0    0  501    0  0.00000000000E+00  0.00000000000E+00 -0.25793305628E+04  0.25793305628E+04  0.50400001928E-02 0. -1.
    10030    2    1    2    0    0  0.00000000000E+00  0.00000000000E+00 -0.16370639317E+04  0.35215971939E+04  0.31179590247E+04 0.  0.
        1    1    3    3  502    0 -0.37108936529E+03  0.86238100827E+03 -0.22242435315E+04  0.24142633676E+04  0.50400001928E-02 0. -1.
       -1    1    3    3    0  502  0.37108936529E+03 -0.86238100827E+03  0.58717959981E+03  0.11073338263E+04  0.50400001928E-02 0.  1.
</event>
<event>
 5   0  0.3374790E-06  0.3144893E+04  0.7818609E-02  0.8203524E-01
       -2   -1    0    0    0  501  0.00000000000E+00  0.00000000000E+00  0.10505432754E+04  0.10505432754E+04  0.25500000920E-02 0. -1.
        2   -1    0    0  501    0  0.00000000000E+00  0.00000000000E+00 -0.23536285868E+04  0.23536285868E+04  0.25500000920E-02 0.  1.
    10030    2    1    2    0    0  0.00000000000E+00  0.00000000000E+00 -0.13030853113E+04  0.34041718622E+04  0.31448934384E+04 0.  0.
        2    1    3    3  502    0 -0.11711377167E+03  0.22656030997E+03 -0.23310913994E+04  0.23450015612E+04  0.25500000920E-02 0.  1.
       -2    1    3    3    0  502  0.11711377167E+03 -0.22656030997E+03  0.10280060880E+04  0.10591703011E+04  0.25500000920E-02 0. -1.
</event>
<event>
 5   0  0.3441897E-06  0.3096657E+04  0.7818609E-02  0.8216656E-01
        2   -1    0    0  501    0  0.00000000000E+00  0.00000000000E+00  0.13972849856E+04  0.13972849856E+04  0.25500000920E-02 0. -1.
       -2   -1    0    0    0  501  0.00000000000E+00  0.00000000000E+00 -0.17156997607E+04  0.17156997607E+04  0.25500000920E-02 0.  1.
    10030    2    1    2    0    0  0.00000000000E+00  0.00000000000E+00 -0.31841477508E+03  0.31129847462E+04  0.30966572399E+04 0.  0.
        5    1    3    3  502    0  0.15981110137E+03 -0.48512304792E+03 -0.16285623093E+04  0.17067868188E+04  0.46999998093E+01 0.  1.
       -5    1    3    3    0  502 -0.15981110137E+03  0.48512304792E+03  0.13101475342E+04  0.14061979274E+04  0.46999998093E+01 0. -1.
</event>
<event>
 5   0  0.1211008E-06  0.3097597E+04  0.7818609E-02  0.8216398E-01
       -1   -1    0    0    0  501  0.00000000000E+00  0.00000000000E+00  0.16600156001E+04  0.16600156001E+04  0.50400001928E-02 0. -1.
        1   -1    0    0  501    0  0.00000000000E+00  0.00000000000E+00 -0.14450324843E+04  0.14450324843E+04  0.50400001928E-02 0.  1.
    10030    2    1    2    0    0  0.00000000000E+00  0.00000000000E+00  0.21498311583E+03  0.31050480844E+04  0.30975967889E+04 0.  0.
        3    1    3    3  502    0  0.34331192568E+03 -0.15090288328E+04  0.46144997601E+02  0.15482766121E+04  0.10100000352E+00 0.  1.
       -3    1    3    3    0  502 -0.34331192568E+03  0.15090288328E+04  0.16883811823E+03  0.15567714723E+04  0.10100000352E+00 0. -1.
</event>
<event>
 5   0  0.1250276E-06  0.3101219E+04  0.7818609E-02  0.8215403E-01
        1   -1    0    0  501    0  0.00000000000E+00  0.00000000000E+00  0.17084449909E+04  0.17084449909E+04  0.50400001928E-02 0. -1.
       -1   -1    0    0    0  501  0.00000000000E+00  0.00000000000E+00 -0.14073555668E+04  0.14073555668E+04  0.50400001928E-02 0.  1.
    10030    2    1    2    0    0  0.00000000000E+00  0.00000000000E+00  0.30108942403E+03  0.31158005577E+04  0.31012188368E+04 0.  0.
        5    1    3    3  502    0  0.10519521867E+04 -0.75550257656E+03 -0.70609548386E+03  0.14751204929E+04  0.46999998093E+01 0.  1.
       -5    1    3    3    0  502 -0.10519521867E+04  0.75550257656E+03  0.10071849079E+04  0.16406800648E+04  0.46999998093E+01 0. -1.
</event>
<event>
 5   0  0.3374790E-06  0.3088953E+04  0.7818609E-02  0.8218776E-01
        2   -1    0    0  501    0  0.00000000000E+00  0.00000000000E+00  0.15092398334E+04  0.15092398334E+04  0.25500000920E-02 0.  1.
       -2   -1    0    0    0  501  0.00000000000E+00  0.00000000000E+00 -0.15805357638E+04  0.15805357638E+04  0.25500000920E-02 0. -1.
    10030    2    1    2    0    0  0.00000000000E+00  0.00000000000E+00 -0.71295930330E+02  0.30897755972E+04  0.30889529183E+04 0.  0.
        2    1    3    3  502    0 -0.11703358603E+04 -0.84803424199E+03 -0.58036570610E+03  0.15574570474E+04  0.25500000920E-02 0. -1.
       -2    1    3    3    0  502  0.11703358603E+04  0.84803424199E+03  0.50906977577E+03  0.15323185498E+04  0.25500000920E-02 0.  1.
</event>
<event>
 5   0  0.1235960E-06  0.3113790E+04  0.7818609E-02  0.8211964E-01
        1   -1    0    0  501    0  0.00000000000E+00  0.00000000000E+00  0.16467943742E+04  0.16467943743E+04  0.50400001928E-02 0. -1.
       -1   -1    0    0    0  501  0.00000000000E+00  0.00000000000E+00 -0.14719028109E+04  0.14719028109E+04  0.50400001928E-02 0.  1.
    10030    2    1    2    0    0  0.00000000000E+00  0.00000000000E+00  0.17489156334E+03  0.31186971852E+04  0.31137895038E+04 0.  0.
        4    1    3    3  502    0 -0.12061284843E+04  0.55135755548E+03  0.90431604396E+03  0.16051573739E+04  0.12699999809E+01 0. -1.
       -4    1    3    3    0  502  0.12061284843E+04 -0.55135755548E+03 -0.72942448061E+03  0.15135398113E+04  0.12699999809E+01 0.  1.
</event>
<event>
 5   0  0.3340899E-06  0.3098546E+04  0.7818609E-02  0.8216137E-01
        2   -1    0    0  501    0  0.00000000000E+00  0.00000000000E+00  0.15913746653E+04  0.15913746653E+04  0.25500000920E-02 0. -1.
       -2   -1    0    0    0  501  0.00000000000E+00  0.00000000000E+00 -0.15082847846E+04  0.15082847846E+04  0.25500000920E-02 0.  1.
    10030    2    1    2    0    0  0.00000000000E+00  0.00000000000E+00  0.83089880654E+02  0.30996594499E+04  0.30985455906E+04 0.  0.
        3    1    3    3  502    0 -0.52341090054E+03 -0.34723275119E+03  0.14582872992E+04  0.15878071078E+04  0.10100000352E+00 0. -1.
       -3    1    3    3    0  502  0.52341090054E+03  0.34723275119E+03 -0.13751974185E+04  0.15118523421E+04  0.10100000352E+00 0.  1.
</event>
<event>
 5   0  0.3441897E-06  0.2987560E+04  0.7818609E-02  0.8247292E-01
        2   -1    0    0  501    0  0.00000000000E+00  0.00000000000E+00  0.19314854249E+04  0.19314854249E+04  0.25500000920E-02 0.  1.
       -2   -1    0    0    0  501  0.00000000000E+00  0.00000000000E+00 -0.11552654616E+04  0.11552654617E+04  0.25500000920E-02 0. -1.
    10030    2    1    2    0    0  0.00000000000E+00  0.00000000000E+00  0.77621996321E+03  0.30867508865E+04  0.29875598076E+04 0.  0.
        5    1    3    3  502    0 -0.57118231211E+03  0.86959690205E+03 -0.71934902091E+03  0.12648846230E+04  0.46999998093E+01 0. -1.
       -5    1    3    3    0  502  0.57118231211E+03 -0.86959690205E+03  0.14955689841E+04  0.18218662635E+04  0.46999998093E+01 0.  1.
</event>
<event>
 5   0  0.3445410E-06  0.3109856E+04  0.7818609E-02  0.8213038E-01
        2   -1    0    0  501    0  0.00000000000E+00  0.00000000000E+00  0.18840391644E+04  0.18840391644E+04  0.25500000920E-02 0.  1.
       -2   -1    0    0    0  501  0.00000000000E+00  0.00000000000E+00 -0.12833071526E+04  0.12833071526E+04  0.25500000920E-02 0. -1.
    10030    2    1    2    0    0  0.00000000000E+00  0.00000000000E+00  0.60073201184E+03  0.31673463170E+04  0.31098559036E+04 0.  0.
        1    1    3    3  502    0  0.13227492081E+04 -0.26083022391E+03  0.10893500253E+04  0.17333151331E+04  0.50400001928E-02 0.  1.
       -1    1    3    3    0  502 -0.13227492081E+04  0.26083022391E+03 -0.48861801343E+03  0.14340311838E+04  0.50400001928E-02 0. -1.
</event>
<event>
 5   0  0.1235960E-06  0.3098547E+04  0.7818609E-02  0.8216137E-01
        1   -1    0    0  501    0  0.00000000000E+00  0.00000000000E+00  0.25040101901E+04  0.25040101901E+04  0.50400001928E-02 0.  1.
       -1   -1    0    0    0  501  0.00000000000E+00  0.00000000000E+00 -0.95856177202E+03  0.95856177203E+03  0.50400001928E-02 0. -1.
    10030    2    1    2    0    0  0.00000000000E+00  0.00000000000E+00  0.15454484181E+04  0.34625719621E+04  0.30985470434E+04 0.  0.
        4    1    3    3  502    0 -0.26811572568E+03  0.15081293812E+04  0.51326952199E+03  0.16154836699E+04  0.12699999809E+01 0.  1.
       -4    1    3    3    0  502  0.26811572568E+03 -0.15081293812E+04  0.10321788961E+04  0.18470882922E+04  0.12699999809E+01 0. -1.
</event>
<event>
 5   0  0.3445410E-06  0.3065264E+04  0.7818609E-02  0.8225336E-01
        2   -1    0    0  501    0  0.00000000000E+00  0.00000000000E+00  0.17960272277E+04  0.17960272277E+04  0.25500000920E-02 0.  1.
       -2   -1    0    0    0  501  0.00000000000E+00  0.00000000000E+00 -0.13078651142E+04  0.13078651142E+04  0.25500000920E-02 0. -1.
    10030    2    1    2    0    0  0.00000000000E+00  0.00000000000E+00  0.48816211348E+03  0.31038923419E+04  0.30652643314E+04 0.  0.
        1    1    3    3  502    0  0.12942544554E+04  0.34573316706E+03 -0.50983848425E+03  0.14333740956E+04  0.50400001928E-02 0.  1.
       -1    1    3    3    0  502 -0.12942544554E+04 -0.34573316706E+03  0.99800059773E+03  0.16705182463E+04  0.50400001928E-02 0. -1.
</event>
<event>
 5   0  0.1198763E-06  0.3096257E+04  0.7818609E-02  0.8216766E-01
        1   -1    0    0  501    0  0.00000000000E+00  0.00000000000E+00  0.12808858095E+04  0.12808858095E+04  0.50400001928E-02 0. -1.
       -1   -1    0    0    0  501  0.00000000000E+00  0.00000000000E+00 -0.18711280497E+04  0.18711280498E+04  0.50400001928E-02 0.  1.
    10030    2    1    2    0    0  0.00000000000E+00  0.00000000000E+00 -0.59024224024E+03  0.31520138593E+04  0.30962566862E+04 0.  0.
        1    1    3    3  502    0 -0.12559041595E+04  0.58760562364E+03 -0.99608869290E+03  0.17072692556E+04  0.50400001928E-02 0.  1.
       -1    1    3    3    0  502  0.12559041595E+04 -0.58760562364E+03  0.40584645266E+03  0.14447446037E+04  0.50400001928E-02 0. -1.
</event>
<event>
 5   0  0.3445959E-06  0.3150182E+04  0.7818609E-02  0.8202099E-01
       -2   -1    0    0    0  501  0.00000000000E+00  0.00000000000E+00  0.94464000388E+03  0.94464000388E+03  0.25500000920E-02 0. -1.
        2   -1    0    0  501    0  0.00000000000E+00  0.00000000000E+00 -0.26263035257E+04  0.26263035257E+04  0.25500000920E-02 0.  1.
    10030    2    1    2    0    0  0.00000000000E+00  0.00000000000E+00 -0.16816635218E+04  0.35709435296E+04  0.31501818187E+04 0.  0.
        4    1    3    3  502    0  0.56227494565E+03 -0.12749946573E+04 -0.84927289226E+01  0.13934985576E+04  0.12699999809E+01 0.  1.
       -4    1    3    3    0  502 -0.56227494565E+03  0.12749946573E+04 -0.16731707929E+04  0.21774449719E+04  0.12699999809E+01 0. -1.
</event>
<event>
 5   0  0.1198763E-06  0.3105740E+04  0.7818609E-02  0.8214164E-01
       -1   -1    0    0    0  501  0.00000000000E+00  0.00000000000E+00  0.16671848917E+04  0.16671848917E+04  0.50400001928E-02 0.  1.
        1   -1    0    0  501    0  0.00000000000E+00  0.00000000000E+00 -0.14463937491E+04  0.14463937491E+04  0.50400001928E-02 0. -1.
    10030    2    1    2    0    0  0.00000000000E+00  0.00000000000E+00  0.22079114260E+03  0.31135786408E+04  0.31057403665E+04 0.  0.
        1    1    3    3  502    0 -0.20805565267E+03 -0.11912695014E+04  0.10870182341E+04  0.16260439173E+04  0.50400001928E-02 0.  1.
       -1    1    3    3    0  502  0.20805565267E+03  0.11912695014E+04 -0.86622709149E+03  0.14875347235E+04  0.50400001928E-02 0. -1.
</event>
<event>
 5   0  0.3441897E-06  0.3082912E+04  0.7818609E-02  0.8220443E-01
        2   -1    0    0  501    0  0.00000000000E+00  0.00000000000E+00  0.15870180993E+04  0.15870180993E+04  0.25500000920E-02 0.  1.
       -2   -1    0    0    0  501  0.00000000000E+00  0.00000000000E+00 -0.14972023670E+04  0.14972023670E+04  0.25500000920E-02 0. -1.
    10030    2    1    2    0    0  0.00000000000E+00  0.00000000000E+00  0.89815732236E+02  0.30842204663E+04  0.30829124248E+04 0.  0.
        5    1    3    3  502    0 -0.86600781805E+03 -0.98564280042E+03  0.85432709759E+03  0.15656813694E+04  0.46999998093E+01 0.  1.
       -5    1    3    3    0  502  0.86600781805E+03  0.98564280042E+03 -0.76451136535E+03  0.15185390969E+04  0.46999998093E+01 0. -1.
</event>
<event>
 5   0  0.3441897E-06  0.3073147E+04  0.7818609E-02  0.8223146E-01
        2   -1    0    0  501    0  0.00000000000E+00  0.00000000000E+00  0.15672424557E+04  0.15672424557E+04  0.25500000920E-02 0. -1.
       -2   -1    0    0    0  501  0.00000000000E+00  0.00000000000E+00 -0.15065047194E+04  0.15065047194E+04  0.25500000920E-02 0.  1.
    10030    2    1    2    0    0  0.00000000000E+00  0.00000000000E+00  0.60737736294E+02  0.30737471751E+04  0.30731470228E+04 0.  0.
        5    1    3    3  502    0  0.86096798479E+03 -0.56081850473E+03 -0.11123308532E+04  0.15142936581E+04  0.46999998093E+01 0.  1.
       -5    1    3    3    0  502 -0.86096798479E+03  0.56081850473E+03  0.11730685895E+04  0.15594535170E+04  0.46999998093E+01 0. -1.
</event>
<event>
 5   0  0.3374790E-06  0.3097706E+04  0.7818609E-02  0.8216368E-01
       -2   -1    0    0    0  501  0.00000000000E+00  0.00000000000E+00  0.21167171991E+04  0.21167171991E+04  0.25500000920E-02 0.  1.
        2   -1    0    0  501    0  0.00000000000E+00  0.00000000000E+00 -0.11333333784E+04  0.11333333784E+04  0.25500000920E-02 0. -1.
    10030    2    1    2    0    0  0.00000000000E+00  0.00000000000E+00  0.98338382064E+03  0.32500505775E+04  0.30977064124E+04 0.  0.
        2    1    3    3  502    0 -0.10313522644E+04  0.10600590990E+04  0.91451442878E+01  0.14790187356E+04  0.25500000920E-02 0. -1.
       -2    1    3    3    0  502  0.10313522644E+04 -0.10600590990E+04  0.97423867635E+03  0.17710318419E+04  0.25500000920E-02 0.  1.
</event>
<event>
 5   0  0.3374790E-06  0.3097352E+04  0.7818609E-02  0.8216465E-01
        2   -1    0    0  501    0  0.00000000000E+00  0.00000000000E+00  0.27796635141E+04  0.27796635141E+04  0.25500000920E-02 0. -1.
       -2   -1    0    0    0  501  0.00000000000E+00  0.00000000000E+00 -0.86283717987E+03  0.86283717987E+03  0.25500000920E-02 0.  1.
    10030    2    1    2    0    0  0.00000000000E+00  0.00000000000E+00  0.19168263342E+04  0.36425006940E+04  0.30973517898E+04 0.  0.
        2    1    3    3  502    0 -0.55121024048E+02 -0.20940956980E+03 -0.84494580618E+03  0.87225232049E+03  0.25500000920E-02 0.  1.
       -2    1    3    3    0  502  0.55121024048E+02  0.20940956980E+03  0.27617721404E+04  0.27702483735E+04  0.25500000920E-02 0. -1.
</event>
<event>
 5   0  0.3445410E-06  0.3095289E+04  0.7818609E-02  0.8217032E-01
        2   -1    0    0  501    0  0.00000000000E+00  0.00000000000E+00  0.23733822280E+04  0.23733822280E+04  0.25500000920E-02 0.  1.
       -2   -1    0    0    0  501  0.00000000000E+00  0.00000000000E+00 -0.10091942840E+04  0.10091942840E+04  0.25500000920E-02 0. -1.
    10030    2    1    2    0    0  0.00000000000E+00  0.00000000000E+00  0.13641879440E+04  0.33825765120E+04  0.30952891808E+04 0.  0.
        1    1    3    3  502    0 -0.53026316805E+00  0.11945239420E+04  0.17574566613E+04  0.21249803871E+04  0.50400001928E-02 0.  1.
       -1    1    3    3    0  502  0.53026316805E+00 -0.11945239420E+04 -0.39326871726E+03  0.12575961249E+04  0.50400001928E-02 0. -1.
</event>
<event>
 5   0  0.1250276E-06  0.3127923E+04  0.7818609E-02  0.8208116E-01
       -1   -1    0    0    0  501  0.00000000000E+00  0.00000000000E+00  0.10268878653E+04  0.10268878654E+04  0.50400001928E-02 0.  1.
        1   -1    0    0  501    0  0.00000000000E+00  0.00000000000E+00 -0.23819308193E+04  0.23819308193E+04  0.50400001928E-02 0. -1.
    10030    2    1    2    0    0  0.00000000000E+00  0.00000000000E+00 -0.13550429539E+04  0.34088186846E+04  0.31279231796E+04 0.  0.
        5    1    3    3  502    0  0.10301956320E+04  0.57943030226E+03 -0.17936576790E+04  0.21480857699E+04  0.46999998093E+01 0. -1.
       -5    1    3    3    0  502 -0.10301956320E+04 -0.57943030226E+03  0.43861472509E+03  0.12607329148E+04  0.46999998093E+01 0.  1.
</event>
<event>
 5   0  0.1211008E-06  0.3116277E+04  0.7818609E-02  0.8211285E-01
       -1   -1    0    0    0  501  0.00000000000E+00  0.00000000000E+00  0.13306184069E+04  0.13306184070E+04  0.50400001928E-02 0. -1.
        1   -1    0    0  501    0  0.00000000000E+00  0.00000000000E+00 -0.18245621041E+04  0.18245621041E+04  0.50400001928E-02 0.  1.
    10030    2    1    2    0    0  0.00000000000E+00  0.00000000000E+00 -0.49394369712E+03  0.31551805110E+04  0.31162772151E+04 0.  0.
        3    1    3    3  502    0  0.12918754202E+04 -0.86852803191E+03 -0.17895533370E+03  0.15669422661E+04  0.10100000352E+00 0. -1.
       -3    1    3    3    0  502 -0.12918754202E+04  0.86852803191E+03 -0.31498836343E+03  0.15882382450E+04  0.10100000352E+00 0.  1.
</event>
<event>
 5   0  0.3340899E-06  0.3060921E+04  0.7818609E-02  0.8226545E-01
        2   -1    0    0  501    0  0.00000000000E+00  0.00000000000E+00  0.27200539850E+04  0.27200539850E+04  0.25500000920E-02 0. -1.
       -2   -1    0    0    0  501  0.00000000000E+00  0.00000000000E+00 -0.86112627612E+03  0.86112627613E+03  0.25500000920E-02 0.  1.
    10030    2    1    2    0    0  0.00000000000E+00  0.00000000000E+00  0.18589277089E+04  0.35811802611E+04  0.30609214031E+04 0.  0.
        3    1    3    3  502    0  0.90293259293E+03  0.74982594007E+03  0.20786463228E+04  0.23871105449E+04  0.10100000352E+00 0. -1.
       -3    1    3    3    0  502 -0.90293259293E+03 -0.74982594007E+03 -0.21971861395E+03  0.11940697163E+04  0.10100000352E+00 0.  1.
</event>
<event>
 5   0  0.1198763E-06  0.2513026E+04  0.7818609E-02  0.8398360E-01
       -1   -1    0    0    0  501  0.00000000000E+00  0.00000000000E+00  0.59772929905E+03  0.59772929907E+03  0.50400001928E-02 0. -1.
        1   -1    0    0  501    0  0.00000000000E+00  0.00000000000E+00 -0.26413704055E+04  0.26413704055E+04  0.50400001928E-02 0.  1.
    10030    2    1    2    0    0  0.00000000000E+00  0.00000000000E+00 -0.20436411065E+04  0.32390997046E+04  0.25130256513E+04 0.  0.
        1    1    3    3  502    0 -0.41117689116E+03 -0.56296806277E+03 -0.23692396764E+04  0.24696753065E+04  0.50400001928E-02 0.  1.
       -1    1    3    3    0  502  0.41117689116E+03  0.56296806277E+03  0.32559856994E+03  0.76942439804E+03  0.50400001928E-02 0. -1.
</event>
<event>
 5   0  0.3374790E-06  0.3116650E+04  0.7818609E-02  0.8211183E-01
       -2   -1    0    0    0  501  0.00000000000E+00  0.00000000000E+00  0.93887416928E+03  0.93887416928E+03  0.25500000920E-02 0.  1.
        2   -1    0    0  501    0  0.00000000000E+00  0.00000000000E+00 -0.25864780010E+04  0.25864780010E+04  0.25500000920E-02 0. -1.
    10030    2    1    2    0    0  0.00000000000E+00  0.00000000000E+00 -0.16476038317E+04  0.35253521703E+04  0.31166503715E+04 0.  0.
        2    1    3    3  502    0 -0.14506629858E+04  0.44695097219E+03 -0.42518457469E+03  0.15763788226E+04  0.25500000920E-02 0. -1.
       -2    1    3    3    0  502  0.14506629858E+04 -0.44695097219E+03 -0.12224192570E+04  0.19489733477E+04  0.25500000920E-02 0.  1.
</event>
<event>
 5   0  0.1235960E-06  0.3080749E+04  0.7818609E-02  0.8221041E-01
        1   -1    0    0  501    0  0.00000000000E+00  0.00000000000E+00  0.96841882344E+03  0.96841882345E+03  0.50400001928E-02 0.  1.
       -1   -1    0    0    0  501  0.00000000000E+00  0.00000000000E+00 -0.24501318158E+04  0.24501318158E+04  0.50400001928E-02 0. -1.
    10030    2    1    2    0    0  0.00000000000E+00  0.00000000000E+00 -0.14817129924E+04  0.34185506393E+04  0.30807491105E+04 0.  0.
        4    1    3    3  502    0 -0.11934490178E+04  0.62131632821E+03 -0.15730176196E+04  0.20699614929E+04  0.12699999809E+01 0. -1.
       -4    1    3    3    0  502  0.11934490178E+04 -0.62131632821E+03  0.91304627188E+02  0.13485891464E+04  0.12699999809E+01 0.  1.
</event>
<event>
 5   0  0.1198763E-06  0.3093879E+04  0.7818609E-02  0.8217420E-01
        1   -1    0    0  501    0  0.00000000000E+00  0.00000000000E+00  0.20338977637E+04  0.20338977637E+04  0.50400001928E-02 0. -1.
       -1   -1    0    0    0  501  0.00000000000E+00  0.00000000000E+00 -0.11765692560E+04  0.11765692561E+04  0.50400001928E-02 0.  1.
    10030    2    1    2    0    0  0.00000000000E+00  0.00000000000E+00  0.85732850761E+03  0.32104670197E+04  0.30938788462E+04 0.  0.
        1    1    3    3  502    0 -0.45700808446E+03 -0.14685919748E+04  0.60044021562E+03  0.16511048513E+04  0.50400001928E-02 0. -1.
       -1    1    3    3    0  502  0.45700808446E+03  0.14685919748E+04  0.25688829199E+03  0.15593621684E+04  0.50400001928E-02 0.  1.
</event>
<event>
 5   0  0.1171915E-06  0.3094531E+04  0.7818609E-02  0.8217240E-01
        1   -1    0    0  501    0  0.00000000000E+00  0.00000000000E+00  0.96282457478E+03  0.96282457479E+03  0.50400001928E-02 0.  1.
       -1   -1    0    0    0  501  0.00000000000E+00  0.00000000000E+00 -0.24864666144E+04  0.24864666144E+04  0.50400001928E-02 0. -1.
    10030    2    1    2    0    0  0.00000000000E+00  0.00000000000E+00 -0.15236420397E+04  0.34492911892E+04  0.30945314093E+04 0.  0.
        2    1    3    3  502    0  0.38328626083E+03  0.13336616129E+04  0.10930546014E+01  0.13876465149E+04  0.25500000920E-02 0.  1.
       -2    1    3    3    0  502 -0.38328626083E+03 -0.13336616129E+04 -0.15247350943E+04  0.20616446743E+04  0.25500000920E-02 0. -1.
</event>
<event>
 5   0  0.1250276E-06  0.3122265E+04  0.7818609E-02  0.8209654E-01
       -1   -1    0    0    0  501  0.00000000000E+00  0.00000000000E+00  0.13529516066E+04  0.13529516066E+04  0.50400001928E-02 0.  1.
        1   -1    0    0  501    0  0.00000000000E+00  0.00000000000E+00 -0.18013463691E+04  0.18013463691E+04  0.50400001928E-02 0. -1.
    10030    2    1    2    0    0  0.00000000000E+00  0.00000000000E+00 -0.44839476255E+03  0.31542979757E+04  0.31222648601E+04 0.  0.
        5    1    3    3  502    0  0.74718205699E+03 -0.34257536057E+03  0.11166243164E+04  0.13865463779E+04  0.46999998093E+01 0.  1.
       -5    1    3    3    0  502 -0.74718205699E+03  0.34257536057E+03 -0.15650190790E+04  0.17677515978E+04  0.46999998093E+01 0. -1.
</event>
<event>
 5   0  0.3445959E-06  0.3091837E+04  0.7818609E-02  0.8217982E-01
        2   -1    0    0  501    0  0.00000000000E+00  0.00000000000E+00  0.27309624025E+04  0.27309624025E+04  0.25500000920E-02 0. -1.
       -2   -1    0    0    0  501  0.00000000000E+00  0.00000000000E+00 -0.87509947749E+03  0.87509947749E+03  0.25500000920E-02 0.  1.
    10030    2    1    2    0    0  0.00000000000E+00  0.00000000000E+00  0.18558629250E+04  0.36060618800E+04  0.30918368466E+04 0.  0.
        4    1    3    3  502    0 -0.33646810469E+03 -0.15011295394E+04  0.75004812550E+03  0.17114831238E+04  0.12699999809E+01 0. -1.
       -4    1    3    3    0  502  0.33646810469E+03  0.15011295394E+04  0.11058147995E+04  0.18945787562E+04  0.12699999809E+01 0.  1.
</event>
<event>
 5   0  0.3445959E-06  0.3027624E+04  0.7818609E-02  0.8235886E-01
       -2   -1    0    0    0  501  0.00000000000E+00  0.00000000000E+00  0.15943640887E+04  0.15943640887E+04  0.25500000920E-02 0.  1.
        2   -1    0    0  501    0  0.00000000000E+00  0.00000000000E+00 -0.14373296943E+04  0.14373296943E+04  0.25500000920E-02 0. -1.
    10030    2    1    2    0    0  0.00000000000E+00  0.00000000000E+00  0.15703439442E+03  0.30316937830E+04  0.30276240508E+04 0.  0.
        4    1    3    3  502    0 -0.14121080218E+04  0.53612392632E+03 -0.22352044540E+02  0.15106221091E+04  0.12699999809E+01 0.  1.
       -4    1    3    3    0  502  0.14121080218E+04 -0.53612392632E+03  0.17938643896E+03  0.15210716739E+04  0.12699999809E+01 0. -1.
</event>
<event>
 5   0  0.1171915E-06  0.3119209E+04  0.7818609E-02  0.8210486E-01
       -1   -1    0    0    0  501  0.00000000000E+00  0.00000000000E+00  0.16872133498E+04  0.16872133498E+04  0.50400001928E-02 0. -1.
        1   -1    0    0  501    0  0.00000000000E+00  0.00000000000E+00 -0.14416470957E+04  0.14416470957E+04  0.50400001928E-02 0.  1.
    10030    2    1    2    0    0  0.00000000000E+00  0.00000000000E+00  0.24556625409E+03  0.31288604456E+04  0.31192090188E+04 0.  0.
        2    1    3    3  502    0  0.50717957864E+03 -0.97323126060E+03 -0.98877741117E+03  0.14771902316E+04  0.25500000920E-02 0.  1.
       -2    1    3    3    0  502 -0.50717957864E+03  0.97323126060E+03  0.12343436653E+04  0.16516702139E+04  0.25500000920E-02 0. -1.
</event>
<event>
 5   0  0.3445959E-06  0.3105882E+04  0.7818609E-02  0.8214126E-01
       -2   -1    0    0    0  501  0.00000000000E+00  0.00000000000E+00  0.10893179037E+04  0.10893179037E+04  0.25500000920E-02 0.  1.
        2   -1    0    0  501    0  0.00000000000E+00  0.00000000000E+00 -0.22138853872E+04  0.22138853872E+04  0.25500000920E-02 0. -1.
    10030    2    1    2    0    0  0.00000000000E+00  0.00000000000E+00 -0.11245674834E+04  0.33032032909E+04  0.31058815103E+04 0.  0.
        4    1    3    3  502    0 -0.13320514024E+03  0.48843839255E+03 -0.21236509704E+04  0.21831653006E+04  0.12699999809E+01 0. -1.
       -4    1    3    3    0  502  0.13320514024E+03 -0.48843839255E+03  0.99908348703E+03  0.11200379903E+04  0.12699999809E+01 0.  1.
</event>
<event>
 5   0  0.3445410E-06  0.3114087E+04  0.7818609E-02  0.8211883E-01
        2   -1    0    0  501    0  0.00000000000E+00  0.00000000000E+00  0.96413714902E+03  0.96413714902E+03  0.25500000920E-02 0.  1.
       -2   -1    0    0    0  501  0.00000000000E+00  0.00000000000E+00 -0.25145633202E+04  0.25145633202E+04  0.25500000920E-02 0. -1.
    10030    2    1    2    0    0  0.00000000000E+00  0.00000000000E+00 -0.15504261712E+04  0.34787004692E+04  0.31140866466E+04 0.  0.
        1    1    3    3  502    0  0.32900421876E+03 -0.55558422746E+03 -0.23579563547E+04  0.24447649745E+04  0.50400001928E-02 0. -1.
       -1    1    3    3    0  502 -0.32900421876E+03  0.55558422746E+03  0.80753018357E+03  0.10339354947E+04  0.50400001928E-02 0.  1.
</event>
<event>
 5   0  0.3445959E-06  0.3095144E+04  0.7818609E-02  0.8217072E-01
       -2   -1    0    0    0  501  0.00000000000E+00  0.00000000000E+00  0.18809585616E+04  0.18809585616E+04  0.25500000920E-02 0. -1.
        2   -1    0    0  501    0  0.00000000000E+00  0.00000000000E+00 -0.12732757660E+04  0.12732757660E+04  0.25500000920E-02 0.  1.
    10030    2    1    2    0    0  0.00000000000E+00  0.00000000000E+00  0.60768279556E+03  0.31542343276E+04  0.30951439084E+04 0.  0.
        4    1    3    3  502    0  0.22986940158E+03 -0.70914920052E+03  0.16859204266E+04  0.18433832559E+04  0.12699999809E+01 0. -1.
       -4    1    3    3    0  502 -0.22986940158E+03  0.70914920052E+03 -0.10782376310E+04  0.13108510717E+04  0.12699999809E+01 0.  1.
</event>
<event>
 5   0  0.1250276E-06  0.3023735E+04  0.7818609E-02  0.8236986E-01
        1   -1    0    0  501    0  0.00000000000E+00  0.00000000000E+00  0.14418154544E+04  0.14418154544E+04  0.50400001928E-02 0. -1.
       -1   -1    0    0    0  501  0.00000000000E+00  0.00000000000E+00 -0.15853227571E+04  0.15853227571E+04  0.50400001928E-02 0.  1.
    10030    2    1    2    0    0  0.00000000000E+00  0.00000000000E+00 -0.14350730265E+03  0.30271382115E+04  0.30237346784E+04 0.  0.
        5    1    3    3  502    0  0.12631060756E+04  0.49391106562E+03 -0.74058922444E+03  0.15452765411E+04  0.46999998093E+01 0. -1.
       -5    1    3    3    0  502 -0.12631060756E+04 -0.49391106562E+03  0.59708192179E+03  0.14818616704E+04  0.46999998093E+01 0.  1.
</event>
<event>
 5   0  0.3441897E-06  0.3106965E+04  0.7818609E-02  0.8213829E-01
       -2   -1    0    0    0  501  0.00000000000E+00  0.00000000000E+00  0.16599238966E+04  0.16599238966E+04  0.25500000920E-02 0.  1.
        2   -1    0    0  501    0  0.00000000000E+00  0.00000000000E+00 -0.14538666406E+04  0.14538666406E+04  0.25500000920E-02 0. -1.
    10030    2    1    2    0    0  0.00000000000E+00  0.00000000000E+00  0.20605725596E+03  0.31137905372E+04  0.31069650653E+04 0.  0.
        5    1    3    3  502    0 -0.32512685135E+03 -0.14127596485E+04 -0.45648862194E+03  0.15198688252E+04  0.46999998093E+01 0. -1.
       -5    1    3    3    0  502  0.32512685135E+03  0.14127596485E+04  0.66254587791E+03  0.15939217120E+04  0.46999998093E+01 0.  1.
</event>
<event>
 5   0  0.1250276E-06  0.3098195E+04  0.7818609E-02  0.8216233E-01
       -1   -1    0    0    0  501  0.00000000000E+00  0.00000000000E+00  0.18635398608E+04  0.18635398608E+04  0.50400001928E-02 0.  1.
        1   -1    0    0  501    0  0.00000000000E+00  0.00000000000E+00 -0.12877123158E+04  0.12877123158E+04  0.50400001928E-02 0. -1.
    10030    2    1    2    0    0  0.00000000000E+00  0.00000000000E+00  0.57582754503E+03  0.31512521766E+04  0.30981951067E+04 0.  0.
        5    1    3    3  502    0 -0.76679048927E+02  0.11639513992E+04  0.13246924498E+04  0.17650764042E+04  0.46999998093E+01 0.  1.
       -5    1    3    3    0  502  0.76679048927E+02 -0.11639513992E+04 -0.74886490473E+03  0.13861757724E+04  0.46999998093E+01 0. -1.
</event>
<event>
 5   0  0.1211008E-06  0.3107668E+04  0.7818609E-02  0.8213637E-01
       -1   -1    0    0    0  501  0.00000000000E+00  0.00000000000E+00  0.36297725924E+04  0.36297725924E+04  0.50400001928E-02 0. -1.
        1   -1    0    0  501    0  0.00000000000E+00  0.00000000000E+00 -0.66516567033E+03  0.66516567035E+03  0.50400001928E-02 0.  1.
    10030    2    1    2    0    0  0.00000000000E+00  0.00000000000E+00  0.29646069221E+04  0.42949382628E+04  0.31076680129E+04 0.  0.
        3    1    3    3  502    0 -0.11075757609E+04  0.90032807731E+03  0.63362698452E+03  0.15616650981E+04  0.10100000352E+00 0.  1.
       -3    1    3    3    0  502  0.11075757609E+04 -0.90032807731E+03  0.23309799376E+04  0.27332731647E+04  0.10100000352E+00 0. -1.
</event>
<event>
 5   0  0.3340899E-06  0.3075466E+04  0.7818609E-02  0.8222503E-01
       -2   -1    0    0    0  501  0.00000000000E+00  0.00000000000E+00  0.13460105319E+04  0.13460105319E+04  0.25500000920E-02 0.  1.
        2   -1    0    0  501    0  0.00000000000E+00  0.00000000000E+00 -0.17567639025E+04  0.17567639025E+04  0.25500000920E-02 0. -1.
    10030    2    1    2    0    0  0.00000000000E+00  0.00000000000E+00 -0.41075337056E+03  0.31027744344E+04  0.30754659581E+04 0.  0.
        3    1    3    3  502    0 -0.12991588049E+04  0.73895909832E+03 -0.57017912112E+03  0.15996807149E+04  0.10100000352E+00 0. -1.
       -3    1    3    3    0  502  0.12991588049E+04 -0.73895909832E+03  0.15942575056E+03  0.15030937195E+04  0.10100000352E+00 0.  1.
</event>
<event>
 5   0  0.1198763E-06  0.3140645E+04  0.7818609E-02  0.8204671E-01
        1   -1    0    0  501    0  0.00000000000E+00  0.00000000000E+00  0.16090978598E+04  0.16090978598E+04  0.50400001928E-02 0. -1.
       -1   -1    0    0    0  501  0.00000000000E+00  0.00000000000E+00 -0.15324818531E+04  0.15324818532E+04  0.50400001928E-02 0.  1.
    10030    2    1    2    0    0  0.00000000000E+00  0.00000000000E+00  0.76616006674E+02  0.31415797130E+04  0.31406453287E+04 0.  0.
        1    1    3    3  502    0  0.51076412016E+02  0.57694622138E+01 -0.15316401214E+04  0.15325023811E+04  0.50400001928E-02 0.  1.
       -1    1    3    3    0  502 -0.51076412016E+02 -0.57694622138E+01  0.16082561281E+04  0.16090773319E+04  0.50400001928E-02 0. -1.
</event>
<event>
 5   0  0.1235960E-06  0.3085415E+04  0.7818609E-02  0.8219752E-01
       -1   -1    0    0    0  501  0.00000000000E+00  0.00000000000E+00  0.11878146318E+04  0.11878146318E+04  0.50400001928E-02 0.  1.
        1   -1    0    0  501    0  0.00000000000E+00  0.00000000000E+00 -0.20036347672E+04  0.20036347672E+04  0.50400001928E-02 0. -1.
    10030    2    1    2    0    0  0.00000000000E+00  0.00000000000E+00 -0.81582013536E+03  0.31914493990E+04  0.30854151703E+04 0.  0.
        4    1    3    3  502    0 -0.15083956863E+04 -0.31701236460E+03 -0.34094977250E+03  0.15786078506E+04  0.12699999809E+01 0.  1.
       -4    1    3    3    0  502  0.15083956863E+04  0.31701236460E+03 -0.47487036286E+03  0.16128415484E+04  0.12699999809E+01 0. -1.
</event>
<event>
 5   0  0.1250276E-06  0.3114398E+04  0.7818609E-02  0.8211797E-01
        1   -1    0    0  501    0  0.00000000000E+00  0.00000000000E+00  0.12839582821E+04  0.12839582821E+04  0.50400001928E-02 0. -1.
       -1   -1    0    0    0  501  0.00000000000E+00  0.00000000000E+00 -0.18885889844E+04  0.18885889844E+04  0.50400001928E-02 0.  1.
    10030    2    1    2    0    0  0.00000000000E+00  0.00000000000E+00 -0.60463070229E+03  0.31725472665E+04  0.31143984767E+04 0.  0.
        5    1    3    3  502    0  0.15111972696E+04 -0.30083746945E+03 -0.53152085924E+03  0.16299560990E+04  0.46999998093E+01 0.  1.
       -5    1    3    3    0  502 -0.15111972696E+04  0.30083746945E+03 -0.73109843052E+02  0.15425911675E+04  0.46999998093E+01 0. -1.
</event>
<event>
 5   0  0.1198763E-06  0.2688112E+04  0.7818609E-02  0.8338873E-01
       -1   -1    0    0    0  501  0.00000000000E+00  0.00000000000E+00  0.13713854827E+04  0.13713854827E+04  0.50400001928E-02 0.  1.
        1   -1    0    0  501    0  0.00000000000E+00  0.00000000000E+00 -0.13172708692E+04  0.13172708692E+04  0.50400001928E-02 0. -1.
    10030    2    1    2    0    0  0.00000000000E+00  0.00000000000E+00  0.54114613496E+02  0.26886563519E+04  0.26881117141E+04 0.  0.
        1    1    3    3  502    0 -0.47481271568E+03 -0.82330800915E+03 -0.92350515126E+03  0.13251961958E+04  0.50400001928E-02 0. -1.
       -1    1    3    3    0  502  0.47481271568E+03  0.82330800915E+03  0.97761976476E+03  0.13634601561E+04  0.50400001928E-02 0.  1.
</event>
<event>
 5   0  0.1198763E-06  0.3101364E+04  0.7818609E-02  0.8215364E-01
        1   -1    0    0  501    0  0.00000000000E+00  0.00000000000E+00  0.24022782359E+04  0.24022782359E+04  0.50400001928E-02 0. -1.
       -1   -1    0    0    0  501  0.00000000000E+00  0.00000000000E+00 -0.10009728690E+04  0.10009728691E+04  0.50400001928E-02 0.  1.
    10030    2    1    2    0    0  0.00000000000E+00  0.00000000000E+00  0.14013053669E+04  0.34032511050E+04  0.31013644340E+04 0.  0.
        1    1    3    3  502    0  0.23310468891E+02 -0.80151712767E+03  0.21571176791E+04  0.23013321719E+04  0.50400001928E-02 0. -1.
       -1    1    3    3    0  502 -0.23310468891E+02  0.80151712767E+03 -0.75581231218E+03  0.11019189331E+04  0.50400001928E-02 0.  1.
</event>
<event>
 5   0  0.3445959E-06  0.3047492E+04  0.7818609E-02  0.8230298E-01
        2   -1    0    0  501    0  0.00000000000E+00  0.00000000000E+00  0.29040254580E+04  0.29040254580E+04  0.25500000920E-02 0. -1.
       -2   -1    0    0    0  501  0.00000000000E+00  0.00000000000E+00 -0.79951173652E+03  0.79951173653E+03  0.25500000920E-02 0.  1.
    10030    2    1    2    0    0  0.00000000000E+00  0.00000000000E+00  0.21045137215E+04  0.37035371945E+04  0.30474923704E+04 0.  0.
        4    1    3    3  502    0  0.32034450186E+03  0.68188302696E+03 -0.55733433568E+03  0.93712765243E+03  0.12699999809E+01 0.  1.
       -4    1    3    3    0  502 -0.32034450186E+03 -0.68188302696E+03  0.26618480572E+04  0.27664095421E+04  0.12699999809E+01 0. -1.
</event>
<event>
 5   0  0.1235960E-06  0.3103227E+04  0.7818609E-02  0.8214853E-01
       -1   -1    0    0    0  501  0.00000000000E+00  0.00000000000E+00  0.12828635533E+04  0.12828635533E+04  0.50400001928E-02 0. -1.
        1   -1    0    0  501    0  0.00000000000E+00  0.00000000000E+00 -0.18766648356E+04  0.18766648356E+04  0.50400001928E-02 0.  1.
    10030    2    1    2    0    0  0.00000000000E+00  0.00000000000E+00 -0.59380128226E+03  0.31595283889E+04  0.31032273003E+04 0.  0.
        4    1    3    3  502    0 -0.19243815416E+03  0.15382360487E+04 -0.36367032798E+03  0.15923128792E+04  0.12699999809E+01 0.  1.
       -4    1    3    3    0  502  0.19243815416E+03 -0.15382360487E+04 -0.23013095429E+03  0.15672155097E+04  0.12699999809E+01 0. -1.
</event>
<event>
 5   0  0.1198763E-06  0.3097280E+04  0.7818609E-02  0.8216485E-01
       -1   -1    0    0    0  501  0.00000000000E+00  0.00000000000E+00  0.13219651059E+04  0.13219651059E+04  0.50400001928E-02 0. -1.
        1   -1    0    0  501    0  0.00000000000E+00  0.00000000000E+00 -0.18141827350E+04  0.18141827350E+04  0.50400001928E-02 0.  1.
    10030    2    1    2    0    0  0.00000000000E+00  0.00000000000E+00 -0.49221762908E+03  0.31361478409E+04  0.30972802724E+04 0.  0.
        1    1    3    3  502    0  0.58410644302E+02  0.13264414447E+04 -0.10532491397E+04  0.16947543952E+04  0.50400001928E-02 0.  1.
       -1    1    3    3    0  502 -0.58410644302E+02 -0.13264414447E+04  0.56103151065E+03  0.14413934458E+04  0.50400001928E-02 0. -1.
</event>
<event>
 5   0  0.1211008E-06  0.3106836E+04  0.7818609E-02  0.8213864E-01
       -1   -1    0    0    0  501  0.00000000000E+00  0.00000000000E+00  0.14000333033E+04  0.14000333033E+04  0.50400001928E-02 0.  1.
        1   -1    0    0  501    0  0.00000000000E+00  0.00000000000E+00 -0.17236071390E+04  0.17236071390E+04  0.50400001928E-02 0. -1.
    10030    2    1    2    0    0  0.00000000000E+00  0.00000000000E+00 -0.32357383573E+03  0.31236404423E+04  0.31068359444E+04 0.  0.
        3    1    3    3  502    0 -0.11892343998E+04  0.94863858047E+03  0.15441980432E+03  0.15290647796E+04  0.10100000352E+00 0.  1.
       -3    1    3    3    0  502  0.11892343998E+04 -0.94863858047E+03 -0.47799364005E+03  0.15945756627E+04  0.10100000352E+00 0. -1.
</event>
<event>
 5   0  0.1211008E-06  0.3140107E+04  0.7818609E-02  0.8204816E-01
       -1   -1    0    0    0  501  0.00000000000E+00  0.00000000000E+00  0.98367228518E+03  0.98367228519E+03  0.50400001928E-02 0.  1.
        1   -1    0    0  501    0  0.00000000000E+00  0.00000000000E+00 -0.25059847588E+04  0.25059847588E+04  0.50400001928E-02 0. -1.
    10030    2    1    2    0    0  0.00000000000E+00  0.00000000000E+00 -0.15223124736E+04  0.34896570440E+04  0.31401068481E+04 0.  0.
        3    1    3    3  502    0  0.20792101211E+03  0.14585591376E+04 -0.15812739771E+03  0.14817659023E+04  0.10100000352E+00 0.  1.
       -3    1    3    3    0  502 -0.20792101211E+03 -0.14585591376E+04 -0.13641850759E+04  0.20078911416E+04  0.10100000352E+00 0. -1.
</event>
<event>
 5   0  0.3445959E-06  0.3098209E+04  0.7818609E-02  0.8216230E-01
       -2   -1    0    0    0  501  0.00000000000E+00  0.00000000000E+00  0.13078224217E+04  0.13078224217E+04  0.25500000920E-02 0.  1.
        2   -1    0    0  501    0  0.00000000000E+00  0.00000000000E+00 -0.18349005699E+04  0.18349005699E+04  0.25500000920E-02 0. -1.
    10030    2    1    2    0    0  0.00000000000E+00  0.00000000000E+00 -0.52707814820E+03  0.31427229916E+04  0.30982085837E+04 0.  0.
        4    1    3    3  502    0  0.87731012992E+03  0.83764248221E+03  0.71384232336E+03  0.14074411063E+04  0.12699999809E+01 0.  1.
       -4    1    3    3    0  502 -0.87731012992E+03 -0.83764248221E+03 -0.12409204716E+04  0.17352818854E+04  0.12699999809E+01 0. -1.
</event>
<event>
 5   0  0.1171915E-06  0.3089943E+04  0.7818609E-02  0.8218503E-01
        1   -1    0    0  501    0  0.00000000000E+00  0.00000000000E+00  0.33536901995E+04  0.33536901995E+04  0.50400001928E-02 0. -1.
       -1   -1    0    0    0  501  0.00000000000E+00  0.00000000000E+00 -0.71173460727E+03  0.71173460729E+03  0.50400001928E-02 0.  1.
    10030    2    1    2    0    0  0.00000000000E+00  0.00000000000E+00  0.26419555923E+04  0.40654248068E+04  0.30899432856E+04 0.  0.
        2    1    3    3  502    0 -0.23981825402E+03  0.66177545736E+03 -0.48851163920E+03  0.85679820994E+03  0.25500000920E-02 0.  1.
       -2    1    3    3    0  502  0.23981825402E+03 -0.66177545736E+03  0.31304672315E+04  0.32086265969E+04  0.25500000920E-02 0. -1.
</event>
<event>
 5   0  0.1235960E-06  0.3016919E+04  0.7818609E-02  0.8238916E-01
       -1   -1    0    0    0  501  0.00000000000E+00  0.00000000000E+00  0.17298020478E+04  0.17298020478E+04  0.50400001928E-02 0. -1.
        1   -1    0    0  501    0  0.00000000000E+00  0.00000000000E+00 -0.13154391739E+04  0.13154391739E+04  0.50400001928E-02 0.  1.
    10030    2    1    2    0    0  0.00000000000E+00  0.00000000000E+00  0.41436287385E+03  0.30452412217E+04  0.30169185450E+04 0.  0.
        4    1    3    3  502    0  0.33532943990E+03 -0.16584844670E+03 -0.12678712030E+04  0.13219116993E+04  0.12699999809E+01 0.  1.
       -4    1    3    3    0  502 -0.33532943990E+03  0.16584844670E+03  0.16822340768E+04  0.17233295224E+04  0.12699999809E+01 0. -1.
</event>
<event>
 5   0  0.3445959E-06  0.3110091E+04  0.7818609E-02  0.8212974E-01
        2   -1    0    0  501    0  0.00000000000E+00  0.00000000000E+00  0.26608196061E+04  0.26608196061E+04  0.25500000920E-02 0. -1.
       -2   -1    0    0    0  501  0.00000000000E+00  0.00000000000E+00 -0.90880512062E+03  0.90880512062E+03  0.25500000920E-02 0.  1.
    10030    2    1    2    0    0  0.00000000000E+00  0.00000000000E+00  0.17520144855E+04  0.35696247268E+04  0.31100909846E+04 0.  0.
        4    1    3    3  502    0 -0.14032819281E+04 -0.25646362435E+02  0.10751903128E+03  0.14076291630E+04  0.12699999809E+01 0.  1.
       -4    1    3    3    0  502  0.14032819281E+04  0.25646362435E+02  0.16444954542E+04  0.21619955637E+04  0.12699999809E+01 0. -1.
</event>
<event>
 5   0  0.3441897E-06  0.3107118E+04  0.7818609E-02  0.8213787E-01
       -2   -1    0    0    0  501  0.00000000000E+00  0.00000000000E+00  0.21686411077E+04  0.21686411077E+04  0.25500000920E-02 0. -1.
        2   -1    0    0  501    0  0.00000000000E+00  0.00000000000E+00 -0.11129299772E+04  0.11129299772E+04  0.25500000920E-02 0.  1.
    10030    2    1    2    0    0  0.00000000000E+00  0.00000000000E+00  0.10557111305E+04  0.32815710849E+04  0.31071180850E+04 0.  0.
        5    1    3    3  502    0  0.62349931026E+03  0.32785222020E+03 -0.93454858432E+03  0.11703168864E+04  0.46999998093E+01 0.  1.
       -5    1    3    3    0  502 -0.62349931026E+03 -0.32785222020E+03  0.19902597148E+04  0.21112541985E+04  0.46999998093E+01 0. -1.
</event>
<event>
 5   0  0.1235960E-06  0.3127126E+04  0.7818609E-02  0.8208333E-01
       -1   -1    0    0    0  501  0.00000000000E+00  0.00000000000E+00  0.12018625435E+04  0.12018625435E+04  0.50400001928E-02 0. -1.
        1   -1    0    0  501    0  0.00000000000E+00  0.00000000000E+00 -0.20341176614E+04  0.20341176614E+04  0.50400001928E-02 0.  1.
    10030    2    1    2    0    0  0.00000000000E+00  0.00000000000E+00 -0.83225511786E+03  0.32359802049E+04  0.31271263654E+04 0.  0.
        4    1    3    3  502    0  0.77894149733E+03  0.61939289702E+03  0.83180761396E+03  0.12970362126E+04  0.12699999809E+01 0. -1.
       -4    1    3    3    0  502 -0.77894149733E+03 -0.61939289702E+03 -0.16640627318E+04  0.19389439924E+04  0.12699999809E+01 0.  1.
</event>
<event>
 5   0  0.3445959E-06  0.3098403E+04  0.7818609E-02  0.8216176E-01
       -2   -1    0    0    0  501  0.00000000000E+00  0.00000000000E+00  0.14448949772E+04  0.14448949772E+04  0.25500000920E-02 0. -1.
        2   -1    0    0  501    0  0.00000000000E+00  0.00000000000E+00 -0.16610377000E+04  0.16610377000E+04  0.25500000920E-02 0.  1.
    10030    2    1    2    0    0  0.00000000000E+00  0.00000000000E+00 -0.21614272275E+03  0.31059326772E+04  0.30984028335E+04 0.  0.
        4    1    3    3  502    0  0.87956075983E+03 -0.10222613461E+04 -0.87240586251E+03  0.16061565901E+04  0.12699999809E+01 0. -1.
       -4    1    3    3    0  502 -0.87956075983E+03  0.10222613461E+04  0.65626313976E+03  0.14997760871E+04  0.12699999809E+01 0.  1.
</event>
<event>
 5   0  0.3340899E-06  0.3121734E+04  0.7818609E-02  0.8209798E-01
        2   -1    0    0  501    0  0.00000000000E+00  0.00000000000E+00  0.15728212749E+04  0.15728212749E+04  0.25500000920E-02 0. -1.
       -2   -1    0    0    0  501  0.00000000000E+00  0.00000000000E+00 -0.15490037397E+04  0.15490037397E+04  0.25500000920E-02 0.  1.
    10030    2    1    2    0    0  0.00000000000E+00  0.00000000000E+00  0.23817535222E+02  0.31218250146E+04  0.31217341570E+04 0.  0.
        3    1    3    3  502    0 -0.91051676795E+03 -0.46121009600E+03  0.11928540105E+04  0.15699223669E+04  0.10100000352E+00 0. -1.
       -3    1    3    3    0  502  0.91051676795E+03  0.46121009600E+03 -0.11690364753E+04  0.15519026478E+04  0.10100000352E+00 0.  1.
</event>
<event>
 5   0  0.1250276E-06  0.3135684E+04  0.7818609E-02  0.8206012E-01
       -1   -1    0    0    0  501  0.00000000000E+00  0.00000000000E+00  0.15266736707E+04  0.15266736707E+04  0.50400001928E-02 0.  1.
        1   -1    0    0  501    0  0.00000000000E+00  0.00000000000E+00 -0.16101204754E+04  0.16101204754E+04  0.50400001928E-02 0. -1.
    10030    2    1    2    0    0  0.00000000000E+00  0.00000000000E+00 -0.83446804679E+02  0.31367941461E+04  0.31356839997E+04 0.  0.
        5    1    3    3  502    0  0.11751586738E+04 -0.76007824954E+03  0.66520181241E+03  0.15495910413E+04  0.46999998093E+01 0.  1.
       -5    1    3    3    0  502 -0.11751586738E+04  0.76007824954E+03 -0.74864861709E+03  0.15872031048E+04  0.46999998093E+01 0. -1.
</event>
<event>
 5   0  0.3374790E-06  0.3268374E+04  0.7818609E-02  0.8170990E-01
       -2   -1    0    0    0  501  0.00000000000E+00  0.00000000000E+00  0.88462284335E+03  0.88462284336E+03  0.25500000920E-02 0. -1.
        2   -1    0    0  501    0  0.00000000000E+00  0.00000000000E+00 -0.30188765536E+04  0.30188765536E+04  0.25500000920E-02 0.  1.
    10030    2    1    2    0    0  0.00000000000E+00  0.00000000000E+00 -0.21342537103E+04  0.39034993970E+04  0.32683740059E+04 0.  0.
        2    1    3    3  502    0  0.10832677786E+04  0.29483590330E+03 -0.24853941379E+04  0.27271929361E+04  0.25500000920E-02 0.  1.
       -2    1    3    3    0  502 -0.10832677786E+04 -0.29483590330E+03  0.35114042763E+03  0.11763064609E+04  0.25500000920E-02 0. -1.
</event>
<event>
 5   0  0.1109562E-06  0.3085093E+04  0.7818609E-02  0.8219841E-01
       -3   -1    0    0    0  501  0.00000000000E+00  0.00000000000E+00  0.21261141154E+04  0.21261141178E+04  0.10100000352E+00 0.  1.
        3   -1    0    0  501    0  0.00000000000E+00  0.00000000000E+00 -0.11191544760E+04  0.11191544806E+04  0.10100000352E+00 0. -1.
    10030    2    1    2    0    0  0.00000000000E+00  0.00000000000E+00  0.10069596394E+04  0.32452685984E+04  0.30850932823E+04 0.  0.
        4    1    3    3  502    0 -0.55477957327E+03 -0.13440328248E+04  0.10452374849E+04  0.17907338221E+04  0.12699999809E+01 0.  1.
       -4    1    3    3    0  502  0.55477957327E+03  0.13440328248E+04 -0.38277845548E+02  0.14545347762E+04  0.12699999809E+01 0. -1.
</event>
<event>
 5   0  0.3374790E-06  0.3132309E+04  0.7818609E-02  0.8206927E-01
        2   -1    0    0  501    0  0.00000000000E+00  0.00000000000E+00  0.24931969584E+04  0.24931969584E+04  0.25500000920E-02 0.  1.
       -2   -1    0    0    0  501  0.00000000000E+00  0.00000000000E+00 -0.98381311171E+03  0.98381311171E+03  0.25500000920E-02 0. -1.
    10030    2    1    2    0    0  0.00000000000E+00  0.00000000000E+00  0.15093838467E+04  0.34770100701E+04  0.31323089616E+04 0.  0.
        2    1    3    3  502    0  0.59884894466E+03  0.94866443318E+03 -0.45838962611E+03  0.12119015284E+04  0.25500000920E-02 0. -1.
       -2    1    3    3    0  502 -0.59884894466E+03 -0.94866443318E+03  0.19677734728E+04  0.22651085417E+04  0.25500000920E-02 0.  1.
</event>
<event>
 5   0  0.1211008E-06  0.3072680E+04  0.7818609E-02  0.8223276E-01
        1   -1    0    0  501    0  0.00000000000E+00  0.00000000000E+00  0.19309736578E+04  0.19309736578E+04  0.50400001928E-02 0. -1.
       -1   -1    0    0    0  501  0.00000000000E+00  0.00000000000E+00 -0.12223575947E+04  0.12223575948E+04  0.50400001928E-02 0.  1.
    10030    2    1    2    0    0  0.00000000000E+00  0.00000000000E+00  0.70861606308E+03  0.31533312526E+04  0.30726798179E+04 0.  0.
        3    1    3    3  502    0  0.11707583600E+04  0.55837165249E+03  0.11992574371E+04  0.17665425131E+04  0.10100000352E+00 0. -1.
       -3    1    3    3    0  502 -0.11707583600E+04 -0.55837165249E+03 -0.49064137406E+03  0.13867887395E+04  0.10100000352E+00 0.  1.
</event>
<event>
 5   0  0.3340899E-06  0.3090713E+04  0.7818609E-02  0.8218291E-01
        2   -1    0    0  501    0  0.00000000000E+00  0.00000000000E+00  0.11637519544E+04  0.11637519544E+04  0.25500000920E-02 0. -1.
       -2   -1    0    0    0  501  0.00000000000E+00  0.00000000000E+00 -0.20520923349E+04  0.20520923349E+04  0.25500000920E-02 0.  1.
    10030    2    1    2    0    0  0.00000000000E+00  0.00000000000E+00 -0.88834038052E+03  0.32158442893E+04  0.30907128404E+04 0.  0.
        3    1    3    3  502    0  0.12927684570E+04 -0.84157941094E+03 -0.34756583396E+03  0.15812362908E+04  0.10100000352E+00 0.  1.
       -3    1    3    3    0  502 -0.12927684570E+04  0.84157941094E+03 -0.54077454656E+03  0.16346079985E+04  0.10100000352E+00 0. -1.
</event>
<event>
 5   0  0.1235960E-06  0.3043054E+04  0.7818609E-02  0.8231542E-01
       -1   -1    0    0    0  501  0.00000000000E+00  0.00000000000E+00  0.16154508935E+04  0.16154508935E+04  0.50400001928E-02 0. -1.
        1   -1    0    0  501    0  0.00000000000E+00  0.00000000000E+00 -0.14330637390E+04  0.14330637390E+04  0.50400001928E-02 0.  1.
    10030    2    1    2    0    0  0.00000000000E+00  0.00000000000E+00  0.18238715453E+03  0.30485146325E+04  0.30430537935E+04 0.  0.
        4    1    3    3  502    0 -0.10666836248E+04  0.87420943590E+03  0.73498698436E+03  0.15627743194E+04  0.12699999809E+01 0. -1.
       -4    1    3    3    0  502  0.10666836248E+04 -0.87420943590E+03 -0.55259982983E+03  0.14857403131E+04  0.12699999809E+01 0.  1.
</event>
<event>
 5   0  0.1198763E-06  0.3163160E+04  0.7818609E-02  0.8198615E-01
       -1   -1    0    0    0  501  0.00000000000E+00  0.00000000000E+00  0.12523981737E+04  0.12523981737E+04  0.50400001928E-02 0. -1.
        1   -1    0    0  501    0  0.00000000000E+00  0.00000000000E+00 -0.19972842520E+04  0.19972842520E+04  0.50400001928E-02 0.  1.
    10030    2    1    2    0    0  0.00000000000E+00  0.00000000000E+00 -0.74488607829E+03  0.32496824257E+04  0.31631599072E+04 0.  0.
        1    1    3    3  502    0  0.62177699332E+03  0.53171045500E+03 -0.17630074296E+04  0.19435837605E+04  0.50400001928E-02 0.  1.
       -1    1    3    3    0  502 -0.62177699332E+03 -0.53171045500E+03  0.10181213513E+04  0.13060986652E+04  0.50400001928E-02 0. -1.
</event>
<event>
 5   0  0.3374790E-06  0.3064112E+04  0.7818609E-02  0.8225657E-01
       -2   -1    0    0    0  501  0.00000000000E+00  0.00000000000E+00  0.10940070933E+04  0.10940070933E+04  0.25500000920E-02 0.  1.
        2   -1    0    0  501    0  0.00000000000E+00  0.00000000000E+00 -0.21455030710E+04  0.21455030710E+04  0.25500000920E-02 0. -1.
    10030    2    1    2    0    0  0.00000000000E+00  0.00000000000E+00 -0.10514959777E+04  0.32395101643E+04  0.30641119943E+04 0.  0.
        2    1    3    3  502    0  0.50025440615E+03  0.12029816016E+04  0.32648172084E+03  0.13431342147E+04  0.25500000920E-02 0.  1.
       -2    1    3    3    0  502 -0.50025440615E+03 -0.12029816016E+04 -0.13779776986E+04  0.18963759496E+04  0.25500000920E-02 0. -1.
</event>
<event>
 5   0  0.1211008E-06  0.3119671E+04  0.7818609E-02  0.8210360E-01
        1   -1    0    0  501    0  0.00000000000E+00  0.00000000000E+00  0.18689521962E+04  0.18689521963E+04  0.50400001928E-02 0. -1.
       -1   -1    0    0    0  501  0.00000000000E+00  0.00000000000E+00 -0.13018454287E+04  0.13018454287E+04  0.50400001928E-02 0.  1.
    10030    2    1    2    0    0  0.00000000000E+00  0.00000000000E+00  0.56710676755E+03  0.31707976250E+04  0.31196710552E+04 0.  0.
        3    1    3    3  502    0 -0.29339387885E+02 -0.14964048105E+04  0.73006927510E+03  0.16652595333E+04  0.10100000352E+00 0. -1.
       -3    1    3    3    0  502  0.29339387885E+02  0.14964048105E+04 -0.16296250756E+03  0.15055380917E+04  0.10100000352E+00 0.  1.
</event>
<event>
 5   0  0.3445959E-06  0.3090581E+04  0.7818609E-02  0.8218328E-01
       -2   -1    0    0    0  501  0.00000000000E+00  0.00000000000E+00  0.28418681350E+04  0.28418681350E+04  0.25500000920E-02 0.  1.
        2   -1    0    0  501    0  0.00000000000E+00  0.00000000000E+00 -0.84026495105E+03  0.84026495105E+03  0.25500000920E-02 0. -1.
    10030    2    1    2    0    0  0.00000000000E+00  0.00000000000E+00  0.20016031840E+04  0.36821330861E+04  0.30905806505E+04 0.  0.
        4    1    3    3  502    0 -0.14776348783E+04 -0.44187551441E+03  0.88614303781E+03  0.17787382888E+04  0.12699999809E+01 0. -1.
       -4    1    3    3    0  502  0.14776348783E+04  0.44187551441E+03  0.11154601461E+04  0.19033947973E+04  0.12699999809E+01 0.  1.
</event>
<event>
 5   0  0.3340899E-06  0.3107988E+04  0.7818609E-02  0.8213549E-01
       -2   -1    0    0    0  501  0.00000000000E+00  0.00000000000E+00  0.20083411879E+04  0.20083411879E+04  0.25500000920E-02 0. -1.
        2   -1    0    0  501    0  0.00000000000E+00  0.00000000000E+00 -0.12024336869E+04  0.12024336869E+04  0.25500000920E-02 0.  1.
    10030    2    1    2    0    0  0.00000000000E+00  0.00000000000E+00  0.80590750093E+03  0.32107748748E+04  0.31079878372E+04 0.  0.
        3    1    3    3  502    0  0.70608437562E+01 -0.60777093244E+03  0.18804494455E+04  0.19762402407E+04  0.10100000352E+00 0. -1.
       -3    1    3    3    0  502 -0.70608437562E+01  0.60777093244E+03 -0.10745419446E+04  0.12345346340E+04  0.10100000352E+00 0.  1.
</event>
<event>
 5   0  0.3441897E-06  0.3078399E+04  0.7818609E-02  0.8221691E-01
        2   -1    0    0  501    0  0.00000000000E+00  0.00000000000E+00  0.22817595413E+04  0.22817595413E+04  0.25500000920E-02 0. -1.
       -2   -1    0    0    0  501  0.00000000000E+00  0.00000000000E+00 -0.10382927793E+04  0.10382927793E+04  0.25500000920E-02 0.  1.
    10030    2    1    2    0    0  0.00000000000E+00  0.00000000000E+00  0.12434667621E+04  0.33200523206E+04  0.30783985809E+04 0.  0.
        5    1    3    3  502    0  0.10811274874E+04 -0.94198561438E+03  0.12250562684E+04  0.18859900563E+04  0.46999998093E+01 0. -1.
       -5    1    3    3    0  502 -0.10811274874E+04  0.94198561438E+03  0.18410493683E+02  0.14340622643E+04  0.46999998093E+01 0.  1.
</event>
<event>
 5   0  0.1235960E-06  0.3081495E+04  0.7818609E-02  0.8220835E-01
        1   -1    0    0  501    0  0.00000000000E+00  0.00000000000E+00  0.16810515909E+04  0.16810515909E+04  0.50400001928E-02 0.  1.
       -1   -1    0    0    0  501  0.00000000000E+00  0.00000000000E+00 -0.14121536541E+04  0.14121536541E+04  0.50400001928E-02 0. -1.
    10030    2    1    2    0    0  0.00000000000E+00  0.00000000000E+00  0.26889793686E+03  0.30932052450E+04  0.30814951869E+04 0.  0.
        4    1    3    3  502    0  0.12197849375E+04 -0.77819453780E+02 -0.80718316252E+03  0.14647448351E+04  0.12699999809E+01 0. -1.
       -4    1    3    3    0  502 -0.12197849375E+04  0.77819453780E+02  0.10760810994E+04  0.16284604099E+04  0.12699999809E+01 0.  1.
</event>
<event>
 5   0  0.1211008E-06  0.3245597E+04  0.7818609E-02  0.8176878E-01
        1   -1    0    0  501    0  0.00000000000E+00  0.00000000000E+00  0.20412297703E+04  0.20412297703E+04  0.50400001928E-02 0.  1.
       -1   -1    0    0    0  501  0.00000000000E+00  0.00000000000E+00 -0.12901416659E+04  0.12901416659E+04  0.50400001928E-02 0. -1.
    10030    2    1    2    0    0  0.00000000000E+00  0.00000000000E+00  0.75108810438E+03  0.33313714362E+04  0.32455973727E+04 0.  0.
        3    1    3    3  502    0  0.81385484763E+03  0.13541049155E+04 -0.50873415603E+01  0.15798688954E+04  0.10100000352E+00 0. -1.
       -3    1    3    3    0  502 -0.81385484763E+03 -0.13541049155E+04  0.75617544594E+03  0.17515025408E+04  0.10100000352E+00 0.  1.
</event>
<event>
 5   0  0.1250276E-06  0.3182739E+04  0.7818609E-02  0.8193391E-01
       -1   -1    0    0    0  501  0.00000000000E+00  0.00000000000E+00  0.15313141425E+04  0.15313141425E+04  0.50400001928E-02 0. -1.
        1   -1    0    0  501    0  0.00000000000E+00  0.00000000000E+00 -0.16537800056E+04  0.16537800056E+04  0.50400001928E-02 0.  1.
    10030    2    1    2    0    0  0.00000000000E+00  0.00000000000E+00 -0.12246586307E+03  0.31850941481E+04  0.31827388904E+04 0.  0.
        5    1    3    3  502    0 -0.10895402409E+03  0.74021156688E+03 -0.14667830442E+04  0.16465900315E+04  0.46999998093E+01 0.  1.
       -5    1    3    3    0  502  0.10895402409E+03 -0.74021156688E+03  0.13443171812E+04  0.15385041166E+04  0.46999998093E+01 0. -1.
</event>
<event>
 5   0  0.3445959E-06  0.3128940E+04  0.7818609E-02  0.8207840E-01
        2   -1    0    0  501    0  0.00000000000E+00  0.00000000000E+00  0.27506852929E+04  0.27506852929E+04  0.25500000920E-02 0.  1.
       -2   -1    0    0    0  501  0.00000000000E+00  0.00000000000E+00 -0.88980255601E+03  0.88980255601E+03  0.25500000920E-02 0. -1.
    10030    2    1    2    0    0  0.00000000000E+00  0.00000000000E+00  0.18608827369E+04  0.36404878489E+04  0.31289402707E+04 0.  0.
        4    1    3    3  502    0 -0.38436960961E+03 -0.10272119787E+04 -0.36759783543E+03  0.11567342943E+04  0.12699999809E+01 0. -1.
       -4    1    3    3    0  502  0.38436960961E+03  0.10272119787E+04  0.22284805724E+04  0.24837535547E+04  0.12699999809E+01 0.  1.
</event>
<event>
 5   0  0.3445410E-06  0.3138690E+04  0.7818609E-02  0.8205199E-01
       -2   -1    0    0    0  501  0.00000000000E+00  0.00000000000E+00  0.11566324343E+04  0.11566324343E+04  0.25500000920E-02 0.  1.
        2   -1    0    0  501    0  0.00000000000E+00  0.00000000000E+00 -0.21293222783E+04  0.21293222783E+04  0.25500000920E-02 0. -1.
    10030    2    1    2    0    0  0.00000000000E+00  0.00000000000E+00 -0.97268984393E+03  0.32859547126E+04  0.31386896694E+04 0.  0.
        1    1    3    3  502    0  0.18409448821E+03  0.15343165185E+04 -0.77272136211E+03  0.17277489004E+04  0.50400001928E-02 0. -1.
       -1    1    3    3    0  502 -0.18409448821E+03 -0.15343165185E+04 -0.19996848183E+03  0.15582058122E+04  0.50400001928E-02 0.  1.
</event>
<event>
 5   0  0.3441897E-06  0.3061377E+04  0.7818609E-02  0.8226418E-01
       -2   -1    0    0    0  501  0.00000000000E+00  0.00000000000E+00  0.95882691661E+03  0.95882691662E+03  0.25500000920E-02 0.  1.
        2   -1    0    0  501    0  0.00000000000E+00  0.00000000000E+00 -0.24436191412E+04  0.24436191412E+04  0.25500000920E-02 0. -1.
    10030    2    1    2    0    0  0.00000000000E+00  0.00000000000E+00 -0.14847922246E+04  0.34024460578E+04  0.30613773413E+04 0.  0.
        5    1    3    3  502    0  0.51917347205E+03 -0.63139746275E+03 -0.21807094580E+04  0.23288880781E+04  0.46999998093E+01 0. -1.
       -5    1    3    3    0  502 -0.51917347205E+03  0.63139746275E+03  0.69591723342E+03  0.10735579797E+04  0.46999998093E+01 0.  1.
</event>
<event>
 5   0  0.3445959E-06  0.3097177E+04  0.7818609E-02  0.8216513E-01
       -2   -1    0    0    0  501  0.00000000000E+00  0.00000000000E+00  0.88821209840E+03  0.88821209841E+03  0.25500000920E-02 0. -1.
        2   -1    0    0  501    0  0.00000000000E+00  0.00000000000E+00 -0.26999474490E+04  0.26999474490E+04  0.25500000920E-02 0.  1.
    10030    2    1    2    0    0  0.00000000000E+00  0.00000000000E+00 -0.18117353506E+04  0.35881595474E+04  0.30971767720E+04 0.  0.
        4    1    3    3  502    0  0.95480719961E+03  0.20087567563E+03 -0.22990482182E+04  0.24975252047E+04  0.12699999809E+01 0.  1.
       -4    1    3    3    0  502 -0.95480719961E+03 -0.20087567563E+03  0.48731286768E+03  0.10906343427E+04  0.12699999809E+01 0. -1.
</event>
<event>
 5   0  0.3374790E-06  0.3075478E+04  0.7818609E-02  0.8222500E-01
       -2   -1    0    0    0  501  0.00000000000E+00  0.00000000000E+00  0.12296267057E+04  0.12296267057E+04  0.25500000920E-02 0. -1.
        2   -1    0    0  501    0  0.00000000000E+00  0.00000000000E+00 -0.19230564252E+04  0.19230564252E+04  0.25500000920E-02 0.  1.
    10030    2    1    2    0    0  0.00000000000E+00  0.00000000000E+00 -0.69342971949E+03  0.31526831309E+04  0.30754781982E+04 0.  0.
        2    1    3    3  502    0 -0.37560261662E+02  0.12273314762E+04  0.60220547697E+03  0.13676274208E+04  0.25500000920E-02 0. -1.
       -2    1    3    3    0  502  0.37560261662E+02 -0.12273314762E+04 -0.12956351965E+04  0.17850557100E+04  0.25500000920E-02 0.  1.
</event>
<event>
 5   0  0.3441897E-06  0.3179947E+04  0.7818609E-02  0.8194133E-01
        2   -1    0    0  501    0  0.00000000000E+00  0.00000000000E+00  0.12017839737E+04  0.12017839737E+04  0.25500000920E-02 0.  1.
       -2   -1    0    0    0  501  0.00000000000E+00  0.00000000000E+00 -0.21035522136E+04  0.21035522136E+04  0.25500000920E-02 0. -1.
    10030    2    1    2    0    0  0.00000000000E+00  0.00000000000E+00 -0.90176823997E+03  0.33053361873E+04  0.31799467531E+04 0.  0.
        5    1    3    3  502    0 -0.54714694195E+03  0.40607034779E+03  0.10423306099E+04  0.12452863501E+04  0.46999998093E+01 0.  1.
       -5    1    3    3    0  502  0.54714694195E+03 -0.40607034779E+03 -0.19440988499E+04  0.20600498372E+04  0.46999998093E+01 0. -1.
</event>
<event>
 5   0  0.3441897E-06  0.3117680E+04  0.7818609E-02  0.8210902E-01
       -2   -1    0    0    0  501  0.00000000000E+00  0.00000000000E+00  0.11434231669E+04  0.11434231669E+04  0.25500000920E-02 0.  1.
        2   -1    0    0  501    0  0.00000000000E+00  0.00000000000E+00 -0.21251819755E+04  0.21251819755E+04  0.25500000920E-02 0. -1.
    10030    2    1    2    0    0  0.00000000000E+00  0.00000000000E+00 -0.98175880858E+03  0.32686051424E+04  0.31176801021E+04 0.  0.
        5    1    3    3  502    0 -0.20911082093E+03  0.12088709418E+04  0.51737430505E+03  0.13314633119E+04  0.46999998093E+01 0.  1.
       -5    1    3    3    0  502  0.20911082093E+03 -0.12088709418E+04 -0.14991331136E+04  0.19371418306E+04  0.46999998093E+01 0. -1.
</event>
<event>
 5   0  0.1171915E-06  0.3103588E+04  0.7818609E-02  0.8214754E-01
        1   -1    0    0  501    0  0.00000000000E+00  0.00000000000E+00  0.23104589026E+04  0.23104589026E+04  0.50400001928E-02 0.  1.
       -1   -1    0    0    0  501  0.00000000000E+00  0.00000000000E+00 -0.10422452437E+04  0.10422452437E+04  0.50400001928E-02 0. -1.
    10030    2    1    2    0    0  0.00000000000E+00  0.00000000000E+00  0.12682136589E+04  0.33527041463E+04  0.31035881183E+04 0.  0.
        2    1    3    3  502    0 -0.73305475944E+03 -0.99420920768E+03 -0.38056453152E+03  0.12925364953E+04  0.25500000920E-02 0. -1.
       -2    1    3    3    0  502  0.73305475944E+03  0.99420920768E+03  0.16487781905E+04  0.20601676510E+04  0.25500000920E-02 0.  1.
</event>
<event>
 5   0  0.1171915E-06  0.3110551E+04  0.7818609E-02  0.8212848E-01
       -1   -1    0    0    0  501  0.00000000000E+00  0.00000000000E+00  0.11605170113E+04  0.11605170113E+04  0.50400001928E-02 0. -1.
        1   -1    0    0  501    0  0.00000000000E+00  0.00000000000E+00 -0.20843137430E+04  0.20843137430E+04  0.50400001928E-02 0.  1.
    10030    2    1    2    0    0  0.00000000000E+00  0.00000000000E+00 -0.92379673172E+03  0.32448307543E+04  0.31105507908E+04 0.  0.
        2    1    3    3  502    0  0.35428501135E+03 -0.33170894910E+03 -0.20032961414E+04  0.20612481962E+04  0.25500000920E-02 0.  1.
       -2    1    3    3    0  502 -0.35428501135E+03  0.33170894910E+03  0.10794994097E+04  0.11835825581E+04  0.25500000920E-02 0. -1.
</event>
<event>
 5   0  0.1171915E-06  0.3142523E+04  0.7818609E-02  0.8204164E-01
        1   -1    0    0  501    0  0.00000000000E+00  0.00000000000E+00  0.26812597945E+04  0.26812597946E+04  0.50400001928E-02 0.  1.
       -1   -1    0    0    0  501  0.00000000000E+00  0.00000000000E+00 -0.92078448438E+03  0.92078448439E+03  0.50400001928E-02 0. -1.
    10030    2    1    2    0    0  0.00000000000E+00  0.00000000000E+00  0.17604753102E+04  0.36020442789E+04  0.31425228193E+04 0.  0.
        2    1    3    3  502    0  0.66316208062E+03  0.92855606746E+03 -0.35793262268E+03  0.11958746080E+04  0.25500000920E-02 0. -1.
       -2    1    3    3    0  502 -0.66316208062E+03 -0.92855606746E+03  0.21184079329E+04  0.24061696710E+04  0.25500000920E-02 0.  1.
</event>
<event>
 5   0  0.1250276E-06  0.3124513E+04  0.7818609E-02  0.8209043E-01
       -1   -1    0    0    0  501  0.00000000000E+00  0.00000000000E+00  0.11084564540E+04  0.11084564540E+04  0.50400001928E-02 0. -1.
        1   -1    0    0  501    0  0.00000000000E+00  0.00000000000E+00 -0.22018407735E+04  0.22018407735E+04  0.50400001928E-02 0.  1.
    10030    2    1    2    0    0  0.00000000000E+00  0.00000000000E+00 -0.10933843196E+04  0.33102972275E+04  0.31245125162E+04 0.  0.
        5    1    3    3  502    0  0.64673596671E+03  0.14000640768E+04 -0.28251513184E+03  0.15678914885E+04  0.46999998093E+01 0. -1.
       -5    1    3    3    0  502 -0.64673596671E+03 -0.14000640768E+04 -0.81086918771E+03  0.17424057390E+04  0.46999998093E+01 0.  1.
</event>
<event>
 5   0  0.3340899E-06  0.3103191E+04  0.7818609E-02  0.8214863E-01
        2   -1    0    0  501    0  0.00000000000E+00  0.00000000000E+00  0.12884307069E+04  0.12884307069E+04  0.25500000920E-02 0.  1.
       -2   -1    0    0    0  501  0.00000000000E+00  0.00000000000E+00 -0.18685128008E+04  0.18685128008E+04  0.25500000920E-02 0. -1.
    10030    2    1    2    0    0  0.00000000000E+00  0.00000000000E+00 -0.58008209394E+03  0.31569435077E+04  0.31031914338E+04 0.  0.
        3    1    3    3  502    0  0.23752046352E+03 -0.14242594833E+04  0.28770284731E+03  0.14723124617E+04  0.10100000352E+00 0.  1.
       -3    1    3    3    0  502 -0.23752046352E+03  0.14242594833E+04 -0.86778494125E+03  0.16846310459E+04  0.10100000352E+00 0. -1.
</event>
<event>
 5   0  0.1211008E-06  0.2883803E+04  0.7818609E-02  0.8277713E-01
        1   -1    0    0  501    0  0.00000000000E+00  0.00000000000E+00  0.27143425030E+04  0.27143425030E+04  0.50400001928E-02 0.  1.
       -1   -1    0    0    0  501  0.00000000000E+00  0.00000000000E+00 -0.76596092666E+03  0.76596092668E+03  0.50400001928E-02 0. -1.
    10030    2    1    2    0    0  0.00000000000E+00  0.00000000000E+00  0.19483815764E+04  0.34803034297E+04  0.28838032519E+04 0.  0.
        3    1    3    3  502    0  0.66895293515E+03 -0.11960953122E+04  0.15151727751E+04  0.20430101747E+04  0.10100000352E+00 0.  1.
       -3    1    3    3    0  502 -0.66895293515E+03  0.11960953122E+04  0.43320880129E+03  0.14372932550E+04  0.10100000352E+00 0. -1.
</event>
<event>
 5   0  0.1171915E-06  0.3061249E+04  0.7818609E-02  0.8226454E-01
        1   -1    0    0  501    0  0.00000000000E+00  0.00000000000E+00  0.73405035782E+03  0.73405035784E+03  0.50400001928E-02 0.  1.
       -1   -1    0    0    0  501  0.00000000000E+00  0.00000000000E+00 -0.31916224951E+04  0.31916224951E+04  0.50400001928E-02 0. -1.
    10030    2    1    2    0    0  0.00000000000E+00  0.00000000000E+00 -0.24575721373E+04  0.39256728530E+04  0.30612491794E+04 0.  0.
        2    1    3    3  502    0 -0.54533297637E+03 -0.12743432991E+04 -0.20613165935E+04  0.24840219399E+04  0.25500000920E-02 0. -1.
       -2    1    3    3    0  502  0.54533297637E+03  0.12743432991E+04 -0.39625554380E+03  0.14416509131E+04  0.25500000920E-02 0.  1.
</event>
<event>
 5   0  0.1250276E-06  0.3133143E+04  0.7818609E-02  0.8206701E-01
        1   -1    0    0  501    0  0.00000000000E+00  0.00000000000E+00  0.15030816972E+04  0.15030816973E+04  0.50400001928E-02 0. -1.
       -1   -1    0    0    0  501  0.00000000000E+00  0.00000000000E+00 -0.16327428732E+04  0.16327428732E+04  0.50400001928E-02 0.  1.
    10030    2    1    2    0    0  0.00000000000E+00  0.00000000000E+00 -0.12966117598E+03  0.31358245705E+04  0.31331427858E+04 0.  0.
        5    1    3    3  502    0 -0.36018216162E+03 -0.45124089657E+03  0.13927037584E+04  0.15076456430E+04  0.46999998093E+01 0. -1.
       -5    1    3    3    0  502  0.36018216162E+03  0.45124089657E+03 -0.15223649344E+04  0.16281789274E+04  0.46999998093E+01 0.  1.
</event>
<event>
 5   0  0.3374790E-06  0.2975182E+04  0.7818609E-02  0.8250854E-01
       -2   -1    0    0    0  501  0.00000000000E+00  0.00000000000E+00  0.11128183826E+04  0.11128183827E+04  0.25500000920E-02 0. -1.
        2   -1    0    0  501    0  0.00000000000E+00  0.00000000000E+00 -0.19885781271E+04  0.19885781271E+04  0.25500000920E-02 0.  1.
    10030    2    1    2    0    0  0.00000000000E+00  0.00000000000E+00 -0.87575974449E+03  0.31013965098E+04  0.29751815375E+04 0.  0.
        2    1    3    3  502    0 -0.17855396900E+03  0.64942047897E+02 -0.19758780175E+04  0.19849919218E+04  0.25500000920E-02 0.  1.
       -2    1    3    3    0  502  0.17855396900E+03 -0.64942047897E+02  0.11001182730E+04  0.11164045880E+04  0.25500000920E-02 0. -1.
</event>
<event>
 5   0  0.3445959E-06  0.3083940E+04  0.7818609E-02  0.8220159E-01
       -2   -1    0    0    0  501  0.00000000000E+00  0.00000000000E+00  0.23425021594E+04  0.23425021594E+04  0.25500000920E-02 0.  1.
        2   -1    0    0  501    0  0.00000000000E+00  0.00000000000E+00 -0.10150134213E+04  0.10150134213E+04  0.25500000920E-02 0. -1.
    10030    2    1    2    0    0  0.00000000000E+00  0.00000000000E+00  0.13274887380E+04  0.33575155807E+04  0.30839397733E+04 0.  0.
        4    1    3    3  502    0 -0.12725752450E+04  0.17948414046E+03  0.15913910921E+04  0.20455291569E+04  0.12699999809E+01 0. -1.
       -4    1    3    3    0  502  0.12725752450E+04 -0.17948414046E+03 -0.26390235411E+03  0.13119864238E+04  0.12699999809E+01 0.  1.
</event>
<event>
 5   0  0.1211008E-06  0.3098821E+04  0.7818609E-02  0.8216062E-01
       -1   -1    0    0    0  501  0.00000000000E+00  0.00000000000E+00  0.18072546541E+04  0.18072546541E+04  0.50400001928E-02 0. -1.
        1   -1    0    0  501    0  0.00000000000E+00  0.00000000000E+00 -0.13283533123E+04  0.13283533123E+04  0.50400001928E-02 0.  1.
    10030    2    1    2    0    0  0.00000000000E+00  0.00000000000E+00  0.47890134172E+03  0.31356079664E+04  0.30988208764E+04 0.  0.
        3    1    3    3  502    0  0.13280322449E+04 -0.37878271298E+03 -0.47140366452E+03  0.14592352148E+04  0.10100000352E+00 0. -1.
       -3    1    3    3    0  502 -0.13280322449E+04  0.37878271298E+03  0.95030500624E+03  0.16763727516E+04  0.10100000352E+00 0.  1.
</event>
<event>
 5   0  0.3374790E-06  0.3110314E+04  0.7818609E-02  0.8212913E-01
       -2   -1    0    0    0  501  0.00000000000E+00  0.00000000000E+00  0.76543697701E+03  0.76543697702E+03  0.25500000920E-02 0.  1.
        2   -1    0    0  501    0  0.00000000000E+00  0.00000000000E+00 -0.31596513575E+04  0.31596513576E+04  0.25500000920E-02 0. -1.
    10030    2    1    2    0    0  0.00000000000E+00  0.00000000000E+00 -0.23942143805E+04  0.39250883346E+04  0.31103144430E+04 0.  0.
        2    1    3    3  502    0  0.16217314994E+03 -0.45261802370E+03  0.66929121810E+03  0.82408369755E+03  0.25500000920E-02 0.  1.
       -2    1    3    3    0  502 -0.16217314994E+03  0.45261802370E+03 -0.30635055986E+04  0.31010046370E+04  0.25500000920E-02 0. -1.
</event>
<event>
 5   0  0.1250276E-06  0.3109518E+04  0.7818609E-02  0.8213131E-01
        1   -1    0    0  501    0  0.00000000000E+00  0.00000000000E+00  0.23348807143E+04  0.23348807143E+04  0.50400001928E-02 0. -1.
       -1   -1    0    0    0  501  0.00000000000E+00  0.00000000000E+00 -0.10352886881E+04  0.10352886881E+04  0.50400001928E-02 0.  1.
    10030    2    1    2    0    0  0.00000000000E+00  0.00000000000E+00  0.12995920262E+04  0.33701694025E+04  0.31095180280E+04 0.  0.
        5    1    3    3  502    0 -0.48676180242E+03 -0.53963114670E+03 -0.83986623968E+03  0.11106467563E+04  0.46999998093E+01 0.  1.
       -5    1    3    3    0  502  0.48676180242E+03  0.53963114670E+03  0.21394582659E+04  0.22595226461E+04  0.46999998093E+01 0. -1.
</event>
<event>
 5   0  0.1235960E-06  0.2728361E+04  0.7818609E-02  0.8325861E-01
       -1   -1    0    0    0  501  0.00000000000E+00  0.00000000000E+00  0.97818227082E+03  0.97818227084E+03  0.50400001928E-02 0.  1.
        1   -1    0    0  501    0  0.00000000000E+00  0.00000000000E+00 -0.19024970042E+04  0.19024970043E+04  0.50400001928E-02 0. -1.
    10030    2    1    2    0    0  0.00000000000E+00  0.00000000000E+00 -0.92431473342E+03  0.28806792751E+04  0.27283612956E+04 0.  0.
        4    1    3    3  502    0 -0.56364250430E+03  0.57961782791E+02 -0.17723772713E+04  0.18607458842E+04  0.12699999809E+01 0. -1.
       -4    1    3    3    0  502  0.56364250430E+03 -0.57961782791E+02  0.84806253783E+03  0.10199333909E+04  0.12699999809E+01 0.  1.
</event>
<event>
 5   0  0.1171915E-06  0.3094957E+04  0.7818609E-02  0.8217123E-01
        1   -1    0    0  501    0  0.00000000000E+00  0.00000000000E+00  0.15850933616E+04  0.15850933616E+04  0.50400001928E-02 0.  1.
       -1   -1    0    0    0  501  0.00000000000E+00  0.00000000000E+00 -0.15107564734E+04  0.15107564735E+04  0.50400001928E-02 0. -1.
    10030    2    1    2    0    0  0.00000000000E+00  0.00000000000E+00  0.74336888161E+02  0.30958498351E+04  0.30949572256E+04 0.  0.
        2    1    3    3  502    0  0.75711042543E+03 -0.16672110487E+03 -0.13025004345E+04  0.15157570732E+04  0.25500000920E-02 0. -1.
       -2    1    3    3    0  502 -0.75711042543E+03  0.16672110487E+03  0.13768373226E+04  0.15800927619E+04  0.25500000920E-02 0.  1.
</event>
<event>
 5   0  0.1250276E-06  0.3052912E+04  0.7818609E-02  0.8228781E-01
        1   -1    0    0  501    0  0.00000000000E+00  0.00000000000E+00  0.23358864046E+04  0.23358864046E+04  0.50400001928E-02 0. -1.
       -1   -1    0    0    0  501  0.00000000000E+00  0.00000000000E+00 -0.99750908371E+03  0.99750908372E+03  0.50400001928E-02 0.  1.
    10030    2    1    2    0    0  0.00000000000E+00  0.00000000000E+00  0.13383773208E+04  0.33333954883E+04  0.30529119916E+04 0.  0.
        5    1    3    3  502    0  0.43719481028E+03  0.26032388041E+02 -0.92742429488E+03  0.10256485266E+04  0.46999998093E+01 0.  1.
       -5    1    3    3    0  502 -0.43719481028E+03 -0.26032388041E+02  0.22658016157E+04  0.23077469617E+04  0.46999998093E+01 0. -1.
</event>
<event>
 5   0  0.1198763E-06  0.2997894E+04  0.7818609E-02  0.8244332E-01
        1   -1    0    0  501    0  0.00000000000E+00  0.00000000000E+00  0.17062600713E+04  0.17062600713E+04  0.50400001928E-02 0.  1.
       -1   -1    0    0    0  501  0.00000000000E+00  0.00000000000E+00 -0.13168229119E+04  0.13168229119E+04  0.50400001928E-02 0. -1.
    10030    2    1    2    0    0  0.00000000000E+00  0.00000000000E+00  0.38943715941E+03  0.30230829832E+04  0.29978941646E+04 0.  0.
        1    1    3    3  502    0 -0.60000335177E+03 -0.13598331900E+04  0.39049416408E+03  0.15367615361E+04  0.50400001928E-02 0.  1.
       -1    1    3    3    0  502  0.60000335177E+03  0.13598331900E+04 -0.10570046741E+01  0.14863214471E+04  0.50400001928E-02 0. -1.
</event>
<event>
 5   0  0.3340899E-06  0.3090618E+04  0.7818609E-02  0.8218317E-01
       -2   -1    0    0    0  501  0.00000000000E+00  0.00000000000E+00  0.14845137482E+04  0.14845137482E+04  0.25500000920E-02 0. -1.
        2   -1    0    0  501    0  0.00000000000E+00  0.00000000000E+00 -0.16085937883E+04  0.16085937883E+04  0.25500000920E-02 0.  1.
    10030    2    1    2    0    0  0.00000000000E+00  0.00000000000E+00 -0.12408004016E+03  0.30931075365E+04  0.30906177984E+04 0.  0.
        3    1    3    3  502    0  0.27623743067E+03  0.24379444086E+03 -0.15639943832E+04  0.16068046827E+04  0.10100000352E+00 0.  1.
       -3    1    3    3    0  502 -0.27623743067E+03 -0.24379444086E+03  0.14399143431E+04  0.14863028538E+04  0.10100000352E+00 0. -1.
</event>
<event>
 5   0  0.3340899E-06  0.3102242E+04  0.7818609E-02  0.8215123E-01
        2   -1    0    0  501    0  0.00000000000E+00  0.00000000000E+00  0.17349582441E+04  0.17349582441E+04  0.25500000920E-02 0.  1.
       -2   -1    0    0    0  501  0.00000000000E+00  0.00000000000E+00 -0.13867637068E+04  0.13867637068E+04  0.25500000920E-02 0. -1.
    10030    2    1    2    0    0  0.00000000000E+00  0.00000000000E+00  0.34819453726E+03  0.31217219509E+04  0.31022424958E+04 0.  0.
        3    1    3    3  502    0  0.10186914681E+04 -0.10941563533E+04 -0.24210188487E+03  0.15144384324E+04  0.10100000352E+00 0.  1.
       -3    1    3    3    0  502 -0.10186914681E+04  0.10941563533E+04  0.59029642213E+03  0.16072835185E+04  0.10100000352E+00 0. -1.
</event>
<event>
 5   0  0.1250276E-06  0.3105273E+04  0.7818609E-02  0.8214292E-01
        1   -1    0    0  501    0  0.00000000000E+00  0.00000000000E+00  0.14004359697E+04  0.14004359697E+04  0.50400001928E-02 0.  1.
       -1   -1    0    0    0  501  0.00000000000E+00  0.00000000000E+00 -0.17213786568E+04  0.17213786569E+04  0.50400001928E-02 0. -1.
    10030    2    1    2    0    0  0.00000000000E+00  0.00000000000E+00 -0.32094268712E+03  0.31218146266E+04  0.31052733140E+04 0.  0.
        5    1    3    3  502    0 -0.58837486699E+03 -0.13771540305E+04 -0.57243496656E+03  0.16032598319E+04  0.46999998093E+01 0. -1.
       -5    1    3    3    0  502  0.58837486699E+03  0.13771540305E+04  0.25149227944E+03  0.15185547947E+04  0.46999998093E+01 0.  1.
</event>
<event>
 5   0  0.1211008E-06  0.3057143E+04  0.7818609E-02  0.8227599E-01
       -1   -1    0    0    0  501  0.00000000000E+00  0.00000000000E+00  0.15908174826E+04  0.15908174827E+04  0.50400001928E-02 0. -1.
        1   -1    0    0  501    0  0.00000000000E+00  0.00000000000E+00 -0.14687614572E+04  0.14687614572E+04  0.50400001928E-02 0.  1.
    10030    2    1    2    0    0  0.00000000000E+00  0.00000000000E+00  0.12205602541E+03  0.30595789399E+04  0.30571433751E+04 0.  0.
        3    1    3    3  502    0 -0.32001775373E+03 -0.56194310730E+03  0.14471729542E+04  0.15850870601E+04  0.10100000352E+00 0. -1.
       -3    1    3    3    0  502  0.32001775373E+03  0.56194310730E+03 -0.13251169288E+04  0.14744918798E+04  0.10100000352E+00 0.  1.
</event>
<event>
 5   0  0.1211008E-06  0.3060914E+04  0.7818609E-02  0.8226547E-01
       -1   -1    0    0    0  501  0.00000000000E+00  0.00000000000E+00  0.70935896981E+03  0.70935896982E+03  0.50400001928E-02 0.  1.
        1   -1    0    0  501    0  0.00000000000E+00  0.00000000000E+00 -0.33019935514E+04  0.33019935514E+04  0.50400001928E-02 0. -1.
    10030    2    1    2    0    0  0.00000000000E+00  0.00000000000E+00 -0.25926345816E+04  0.40113525212E+04  0.30609140752E+04 0.  0.
        3    1    3    3  502    0 -0.33717794977E+03 -0.32744055073E+03  0.61243776687E+03  0.77200149777E+03  0.10100000352E+00 0.  1.
       -3    1    3    3    0  502  0.33717794977E+03  0.32744055073E+03 -0.32050723485E+04  0.32393510235E+04  0.10100000352E+00 0. -1.
</event>
<event>
 5   0  0.3374790E-06  0.3064356E+04  0.7818609E-02  0.8225589E-01
        2   -1    0    0  501    0  0.00000000000E+00  0.00000000000E+00  0.14345976808E+04  0.14345976808E+04  0.25500000920E-02 0. -1.
       -2   -1    0    0    0  501  0.00000000000E+00  0.00000000000E+00 -0.16363952165E+04  0.16363952165E+04  0.25500000920E-02 0.  1.
    10030    2    1    2    0    0  0.00000000000E+00  0.00000000000E+00 -0.20179753562E+03  0.30709928973E+04  0.30643555815E+04 0.  0.
        2    1    3    3  502    0  0.49580147468E+02 -0.13558731027E+03 -0.16295638225E+04  0.16359463198E+04  0.25500000920E-02 0.  1.
       -2    1    3    3    0  502 -0.49580147468E+02  0.13558731027E+03  0.14277662869E+04  0.14350465775E+04  0.25500000920E-02 0. -1.
</event>
<event>
 5   0  0.3374790E-06  0.3121489E+04  0.7818609E-02  0.8209865E-01
        2   -1    0    0  501    0  0.00000000000E+00  0.00000000000E+00  0.14951570649E+04  0.14951570649E+04  0.25500000920E-02 0.  1.
       -2   -1    0    0    0  501  0.00000000000E+00  0.00000000000E+00 -0.16292091061E+04  0.16292091061E+04  0.25500000920E-02 0. -1.
    10030    2    1    2    0    0  0.00000000000E+00  0.00000000000E+00 -0.13405204125E+03  0.31243661710E+04  0.31214890711E+04 0.  0.
        2    1    3    3  502    0 -0.14510593272E+04  0.28608713363E+03  0.43193569554E+03  0.15407749557E+04  0.25500000920E-02 0.  1.
       -2    1    3    3    0  502  0.14510593272E+04 -0.28608713363E+03 -0.56598773679E+03  0.15835912153E+04  0.25500000920E-02 0. -1.
</event>
<event>
 5   0  0.1235960E-06  0.3030327E+04  0.7818609E-02  0.8235124E-01
       -1   -1    0    0    0  501  0.00000000000E+00  0.00000000000E+00  0.12417383751E+04  0.12417383751E+04  0.50400001928E-02 0.  1.
        1   -1    0    0  501    0  0.00000000000E+00  0.00000000000E+00 -0.18487950640E+04  0.18487950641E+04  0.50400001928E-02 0. -1.
    10030    2    1    2    0    0  0.00000000000E+00  0.00000000000E+00 -0.60705668891E+03  0.30905334392E+04  0.30303265691E+04 0.  0.
        4    1    3    3  502    0  0.39110077142E+03 -0.44491945642E+02 -0.17957382307E+04  0.18383733986E+04  0.12699999809E+01 0. -1.
       -4    1    3    3    0  502 -0.39110077142E+03  0.44491945642E+02  0.11886815418E+04  0.12521600406E+04  0.12699999809E+01 0.  1.
</event>
<event>
 5   0  0.3445410E-06  0.3099667E+04  0.7818609E-02  0.8215829E-01
        2   -1    0    0  501    0  0.00000000000E+00  0.00000000000E+00  0.11867847103E+04  0.11867847103E+04  0.25500000920E-02 0.  1.
       -2   -1    0    0    0  501  0.00000000000E+00  0.00000000000E+00 -0.20239426908E+04  0.20239426909E+04  0.25500000920E-02 0. -1.
    10030    2    1    2    0    0  0.00000000000E+00  0.00000000000E+00 -0.83715798059E+03  0.32107274011E+04  0.30996672337E+04 0.  0.
        1    1    3    3  502    0 -0.16619832511E+03 -0.65608599087E+02  0.11760800417E+04  0.11895758219E+04  0.50400001928E-02 0.  1.
       -1    1    3    3    0  502  0.16619832511E+03  0.65608599087E+02 -0.20132380223E+04  0.20211515792E+04  0.50400001928E-02 0. -1.
</event>
<event>
 5   0  0.3441897E-06  0.3085166E+04  0.7818609E-02  0.8219821E-01
       -2   -1    0    0    0  501  0.00000000000E+00  0.00000000000E+00  0.11569554215E+04  0.11569554215E+04  0.25500000920E-02 0.  1.
        2   -1    0    0  501    0  0.00000000000E+00  0.00000000000E+00 -0.20567446423E+04  0.20567446423E+04  0.25500000920E-02 0. -1.
    10030    2    1    2    0    0  0.00000000000E+00  0.00000000000E+00 -0.89978922076E+03  0.32137000638E+04  0.30851657100E+04 0.  0.
        5    1    3    3  502    0 -0.71341316085E+03 -0.89624581946E+03 -0.15260504328E+04  0.19081579915E+04  0.46999998093E+01 0. -1.
       -5    1    3    3    0  502  0.71341316085E+03  0.89624581946E+03  0.62626121205E+03  0.13055420724E+04  0.46999998093E+01 0.  1.
</event>
<event>
 5   0  0.3441897E-06  0.2801768E+04  0.7818609E-02  0.8302720E-01
       -2   -1    0    0    0  501  0.00000000000E+00  0.00000000000E+00  0.97491925103E+03  0.97491925104E+03  0.25500000920E-02 0.  1.
        2   -1    0    0  501    0  0.00000000000E+00  0.00000000000E+00 -0.20129628597E+04  0.20129628597E+04  0.25500000920E-02 0. -1.
    10030    2    1    2    0    0  0.00000000000E+00  0.00000000000E+00 -0.10380436087E+04  0.29878821108E+04  0.28017681871E+04 0.  0.
        5    1    3    3  502    0 -0.10618386537E+04 -0.87598994348E+03 -0.24176209434E+03  0.13976160803E+04  0.46999998093E+01 0.  1.
       -5    1    3    3    0  502  0.10618386537E+04  0.87598994348E+03 -0.79628151435E+03  0.15902660305E+04  0.46999998093E+01 0. -1.
</event>
<event>
 5   0  0.3374790E-06  0.3100358E+04  0.7818609E-02  0.8215640E-01
       -2   -1    0    0    0  501  0.00000000000E+00  0.00000000000E+00  0.80336881766E+03  0.80336881766E+03  0.25500000920E-02 0.  1.
        2   -1    0    0  501    0  0.00000000000E+00  0.00000000000E+00 -0.29912219317E+04  0.29912219317E+04  0.25500000920E-02 0. -1.
    10030    2    1    2    0    0  0.00000000000E+00  0.00000000000E+00 -0.21878531141E+04  0.37945907494E+04  0.31003576740E+04 0.  0.
        2    1    3    3  502    0 -0.13612867466E+04 -0.67341853457E+03 -0.71380067332E+03  0.16781256003E+04  0.25500000920E-02 0. -1.
       -2    1    3    3    0  502  0.13612867466E+04  0.67341853457E+03 -0.14740524408E+04  0.21164651491E+04  0.25500000920E-02 0.  1.
</event>
<event>
 5   0  0.1250276E-06  0.3140453E+04  0.7818609E-02  0.8204723E-01
        1   -1    0    0  501    0  0.00000000000E+00  0.00000000000E+00  0.19431043012E+04  0.19431043012E+04  0.50400001928E-02 0. -1.
       -1   -1    0    0    0  501  0.00000000000E+00  0.00000000000E+00 -0.12689028138E+04  0.12689028139E+04  0.50400001928E-02 0.  1.
    10030    2    1    2    0    0  0.00000000000E+00  0.00000000000E+00  0.67420148739E+03  0.32120071151E+04  0.31404525250E+04 0.  0.
        5    1    3    3  502    0 -0.85822864116E+02 -0.83772664519E+02 -0.12642043432E+04  0.12698890246E+04  0.46999998093E+01 0.  1.
       -5    1    3    3    0  502  0.85822864116E+02  0.83772664519E+02  0.19384058306E+04  0.19421180905E+04  0.46999998093E+01 0. -1.
</event>
<event>
 5   0  0.3340899E-06  0.3042730E+04  0.7818609E-02  0.8231633E-01
       -2   -1    0    0    0  501  0.00000000000E+00  0.00000000000E+00  0.90547771950E+03  0.90547771950E+03  0.25500000920E-02 0.  1.
        2   -1    0    0  501    0  0.00000000000E+00  0.00000000000E+00 -0.25561664409E+04  0.25561664409E+04  0.25500000920E-02 0. -1.
    10030    2    1    2    0    0  0.00000000000E+00  0.00000000000E+00 -0.16506887214E+04  0.34616441604E+04  0.30427301948E+04 0.  0.
        3    1    3    3  502    0 -0.41750151276E+03  0.49445821411E+03  0.74108248997E+03  0.98386976059E+03  0.10100000352E+00 0.  1.
       -3    1    3    3    0  502  0.41750151276E+03 -0.49445821411E+03 -0.23917712114E+04  0.24777743999E+04  0.10100000352E+00 0. -1.
</event>
<event>
 5   0  0.1211008E-06  0.3142838E+04  0.7818609E-02  0.8204079E-01
       -1   -1    0    0    0  501  0.00000000000E+00  0.00000000000E+00  0.12958183122E+04  0.12958183122E+04  0.50400001928E-02 0. -1.
        1   -1    0    0  501    0  0.00000000000E+00  0.00000000000E+00 -0.19056361486E+04  0.19056361486E+04  0.50400001928E-02 0.  1.
    10030    2    1    2    0    0  0.00000000000E+00  0.00000000000E+00 -0.60981783643E+03  0.32014544608E+04  0.31428383463E+04 0.  0.
        3    1    3    3  502    0  0.12312316432E+04 -0.93003923990E+03 -0.19500416405E+01  0.15430191703E+04  0.10100000352E+00 0.  1.
       -3    1    3    3    0  502 -0.12312316432E+04  0.93003923990E+03 -0.60786779478E+03  0.16584352906E+04  0.10100000352E+00 0. -1.
</event>
<event>
 5   0  0.3445959E-06  0.3026906E+04  0.7818609E-02  0.8236089E-01
       -2   -1    0    0    0  501  0.00000000000E+00  0.00000000000E+00  0.14810071704E+04  0.14810071704E+04  0.25500000920E-02 0. -1.
        2   -1    0    0  501    0  0.00000000000E+00  0.00000000000E+00 -0.15466091457E+04  0.15466091457E+04  0.25500000920E-02 0.  1.
    10030    2    1    2    0    0  0.00000000000E+00  0.00000000000E+00 -0.65601975342E+02  0.30276163161E+04  0.30269055054E+04 0.  0.
        4    1    3    3  502    0  0.11230732561E+04 -0.30618462566E+03 -0.10002380532E+04  0.15347704518E+04  0.12699999809E+01 0.  1.
       -4    1    3    3    0  502 -0.11230732561E+04  0.30618462566E+03  0.93463607790E+03  0.14928458643E+04  0.12699999809E+01 0. -1.
</event>
<event>
 5   0  0.1171915E-06  0.3223218E+04  0.7818609E-02  0.8182712E-01
       -1   -1    0    0    0  501  0.00000000000E+00  0.00000000000E+00  0.16705020123E+04  0.16705020123E+04  0.50400001928E-02 0.  1.
        1   -1    0    0  501    0  0.00000000000E+00  0.00000000000E+00 -0.15547924852E+04  0.15547924852E+04  0.50400001928E-02 0. -1.
    10030    2    1    2    0    0  0.00000000000E+00  0.00000000000E+00  0.11570952711E+03  0.32252944975E+04  0.32232182521E+04 0.  0.
        2    1    3    3  502    0 -0.13784309278E+04 -0.34942364739E+03 -0.70099728400E+03  0.15854229405E+04  0.25500000920E-02 0. -1.
       -2    1    3    3    0  502  0.13784309278E+04  0.34942364739E+03  0.81670681111E+03  0.16398715570E+04  0.25500000920E-02 0.  1.
</event>
<event>
 5   0  0.1198763E-06  0.3103814E+04  0.7818609E-02  0.8214692E-01
       -1   -1    0    0    0  501  0.00000000000E+00  0.00000000000E+00  0.19562072193E+04  0.19562072193E+04  0.50400001928E-02 0. -1.
        1   -1    0    0  501    0  0.00000000000E+00  0.00000000000E+00 -0.12311655157E+04  0.12311655157E+04  0.50400001928E-02 0.  1.
    10030    2    1    2    0    0  0.00000000000E+00  0.00000000000E+00  0.72504170361E+03  0.31873727351E+04  0.31038136994E+04 0.  0.
        1    1    3    3  502    0  0.12980602048E+04  0.29917251118E+03  0.11801659587E+04  0.17796786723E+04  0.50400001928E-02 0.  1.
       -1    1    3    3    0  502 -0.12980602048E+04 -0.29917251118E+03 -0.45512425507E+03  0.14076940627E+04  0.50400001928E-02 0. -1.
</event>
<event>
 5   0  0.3441897E-06  0.3021154E+04  0.7818609E-02  0.8237716E-01
        2   -1    0    0  501    0  0.00000000000E+00  0.00000000000E+00  0.19726049110E+04  0.19726049110E+04  0.25500000920E-02 0.  1.
       -2   -1    0    0    0  501  0.00000000000E+00  0.00000000000E+00 -0.11567665432E+04  0.11567665432E+04  0.25500000920E-02 0. -1.
    10030    2    1    2    0    0  0.00000000000E+00  0.00000000000E+00  0.81583836782E+03  0.31293714542E+04  0.30211543251E+04 0.  0.
        5    1    3    3  502    0  0.13836639609E+04 -0.14908668833E+02  0.10354867003E+04  0.17282948306E+04  0.46999998093E+01 0. -1.
       -5    1    3    3    0  502 -0.13836639609E+04  0.14908668833E+02 -0.21964833248E+03  0.14010766236E+04  0.46999998093E+01 0.  1.
</event>
<event>
 5   0  0.1250276E-06  0.3140653E+04  0.7818609E-02  0.8204669E-01
       -1   -1    0    0    0  501  0.00000000000E+00  0.00000000000E+00  0.11784979187E+04  0.11784979187E+04  0.50400001928E-02 0. -1.
        1   -1    0    0  501    0  0.00000000000E+00  0.00000000000E+00 -0.20924311564E+04  0.20924311564E+04  0.50400001928E-02 0.  1.
    10030    2    1    2    0    0  0.00000000000E+00  0.00000000000E+00 -0.91393323769E+03  0.32709290750E+04  0.31406532841E+04 0.  0.
        5    1    3    3  502    0 -0.64917100122E+03 -0.10328616389E+04 -0.14867572754E+04  0.19231992720E+04  0.46999998093E+01 0.  1.
       -5    1    3    3    0  502  0.64917100122E+03  0.10328616389E+04  0.57282403769E+03  0.13477298031E+04  0.46999998093E+01 0. -1.
</event>
<event>
 5   0  0.3340899E-06  0.3083791E+04  0.7818609E-02  0.8220200E-01
       -2   -1    0    0    0  501  0.00000000000E+00  0.00000000000E+00  0.87520823583E+03  0.87520823584E+03  0.25500000920E-02 0. -1.
        2   -1    0    0  501    0  0.00000000000E+00  0.00000000000E+00 -0.27164301460E+04  0.27164301460E+04  0.25500000920E-02 0.  1.
    10030    2    1    2    0    0  0.00000000000E+00  0.00000000000E+00 -0.18412219102E+04  0.35916383819E+04  0.30837911965E+04 0.  0.
        3    1    3    3  502    0  0.55538204452E+03 -0.12931727240E+04 -0.18704838858E+03  0.14197647761E+04  0.10100000352E+00 0. -1.
       -3    1    3    3    0  502 -0.55538204452E+03  0.12931727240E+04 -0.16541735216E+04  0.21718736058E+04  0.10100000352E+00 0.  1.
</event>
<event>
 5   0  0.3445410E-06  0.3085973E+04  0.7818609E-02  0.8219598E-01
       -2   -1    0    0    0  501  0.00000000000E+00  0.00000000000E+00  0.12002208655E+04  0.12002208655E+04  0.25500000920E-02 0. -1.
        2   -1    0    0  501    0  0.00000000000E+00  0.00000000000E+00 -0.19836406150E+04  0.19836406150E+04  0.25500000920E-02 0.  1.
    10030    2    1    2    0    0  0.00000000000E+00  0.00000000000E+00 -0.78341974955E+03  0.31838614805E+04  0.30859726867E+04 0.  0.
        1    1    3    3  502    0  0.11618636513E+04 -0.89096396594E+03 -0.89404541342E+03  0.17155352326E+04  0.50400001928E-02 0.  1.
       -1    1    3    3    0  502 -0.11618636513E+04  0.89096396594E+03  0.11062566386E+03  0.14683262480E+04  0.50400001928E-02 0. -1.
</event>
<event>
 5   0  0.1171915E-06  0.3107182E+04  0.7818609E-02  0.8213770E-01
       -1   -1    0    0    0  501  0.00000000000E+00  0.00000000000E+00  0.12216055836E+04  0.12216055836E+04  0.50400001928E-02 0. -1.
        1   -1    0    0  501    0  0.00000000000E+00  0.00000000000E+00 -0.19757971843E+04  0.19757971843E+04  0.50400001928E-02 0.  1.
    10030    2    1    2    0    0  0.00000000000E+00  0.00000000000E+00 -0.75419160071E+03  0.31974027679E+04  0.31071819209E+04 0.  0.
        2    1    3    3  502    0  0.24617711742E+02  0.16497949416E+03  0.12123640348E+04  0.12237854461E+04  0.25500000920E-02 0. -1.
       -2    1    3    3    0  502 -0.24617711742E+02 -0.16497949416E+03 -0.19665556355E+04  0.19736173218E+04  0.25500000920E-02 0.  1.
</event>
<event>
 5   0  0.1171915E-06  0.3065039E+04  0.7818609E-02  0.8225399E-01
       -1   -1    0    0    0  501  0.00000000000E+00  0.00000000000E+00  0.97983587180E+03  0.97983587181E+03  0.50400001928E-02 0. -1.
        1   -1    0    0  501    0  0.00000000000E+00  0.00000000000E+00 -0.23969485526E+04  0.23969485527E+04  0.50400001928E-02 0.  1.
    10030    2    1    2    0    0  0.00000000000E+00  0.00000000000E+00 -0.14171126808E+04  0.33767844245E+04  0.30650391024E+04 0.  0.
        2    1    3    3  502    0 -0.14023491616E+03 -0.61514853946E+03  0.83011207267E+03  0.10426694637E+04  0.25500000920E-02 0. -1.
       -2    1    3    3    0  502  0.14023491616E+03  0.61514853946E+03 -0.22472247535E+04  0.23341149608E+04  0.25500000920E-02 0.  1.
</event>
<event>
 5   0  0.3340899E-06  0.3081497E+04  0.7818609E-02  0.8220834E-01
        2   -1    0    0  501    0  0.00000000000E+00  0.00000000000E+00  0.13941791950E+04  0.13941791951E+04  0.25500000920E-02 0. -1.
       -2   -1    0    0    0  501  0.00000000000E+00  0.00000000000E+00 -0.17027261997E+04  0.17027261997E+04  0.25500000920E-02 0.  1.
    10030    2    1    2    0    0  0.00000000000E+00  0.00000000000E+00 -0.30854700469E+03  0.30969053948E+04  0.30814966770E+04 0.  0.
        3    1    3    3  502    0  0.54725549202E+03  0.65621758324E+03 -0.14427903684E+04  0.16768285981E+04  0.10100000352E+00 0.  1.
       -3    1    3    3    0  502 -0.54725549202E+03 -0.65621758324E+03  0.11342433637E+04  0.14200767967E+04  0.10100000352E+00 0. -1.
</event>
<event>
 5   0  0.3340899E-06  0.3110542E+04  0.7818609E-02  0.8212851E-01
        2   -1    0    0  501    0  0.00000000000E+00  0.00000000000E+00  0.21946128934E+04  0.21946128934E+04  0.25500000920E-02 0.  1.
       -2   -1    0    0    0  501  0.00000000000E+00  0.00000000000E+00 -0.11021844147E+04  0.11021844147E+04  0.25500000920E-02 0. -1.
    10030    2    1    2    0    0  0.00000000000E+00  0.00000000000E+00  0.10924284787E+04  0.32967973081E+04  0.31105421569E+04 0.  0.
        3    1    3    3  502    0  0.53963708656E+03 -0.48200674443E+03  0.20053594312E+04  0.21319017673E+04  0.10100000352E+00 0.  1.
       -3    1    3    3    0  502 -0.53963708656E+03  0.48200674443E+03 -0.91293095250E+03  0.11648955409E+04  0.10100000352E+00 0. -1.
</event>
<event>
 5   0  0.1235960E-06  0.3061400E+04  0.7818609E-02  0.8226412E-01
        1   -1    0    0  501    0  0.00000000000E+00  0.00000000000E+00  0.23590978950E+04  0.23590978951E+04  0.50400001928E-02 0.  1.
       -1   -1    0    0    0  501  0.00000000000E+00  0.00000000000E+00 -0.99319428707E+03  0.99319428708E+03  0.50400001928E-02 0. -1.
    10030    2    1    2    0    0  0.00000000000E+00  0.00000000000E+00  0.13659036080E+04  0.33522921821E+04  0.30614000405E+04 0.  0.
        4    1    3    3  502    0  0.12290392048E+04  0.90092930487E+03  0.84099143156E+03  0.17405399105E+04  0.12699999809E+01 0.  1.
       -4    1    3    3    0  502 -0.12290392048E+04 -0.90092930487E+03  0.52491217642E+03  0.16117522716E+04  0.12699999809E+01 0. -1.
</event>
<event>
 5   0  0.1235960E-06  0.3106280E+04  0.7818609E-02  0.8214016E-01
        1   -1    0    0  501    0  0.00000000000E+00  0.00000000000E+00  0.21299246485E+04  0.21299246485E+04  0.50400001928E-02 0. -1.
       -1   -1    0    0    0  501  0.00000000000E+00  0.00000000000E+00 -0.11325492662E+04  0.11325492663E+04  0.50400001928E-02 0.  1.
    10030    2    1    2    0    0  0.00000000000E+00  0.00000000000E+00  0.99737538230E+03  0.32624739148E+04  0.31062804753E+04 0.  0.
        4    1    3    3  502    0 -0.63327932747E+02 -0.17043010427E+03 -0.11213331117E+04  0.11359781723E+04  0.12699999809E+01 0.  1.
       -4    1    3    3    0  502  0.63327932747E+02  0.17043010427E+03  0.21187084940E+04  0.21264957425E+04  0.12699999809E+01 0. -1.
</event>
<event>
 5   0  0.1198763E-06  0.3121924E+04  0.7818609E-02  0.8209747E-01
        1   -1    0    0  501    0  0.00000000000E+00  0.00000000000E+00  0.16411785332E+04  0.16411785332E+04  0.50400001928E-02 0. -1.
       -1   -1    0    0    0  501  0.00000000000E+00  0.00000000000E+00 -0.14846659710E+04  0.14846659710E+04  0.50400001928E-02 0.  1.
    10030    2    1    2    0    0  0.00000000000E+00  0.00000000000E+00  0.15651256222E+03  0.31258445042E+04  0.31219237150E+04 0.  0.
        1    1    3    3  502    0 -0.96820492391E+03  0.24604007521E+03  0.12791981007E+04  0.16230539960E+04  0.50400001928E-02 0. -1.
       -1    1    3    3    0  502  0.96820492391E+03 -0.24604007521E+03 -0.11226855384E+04  0.15027905082E+04  0.50400001928E-02 0.  1.
</event>
<event>
 5   0  0.1198763E-06  0.3095206E+04  0.7818609E-02  0.8217055E-01
       -1   -1    0    0    0  501  0.00000000000E+00  0.00000000000E+00  0.16979270306E+04  0.16979270306E+04  0.50400001928E-02 0.  1.
        1   -1    0    0  501    0  0.00000000000E+00  0.00000000000E+00 -0.14105873912E+04  0.14105873912E+04  0.50400001928E-02 0. -1.
    10030    2    1    2    0    0  0.00000000000E+00  0.00000000000E+00  0.28733963940E+03  0.31085144218E+04  0.30952056220E+04 0.  0.
        1    1    3    3  502    0  0.96904533521E+02  0.39348617576E+03 -0.13563562922E+04  0.14156003145E+04  0.50400001928E-02 0. -1.
       -1    1    3    3    0  502 -0.96904533521E+02 -0.39348617576E+03  0.16436959316E+04  0.16929141073E+04  0.50400001928E-02 0.  1.
</event>
<event>
 5   0  0.1171915E-06  0.3104051E+04  0.7818609E-02  0.8214627E-01
       -1   -1    0    0    0  501  0.00000000000E+00  0.00000000000E+00  0.13653864645E+04  0.13653864645E+04  0.50400001928E-02 0.  1.
        1   -1    0    0  501    0  0.00000000000E+00  0.00000000000E+00 -0.17641769889E+04  0.17641769889E+04  0.50400001928E-02 0. -1.
    10030    2    1    2    0    0  0.00000000000E+00  0.00000000000E+00 -0.39879052443E+03  0.31295634534E+04  0.31040511475E+04 0.  0.
        2    1    3    3  502    0  0.95436257935E+03 -0.12233770133E+04 -0.23608296790E+03  0.15694567268E+04  0.25500000920E-02 0. -1.
       -2    1    3    3    0  502 -0.95436257935E+03  0.12233770133E+04 -0.16270755653E+03  0.15601067266E+04  0.25500000920E-02 0.  1.
</event>
<event>
 5   0  0.1250276E-06  0.3108431E+04  0.7818609E-02  0.8213428E-01
       -1   -1    0    0    0  501  0.00000000000E+00  0.00000000000E+00  0.14406900245E+04  0.14406900245E+04  0.50400001928E-02 0. -1.
        1   -1    0    0  501    0  0.00000000000E+00  0.00000000000E+00 -0.16766869329E+04  0.16766869329E+04  0.50400001928E-02 0.  1.
    10030    2    1    2    0    0  0.00000000000E+00  0.00000000000E+00 -0.23599690839E+03  0.31173769575E+04  0.31084312047E+04 0.  0.
        5    1    3    3  502    0 -0.31718762715E+03 -0.13455023302E+04 -0.83038035657E+03  0.16126184105E+04  0.46999998093E+01 0.  1.
       -5    1    3    3    0  502  0.31718762715E+03  0.13455023302E+04  0.59438344818E+03  0.15047585470E+04  0.46999998093E+01 0. -1.
</event>
<event>
 5   0  0.1171915E-06  0.3125079E+04  0.7818609E-02  0.8208889E-01
        1   -1    0    0  501    0  0.00000000000E+00  0.00000000000E+00  0.17142865207E+04  0.17142865207E+04  0.50400001928E-02 0. -1.
       -1   -1    0    0    0  501  0.00000000000E+00  0.00000000000E+00 -0.14242250220E+04  0.14242250220E+04  0.50400001928E-02 0.  1.
    10030    2    1    2    0    0  0.00000000000E+00  0.00000000000E+00  0.29006149869E+03  0.31385115427E+04  0.31250790439E+04 0.  0.
        2    1    3    3  502    0 -0.19741536218E+03 -0.67226715430E+03 -0.12576161966E+04  0.14396230236E+04  0.25500000920E-02 0.  1.
       -2    1    3    3    0  502  0.19741536218E+03  0.67226715430E+03  0.15476776953E+04  0.16988885192E+04  0.25500000920E-02 0. -1.
</event>
<event>
 5   0  0.3445410E-06  0.3004095E+04  0.7818609E-02  0.8242562E-01
        2   -1    0    0  501    0  0.00000000000E+00  0.00000000000E+00  0.21311962510E+04  0.21311962510E+04  0.25500000920E-02 0.  1.
       -2   -1    0    0    0  501  0.00000000000E+00  0.00000000000E+00 -0.10586292725E+04  0.10586292725E+04  0.25500000920E-02 0. -1.
    10030    2    1    2    0    0  0.00000000000E+00  0.00000000000E+00  0.10725669785E+04  0.31898255234E+04  0.30040950295E+04 0.  0.
        1    1    3    3  502    0 -0.10852169118E+04  0.34568743740E+03 -0.50352057938E+03  0.12452825077E+04  0.50400001928E-02 0. -1.
       -1    1    3    3    0  502  0.10852169118E+04 -0.34568743740E+03  0.15760875579E+04  0.19445430158E+04  0.50400001928E-02 0.  1.
</event>
<event>
 5   0  0.3445410E-06  0.3065849E+04  0.7818609E-02  0.8225173E-01
        2   -1    0    0  501    0  0.00000000000E+00  0.00000000000E+00  0.16279065079E+04  0.16279065080E+04  0.25500000920E-02 0. -1.
       -2   -1    0    0    0  501  0.00000000000E+00  0.00000000000E+00 -0.14434844544E+04  0.14434844544E+04  0.25500000920E-02 0.  1.
    10030    2    1    2    0    0  0.00000000000E+00  0.00000000000E+00  0.18442205356E+03  0.30713909623E+04  0.30658491401E+04 0.  0.
        1    1    3    3  502    0 -0.37183901966E+03 -0.78914728053E+03 -0.11705594233E+04  0.14598722719E+04  0.50400001928E-02 0.  1.
       -1    1    3    3    0  502  0.37183901966E+03  0.78914728053E+03  0.13549814768E+04  0.16115186904E+04  0.50400001928E-02 0. -1.
</event>
<event>
 5   0  0.3374790E-06  0.3056087E+04  0.7818609E-02  0.8227894E-01
       -2   -1    0    0    0  501  0.00000000000E+00  0.00000000000E+00  0.11999344147E+04  0.11999344147E+04  0.25500000920E-02 0.  1.
        2   -1    0    0  501    0  0.00000000000E+00  0.00000000000E+00 -0.19458705398E+04  0.19458705398E+04  0.25500000920E-02 0. -1.
    10030    2    1    2    0    0  0.00000000000E+00  0.00000000000E+00 -0.74593612504E+03  0.31458049545E+04  0.30560870585E+04 0.  0.
        2    1    3    3  502    0 -0.65051377334E+03 -0.40752139780E+03 -0.17329958677E+04  0.18953935044E+04  0.25500000920E-02 0. -1.
       -2    1    3    3    0  502  0.65051377334E+03  0.40752139780E+03  0.98705974268E+03  0.12504114501E+04  0.25500000920E-02 0.  1.
</event>
<event>
 5   0  0.1235960E-06  0.3113255E+04  0.7818609E-02  0.8212110E-01
       -1   -1    0    0    0  501  0.00000000000E+00  0.00000000000E+00  0.95748595958E+03  0.95748595959E+03  0.50400001928E-02 0. -1.
        1   -1    0    0  501    0  0.00000000000E+00  0.00000000000E+00 -0.25306783304E+04  0.25306783304E+04  0.50400001928E-02 0.  1.
    10030    2    1    2    0    0  0.00000000000E+00  0.00000000000E+00 -0.15731923708E+04  0.34881642900E+04  0.31132548689E+04 0.  0.
        4    1    3    3  502    0  0.90533893910E+03 -0.98549187151E+03 -0.16774946936E+04  0.21458851049E+04  0.12699999809E+01 0.  1.
       -4    1    3    3    0  502 -0.90533893910E+03  0.98549187151E+03  0.10430232272E+03  0.13422791852E+04  0.12699999809E+01 0. -1.
</event>
<event>
 5   0  0.1235960E-06  0.3074556E+04  0.7818609E-02  0.8222756E-01
        1   -1    0    0  501    0  0.00000000000E+00  0.00000000000E+00  0.21628397774E+04  0.21628397774E+04  0.50400001928E-02 0.  1.
       -1   -1    0    0    0  501  0.00000000000E+00  0.00000000000E+00 -0.10926485490E+04  0.10926485490E+04  0.50400001928E-02 0. -1.
    10030    2    1    2    0    0  0.00000000000E+00  0.00000000000E+00  0.10701912284E+04  0.32554883264E+04  0.30745560620E+04 0.  0.
        4    1    3    3  502    0 -0.96716881050E+03  0.11162989161E+04  0.83768635612E+02  0.14793774283E+04  0.12699999809E+01 0. -1.
       -4    1    3    3    0  502  0.96716881050E+03 -0.11162989161E+04  0.98642259277E+03  0.17761108981E+04  0.12699999809E+01 0.  1.
</event>
<event>
 5   0  0.1198763E-06  0.3067863E+04  0.7818609E-02  0.8224613E-01
        1   -1    0    0  501    0  0.00000000000E+00  0.00000000000E+00  0.18961823313E+04  0.18961823313E+04  0.50400001928E-02 0. -1.
       -1   -1    0    0    0  501  0.00000000000E+00  0.00000000000E+00 -0.12408855528E+04  0.12408855528E+04  0.50400001928E-02 0.  1.
    10030    2    1    2    0    0  0.00000000000E+00  0.00000000000E+00  0.65529677850E+03  0.31370678841E+04  0.30678626178E+04 0.  0.
        1    1    3    3  502    0  0.33923698458E+03  0.77709005683E+03  0.16347619307E+04  0.18415746681E+04  0.50400001928E-02 0. -1.
       -1    1    3    3    0  502 -0.33923698458E+03 -0.77709005683E+03 -0.97946515224E+03  0.12954932160E+04  0.50400001928E-02 0.  1.
</event>
<event>
 5   0  0.1171915E-06  0.3080856E+04  0.7818609E-02  0.8221012E-01
       -1   -1    0    0    0  501  0.00000000000E+00  0.00000000000E+00  0.11029385715E+04  0.11029385715E+04  0.50400001928E-02 0. -1.
        1   -1    0    0  501    0  0.00000000000E+00  0.00000000000E+00 -0.21514509528E+04  0.21514509529E+04  0.50400001928E-02 0.  1.
    10030    2    1    2    0    0  0.00000000000E+00  0.00000000000E+00 -0.10485123813E+04  0.32543895244E+04  0.30808558815E+04 0.  0.
        2    1    3    3  502    0 -0.88268433517E+03 -0.11590398924E+04 -0.10528556335E+04  0.17975010689E+04  0.25500000920E-02 0. -1.
       -2    1    3    3    0  502  0.88268433517E+03  0.11590398924E+04  0.43432521986E+01  0.14568884555E+04  0.25500000920E-02 0.  1.
</event>
<event>
 5   0  0.1171915E-06  0.3080303E+04  0.7818609E-02  0.8221165E-01
        1   -1    0    0  501    0  0.00000000000E+00  0.00000000000E+00  0.18641162629E+04  0.18641162629E+04  0.50400001928E-02 0. -1.
       -1   -1    0    0    0  501  0.00000000000E+00  0.00000000000E+00 -0.12724882808E+04  0.12724882809E+04  0.50400001928E-02 0.  1.
    10030    2    1    2    0    0  0.00000000000E+00  0.00000000000E+00  0.59162798208E+03  0.31366045438E+04  0.30803026466E+04 0.  0.
        2    1    3    3  502    0 -0.73385926797E+03 -0.12294963835E+04  0.87350648119E+03  0.16772669302E+04  0.25500000920E-02 0. -1.
       -2    1    3    3    0  502  0.73385926797E+03  0.12294963835E+04 -0.28187849911E+03  0.14593376136E+04  0.25500000920E-02 0.  1.
</event>
<event>
 5   0  0.3340899E-06  0.3004854E+04  0.7818609E-02  0.8242346E-01
       -2   -1    0    0    0  501  0.00000000000E+00  0.00000000000E+00  0.80692893290E+03  0.80692893291E+03  0.25500000920E-02 0.  1.
        2   -1    0    0  501    0  0.00000000000E+00  0.00000000000E+00 -0.27973808916E+04  0.27973808916E+04  0.25500000920E-02 0. -1.
    10030    2    1    2    0    0  0.00000000000E+00  0.00000000000E+00 -0.19904519587E+04  0.36043098245E+04  0.30048544576E+04 0.  0.
        3    1    3    3  502    0 -0.31640747659E+03  0.34962831708E+02 -0.27564644583E+04  0.27747851108E+04  0.10100000352E+00 0. -1.
       -3    1    3    3    0  502  0.31640747659E+03 -0.34962831708E+02  0.76601249964E+03  0.82952471371E+03  0.10100000352E+00 0.  1.
</event>
<event>
 5   0  0.3445410E-06  0.3109285E+04  0.7818609E-02  0.8213194E-01
        2   -1    0    0  501    0  0.00000000000E+00  0.00000000000E+00  0.19212653502E+04  0.19212653502E+04  0.25500000920E-02 0.  1.
       -2   -1    0    0    0  501  0.00000000000E+00  0.00000000000E+00 -0.12579795864E+04  0.12579795864E+04  0.25500000920E-02 0. -1.
    10030    2    1    2    0    0  0.00000000000E+00  0.00000000000E+00  0.66328576379E+03  0.31792449366E+04  0.31092845419E+04 0.  0.
        1    1    3    3  502    0  0.69507342244E+03  0.12584750967E+03  0.17477037680E+04  0.18850552031E+04  0.50400001928E-02 0.  1.
       -1    1    3    3    0  502 -0.69507342244E+03 -0.12584750967E+03 -0.10844180042E+04  0.12941897334E+04  0.50400001928E-02 0. -1.
</event>
<event>
 5   0  0.3340899E-06  0.3076729E+04  0.7818609E-02  0.8222154E-01
        2   -1    0    0  501    0  0.00000000000E+00  0.00000000000E+00  0.18606780551E+04  0.18606780551E+04  0.25500000920E-02 0.  1.
       -2   -1    0    0    0  501  0.00000000000E+00  0.00000000000E+00 -0.12718835111E+04  0.12718835111E+04  0.25500000920E-02 0. -1.
    10030    2    1    2    0    0  0.00000000000E+00  0.00000000000E+00  0.58879454398E+03  0.31325615662E+04  0.30767292619E+04 0.  0.
        3    1    3    3  502    0 -0.87342654172E+03  0.11794037268E+04  0.76395901160E+03  0.16545393486E+04  0.10100000352E+00 0.  1.
       -3    1    3    3    0  502  0.87342654172E+03 -0.11794037268E+04 -0.17516446762E+03  0.14780222175E+04  0.10100000352E+00 0. -1.
</event>
<event>
 5   0  0.1198763E-06  0.3089516E+04  0.7818609E-02  0.8218621E-01
        1   -1    0    0  501    0  0.00000000000E+00  0.00000000000E+00  0.11782054323E+04  0.11782054323E+04  0.50400001928E-02 0. -1.
       -1   -1    0    0    0  501  0.00000000000E+00  0.00000000000E+00 -0.20253493813E+04  0.20253493813E+04  0.50400001928E-02 0.  1.
    10030    2    1    2    0    0  0.00000000000E+00  0.00000000000E+00 -0.84714394897E+03  0.32035548136E+04  0.30895162361E+04 0.  0.
        1    1    3    3  502    0  0.10794072713E+04 -0.97454735501E+03  0.11663306489E+03  0.14589262752E+04  0.50400001928E-02 0. -1.
       -1    1    3    3    0  502 -0.10794072713E+04  0.97454735501E+03 -0.96377701386E+03  0.17446285384E+04  0.50400001928E-02 0.  1.
</event>
<event>
 5   0  0.3374790E-06  0.3073713E+04  0.7818609E-02  0.8222989E-01
       -2   -1    0    0    0  501  0.00000000000E+00  0.00000000000E+00  0.15312702618E+04  0.15312702618E+04  0.25500000920E-02 0. -1.
        2   -1    0    0  501    0  0.00000000000E+00  0.00000000000E+00 -0.15424633169E+04  0.15424633169E+04  0.25500000920E-02 0.  1.
    10030    2    1    2    0    0  0.00000000000E+00  0.00000000000E+00 -0.11193055056E+02  0.30737335787E+04  0.30737131988E+04 0.  0.
        2    1    3    3  502    0 -0.73951420430E+02 -0.14038443750E+04  0.61543928447E+03  0.15346052765E+04  0.25500000920E-02 0. -1.
       -2    1    3    3    0  502  0.73951420430E+02  0.14038443750E+04 -0.62663233953E+03  0.15391283022E+04  0.25500000920E-02 0.  1.
</event>
<event>
 5   0  0.3374790E-06  0.3167080E+04  0.7818609E-02  0.8197566E-01
       -2   -1    0    0    0  501  0.00000000000E+00  0.00000000000E+00  0.14007765797E+04  0.14007765797E+04  0.25500000920E-02 0. -1.
        2   -1    0    0  501    0  0.00000000000E+00  0.00000000000E+00 -0.17901495361E+04  0.17901495361E+04  0.25500000920E-02 0.  1.
    10030    2    1    2    0    0  0.00000000000E+00  0.00000000000E+00 -0.38937295642E+03  0.31909261158E+04  0.31670803869E+04 0.  0.
        2    1    3    3  502    0 -0.53457440021E+03 -0.54175297498E+03 -0.15937863965E+04  0.17661883118E+04  0.25500000920E-02 0.  1.
       -2    1    3    3    0  502  0.53457440021E+03  0.54175297498E+03  0.12044134401E+04  0.14247378039E+04  0.25500000920E-02 0. -1.
</event>
<event>
 5   0  0.1198763E-06  0.2997371E+04  0.7818609E-02  0.8244482E-01
        1   -1    0    0  501    0  0.00000000000E+00  0.00000000000E+00  0.16766376166E+04  0.16766376166E+04  0.50400001928E-02 0.  1.
       -1   -1    0    0    0  501  0.00000000000E+00  0.00000000000E+00 -0.13396208973E+04  0.13396208973E+04  0.50400001928E-02 0. -1.
    10030    2    1    2    0    0  0.00000000000E+00  0.00000000000E+00  0.33701671927E+03  0.30162585140E+04  0.29973713741E+04 0.  0.
        1    1    3    3  502    0  0.10974180302E+04  0.69688525618E+03  0.91891724727E+03  0.15919749686E+04  0.50400001928E-02 0.  1.
       -1    1    3    3    0  502 -0.10974180302E+04 -0.69688525618E+03 -0.58190052799E+03  0.14242835454E+04  0.50400001928E-02 0. -1.
</event>
<event>
 5   0  0.1235960E-06  0.3014770E+04  0.7818609E-02  0.8239526E-01
        1   -1    0    0  501    0  0.00000000000E+00  0.00000000000E+00  0.13464335211E+04  0.13464335211E+04  0.50400001928E-02 0. -1.
       -1   -1    0    0    0  501  0.00000000000E+00  0.00000000000E+00 -0.16875761657E+04  0.16875761657E+04  0.50400001928E-02 0.  1.
    10030    2    1    2    0    0  0.00000000000E+00  0.00000000000E+00 -0.34114264459E+03  0.30340096869E+04  0.30147697219E+04 0.  0.
        4    1    3    3  502    0 -0.32429996801E+03 -0.44293425605E+03  0.12422563556E+04  0.13581471534E+04  0.12699999809E+01 0. -1.
       -4    1    3    3    0  502  0.32429996801E+03  0.44293425605E+03 -0.15833990002E+04  0.16758625335E+04  0.12699999809E+01 0.  1.
</event>
<event>
 5   0  0.1250276E-06  0.2783733E+04  0.7818609E-02  0.8308336E-01
        1   -1    0    0  501    0  0.00000000000E+00  0.00000000000E+00  0.18246199151E+04  0.18246199151E+04  0.50400001928E-02 0. -1.
       -1   -1    0    0    0  501  0.00000000000E+00  0.00000000000E+00 -0.10617513432E+04  0.10617513432E+04  0.50400001928E-02 0.  1.
    10030    2    1    2    0    0  0.00000000000E+00  0.00000000000E+00  0.76286857190E+03  0.28863712583E+04  0.27837332097E+04 0.  0.
        5    1    3    3  502    0 -0.72338963293E+03 -0.25012264667E+03  0.15868010557E+04  0.17617643371E+04  0.46999998093E+01 0. -1.
       -5    1    3    3    0  502  0.72338963293E+03  0.25012264667E+03 -0.82393248375E+03  0.11246069212E+04  0.46999998093E+01 0.  1.
</event>
<event>
 5   0  0.3445959E-06  0.3134872E+04  0.7818609E-02  0.8206232E-01
       -2   -1    0    0    0  501  0.00000000000E+00  0.00000000000E+00  0.14282564619E+04  0.14282564619E+04  0.25500000920E-02 0.  1.
        2   -1    0    0  501    0  0.00000000000E+00  0.00000000000E+00 -0.17201783471E+04  0.17201783471E+04  0.25500000920E-02 0. -1.
    10030    2    1    2    0    0  0.00000000000E+00  0.00000000000E+00 -0.29192188526E+03  0.31484348090E+04  0.31348721441E+04 0.  0.
        4    1    3    3  502    0  0.14837495161E+04  0.41224936089E+03 -0.43944440246E+03  0.16014290986E+04  0.12699999809E+01 0. -1.
       -4    1    3    3    0  502 -0.14837495161E+04 -0.41224936089E+03  0.14752251720E+03  0.15470057104E+04  0.12699999809E+01 0.  1.
</event>
<event>
 5   0  0.1250276E-06  0.3290619E+04  0.7818609E-02  0.8165286E-01
       -1   -1    0    0    0  501  0.00000000000E+00  0.00000000000E+00  0.19414831391E+04  0.19414831391E+04  0.50400001928E-02 0.  1.
        1   -1    0    0  501    0  0.00000000000E+00  0.00000000000E+00 -0.13943174894E+04  0.13943174894E+04  0.50400001928E-02 0. -1.
    10030    2    1    2    0    0  0.00000000000E+00  0.00000000000E+00  0.54716564970E+03  0.33358006285E+04  0.32906193315E+04 0.  0.
        5    1    3    3  502    0  0.51962209719E+03 -0.13764436889E+04  0.10201850316E+04  0.17903641923E+04  0.46999998093E+01 0.  1.
       -5    1    3    3    0  502 -0.51962209719E+03  0.13764436889E+04 -0.47301938190E+03  0.15454364361E+04  0.46999998093E+01 0. -1.
</event>
<event>
 5   0  0.3445410E-06  0.2939586E+04  0.7818609E-02  0.8261196E-01
       -2   -1    0    0    0  501  0.00000000000E+00  0.00000000000E+00  0.94006616011E+03  0.94006616011E+03  0.25500000920E-02 0.  1.
        2   -1    0    0  501    0  0.00000000000E+00  0.00000000000E+00 -0.22980212710E+04  0.22980212710E+04  0.25500000920E-02 0. -1.
    10030    2    1    2    0    0  0.00000000000E+00  0.00000000000E+00 -0.13579551109E+04  0.32380874311E+04  0.29395863873E+04 0.  0.
        1    1    3    3  502    0  0.17509178713E+02  0.16766662494E+03 -0.22873367458E+04  0.22935405070E+04  0.50400001928E-02 0. -1.
       -1    1    3    3    0  502 -0.17509178713E+02 -0.16766662494E+03  0.92938163494E+03  0.94454692411E+03  0.50400001928E-02 0.  1.
</event>
<event>
 5   0  0.1250276E-06  0.3099700E+04  0.7818609E-02  0.8215820E-01
       -1   -1    0    0    0  501  0.00000000000E+00  0.00000000000E+00  0.16100041985E+04  0.16100041985E+04  0.50400001928E-02 0.  1.
        1   -1    0    0  501    0  0.00000000000E+00  0.00000000000E+00 -0.14919429271E+04  0.14919429271E+04  0.50400001928E-02 0. -1.
    10030    2    1    2    0    0  0.00000000000E+00  0.00000000000E+00  0.11806127146E+03  0.31019471256E+04  0.30996995832E+04 0.  0.
        5    1    3    3  502    0  0.18721907128E+03 -0.12305466749E+04 -0.86506525580E+03  0.15158021265E+04  0.46999998093E+01 0. -1.
       -5    1    3    3    0  502 -0.18721907128E+03  0.12305466749E+04  0.98312652727E+03  0.15861449992E+04  0.46999998093E+01 0.  1.
</event>
<event>
 5   0  0.1211008E-06  0.3070255E+04  0.7818609E-02  0.8223949E-01
        1   -1    0    0  501    0  0.00000000000E+00  0.00000000000E+00  0.20423515849E+04  0.20423515849E+04  0.50400001928E-02 0. -1.
       -1   -1    0    0    0  501  0.00000000000E+00  0.00000000000E+00 -0.11538736781E+04  0.11538736781E+04  0.50400001928E-02 0.  1.
    10030    2    1    2    0    0  0.00000000000E+00  0.00000000000E+00  0.88847790681E+03  0.31962252630E+04  0.30702545401E+04 0.  0.
        3    1    3    3  502    0 -0.87103368622E+03 -0.21768119561E+03 -0.85205416628E+03  0.12377726358E+04  0.10100000352E+00 0.  1.
       -3    1    3    3    0  502  0.87103368622E+03  0.21768119561E+03  0.17405320731E+04  0.19584526272E+04  0.10100000352E+00 0. -1.
</event>
<event>
 5   0  0.1211008E-06  0.3109090E+04  0.7818609E-02  0.8213248E-01
        1   -1    0    0  501    0  0.00000000000E+00  0.00000000000E+00  0.12857746194E+04  0.12857746194E+04  0.50400001928E-02 0.  1.
       -1   -1    0    0    0  501  0.00000000000E+00  0.00000000000E+00 -0.18794976943E+04  0.18794976943E+04  0.50400001928E-02 0. -1.
    10030    2    1    2    0    0  0.00000000000E+00  0.00000000000E+00 -0.59372307487E+03  0.31652723137E+04  0.31090901772E+04 0.  0.
        3    1    3    3  502    0  0.11048333363E+04  0.59677022683E+03 -0.12298378400E+04  0.17576383381E+04  0.10100000352E+00 0. -1.
       -3    1    3    3    0  502 -0.11048333363E+04 -0.59677022683E+03  0.63611476511E+03  0.14076339756E+04  0.10100000352E+00 0.  1.
</event>
<event>
 5   0  0.1250276E-06  0.3076565E+04  0.7818609E-02  0.8222199E-01
        1   -1    0    0  501    0  0.00000000000E+00  0.00000000000E+00  0.14481876645E+04  0.14481876645E+04  0.50400001928E-02 0. -1.
       -1   -1    0    0    0  501  0.00000000000E+00  0.00000000000E+00 -0.16339823970E+04  0.16339823970E+04  0.50400001928E-02 0.  1.
    10030    2    1    2    0    0  0.00000000000E+00  0.00000000000E+00 -0.18579473243E+03  0.30821700615E+04  0.30765650660E+04 0.  0.
        5    1    3    3  502    0  0.14033471038E+04 -0.56002769265E+03  0.19620583564E+03  0.15236577471E+04  0.46999998093E+01 0. -1.
       -5    1    3    3    0  502 -0.14033471038E+04  0.56002769265E+03 -0.38200056807E+03  0.15585123144E+04  0.46999998093E+01 0.  1.
</event>
<event>
 5   0  0.3445959E-06  0.3111468E+04  0.7818609E-02  0.8212598E-01
       -2   -1    0    0    0  501  0.00000000000E+00  0.00000000000E+00  0.25609453689E+04  0.25609453689E+04  0.25500000920E-02 0. -1.
        2   -1    0    0  501    0  0.00000000000E+00  0.00000000000E+00 -0.94508397966E+03  0.94508397967E+03  0.25500000920E-02 0.  1.
    10030    2    1    2    0    0  0.00000000000E+00  0.00000000000E+00  0.16158613892E+04  0.35060293486E+04  0.31114681042E+04 0.  0.
        4    1    3    3  502    0  0.10891146445E+04 -0.64597625816E+03 -0.21047674050E+03  0.12836503053E+04  0.12699999809E+01 0.  1.
       -4    1    3    3    0  502 -0.10891146445E+04  0.64597625816E+03  0.18263381297E+04  0.22223790433E+04  0.12699999809E+01 0. -1.
</event>
<event>
 5   0  0.3340899E-06  0.3093322E+04  0.7818609E-02  0.8217573E-01
       -2   -1    0    0    0  501  0.00000000000E+00  0.00000000000E+00  0.16797521494E+04  0.16797521494E+04  0.25500000920E-02 0. -1.
        2   -1    0    0  501    0  0.00000000000E+00  0.00000000000E+00 -0.14241148246E+04  0.14241148246E+04  0.25500000920E-02 0.  1.
    10030    2    1    2    0    0  0.00000000000E+00  0.00000000000E+00  0.25563732484E+03  0.31038669740E+04  0.30933217987E+04 0.  0.
        3    1    3    3  502    0 -0.10543522053E+04  0.33610541668E+03  0.12120272923E+04  0.16412299021E+04  0.10100000352E+00 0. -1.
       -3    1    3    3    0  502  0.10543522053E+04 -0.33610541668E+03 -0.95638996745E+03  0.14626370719E+04  0.10100000352E+00 0.  1.
</event>
<event>
 5   0  0.3374790E-06  0.3072992E+04  0.7818609E-02  0.8223189E-01
       -2   -1    0    0    0  501  0.00000000000E+00  0.00000000000E+00  0.20665095525E+04  0.20665095525E+04  0.25500000920E-02 0. -1.
        2   -1    0    0  501    0  0.00000000000E+00  0.00000000000E+00 -0.11424190085E+04  0.11424190085E+04  0.25500000920E-02 0.  1.
    10030    2    1    2    0    0  0.00000000000E+00  0.00000000000E+00  0.92409054408E+03  0.32089285610E+04  0.30729918933E+04 0.  0.
        2    1    3    3  502    0  0.12620969121E+04  0.34236223687E+03 -0.38031033399E+03  0.13618870977E+04  0.25500000920E-02 0.  1.
       -2    1    3    3    0  502 -0.12620969121E+04 -0.34236223687E+03  0.13044008781E+04  0.18470414634E+04  0.25500000920E-02 0. -1.
</event>
<event>
 5   0  0.3445410E-06  0.3060252E+04  0.7818609E-02  0.8226732E-01
       -2   -1    0    0    0  501  0.00000000000E+00  0.00000000000E+00  0.15359441632E+04  0.15359441632E+04  0.25500000920E-02 0.  1.
        2   -1    0    0  501    0  0.00000000000E+00  0.00000000000E+00 -0.15243299425E+04  0.15243299425E+04  0.25500000920E-02 0. -1.
    10030    2    1    2    0    0  0.00000000000E+00  0.00000000000E+00  0.11614220767E+02  0.30602741057E+04  0.30602520667E+04 0.  0.
        1    1    3    3  502    0 -0.81444137505E+03  0.41682169119E+03  0.12322867345E+04  0.15347917356E+04  0.50400001928E-02 0.  1.
       -1    1    3    3    0  502  0.81444137505E+03 -0.41682169119E+03 -0.12206725137E+04  0.15254823701E+04  0.50400001928E-02 0. -1.
</event>
<event>
 5   0  0.3441897E-06  0.3098111E+04  0.7818609E-02  0.8216257E-01
       -2   -1    0    0    0  501  0.00000000000E+00  0.00000000000E+00  0.12830941797E+04  0.12830941797E+04  0.25500000920E-02 0.  1.
        2   -1    0    0  501    0  0.00000000000E+00  0.00000000000E+00 -0.18701453144E+04  0.18701453144E+04  0.25500000920E-02 0. -1.
    10030    2    1    2    0    0  0.00000000000E+00  0.00000000000E+00 -0.58705113470E+03  0.31532394942E+04  0.30981107587E+04 0.  0.
        5    1    3    3  502    0 -0.29452161078E+03 -0.90189740721E+03 -0.15398098410E+04  0.18086454459E+04  0.46999998093E+01 0. -1.
       -5    1    3    3    0  502  0.29452161078E+03  0.90189740721E+03  0.95275870632E+03  0.13445940483E+04  0.46999998093E+01 0.  1.
</event>
<event>
 5   0  0.3340899E-06  0.3074552E+04  0.7818609E-02  0.8222757E-01
        2   -1    0    0  501    0  0.00000000000E+00  0.00000000000E+00  0.13455544653E+04  0.13455544653E+04  0.25500000920E-02 0.  1.
       -2   -1    0    0    0  501  0.00000000000E+00  0.00000000000E+00 -0.17563148084E+04  0.17563148084E+04  0.25500000920E-02 0. -1.
    10030    2    1    2    0    0  0.00000000000E+00  0.00000000000E+00 -0.41076034309E+03  0.31018692736E+04  0.30745518261E+04 0.  0.
        3    1    3    3  502    0  0.13684080315E+04  0.65259422543E+03 -0.46219533350E+03  0.15849429959E+04  0.10100000352E+00 0. -1.
       -3    1    3    3    0  502 -0.13684080315E+04 -0.65259422543E+03  0.51434990411E+02  0.15169262777E+04  0.10100000352E+00 0.  1.
</event>
<event>
 5   0  0.1198763E-06  0.3040252E+04  0.7818609E-02  0.8232329E-01
       -1   -1    0    0    0  501  0.00000000000E+00  0.00000000000E+00  0.30387549719E+04  0.30387549719E+04  0.50400001928E-02 0.  1.
        1   -1    0    0  501    0  0.00000000000E+00  0.00000000000E+00 -0.76043760634E+03  0.76043760636E+03  0.50400001928E-02 0. -1.
    10030    2    1    2    0    0  0.00000000000E+00  0.00000000000E+00  0.22783173655E+04  0.37991925783E+04  0.30402523297E+04 0.  0.
        1    1    3    3  502    0 -0.33946043305E+03 -0.51977974222E+03  0.28731216390E+04  0.29394272092E+04  0.50400001928E-02 0.  1.
       -1    1    3    3    0  502  0.33946043305E+03  0.51977974222E+03 -0.59480427344E+03  0.85976536901E+03  0.50400001928E-02 0. -1.
</event>
<event>
 5   0  0.1211008E-06  0.3056222E+04  0.7818609E-02  0.8227856E-01
        1   -1    0    0  501    0  0.00000000000E+00  0.00000000000E+00  0.11245251344E+04  0.11245251344E+04  0.50400001928E-02 0.  1.
       -1   -1    0    0    0  501  0.00000000000E+00  0.00000000000E+00 -0.20765409498E+04  0.20765409498E+04  0.50400001928E-02 0. -1.
    10030    2    1    2    0    0  0.00000000000E+00  0.00000000000E+00 -0.95201581541E+03  0.32010660842E+04  0.30562215173E+04 0.  0.
        3    1    3    3  502    0 -0.27266716010E+03  0.10670702209E+04  0.63350563075E+03  0.12705572127E+04  0.10100000352E+00 0.  1.
       -3    1    3    3    0  502  0.27266716010E+03 -0.10670702209E+04 -0.15855214462E+04  0.19305088715E+04  0.10100000352E+00 0. -1.
</event>
<event>
 5   0  0.1250276E-06  0.3126072E+04  0.7818609E-02  0.8208619E-01
       -1   -1    0    0    0  501  0.00000000000E+00  0.00000000000E+00  0.18811226422E+04  0.18811226422E+04  0.50400001928E-02 0. -1.
        1   -1    0    0  501    0  0.00000000000E+00  0.00000000000E+00 -0.12987355877E+04  0.12987355877E+04  0.50400001928E-02 0.  1.
    10030    2    1    2    0    0  0.00000000000E+00  0.00000000000E+00  0.58238705458E+03  0.31798582299E+04  0.31260716052E+04 0.  0.
        5    1    3    3  502    0 -0.48875575460E+03  0.14792441816E+04  0.16247259594E+03  0.15663540375E+04  0.46999998093E+01 0.  1.
       -5    1    3    3    0  502  0.48875575460E+03 -0.14792441816E+04  0.41991445863E+03  0.16135041924E+04  0.46999998093E+01 0. -1.
</event>
<event>
 5   0  0.1211008E-06  0.3090080E+04  0.7818609E-02  0.8218466E-01
        1   -1    0    0  501    0  0.00000000000E+00  0.00000000000E+00  0.12399373041E+04  0.12399373041E+04  0.50400001928E-02 0.  1.
       -1   -1    0    0    0  501  0.00000000000E+00  0.00000000000E+00 -0.19252171932E+04  0.19252171933E+04  0.50400001928E-02 0. -1.
    10030    2    1    2    0    0  0.00000000000E+00  0.00000000000E+00 -0.68527988914E+03  0.31651544974E+04  0.30900800096E+04 0.  0.
        3    1    3    3  502    0  0.17844384867E+03 -0.11922340753E+04  0.64721539094E+03  0.13682660815E+04  0.10100000352E+00 0.  1.
       -3    1    3    3    0  502 -0.17844384867E+03  0.11922340753E+04 -0.13324952801E+04  0.17968884158E+04  0.10100000352E+00 0. -1.
</event>
<event>
 5   0  0.3374790E-06  0.3143602E+04  0.7818609E-02  0.8203873E-01
        2   -1    0    0  501    0  0.00000000000E+00  0.00000000000E+00  0.13502781935E+04  0.13502781935E+04  0.25500000920E-02 0.  1.
       -2   -1    0    0    0  501  0.00000000000E+00  0.00000000000E+00 -0.18296664226E+04  0.18296664226E+04  0.25500000920E-02 0. -1.
    10030    2    1    2    0    0  0.00000000000E+00  0.00000000000E+00 -0.47938822917E+03  0.31799446161E+04  0.31436021834E+04 0.  0.
        2    1    3    3  502    0  0.11046521252E+04 -0.41920137079E+02  0.89060681307E+03  0.14195753277E+04  0.25500000920E-02 0.  1.
       -2    1    3    3    0  502 -0.11046521252E+04  0.41920137079E+02 -0.13699950422E+04  0.17603692884E+04  0.25500000920E-02 0. -1.
</event>
<event>
 5   0  0.3340899E-06  0.3103756E+04  0.7818609E-02  0.8214708E-01
        2   -1    0    0  501    0  0.00000000000E+00  0.00000000000E+00  0.12619449243E+04  0.12619449243E+04  0.25500000920E-02 0. -1.
       -2   -1    0    0    0  501  0.00000000000E+00  0.00000000000E+00 -0.19084229115E+04  0.19084229115E+04  0.25500000920E-02 0.  1.
    10030    2    1    2    0    0  0.00000000000E+00  0.00000000000E+00 -0.64647798718E+03  0.31703678359E+04  0.31037555359E+04 0.  0.
        3    1    3    3  502    0 -0.11621957365E+04 -0.55692423340E+03 -0.12063523105E+04  0.17652618613E+04  0.10100000352E+00 0.  1.
       -3    1    3    3    0  502  0.11621957365E+04  0.55692423340E+03  0.55987432331E+03  0.14051059746E+04  0.10100000352E+00 0. -1.
</event>
<event>
 5   0  0.1211008E-06  0.3106538E+04  0.7818609E-02  0.8213946E-01
       -1   -1    0    0    0  501  0.00000000000E+00  0.00000000000E+00  0.14638242643E+04  0.14638242643E+04  0.50400001928E-02 0. -1.
        1   -1    0    0  501    0  0.00000000000E+00  0.00000000000E+00 -0.16481791746E+04  0.16481791747E+04  0.50400001928E-02 0.  1.
    10030    2    1    2    0    0  0.00000000000E+00  0.00000000000E+00 -0.18435491035E+03  0.31120034390E+04  0.31065380524E+04 0.  0.
        3    1    3    3  502    0 -0.83660754988E+03 -0.37294440329E+03  0.11644795743E+04  0.14815574271E+04  0.10100000352E+00 0. -1.
       -3    1    3    3    0  502  0.83660754988E+03  0.37294440329E+03 -0.13488344847E+04  0.16304460119E+04  0.10100000352E+00 0.  1.
</event>
<event>
 5   0  0.1171915E-06  0.3096760E+04  0.7818609E-02  0.8216628E-01
       -1   -1    0    0    0  501  0.00000000000E+00  0.00000000000E+00  0.20726844242E+04  0.20726844242E+04  0.50400001928E-02 0. -1.
        1   -1    0    0  501    0  0.00000000000E+00  0.00000000000E+00 -0.11567034192E+04  0.11567034192E+04  0.50400001928E-02 0.  1.
    10030    2    1    2    0    0  0.00000000000E+00  0.00000000000E+00  0.91598100507E+03  0.32293878434E+04  0.30967603462E+04 0.  0.
        2    1    3    3  502    0  0.15140837923E+04  0.30333809585E+03  0.33901015457E+03  0.15809464302E+04  0.25500000920E-02 0. -1.
       -2    1    3    3    0  502 -0.15140837923E+04 -0.30333809585E+03  0.57697085050E+03  0.16484414132E+04  0.25500000920E-02 0.  1.
</event>
<event>
 5   0  0.3374790E-06  0.3064219E+04  0.7818609E-02  0.8225627E-01
        2   -1    0    0  501    0  0.00000000000E+00  0.00000000000E+00  0.17779879748E+04  0.17779879748E+04  0.25500000920E-02 0.  1.
       -2   -1    0    0    0  501  0.00000000000E+00  0.00000000000E+00 -0.13202334515E+04  0.13202334515E+04  0.25500000920E-02 0. -1.
    10030    2    1    2    0    0  0.00000000000E+00  0.00000000000E+00  0.45775452327E+03  0.30982214263E+04  0.30642187916E+04 0.  0.
        2    1    3    3  502    0 -0.29174524963E+03  0.10773806898E+04 -0.83229013699E+03  0.13923258647E+04  0.25500000920E-02 0. -1.
       -2    1    3    3    0  502  0.29174524963E+03 -0.10773806898E+04  0.12900446603E+04  0.17058955616E+04  0.25500000920E-02 0.  1.
</event>
<event>
 5   0  0.1235960E-06  0.3014773E+04  0.7818609E-02  0.8239525E-01
       -1   -1    0    0    0  501  0.00000000000E+00  0.00000000000E+00  0.17515452309E+04  0.17515452309E+04  0.50400001928E-02 0.  1.
        1   -1    0    0  501    0  0.00000000000E+00  0.00000000000E+00 -0.12972626691E+04  0.12972626691E+04  0.50400001928E-02 0. -1.
    10030    2    1    2    0    0  0.00000000000E+00  0.00000000000E+00  0.45428256181E+03  0.30488079000E+04  0.30147731200E+04 0.  0.
        4    1    3    3  502    0 -0.22134340256E+03 -0.58472716663E+01  0.17350091285E+04  0.17490812964E+04  0.12699999809E+01 0.  1.
       -4    1    3    3    0  502  0.22134340256E+03  0.58472716663E+01 -0.12807265667E+04  0.12997266036E+04  0.12699999809E+01 0. -1.
</event>
<event>
 5   0  0.3445410E-06  0.3098674E+04  0.7818609E-02  0.8216102E-01
       -2   -1    0    0    0  501  0.00000000000E+00  0.00000000000E+00  0.10130256571E+04  0.10130256571E+04  0.25500000920E-02 0.  1.
        2   -1    0    0  501    0  0.00000000000E+00  0.00000000000E+00 -0.23695804945E+04  0.23695804945E+04  0.25500000920E-02 0. -1.
    10030    2    1    2    0    0  0.00000000000E+00  0.00000000000E+00 -0.13565548373E+04  0.33826061516E+04  0.30986744505E+04 0.  0.
        1    1    3    3  502    0 -0.10013590591E+04  0.50879853196E+03  0.48667646097E+03  0.12241118777E+04  0.50400001928E-02 0.  1.
       -1    1    3    3    0  502  0.10013590591E+04 -0.50879853196E+03 -0.18432312983E+04  0.21584942739E+04  0.50400001928E-02 0. -1.
</event>
<event>
 5   0  0.1235960E-06  0.3037938E+04  0.7818609E-02  0.8232980E-01
        1   -1    0    0  501    0  0.00000000000E+00  0.00000000000E+00  0.15444951463E+04  0.15444951464E+04  0.50400001928E-02 0. -1.
       -1   -1    0    0    0  501  0.00000000000E+00  0.00000000000E+00 -0.14938642814E+04  0.14938642814E+04  0.50400001928E-02 0.  1.
    10030    2    1    2    0    0  0.00000000000E+00  0.00000000000E+00  0.50630864917E+02  0.30383594278E+04  0.30379375451E+04 0.  0.
        4    1    3    3  502    0 -0.10323944208E+04  0.32617874702E+03  0.10908429888E+04  0.15369355400E+04  0.12699999809E+01 0. -1.
       -4    1    3    3    0  502  0.10323944208E+04 -0.32617874702E+03 -0.10402121239E+04  0.15014238877E+04  0.12699999809E+01 0.  1.
</event>
<event>
 5   0  0.1211008E-06  0.3104878E+04  0.7818609E-02  0.8214400E-01
        1   -1    0    0  501    0  0.00000000000E+00  0.00000000000E+00  0.20904230506E+04  0.20904230506E+04  0.50400001928E-02 0. -1.
       -1   -1    0    0    0  501  0.00000000000E+00  0.00000000000E+00 -0.11529086715E+04  0.11529086715E+04  0.50400001928E-02 0.  1.
    10030    2    1    2    0    0  0.00000000000E+00  0.00000000000E+00  0.93751437906E+03  0.32433317221E+04  0.31048780087E+04 0.  0.
        3    1    3    3  502    0 -0.33201788018E+03 -0.96935461994E+03 -0.74951810137E+03  0.12695123656E+04  0.10100000352E+00 0.  1.
       -3    1    3    3    0  502  0.33201788018E+03  0.96935461994E+03  0.16870324804E+04  0.19738193565E+04  0.10100000352E+00 0. -1.
</event>
<event>
 5   0  0.1171915E-06  0.3022951E+04  0.7818609E-02  0.8237207E-01
        1   -1    0    0  501    0  0.00000000000E+00  0.00000000000E+00  0.17589120666E+04  0.17589120666E+04  0.50400001928E-02 0.  1.
       -1   -1    0    0    0  501  0.00000000000E+00  0.00000000000E+00 -0.12988475193E+04  0.12988475194E+04  0.50400001928E-02 0. -1.
    10030    2    1    2    0    0  0.00000000000E+00  0.00000000000E+00  0.46006454724E+03  0.30577595859E+04  0.30229512563E+04 0.  0.
        2    1    3    3  502    0  0.12379070851E+04  0.88971777984E+02  0.11026527167E+04  0.16601725640E+04  0.25500000920E-02 0.  1.
       -2    1    3    3    0  502 -0.12379070851E+04 -0.88971777984E+02 -0.64258816943E+03  0.13975870220E+04  0.25500000920E-02 0. -1.
</event>
<event>
 5   0  0.3445410E-06  0.3099996E+04  0.7818609E-02  0.8215739E-01
        2   -1    0    0  501    0  0.00000000000E+00  0.00000000000E+00  0.23759848322E+04  0.23759848322E+04  0.25500000920E-02 0.  1.
       -2   -1    0    0    0  501  0.00000000000E+00  0.00000000000E+00 -0.10111568059E+04  0.10111568059E+04  0.25500000920E-02 0. -1.
    10030    2    1    2    0    0  0.00000000000E+00  0.00000000000E+00  0.13648280263E+04  0.33871416381E+04  0.30999956347E+04 0.  0.
        1    1    3    3  502    0  0.70870533369E+02  0.11320239126E+04 -0.47184402084E+03  0.12284695972E+04  0.50400001928E-02 0. -1.
       -1    1    3    3    0  502 -0.70870533369E+02 -0.11320239126E+04  0.18366720471E+04  0.21586720409E+04  0.50400001928E-02 0.  1.
</event>
<event>
 5   0  0.3441897E-06  0.3120292E+04  0.7818609E-02  0.8210191E-01
        2   -1    0    0  501    0  0.00000000000E+00  0.00000000000E+00  0.16700283928E+04  0.16700283928E+04  0.25500000920E-02 0. -1.
       -2   -1    0    0    0  501  0.00000000000E+00  0.00000000000E+00 -0.14574932392E+04  0.14574932392E+04  0.25500000920E-02 0.  1.
    10030    2    1    2    0    0  0.00000000000E+00  0.00000000000E+00  0.21253515367E+03  0.31275216320E+04  0.31202917118E+04 0.  0.
        5    1    3    3  502    0 -0.65621066192E+03 -0.12850561242E+04  0.70098151539E+03  0.16041754424E+04  0.46999998093E+01 0. -1.
       -5    1    3    3    0  502  0.65621066192E+03  0.12850561242E+04 -0.48844636172E+03  0.15233461896E+04  0.46999998093E+01 0.  1.
</event>
<event>
 5   0  0.1250276E-06  0.2854656E+04  0.7818609E-02  0.8286498E-01
        1   -1    0    0  501    0  0.00000000000E+00  0.00000000000E+00  0.11414761765E+04  0.11414761765E+04  0.50400001928E-02 0. -1.
       -1   -1    0    0    0  501  0.00000000000E+00  0.00000000000E+00 -0.17847633611E+04  0.17847633611E+04  0.50400001928E-02 0.  1.
    10030    2    1    2    0    0  0.00000000000E+00  0.00000000000E+00 -0.64328718457E+03  0.29262395376E+04  0.28546557463E+04 0.  0.
        5    1    3    3  502    0  0.16798385260E+03  0.93291194138E+02  0.11281493215E+04  0.11444058735E+04  0.46999998093E+01 0. -1.
       -5    1    3    3    0  502 -0.16798385260E+03 -0.93291194138E+02 -0.17714365061E+04  0.17818336641E+04  0.46999998093E+01 0.  1.
</event>
<event>
 5   0  0.3445959E-06  0.3088443E+04  0.7818609E-02  0.8218917E-01
       -2   -1    0    0    0  501  0.00000000000E+00  0.00000000000E+00  0.23937735556E+04  0.23937735556E+04  0.25500000920E-02 0. -1.
        2   -1    0    0  501    0  0.00000000000E+00  0.00000000000E+00 -0.99617603845E+03  0.99617603846E+03  0.25500000920E-02 0.  1.
    10030    2    1    2    0    0  0.00000000000E+00  0.00000000000E+00  0.13975975172E+04  0.33899495941E+04  0.30884428812E+04 0.  0.
        4    1    3    3  502    0 -0.11613915950E+04  0.95494475977E+03  0.10851068272E+04  0.18542406453E+04  0.12699999809E+01 0. -1.
       -4    1    3    3    0  502  0.11613915950E+04 -0.95494475977E+03  0.31249068994E+03  0.15357089488E+04  0.12699999809E+01 0.  1.
</event>
<event>
 5   0  0.1198763E-06  0.2681534E+04  0.7818609E-02  0.8341021E-01
        1   -1    0    0  501    0  0.00000000000E+00  0.00000000000E+00  0.16864363107E+04  0.16864363107E+04  0.50400001928E-02 0. -1.
       -1   -1    0    0    0  501  0.00000000000E+00  0.00000000000E+00 -0.10659497650E+04  0.10659497650E+04  0.50400001928E-02 0.  1.
    10030    2    1    2    0    0  0.00000000000E+00  0.00000000000E+00  0.62048654575E+03  0.27523860757E+04  0.26815341796E+04 0.  0.
        1    1    3    3  502    0  0.37524128949E+03  0.69235747331E+03 -0.80355080447E+03  0.11251039026E+04  0.50400001928E-02 0.  1.
       -1    1    3    3    0  502 -0.37524128949E+03 -0.69235747331E+03  0.14240373502E+04  0.16272821731E+04  0.50400001928E-02 0. -1.
</event>
<event>
 5   0  0.1250276E-06  0.3103323E+04  0.7818609E-02  0.8214827E-01
       -1   -1    0    0    0  501  0.00000000000E+00  0.00000000000E+00  0.14734162278E+04  0.14734162278E+04  0.50400001928E-02 0.  1.
        1   -1    0    0  501    0  0.00000000000E+00  0.00000000000E+00 -0.16340615345E+04  0.16340615345E+04  0.50400001928E-02 0. -1.
    10030    2    1    2    0    0  0.00000000000E+00  0.00000000000E+00 -0.16064530668E+03  0.31074777623E+04  0.31033225950E+04 0.  0.
        5    1    3    3  502    0 -0.94559153343E+03  0.81113712432E+03  0.84587197516E+03  0.15058579850E+04  0.46999998093E+01 0.  1.
       -5    1    3    3    0  502  0.94559153343E+03 -0.81113712432E+03 -0.10065172818E+04  0.16016197773E+04  0.46999998093E+01 0. -1.
</event>
<event>
 5   0  0.1171915E-06  0.3063730E+04  0.7818609E-02  0.8225763E-01
        1   -1    0    0  501    0  0.00000000000E+00  0.00000000000E+00  0.24156095935E+04  0.24156095935E+04  0.50400001928E-02 0. -1.
       -1   -1    0    0    0  501  0.00000000000E+00  0.00000000000E+00 -0.97143628834E+03  0.97143628835E+03  0.50400001928E-02 0.  1.
    10030    2    1    2    0    0  0.00000000000E+00  0.00000000000E+00  0.14441733051E+04  0.33870458818E+04  0.30637302868E+04 0.  0.
        2    1    3    3  502    0  0.23647301056E+03 -0.64898814003E+03 -0.78950313750E+03  0.10490091967E+04  0.25500000920E-02 0.  1.
       -2    1    3    3    0  502 -0.23647301056E+03  0.64898814003E+03  0.22336764426E+04  0.23380366851E+04  0.25500000920E-02 0. -1.
</event>
<event>
 5   0  0.1171915E-06  0.3120591E+04  0.7818609E-02  0.8210109E-01
        1   -1    0    0  501    0  0.00000000000E+00  0.00000000000E+00  0.11786266609E+04  0.11786266609E+04  0.50400001928E-02 0.  1.
       -1   -1    0    0    0  501  0.00000000000E+00  0.00000000000E+00 -0.20655584678E+04  0.20655584678E+04  0.50400001928E-02 0. -1.
    10030    2    1    2    0    0  0.00000000000E+00  0.00000000000E+00 -0.88693180695E+03  0.32441851287E+04  0.31205911490E+04 0.  0.
        2    1    3    3  502    0  0.23294662699E+03  0.71183580478E+03 -0.18664536535E+04  0.20111249550E+04  0.25500000920E-02 0. -1.
       -2    1    3    3    0  502 -0.23294662699E+03 -0.71183580478E+03  0.97952184656E+03  0.12330601737E+04  0.25500000920E-02 0.  1.
</event>
<event>
 5   0  0.1250276E-06  0.3088387E+04  0.7818609E-02  0.8218932E-01
       -1   -1    0    0    0  501  0.00000000000E+00  0.00000000000E+00  0.12949959333E+04  0.12949959334E+04  0.50400001928E-02 0. -1.
        1   -1    0    0  501    0  0.00000000000E+00  0.00000000000E+00 -0.18413448879E+04  0.18413448879E+04  0.50400001928E-02 0.  1.
    10030    2    1    2    0    0  0.00000000000E+00  0.00000000000E+00 -0.54634895458E+03  0.31363408213E+04  0.30883873732E+04 0.  0.
        5    1    3    3  502    0 -0.76044469564E+03 -0.99518805505E+03  0.64408686064E+03  0.14083839583E+04  0.46999998093E+01 0. -1.
       -5    1    3    3    0  502  0.76044469564E+03  0.99518805505E+03 -0.11904358152E+04  0.17279568629E+04  0.46999998093E+01 0.  1.
</event>
<event>
 5   0  0.1250276E-06  0.3147502E+04  0.7818609E-02  0.8202821E-01
       -1   -1    0    0    0  501  0.00000000000E+00  0.00000000000E+00  0.88176086934E+03  0.88176086935E+03  0.50400001928E-02 0.  1.
        1   -1    0    0  501    0  0.00000000000E+00  0.00000000000E+00 -0.28088029950E+04  0.28088029950E+04  0.50400001928E-02 0. -1.
    10030    2    1    2    0    0  0.00000000000E+00  0.00000000000E+00 -0.19270421256E+04  0.36905638643E+04  0.31475022292E+04 0.  0.
        5    1    3    3  502    0 -0.55220370712E+03 -0.13816396125E+04 -0.36241579133E+03  0.15314125012E+04  0.46999998093E+01 0.  1.
       -5    1    3    3    0  502  0.55220370712E+03  0.13816396125E+04 -0.15646263343E+04  0.21591513631E+04  0.46999998093E+01 0. -1.
</event>
<event>
 5   0  0.1171915E-06  0.3113126E+04  0.7818609E-02  0.8212145E-01
       -1   -1    0    0    0  501  0.00000000000E+00  0.00000000000E+00  0.19488929930E+04  0.19488929930E+04  0.50400001928E-02 0.  1.
        1   -1    0    0  501    0  0.00000000000E+00  0.00000000000E+00 -0.12432126624E+04  0.12432126624E+04  0.50400001928E-02 0. -1.
    10030    2    1    2    0    0  0.00000000000E+00  0.00000000000E+00  0.70568033062E+03  0.31921056555E+04  0.31131260473E+04 0.  0.
        2    1    3    3  502    0 -0.16772112108E+03 -0.11025439445E+04 -0.76059770034E+03  0.13499045839E+04  0.25500000920E-02 0. -1.
       -2    1    3    3    0  502  0.16772112108E+03  0.11025439445E+04  0.14662780310E+04  0.18422010715E+04  0.25500000920E-02 0.  1.
</event>
<event>
 5   0  0.1171915E-06  0.3126659E+04  0.7818609E-02  0.8208459E-01
       -1   -1    0    0    0  501  0.00000000000E+00  0.00000000000E+00  0.15273514096E+04  0.15273514096E+04  0.50400001928E-02 0.  1.
        1   -1    0    0  501    0  0.00000000000E+00  0.00000000000E+00 -0.16001553108E+04  0.16001553108E+04  0.50400001928E-02 0. -1.
    10030    2    1    2    0    0  0.00000000000E+00  0.00000000000E+00 -0.72803901164E+02  0.31275067204E+04  0.31266592201E+04 0.  0.
        2    1    3    3  502    0 -0.43768976354E+03 -0.12458418100E+04  0.80066735394E+03  0.15442675793E+04  0.25500000920E-02 0.  1.
       -2    1    3    3    0  502  0.43768976354E+03  0.12458418100E+04 -0.87347125510E+03  0.15832391412E+04  0.25500000920E-02 0. -1.
</event>
<event>
 5   0  0.1171915E-06  0.3092372E+04  0.7818609E-02  0.8217834E-01
        1   -1    0    0  501    0  0.00000000000E+00  0.00000000000E+00  0.15556133500E+04  0.15556133500E+04  0.50400001928E-02 0. -1.
       -1   -1    0    0    0  501  0.00000000000E+00  0.00000000000E+00 -0.15368160298E+04  0.15368160298E+04  0.50400001928E-02 0.  1.
    10030    2    1    2    0    0  0.00000000000E+00  0.00000000000E+00  0.18797320199E+02  0.30924293798E+04  0.30923722496E+04 0.  0.
        2    1    3    3  502    0  0.26246746345E+03  0.16194439390E+03  0.15245426126E+04  0.15554244867E+04  0.25500000920E-02 0. -1.
       -2    1    3    3    0  502 -0.26246746345E+03 -0.16194439390E+03 -0.15057452924E+04  0.15370048932E+04  0.25500000920E-02 0.  1.
</event>
<event>
 5   0  0.3445410E-06  0.3128470E+04  0.7818609E-02  0.8207968E-01
       -2   -1    0    0    0  501  0.00000000000E+00  0.00000000000E+00  0.16847193096E+04  0.16847193096E+04  0.25500000920E-02 0.  1.
        2   -1    0    0  501    0  0.00000000000E+00  0.00000000000E+00 -0.14523670646E+04  0.14523670646E+04  0.25500000920E-02 0. -1.
    10030    2    1    2    0    0  0.00000000000E+00  0.00000000000E+00  0.23235224502E+03  0.31370863743E+04  0.31284698103E+04 0.  0.
        1    1    3    3  502    0  0.59295792519E+01  0.80762705899E+03 -0.12271157257E+04  0.14690505881E+04  0.50400001928E-02 0. -1.
       -1    1    3    3    0  502 -0.59295792519E+01 -0.80762705899E+03  0.14594679707E+04  0.16680357861E+04  0.50400001928E-02 0.  1.
</event>
<event>
 5   0  0.1250276E-06  0.2825967E+04  0.7818609E-02  0.8295252E-01
        1   -1    0    0  501    0  0.00000000000E+00  0.00000000000E+00  0.25417129768E+04  0.25417129768E+04  0.50400001928E-02 0.  1.
       -1   -1    0    0    0  501  0.00000000000E+00  0.00000000000E+00 -0.78550266413E+03  0.78550266414E+03  0.50400001928E-02 0. -1.
    10030    2    1    2    0    0  0.00000000000E+00  0.00000000000E+00  0.17562103127E+04  0.33272156409E+04  0.28259669600E+04 0.  0.
        5    1    3    3  502    0 -0.58899352653E+03  0.91302292511E+03  0.19416420465E+04  0.22249764410E+04  0.46999998093E+01 0.  1.
       -5    1    3    3    0  502  0.58899352653E+03 -0.91302292511E+03 -0.18543173384E+03  0.11022392000E+04  0.46999998093E+01 0. -1.
</event>
<event>
 5   0  0.1171915E-06  0.3093701E+04  0.7818609E-02  0.8217469E-01
        1   -1    0    0  501    0  0.00000000000E+00  0.00000000000E+00  0.20940199206E+04  0.20940199206E+04  0.50400001928E-02 0. -1.
       -1   -1    0    0    0  501  0.00000000000E+00  0.00000000000E+00 -0.11426569380E+04  0.11426569380E+04  0.50400001928E-02 0.  1.
    10030    2    1    2    0    0  0.00000000000E+00  0.00000000000E+00  0.95136298259E+03  0.32366768586E+04  0.30937009491E+04 0.  0.
        2    1    3    3  502    0  0.18653797721E+03  0.43355516666E+02 -0.11302060620E+04  0.11463166492E+04  0.25500000920E-02 0.  1.
       -2    1    3    3    0  502 -0.18653797721E+03 -0.43355516666E+02  0.20815690446E+04  0.20903602094E+04  0.25500000920E-02 0. -1.
</event>
<event>
 5   0  0.1198763E-06  0.3059606E+04  0.7818609E-02  0.8226912E-01
       -1   -1    0    0    0  501  0.00000000000E+00  0.00000000000E+00  0.16947073477E+04  0.16947073477E+04  0.50400001928E-02 0. -1.
        1   -1    0    0  501    0  0.00000000000E+00  0.00000000000E+00 -0.13809447891E+04  0.13809447891E+04  0.50400001928E-02 0.  1.
    10030    2    1    2    0    0  0.00000000000E+00  0.00000000000E+00  0.31376255865E+03  0.30756521368E+04  0.30596060406E+04 0.  0.
        1    1    3    3  502    0 -0.61285490209E+03  0.47879720364E+03 -0.11673960126E+04  0.14027299610E+04  0.50400001928E-02 0.  1.
       -1    1    3    3    0  502  0.61285490209E+03 -0.47879720364E+03  0.14811585713E+04  0.16729221758E+04  0.50400001928E-02 0. -1.
</event>
<event>
 5   0  0.3441897E-06  0.3199976E+04  0.7818609E-02  0.8188824E-01
       -2   -1    0    0    0  501  0.00000000000E+00  0.00000000000E+00  0.10664154983E+04  0.10664154983E+04  0.25500000920E-02 0. -1.
        2   -1    0    0  501    0  0.00000000000E+00  0.00000000000E+00 -0.24005293068E+04  0.24005293068E+04  0.25500000920E-02 0.  1.
    10030    2    1    2    0    0  0.00000000000E+00  0.00000000000E+00 -0.13341138084E+04  0.34669448051E+04  0.31999760355E+04 0.  0.
        5    1    3    3  502    0  0.49079624968E+03 -0.23603236633E+03  0.96289880823E+03  0.11062497193E+04  0.46999998093E+01 0. -1.
       -5    1    3    3    0  502 -0.49079624968E+03  0.23603236633E+03 -0.22970126167E+04  0.23606950857E+04  0.46999998093E+01 0.  1.
</event>
<event>
 5   0  0.3441897E-06  0.3032582E+04  0.7818609E-02  0.8234488E-01
        2   -1    0    0  501    0  0.00000000000E+00  0.00000000000E+00  0.28541562600E+04  0.28541562600E+04  0.25500000920E-02 0.  1.
       -2   -1    0    0    0  501  0.00000000000E+00  0.00000000000E+00 -0.80554029428E+03  0.80554029428E+03  0.25500000920E-02 0. -1.
    10030    2    1    2    0    0  0.00000000000E+00  0.00000000000E+00  0.20486159657E+04  0.36596965543E+04  0.30325816550E+04 0.  0.
        5    1    3    3  502    0 -0.91932135951E+03  0.56412093087E+03 -0.26177925258E+03  0.11099255172E+04  0.46999998093E+01 0. -1.
       -5    1    3    3    0  502  0.91932135951E+03 -0.56412093087E+03  0.23103952183E+04  0.25497710371E+04  0.46999998093E+01 0.  1.
</event>
<event>
 5   0  0.3445959E-06  0.3101970E+04  0.7818609E-02  0.8215198E-01
       -2   -1    0    0    0  501  0.00000000000E+00  0.00000000000E+00  0.92236049241E+03  0.92236049241E+03  0.25500000920E-02 0.  1.
        2   -1    0    0  501    0  0.00000000000E+00  0.00000000000E+00 -0.26080408396E+04  0.26080408396E+04  0.25500000920E-02 0. -1.
    10030    2    1    2    0    0  0.00000000000E+00  0.00000000000E+00 -0.16856803472E+04  0.35304013320E+04  0.31019695892E+04 0.  0.
        4    1    3    3  502    0  0.62818308934E+03 -0.34289081747E+03 -0.24088829232E+04  0.25129478022E+04  0.12699999809E+01 0. -1.
       -4    1    3    3    0  502 -0.62818308934E+03  0.34289081747E+03  0.72320257597E+03  0.10174535298E+04  0.12699999809E+01 0.  1.
</event>
<event>
 5   0  0.1250276E-06  0.3135388E+04  0.7818609E-02  0.8206092E-01
       -1   -1    0    0    0  501  0.00000000000E+00  0.00000000000E+00  0.18144781876E+04  0.18144781876E+04  0.50400001928E-02 0. -1.
        1   -1    0    0  501    0  0.00000000000E+00  0.00000000000E+00 -0.13544747733E+04  0.13544747734E+04  0.50400001928E-02 0.  1.
    10030    2    1    2    0    0  0.00000000000E+00  0.00000000000E+00  0.46000341421E+03  0.31689529609E+04  0.31353882897E+04 0.  0.
        5    1    3    3  502    0 -0.26485210096E+03 -0.14475663344E+04  0.77620147984E+03  0.16637625296E+04  0.46999998093E+01 0. -1.
       -5    1    3    3    0  502  0.26485210096E+03  0.14475663344E+04 -0.31619806563E+03  0.15051904313E+04  0.46999998093E+01 0.  1.
</event>
<event>
 5   0  0.3374790E-06  0.3066160E+04  0.7818609E-02  0.8225087E-01
       -2   -1    0    0    0  501  0.00000000000E+00  0.00000000000E+00  0.20946184500E+04  0.20946184500E+04  0.25500000920E-02 0. -1.
        2   -1    0    0  501    0  0.00000000000E+00  0.00000000000E+00 -0.11220824552E+04  0.11220824552E+04  0.25500000920E-02 0.  1.
    10030    2    1    2    0    0  0.00000000000E+00  0.00000000000E+00  0.97253599472E+03  0.32167009052E+04  0.30661602131E+04 0.  0.
        2    1    3    3  502    0  0.91025047956E+03 -0.12122439385E+04  0.72605806175E+03  0.16808484795E+04  0.25500000920E-02 0. -1.
       -2    1    3    3    0  502 -0.91025047956E+03  0.12122439385E+04  0.24647793297E+03  0.15358524257E+04  0.25500000920E-02 0.  1.
</event>
<event>
 5   0  0.1171915E-06  0.2676564E+04  0.7818609E-02  0.8342649E-01
        1   -1    0    0  501    0  0.00000000000E+00  0.00000000000E+00  0.21009758871E+04  0.21009758871E+04  0.50400001928E-02 0. -1.
       -1   -1    0    0    0  501  0.00000000000E+00  0.00000000000E+00 -0.85246034267E+03  0.85246034268E+03  0.50400001928E-02 0.  1.
    10030    2    1    2    0    0  0.00000000000E+00  0.00000000000E+00  0.12485155445E+04  0.29534362298E+04  0.26765639351E+04 0.  0.
        2    1    3    3  502    0 -0.48072266478E+03  0.10109206559E+04 -0.18505877129E+03  0.11345931437E+04  0.25500000920E-02 0.  1.
       -2    1    3    3    0  502  0.48072266478E+03 -0.10109206559E+04  0.14335743158E+04  0.18188430861E+04  0.25500000920E-02 0. -1.
</event>
<event>
 5   0  0.3374790E-06  0.2991637E+04  0.7818609E-02  0.8246123E-01
        2   -1    0    0  501    0  0.00000000000E+00  0.00000000000E+00  0.14690793482E+04  0.14690793482E+04  0.25500000920E-02 0.  1.
       -2   -1    0    0    0  501  0.00000000000E+00  0.00000000000E+00 -0.15230442604E+04  0.15230442604E+04  0.25500000920E-02 0. -1.
    10030    2    1    2    0    0  0.00000000000E+00  0.00000000000E+00 -0.53964912211E+02  0.29921236086E+04  0.29916369227E+04 0.  0.
        2    1    3    3  502    0 -0.20962292305E+03  0.54322934297E+03  0.13510780334E+04  0.14712075793E+04  0.25500000920E-02 0.  1.
       -2    1    3    3    0  502  0.20962292305E+03 -0.54322934297E+03 -0.14050429456E+04  0.15209160293E+04  0.25500000920E-02 0. -1.
</event>
<event>
 5   0  0.1250276E-06  0.3091066E+04  0.7818609E-02  0.8218194E-01
        1   -1    0    0  501    0  0.00000000000E+00  0.00000000000E+00  0.15305368970E+04  0.15305368970E+04  0.50400001928E-02 0.  1.
       -1   -1    0    0    0  501  0.00000000000E+00  0.00000000000E+00 -0.15606763256E+04  0.15606763256E+04  0.50400001928E-02 0. -1.
    10030    2    1    2    0    0  0.00000000000E+00  0.00000000000E+00 -0.30139428598E+02  0.30912132226E+04  0.30910662890E+04 0.  0.
        5    1    3    3  502    0  0.96338584087E+03  0.75585397754E+03 -0.95810080462E+03  0.15548011949E+04  0.46999998093E+01 0. -1.
       -5    1    3    3    0  502 -0.96338584087E+03 -0.75585397754E+03  0.92796137602E+03  0.15364120278E+04  0.46999998093E+01 0.  1.
</event>
<event>
 5   0  0.3445959E-06  0.3081483E+04  0.7818609E-02  0.8220838E-01
       -2   -1    0    0    0  501  0.00000000000E+00  0.00000000000E+00  0.11709108283E+04  0.11709108283E+04  0.25500000920E-02 0. -1.
        2   -1    0    0  501    0  0.00000000000E+00  0.00000000000E+00 -0.20273830681E+04  0.20273830681E+04  0.25500000920E-02 0.  1.
    10030    2    1    2    0    0  0.00000000000E+00  0.00000000000E+00 -0.85647223983E+03  0.31982938964E+04  0.30814832712E+04 0.  0.
        4    1    3    3  502    0 -0.20963578509E+03 -0.14678228122E+04 -0.86295971751E+03  0.17155617323E+04  0.12699999809E+01 0.  1.
       -4    1    3    3    0  502  0.20963578509E+03  0.14678228122E+04  0.64874776776E+01  0.14827321642E+04  0.12699999809E+01 0. -1.
</event>
<event>
 5   0  0.1198763E-06  0.2879208E+04  0.7818609E-02  0.8279091E-01
       -1   -1    0    0    0  501  0.00000000000E+00  0.00000000000E+00  0.99332232750E+03  0.99332232751E+03  0.50400001928E-02 0.  1.
        1   -1    0    0  501    0  0.00000000000E+00  0.00000000000E+00 -0.20863920796E+04  0.20863920796E+04  0.50400001928E-02 0. -1.
    10030    2    1    2    0    0  0.00000000000E+00  0.00000000000E+00 -0.10930697521E+04  0.30797144071E+04  0.28792081110E+04 0.  0.
        1    1    3    3  502    0 -0.39559126492E+03 -0.98860268990E+03 -0.15828339043E+04  0.19076663482E+04  0.50400001928E-02 0. -1.
       -1    1    3    3    0  502  0.39559126492E+03  0.98860268990E+03  0.48976415229E+03  0.11720480588E+04  0.50400001928E-02 0.  1.
</event>
<event>
 5   0  0.1250276E-06  0.3099832E+04  0.7818609E-02  0.8215784E-01
        1   -1    0    0  501    0  0.00000000000E+00  0.00000000000E+00  0.25992673190E+04  0.25992673190E+04  0.50400001928E-02 0. -1.
       -1   -1    0    0    0  501  0.00000000000E+00  0.00000000000E+00 -0.92419876694E+03  0.92419876695E+03  0.50400001928E-02 0.  1.
    10030    2    1    2    0    0  0.00000000000E+00  0.00000000000E+00  0.16750685520E+04  0.35234660859E+04  0.30998320285E+04 0.  0.
        5    1    3    3  502    0 -0.16894024051E+02  0.43986144226E+03 -0.85164645904E+03  0.95869039717E+03  0.46999998093E+01 0.  1.
       -5    1    3    3    0  502  0.16894024051E+02 -0.43986144226E+03  0.25267150111E+04  0.25647756888E+04  0.46999998093E+01 0. -1.
</event>
<event>
 5   0  0.1198763E-06  0.3098026E+04  0.7818609E-02  0.8216280E-01
        1   -1    0    0  501    0  0.00000000000E+00  0.00000000000E+00  0.24514980912E+04  0.24514980912E+04  0.50400001928E-02 0. -1.
       -1   -1    0    0    0  501  0.00000000000E+00  0.00000000000E+00 -0.97876513620E+03  0.97876513621E+03  0.50400001928E-02 0.  1.
    10030    2    1    2    0    0  0.00000000000E+00  0.00000000000E+00  0.14727329550E+04  0.34302632274E+04  0.30980257346E+04 0.  0.
        1    1    3    3  502    0 -0.13548963814E+04 -0.72762303479E+03  0.53141793271E+03  0.16271399769E+04  0.50400001928E-02 0.  1.
       -1    1    3    3    0  502  0.13548963814E+04  0.72762303479E+03  0.94131502225E+03  0.18031232505E+04  0.50400001928E-02 0. -1.
</event>
<event>
 5   0  0.3374790E-06  0.3086724E+04  0.7818609E-02  0.8219391E-01
       -2   -1    0    0    0  501  0.00000000000E+00  0.00000000000E+00  0.15910786799E+04  0.15910786799E+04  0.25500000920E-02 0.  1.
        2   -1    0    0  501    0  0.00000000000E+00  0.00000000000E+00 -0.14970764908E+04  0.14970764908E+04  0.25500000920E-02 0. -1.
    10030    2    1    2    0    0  0.00000000000E+00  0.00000000000E+00  0.94002189116E+02  0.30881551708E+04  0.30867241450E+04 0.  0.
        2    1    3    3  502    0 -0.33293514631E+03  0.13089457272E+02 -0.14606644797E+04  0.14981848576E+04  0.25500000920E-02 0. -1.
       -2    1    3    3    0  502  0.33293514631E+03 -0.13089457272E+02  0.15546666688E+04  0.15899703131E+04  0.25500000920E-02 0.  1.
</event>
<event>
 5   0  0.3340899E-06  0.3100721E+04  0.7818609E-02  0.8215540E-01
       -2   -1    0    0    0  501  0.00000000000E+00  0.00000000000E+00  0.16712189865E+04  0.16712189865E+04  0.25500000920E-02 0.  1.
        2   -1    0    0  501    0  0.00000000000E+00  0.00000000000E+00 -0.14382423622E+04  0.14382423622E+04  0.25500000920E-02 0. -1.
    10030    2    1    2    0    0  0.00000000000E+00  0.00000000000E+00  0.23297662430E+03  0.31094613487E+04  0.31007211696E+04 0.  0.
        3    1    3    3  502    0 -0.11891555488E+04  0.80656202786E+03  0.70035339316E+03  0.15984768092E+04  0.10100000352E+00 0.  1.
       -3    1    3    3    0  502  0.11891555488E+04 -0.80656202786E+03 -0.46737676886E+03  0.15109845394E+04  0.10100000352E+00 0. -1.
</event>
<event>
 5   0  0.1250276E-06  0.3117958E+04  0.7818609E-02  0.8210827E-01
        1   -1    0    0  501    0  0.00000000000E+00  0.00000000000E+00  0.10017636791E+04  0.10017636791E+04  0.50400001928E-02 0.  1.
       -1   -1    0    0    0  501  0.00000000000E+00  0.00000000000E+00 -0.24261370935E+04  0.24261370935E+04  0.50400001928E-02 0. -1.
    10030    2    1    2    0    0  0.00000000000E+00  0.00000000000E+00 -0.14243734143E+04  0.34279007726E+04  0.31179583197E+04 0.  0.
        5    1    3    3  502    0 -0.32109437405E+03 -0.14016382418E+04 -0.13743014449E+04  0.19890746365E+04  0.46999998093E+01 0. -1.
       -5    1    3    3    0  502  0.32109437405E+03  0.14016382418E+04 -0.50071969405E+02  0.14388261361E+04  0.46999998093E+01 0.  1.
</event>
<event>
 5   0  0.3441897E-06  0.3196985E+04  0.7818609E-02  0.8189614E-01
        2   -1    0    0  501    0  0.00000000000E+00  0.00000000000E+00  0.10375928109E+04  0.10375928109E+04  0.25500000920E-02 0.  1.
       -2   -1    0    0    0  501  0.00000000000E+00  0.00000000000E+00 -0.24626021096E+04  0.24626021096E+04  0.25500000920E-02 0. -1.
    10030    2    1    2    0    0  0.00000000000E+00  0.00000000000E+00 -0.14250092987E+04  0.35001949205E+04  0.31969849827E+04 0.  0.
        5    1    3    3  502    0  0.55151440035E+03  0.12318104420E+04  0.22525272434E+03  0.13683150144E+04  0.46999998093E+01 0.  1.
       -5    1    3    3    0  502 -0.55151440035E+03 -0.12318104420E+04 -0.16502620231E+04  0.21318799060E+04  0.46999998093E+01 0. -1.
</event>
<event>
 5   0  0.3441897E-06  0.3112484E+04  0.7818609E-02  0.8212320E-01
       -2   -1    0    0    0  501  0.00000000000E+00  0.00000000000E+00  0.86454029476E+03  0.86454029477E+03  0.25500000920E-02 0. -1.
        2   -1    0    0  501    0  0.00000000000E+00  0.00000000000E+00 -0.28013605081E+04  0.28013605081E+04  0.25500000920E-02 0.  1.
    10030    2    1    2    0    0  0.00000000000E+00  0.00000000000E+00 -0.19368202133E+04  0.36659008028E+04  0.31124839208E+04 0.  0.
        5    1    3    3  502    0 -0.20600951194E+03 -0.22983429479E+03 -0.27649412722E+04  0.27821189857E+04  0.46999998093E+01 0.  1.
       -5    1    3    3    0  502  0.20600951194E+03  0.22983429479E+03  0.82812105889E+03  0.88378181711E+03  0.46999998093E+01 0. -1.
</event>
<event>
 5   0  0.3441897E-06  0.3084961E+04  0.7818609E-02  0.8219877E-01
       -2   -1    0    0    0  501  0.00000000000E+00  0.00000000000E+00  0.18369658828E+04  0.18369658828E+04  0.25500000920E-02 0.  1.
        2   -1    0    0  501    0  0.00000000000E+00  0.00000000000E+00 -0.12952040191E+04  0.12952040191E+04  0.25500000920E-02 0. -1.
    10030    2    1    2    0    0  0.00000000000E+00  0.00000000000E+00  0.54176186368E+03  0.31321699019E+04  0.30849606768E+04 0.  0.
        5    1    3    3  502    0  0.67235755528E+03 -0.13879509326E+04  0.24305660788E+03  0.15612722626E+04  0.46999998093E+01 0.  1.
       -5    1    3    3    0  502 -0.67235755528E+03  0.13879509326E+04  0.29870525580E+03  0.15708976393E+04  0.46999998093E+01 0. -1.
</event>
<event>
 5   0  0.1198763E-06  0.3080342E+04  0.7818609E-02  0.8221154E-01
       -1   -1    0    0    0  501  0.00000000000E+00  0.00000000000E+00  0.13388404872E+04  0.13388404872E+04  0.50400001928E-02 0. -1.
        1   -1    0    0  501    0  0.00000000000E+00  0.00000000000E+00 -0.17717773384E+04  0.17717773384E+04  0.50400001928E-02 0.  1.
    10030    2    1    2    0    0  0.00000000000E+00  0.00000000000E+00 -0.43293685119E+03  0.31106178256E+04  0.30803423414E+04 0.  0.
        1    1    3    3  502    0  0.88599771360E+03 -0.73185109574E+03  0.81905124202E+03  0.14111849319E+04  0.50400001928E-02 0. -1.
       -1    1    3    3    0  502 -0.88599771360E+03  0.73185109574E+03 -0.12519880932E+04  0.16994328938E+04  0.50400001928E-02 0.  1.
</event>
<event>
 5   0  0.3445959E-06  0.3052016E+04  0.7818609E-02  0.8229031E-01
       -2   -1    0    0    0  501  0.00000000000E+00  0.00000000000E+00  0.12059586117E+04  0.12059586117E+04  0.25500000920E-02 0. -1.
        2   -1    0    0  501    0  0.00000000000E+00  0.00000000000E+00 -0.19309956298E+04  0.19309956298E+04  0.25500000920E-02 0.  1.
    10030    2    1    2    0    0  0.00000000000E+00  0.00000000000E+00 -0.72503701810E+03  0.31369542416E+04  0.30520162575E+04 0.  0.
        4    1    3    3  502    0  0.86479347764E+03  0.54119726966E+03  0.80393824723E+03  0.12988766538E+04  0.12699999809E+01 0. -1.
       -4    1    3    3    0  502 -0.86479347764E+03 -0.54119726966E+03 -0.15289752653E+04  0.18380775877E+04  0.12699999809E+01 0.  1.
</event>
<event>
 5   0  0.1198763E-06  0.3119223E+04  0.7818609E-02  0.8210482E-01
       -1   -1    0    0    0  501  0.00000000000E+00  0.00000000000E+00  0.13042889721E+04  0.13042889721E+04  0.50400001928E-02 0.  1.
        1   -1    0    0  501    0  0.00000000000E+00  0.00000000000E+00 -0.18649145029E+04  0.18649145029E+04  0.50400001928E-02 0. -1.
    10030    2    1    2    0    0  0.00000000000E+00  0.00000000000E+00 -0.56062553077E+03  0.31692034750E+04  0.31192226083E+04 0.  0.
        1    1    3    3  502    0  0.10441725692E+04  0.28384626840E+03 -0.14214850882E+04  0.17864727578E+04  0.50400001928E-02 0. -1.
       -1    1    3    3    0  502 -0.10441725692E+04 -0.28384626840E+03  0.86085955745E+03  0.13827307171E+04  0.50400001928E-02 0.  1.
</event>
<event>
 5   0  0.1211008E-06  0.3104416E+04  0.7818609E-02  0.8214527E-01
        1   -1    0    0  501    0  0.00000000000E+00  0.00000000000E+00  0.22166330938E+04  0.22166330938E+04  0.50400001928E-02 0.  1.
       -1   -1    0    0    0  501  0.00000000000E+00  0.00000000000E+00 -0.10869413994E+04  0.10869413994E+04  0.50400001928E-02 0. -1.
    10030    2    1    2    0    0  0.00000000000E+00  0.00000000000E+00  0.11296916945E+04  0.33035744932E+04  0.31044163876E+04 0.  0.
        3    1    3    3  502    0 -0.28265928929E+03 -0.11340527580E+04  0.16518345847E+04  0.20234943630E+04  0.10100000352E+00 0.  1.
       -3    1    3    3    0  502  0.28265928929E+03  0.11340527580E+04 -0.52214289020E+03  0.12800801302E+04  0.10100000352E+00 0. -1.
</event>
<event>
 5   0  0.1171915E-06  0.3038744E+04  0.7818609E-02  0.8232753E-01
        1   -1    0    0  501    0  0.00000000000E+00  0.00000000000E+00  0.19425155020E+04  0.19425155020E+04  0.50400001928E-02 0.  1.
       -1   -1    0    0    0  501  0.00000000000E+00  0.00000000000E+00 -0.11884028957E+04  0.11884028958E+04  0.50400001928E-02 0. -1.
    10030    2    1    2    0    0  0.00000000000E+00  0.00000000000E+00  0.75411260629E+03  0.31309183978E+04  0.30387438508E+04 0.  0.
        2    1    3    3  502    0 -0.14396975709E+04  0.45855001464E+03  0.54156741969E+03  0.16050833255E+04  0.25500000920E-02 0. -1.
       -2    1    3    3    0  502  0.14396975709E+04 -0.45855001464E+03  0.21254518660E+03  0.15258350723E+04  0.25500000920E-02 0.  1.
</event>
<event>
 5   0  0.3445959E-06  0.3105322E+04  0.7818609E-02  0.8214279E-01
        2   -1    0    0  501    0  0.00000000000E+00  0.00000000000E+00  0.18743192469E+04  0.18743192469E+04  0.25500000920E-02 0. -1.
       -2   -1    0    0    0  501  0.00000000000E+00  0.00000000000E+00 -0.12862035481E+04  0.12862035482E+04  0.25500000920E-02 0.  1.
    10030    2    1    2    0    0  0.00000000000E+00  0.00000000000E+00  0.58811569876E+03  0.31605227951E+04  0.31053219258E+04 0.  0.
        4    1    3    3  502    0  0.13104403516E+04 -0.81054801123E+03  0.99578792187E+02  0.15440723889E+04  0.12699999809E+01 0.  1.
       -4    1    3    3    0  502 -0.13104403516E+04  0.81054801123E+03  0.48853690657E+03  0.16164504061E+04  0.12699999809E+01 0. -1.
</event>
<event>
 5   0  0.1235960E-06  0.3100557E+04  0.7818609E-02  0.8215585E-01
       -1   -1    0    0    0  501  0.00000000000E+00  0.00000000000E+00  0.14176852547E+04  0.14176852547E+04  0.50400001928E-02 0. -1.
        1   -1    0    0  501    0  0.00000000000E+00  0.00000000000E+00 -0.16952728981E+04  0.16952728981E+04  0.50400001928E-02 0.  1.
    10030    2    1    2    0    0  0.00000000000E+00  0.00000000000E+00 -0.27758764342E+03  0.31129581528E+04  0.31005569760E+04 0.  0.
        4    1    3    3  502    0  0.85350838357E+02 -0.95386946617E+03 -0.13627719675E+04  0.16656232385E+04  0.12699999809E+01 0.  1.
       -4    1    3    3    0  502 -0.85350838357E+02  0.95386946617E+03  0.10851843241E+04  0.14473349144E+04  0.12699999809E+01 0. -1.
</event>
<event>
 5   0  0.1211008E-06  0.3111758E+04  0.7818609E-02  0.8212518E-01
       -1   -1    0    0    0  501  0.00000000000E+00  0.00000000000E+00  0.18061782448E+04  0.18061782448E+04  0.50400001928E-02 0. -1.
        1   -1    0    0  501    0  0.00000000000E+00  0.00000000000E+00 -0.13402659402E+04  0.13402659402E+04  0.50400001928E-02 0.  1.
    10030    2    1    2    0    0  0.00000000000E+00  0.00000000000E+00  0.46591230466E+03  0.31464441850E+04  0.31117578206E+04 0.  0.
        3    1    3    3  502    0  0.85304357091E+03  0.22885514072E+03  0.15281327409E+04  0.17650064287E+04  0.10100000352E+00 0. -1.
       -3    1    3    3    0  502 -0.85304357091E+03 -0.22885514072E+03 -0.10622204362E+04  0.13814377563E+04  0.10100000352E+00 0.  1.
</event>
<event>
 5   0  0.3445410E-06  0.3103075E+04  0.7818609E-02  0.8214895E-01
        2   -1    0    0  501    0  0.00000000000E+00  0.00000000000E+00  0.18363643042E+04  0.18363643042E+04  0.25500000920E-02 0.  1.
       -2   -1    0    0    0  501  0.00000000000E+00  0.00000000000E+00 -0.13108879898E+04  0.13108879898E+04  0.25500000920E-02 0. -1.
    10030    2    1    2    0    0  0.00000000000E+00  0.00000000000E+00  0.52547631442E+03  0.31472522940E+04  0.31030745472E+04 0.  0.
        1    1    3    3  502    0  0.11126085973E+04 -0.84470786269E+03  0.94750846585E+03  0.16879578066E+04  0.50400001928E-02 0.  1.
       -1    1    3    3    0  502 -0.11126085973E+04  0.84470786269E+03 -0.42203215144E+03  0.14592944874E+04  0.50400001928E-02 0. -1.
</event>
<event>
 5   0  0.3441897E-06  0.3073109E+04  0.7818609E-02  0.8223157E-01
       -2   -1    0    0    0  501  0.00000000000E+00  0.00000000000E+00  0.14975886688E+04  0.14975886688E+04  0.25500000920E-02 0.  1.
        2   -1    0    0  501    0  0.00000000000E+00  0.00000000000E+00 -0.15765340226E+04  0.15765340226E+04  0.25500000920E-02 0. -1.
    10030    2    1    2    0    0  0.00000000000E+00  0.00000000000E+00 -0.78945353801E+02  0.30741226915E+04  0.30731088418E+04 0.  0.
        5    1    3    3  502    0  0.36887456372E+03 -0.76712222752E+03 -0.13191259002E+04  0.15699236244E+04  0.46999998093E+01 0. -1.
       -5    1    3    3    0  502 -0.36887456372E+03  0.76712222752E+03  0.12401805464E+04  0.15041990671E+04  0.46999998093E+01 0.  1.
</event>
<event>
 5   0  0.1235960E-06  0.3075640E+04  0.7818609E-02  0.8222455E-01
        1   -1    0    0  501    0  0.00000000000E+00  0.00000000000E+00  0.11082868721E+04  0.11082868721E+04  0.50400001928E-02 0.  1.
       -1   -1    0    0    0  501  0.00000000000E+00  0.00000000000E+00 -0.21338250686E+04  0.21338250686E+04  0.50400001928E-02 0. -1.
    10030    2    1    2    0    0  0.00000000000E+00  0.00000000000E+00 -0.10255381964E+04  0.32421119407E+04  0.30756399730E+04 0.  0.
        4    1    3    3  502    0 -0.45248120371E+03  0.13620522223E+04  0.69355871749E+02  0.14369193943E+04  0.12699999809E+01 0.  1.
       -4    1    3    3    0  502  0.45248120371E+03 -0.13620522223E+04 -0.10948940682E+04  0.18051925464E+04  0.12699999809E+01 0. -1.
</event>
<event>
 5   0  0.3445959E-06  0.3077444E+04  0.7818609E-02  0.8221956E-01
        2   -1    0    0  501    0  0.00000000000E+00  0.00000000000E+00  0.18909905675E+04  0.18909905675E+04  0.25500000920E-02 0.  1.
       -2   -1    0    0    0  501  0.00000000000E+00  0.00000000000E+00 -0.12520770352E+04  0.12520770352E+04  0.25500000920E-02 0. -1.
    10030    2    1    2    0    0  0.00000000000E+00  0.00000000000E+00  0.63891353239E+03  0.31430676027E+04  0.30774443055E+04 0.  0.
        4    1    3    3  502    0  0.14160557602E+03  0.15290519892E+04  0.21932468568E+03  0.15511792467E+04  0.12699999809E+01 0. -1.
       -4    1    3    3    0  502 -0.14160557602E+03 -0.15290519892E+04  0.41958884671E+03  0.15918883560E+04  0.12699999809E+01 0.  1.
</event>
<event>
 5   0  0.3374790E-06  0.3100986E+04  0.7818609E-02  0.8215467E-01
        2   -1    0    0  501    0  0.00000000000E+00  0.00000000000E+00  0.14920320004E+04  0.14920320004E+04  0.25500000920E-02 0.  1.
       -2   -1    0    0    0  501  0.00000000000E+00  0.00000000000E+00 -0.16112451410E+04  0.16112451410E+04  0.25500000920E-02 0. -1.
    10030    2    1    2    0    0  0.00000000000E+00  0.00000000000E+00 -0.11921314061E+03  0.31032771414E+04  0.31009864952E+04 0.  0.
        2    1    3    3  502    0 -0.85943172509E+03 -0.84937052500E+03  0.91269546376E+03  0.15142873533E+04  0.25500000920E-02 0.  1.
       -2    1    3    3    0  502  0.85943172509E+03  0.84937052500E+03 -0.10319086044E+04  0.15889897881E+04  0.25500000920E-02 0. -1.
</event>
<event>
 5   0  0.1198763E-06  0.3034770E+04  0.7818609E-02  0.8233871E-01
       -1   -1    0    0    0  501  0.00000000000E+00  0.00000000000E+00  0.22779785701E+04  0.22779785701E+04  0.50400001928E-02 0. -1.
        1   -1    0    0  501    0  0.00000000000E+00  0.00000000000E+00 -0.10107455835E+04  0.10107455835E+04  0.50400001928E-02 0.  1.
    10030    2    1    2    0    0  0.00000000000E+00  0.00000000000E+00  0.12672329866E+04  0.32887241537E+04  0.30347696975E+04 0.  0.
        1    1    3    3  502    0  0.22103978805E+03  0.87498265745E+02  0.22576724960E+04  0.22701540991E+04  0.50400001928E-02 0. -1.
       -1    1    3    3    0  502 -0.22103978805E+03 -0.87498265745E+02 -0.99043950937E+03  0.10185700546E+04  0.50400001928E-02 0.  1.
</event>
<event>
 5   0  0.3374790E-06  0.3098070E+04  0.7818609E-02  0.8216268E-01
        2   -1    0    0  501    0  0.00000000000E+00  0.00000000000E+00  0.25308182719E+04  0.25308182719E+04  0.25500000920E-02 0. -1.
       -2   -1    0    0    0  501  0.00000000000E+00  0.00000000000E+00 -0.94811580578E+03  0.94811580578E+03  0.25500000920E-02 0.  1.
    10030    2    1    2    0    0  0.00000000000E+00  0.00000000000E+00  0.15827024661E+04  0.34789340777E+04  0.30980695958E+04 0.  0.
        2    1    3    3  502    0  0.61966793113E+02 -0.31450455983E+03 -0.91046413413E+03  0.96524501612E+03  0.25500000920E-02 0.  1.
       -2    1    3    3    0  502 -0.61966793113E+02  0.31450455983E+03  0.24931666003E+04  0.25136890616E+04  0.25500000920E-02 0. -1.
</event>
<event>
 5   0  0.1171915E-06  0.3060782E+04  0.7818609E-02  0.8226584E-01
       -1   -1    0    0    0  501  0.00000000000E+00  0.00000000000E+00  0.30064101961E+04  0.30064101962E+04  0.50400001928E-02 0. -1.
        1   -1    0    0  501    0  0.00000000000E+00  0.00000000000E+00 -0.77903403798E+03  0.77903403800E+03  0.50400001928E-02 0.  1.
    10030    2    1    2    0    0  0.00000000000E+00  0.00000000000E+00  0.22273761582E+04  0.37854442341E+04  0.30607815178E+04 0.  0.
        2    1    3    3  502    0  0.15011342465E+04 -0.26116978420E+03  0.93668829023E+03  0.17885744701E+04  0.25500000920E-02 0. -1.
       -2    1    3    3    0  502 -0.15011342465E+04  0.26116978420E+03  0.12906878679E+04  0.19968697640E+04  0.25500000920E-02 0.  1.
</event>
<event>
 5   0  0.1235960E-06  0.3022122E+04  0.7818609E-02  0.8237442E-01
       -1   -1    0    0    0  501  0.00000000000E+00  0.00000000000E+00  0.15614077186E+04  0.15614077186E+04  0.50400001928E-02 0.  1.
        1   -1    0    0  501    0  0.00000000000E+00  0.00000000000E+00 -0.14623373824E+04  0.14623373824E+04  0.50400001928E-02 0. -1.
    10030    2    1    2    0    0  0.00000000000E+00  0.00000000000E+00  0.99070336121E+02  0.30237451010E+04  0.30221216892E+04 0.  0.
        4    1    3    3  502    0 -0.11953607645E+04 -0.63462569785E+03  0.72195728881E+03  0.15339038671E+04  0.12699999809E+01 0.  1.
       -4    1    3    3    0  502  0.11953607645E+04  0.63462569785E+03 -0.62288695269E+03  0.14898412339E+04  0.12699999809E+01 0. -1.
</event>
<event>
 5   0  0.3445410E-06  0.3125547E+04  0.7818609E-02  0.8208762E-01
       -2   -1    0    0    0  501  0.00000000000E+00  0.00000000000E+00  0.12583140598E+04  0.12583140598E+04  0.25500000920E-02 0.  1.
        2   -1    0    0  501    0  0.00000000000E+00  0.00000000000E+00 -0.19408988489E+04  0.19408988489E+04  0.25500000920E-02 0. -1.
    10030    2    1    2    0    0  0.00000000000E+00  0.00000000000E+00 -0.68258478908E+03  0.31992129088E+04  0.31255465508E+04 0.  0.
        1    1    3    3  502    0 -0.11504829860E+04  0.10317752848E+04 -0.57934422852E+03  0.16503972475E+04  0.50400001928E-02 0. -1.
       -1    1    3    3    0  502  0.11504829860E+04 -0.10317752848E+04 -0.10324056056E+03  0.15488156613E+04  0.50400001928E-02 0.  1.
</event>
<event>
 5   0  0.3374790E-06  0.3082299E+04  0.7818609E-02  0.8220613E-01
        2   -1    0    0  501    0  0.00000000000E+00  0.00000000000E+00  0.23615019446E+04  0.23615019446E+04  0.25500000920E-02 0. -1.
       -2   -1    0    0    0  501  0.00000000000E+00  0.00000000000E+00 -0.10057758619E+04  0.10057758619E+04  0.25500000920E-02 0.  1.
    10030    2    1    2    0    0  0.00000000000E+00  0.00000000000E+00  0.13557260828E+04  0.33672778065E+04  0.30822989172E+04 0.  0.
        2    1    3    3  502    0  0.10052590856E+04  0.50255570322E+03 -0.47416525650E+03  0.12198117701E+04  0.25500000920E-02 0.  1.
       -2    1    3    3    0  502 -0.10052590856E+04 -0.50255570322E+03  0.18298913393E+04  0.21474660364E+04  0.25500000920E-02 0. -1.
</event>
<event>
 5   0  0.1198763E-06  0.3097323E+04  0.7818609E-02  0.8216473E-01
        1   -1    0    0  501    0  0.00000000000E+00  0.00000000000E+00  0.21384139255E+04  0.21384139255E+04  0.50400001928E-02 0. -1.
       -1   -1    0    0    0  501  0.00000000000E+00  0.00000000000E+00 -0.11215565872E+04  0.11215565872E+04  0.50400001928E-02 0.  1.
    10030    2    1    2    0    0  0.00000000000E+00  0.00000000000E+00  0.10168573382E+04  0.32599705127E+04  0.30973228597E+04 0.  0.
        1    1    3    3  502    0 -0.13140376365E+04 -0.18423360250E+02  0.13707940340E+04  0.18989762015E+04  0.50400001928E-02 0. -1.
       -1    1    3    3    0  502  0.13140376365E+04  0.18423360250E+02 -0.35393669577E+03  0.13609943112E+04  0.50400001928E-02 0.  1.
</event>
<event>
 5   0  0.1171915E-06  0.3086792E+04  0.7818609E-02  0.8219372E-01
        1   -1    0    0  501    0  0.00000000000E+00  0.00000000000E+00  0.28673734131E+04  0.28673734131E+04  0.50400001928E-02 0.  1.
       -1   -1    0    0    0  501  0.00000000000E+00  0.00000000000E+00 -0.83075005969E+03  0.83075005970E+03  0.50400001928E-02 0. -1.
    10030    2    1    2    0    0  0.00000000000E+00  0.00000000000E+00  0.20366233534E+04  0.36981234728E+04  0.30867916250E+04 0.  0.
        2    1    3    3  502    0 -0.27170499390E+03 -0.14297347806E+04  0.16340026784E+04  0.21881338852E+04  0.25500000920E-02 0.  1.
       -2    1    3    3    0  502  0.27170499390E+03  0.14297347806E+04  0.40262067495E+03  0.15099895875E+04  0.25500000920E-02 0. -1.
</event>
<event>
 5   0  0.3445410E-06  0.3106196E+04  0.7818609E-02  0.8214039E-01
        2   -1    0    0  501    0  0.00000000000E+00  0.00000000000E+00  0.13755569228E+04  0.13755569228E+04  0.25500000920E-02 0. -1.
       -2   -1    0    0    0  501  0.00000000000E+00  0.00000000000E+00 -0.17535542699E+04  0.17535542699E+04  0.25500000920E-02 0.  1.
    10030    2    1    2    0    0  0.00000000000E+00  0.00000000000E+00 -0.37799734707E+03  0.31291111927E+04  0.31061962047E+04 0.  0.
        1    1    3    3  502    0 -0.10559734466E+04  0.10205872689E+04  0.32013599726E+03  0.15030520118E+04  0.50400001928E-02 0. -1.
       -1    1    3    3    0  502  0.10559734466E+04 -0.10205872689E+04 -0.69813334434E+03  0.16260591809E+04  0.50400001928E-02 0.  1.
</event>
<event>
 5   0  0.1171915E-06  0.3113230E+04  0.7818609E-02  0.8212116E-01
       -1   -1    0    0    0  501  0.00000000000E+00  0.00000000000E+00  0.11943324233E+04  0.11943324233E+04  0.50400001928E-02 0. -1.
        1   -1    0    0  501    0  0.00000000000E+00  0.00000000000E+00 -0.20287910141E+04  0.20287910141E+04  0.50400001928E-02 0.  1.
    10030    2    1    2    0    0  0.00000000000E+00  0.00000000000E+00 -0.83445859078E+03  0.32231234374E+04  0.31132304047E+04 0.  0.
        2    1    3    3  502    0 -0.15251273117E+04 -0.29365980987E+03 -0.52482810301E+03  0.16394187807E+04  0.25500000920E-02 0.  1.
       -2    1    3    3    0  502  0.15251273117E+04  0.29365980987E+03 -0.30963048777E+03  0.15837046567E+04  0.25500000920E-02 0. -1.
</event>
<event>
 5   0  0.1211008E-06  0.3108043E+04  0.7818609E-02  0.8213534E-01
        1   -1    0    0  501    0  0.00000000000E+00  0.00000000000E+00  0.11293024338E+04  0.11293024338E+04  0.50400001928E-02 0.  1.
       -1   -1    0    0    0  501  0.00000000000E+00  0.00000000000E+00 -0.21384724271E+04  0.21384724271E+04  0.50400001928E-02 0. -1.
    10030    2    1    2    0    0  0.00000000000E+00  0.00000000000E+00 -0.10091699933E+04  0.32677748610E+04  0.31080425458E+04 0.  0.
        3    1    3    3  502    0  0.88460409154E+03 -0.44584326776E+03 -0.17634858010E+04  0.20226672487E+04  0.10100000352E+00 0. -1.
       -3    1    3    3    0  502 -0.88460409154E+03  0.44584326776E+03  0.75431580775E+03  0.12451076123E+04  0.10100000352E+00 0.  1.
</event>
<event>
 5   0  0.3445959E-06  0.3111270E+04  0.7818609E-02  0.8212652E-01
        2   -1    0    0  501    0  0.00000000000E+00  0.00000000000E+00  0.21286065502E+04  0.21286065502E+04  0.25500000920E-02 0. -1.
       -2   -1    0    0    0  501  0.00000000000E+00  0.00000000000E+00 -0.11368939983E+04  0.11368939983E+04  0.25500000920E-02 0.  1.
    10030    2    1    2    0    0  0.00000000000E+00  0.00000000000E+00  0.99171255186E+03  0.32655005485E+04  0.31112698448E+04 0.  0.
        4    1    3    3  502    0  0.88420395655E+02 -0.35217377273E+03 -0.10917934542E+04  0.11505907579E+04  0.12699999809E+01 0.  1.
       -4    1    3    3    0  502 -0.88420395655E+02  0.35217377273E+03  0.20835060061E+04  0.21149097907E+04  0.12699999809E+01 0. -1.
</event>
<event>
 5   0  0.3445959E-06  0.2614600E+04  0.7818609E-02  0.8363259E-01
       -2   -1    0    0    0  501  0.00000000000E+00  0.00000000000E+00  0.13530566517E+04  0.13530566517E+04  0.25500000920E-02 0. -1.
        2   -1    0    0  501    0  0.00000000000E+00  0.00000000000E+00 -0.12630903996E+04  0.12630903996E+04  0.25500000920E-02 0.  1.
    10030    2    1    2    0    0  0.00000000000E+00  0.00000000000E+00  0.89966252177E+02  0.26161470513E+04  0.26145996763E+04 0.  0.
        4    1    3    3  502    0  0.67153483481E+03 -0.11152440678E+04 -0.74682338166E+02  0.13039583696E+04  0.12699999809E+01 0. -1.
       -4    1    3    3    0  502 -0.67153483481E+03  0.11152440678E+04  0.16464859034E+03  0.13121886817E+04  0.12699999809E+01 0.  1.
</event>
<event>
 5   0  0.3445959E-06  0.3003362E+04  0.7818609E-02  0.8242771E-01
        2   -1    0    0  501    0  0.00000000000E+00  0.00000000000E+00  0.16163586118E+04  0.16163586118E+04  0.25500000920E-02 0.  1.
       -2   -1    0    0    0  501  0.00000000000E+00  0.00000000000E+00 -0.13951397757E+04  0.13951397757E+04  0.25500000920E-02 0. -1.
    10030    2    1    2    0    0  0.00000000000E+00  0.00000000000E+00  0.22121883608E+03  0.30114983875E+04  0.30033622433E+04 0.  0.
        4    1    3    3  502    0  0.37863656011E+03 -0.13451218006E+04 -0.44072215633E+03  0.14652494446E+04  0.12699999809E+01 0. -1.
       -4    1    3    3    0  502 -0.37863656011E+03  0.13451218006E+04  0.66194099241E+03  0.15462489429E+04  0.12699999809E+01 0.  1.
</event>
<event>
 5   0  0.3340899E-06  0.3098390E+04  0.7818609E-02  0.8216180E-01
        2   -1    0    0  501    0  0.00000000000E+00  0.00000000000E+00  0.25892642984E+04  0.25892642984E+04  0.25500000920E-02 0. -1.
       -2   -1    0    0    0  501  0.00000000000E+00  0.00000000000E+00 -0.92690612808E+03  0.92690612808E+03  0.25500000920E-02 0.  1.
    10030    2    1    2    0    0  0.00000000000E+00  0.00000000000E+00  0.16623581703E+04  0.35161704265E+04  0.30983898692E+04 0.  0.
        3    1    3    3  502    0 -0.31291940911E+02 -0.87101331227E+03 -0.62228279021E+03  0.10709244870E+04  0.10100000352E+00 0.  1.
       -3    1    3    3    0  502  0.31291940911E+02  0.87101331227E+03  0.22846409605E+04  0.24452459395E+04  0.10100000352E+00 0. -1.
</event>
<event>
 5   0  0.1198763E-06  0.3092328E+04  0.7818609E-02  0.8217847E-01
        1   -1    0    0  501    0  0.00000000000E+00  0.00000000000E+00  0.18664531690E+04  0.18664531690E+04  0.50400001928E-02 0.  1.
       -1   -1    0    0    0  501  0.00000000000E+00  0.00000000000E+00 -0.12808374023E+04  0.12808374023E+04  0.50400001928E-02 0. -1.
    10030    2    1    2    0    0  0.00000000000E+00  0.00000000000E+00  0.58561576668E+03  0.31472905713E+04  0.30923279442E+04 0.  0.
        1    1    3    3  502    0 -0.80112048734E+03 -0.25067922760E+03  0.16143428344E+04  0.18195430463E+04  0.50400001928E-02 0.  1.
       -1    1    3    3    0  502  0.80112048734E+03  0.25067922760E+03 -0.10287270677E+04  0.13277475250E+04  0.50400001928E-02 0. -1.
</event>
<event>
 5   0  0.3374790E-06  0.3239378E+04  0.7818609E-02  0.8178494E-01
       -2   -1    0    0    0  501  0.00000000000E+00  0.00000000000E+00  0.21515132817E+04  0.21515132817E+04  0.25500000920E-02 0.  1.
        2   -1    0    0  501    0  0.00000000000E+00  0.00000000000E+00 -0.12193241320E+04  0.12193241320E+04  0.25500000920E-02 0. -1.
    10030    2    1    2    0    0  0.00000000000E+00  0.00000000000E+00  0.93218914974E+03  0.33708374137E+04  0.32393777580E+04 0.  0.
        2    1    3    3  502    0 -0.31356272306E+03  0.10904770466E+04  0.16688244779E+04  0.20180279751E+04  0.25500000920E-02 0.  1.
       -2    1    3    3    0  502  0.31356272306E+03 -0.10904770466E+04 -0.73663532816E+03  0.13528094386E+04  0.25500000920E-02 0. -1.
</event>
<event>
 5   0  0.3445410E-06  0.2768284E+04  0.7818609E-02  0.8313183E-01
       -2   -1    0    0    0  501  0.00000000000E+00  0.00000000000E+00  0.75334688488E+03  0.75334688488E+03  0.25500000920E-02 0. -1.
        2   -1    0    0  501    0  0.00000000000E+00  0.00000000000E+00 -0.25431176031E+04  0.25431176031E+04  0.25500000920E-02 0.  1.
    10030    2    1    2    0    0  0.00000000000E+00  0.00000000000E+00 -0.17897707183E+04  0.32964644880E+04  0.27682844682E+04 0.  0.
        1    1    3    3  502    0  0.94835727438E+03 -0.87164751983E+03 -0.14982079805E+04  0.19757980847E+04  0.50400001928E-02 0. -1.
       -1    1    3    3    0  502 -0.94835727438E+03  0.87164751983E+03 -0.29156273773E+03  0.13206664033E+04  0.50400001928E-02 0.  1.
</event>
<event>
 5   0  0.1171915E-06  0.3070290E+04  0.7818609E-02  0.8223939E-01
       -1   -1    0    0    0  501  0.00000000000E+00  0.00000000000E+00  0.12658010211E+04  0.12658010211E+04  0.50400001928E-02 0.  1.
        1   -1    0    0  501    0  0.00000000000E+00  0.00000000000E+00 -0.18618013611E+04  0.18618013611E+04  0.50400001928E-02 0. -1.
    10030    2    1    2    0    0  0.00000000000E+00  0.00000000000E+00 -0.59600034001E+03  0.31276023822E+04  0.30702899303E+04 0.  0.
        2    1    3    3  502    0  0.61483965954E+03 -0.64809735667E+03 -0.15697484679E+04  0.18061473481E+04  0.25500000920E-02 0. -1.
       -2    1    3    3    0  502 -0.61483965954E+03  0.64809735667E+03  0.97374812787E+03  0.13214550341E+04  0.25500000920E-02 0.  1.
</event>
<event>
 5   0  0.1171915E-06  0.3052908E+04  0.7818609E-02  0.8228782E-01
       -1   -1    0    0    0  501  0.00000000000E+00  0.00000000000E+00  0.83206583767E+03  0.83206583768E+03  0.50400001928E-02 0.  1.
        1   -1    0    0  501    0  0.00000000000E+00  0.00000000000E+00 -0.28003333921E+04  0.28003333921E+04  0.50400001928E-02 0. -1.
    10030    2    1    2    0    0  0.00000000000E+00  0.00000000000E+00 -0.19682675545E+04  0.36323992298E+04  0.30529079578E+04 0.  0.
        2    1    3    3  502    0  0.14288104601E+03  0.19214179228E+03  0.80958197772E+03  0.84424903927E+03  0.25500000920E-02 0.  1.
       -2    1    3    3    0  502 -0.14288104601E+03 -0.19214179228E+03 -0.27778495322E+04  0.27881501906E+04  0.25500000920E-02 0. -1.
</event>
<event>
 5   0  0.3445410E-06  0.3074388E+04  0.7818609E-02  0.8222802E-01
       -2   -1    0    0    0  501  0.00000000000E+00  0.00000000000E+00  0.24878557539E+04  0.24878557539E+04  0.25500000920E-02 0. -1.
        2   -1    0    0  501    0  0.00000000000E+00  0.00000000000E+00 -0.94980011101E+03  0.94980011101E+03  0.25500000920E-02 0.  1.
    10030    2    1    2    0    0  0.00000000000E+00  0.00000000000E+00  0.15380556428E+04  0.34376558649E+04  0.30743881806E+04 0.  0.
        1    1    3    3  502    0  0.14984205422E+04 -0.10179042908E+03  0.40268725319E+03  0.15549220034E+04  0.50400001928E-02 0.  1.
       -1    1    3    3    0  502 -0.14984205422E+04  0.10179042908E+03  0.11353683897E+04  0.18827338615E+04  0.50400001928E-02 0. -1.
</event>
<event>
 5   0  0.3445959E-06  0.2735543E+04  0.7818609E-02  0.8323564E-01
       -2   -1    0    0    0  501  0.00000000000E+00  0.00000000000E+00  0.81049910027E+03  0.81049910028E+03  0.25500000920E-02 0.  1.
        2   -1    0    0  501    0  0.00000000000E+00  0.00000000000E+00 -0.23082060676E+04  0.23082060676E+04  0.25500000920E-02 0. -1.
    10030    2    1    2    0    0  0.00000000000E+00  0.00000000000E+00 -0.14977069673E+04  0.31187051679E+04  0.27355430474E+04 0.  0.
        4    1    3    3  502    0 -0.34941072811E+03  0.12959689371E+04 -0.10487021800E+04  0.17033499987E+04  0.12699999809E+01 0.  1.
       -4    1    3    3    0  502  0.34941072811E+03 -0.12959689371E+04 -0.44900478732E+03  0.14153551691E+04  0.12699999809E+01 0. -1.
</event>
<event>
 5   0  0.3445959E-06  0.3094193E+04  0.7818609E-02  0.8217333E-01
        2   -1    0    0  501    0  0.00000000000E+00  0.00000000000E+00  0.11863624941E+04  0.11863624941E+04  0.25500000920E-02 0. -1.
       -2   -1    0    0    0  501  0.00000000000E+00  0.00000000000E+00 -0.20175184944E+04  0.20175184944E+04  0.25500000920E-02 0.  1.
    10030    2    1    2    0    0  0.00000000000E+00  0.00000000000E+00 -0.83115600031E+03  0.32038809885E+04  0.30941934477E+04 0.  0.
        4    1    3    3  502    0  0.12754545302E+03 -0.11796005035E+04 -0.14436398382E+04  0.18686419630E+04  0.12699999809E+01 0.  1.
       -4    1    3    3    0  502 -0.12754545302E+03  0.11796005035E+04  0.61248383792E+03  0.13352390255E+04  0.12699999809E+01 0. -1.
</event>
<event>
 5   0  0.1211008E-06  0.3090528E+04  0.7818609E-02  0.8218342E-01
        1   -1    0    0  501    0  0.00000000000E+00  0.00000000000E+00  0.23788985013E+04  0.23788985013E+04  0.50400001928E-02 0.  1.
       -1   -1    0    0    0  501  0.00000000000E+00  0.00000000000E+00 -0.10037592063E+04  0.10037592063E+04  0.50400001928E-02 0. -1.
    10030    2    1    2    0    0  0.00000000000E+00  0.00000000000E+00  0.13751392950E+04  0.33826577076E+04  0.30905282859E+04 0.  0.
        3    1    3    3  502    0 -0.95329343658E+03 -0.19715276684E+03  0.20010914556E+04  0.22253100039E+04  0.10100000352E+00 0.  1.
       -3    1    3    3    0  502  0.95329343658E+03  0.19715276684E+03 -0.62595216058E+03  0.11573477037E+04  0.10100000352E+00 0. -1.
</event>
<event>
 5   0  0.1250276E-06  0.3110271E+04  0.7818609E-02  0.8212925E-01
       -1   -1    0    0    0  501  0.00000000000E+00  0.00000000000E+00  0.11770728609E+04  0.11770728609E+04  0.50400001928E-02 0. -1.
        1   -1    0    0  501    0  0.00000000000E+00  0.00000000000E+00 -0.20546282780E+04  0.20546282780E+04  0.50400001928E-02 0.  1.
    10030    2    1    2    0    0  0.00000000000E+00  0.00000000000E+00 -0.87755541709E+03  0.32317011389E+04  0.31102714900E+04 0.  0.
        5    1    3    3  502    0  0.64945548545E+03  0.12118450000E+04 -0.11938287692E+04  0.18208816413E+04  0.46999998093E+01 0.  1.
       -5    1    3    3    0  502 -0.64945548545E+03 -0.12118450000E+04  0.31627335210E+03  0.14108194976E+04  0.46999998093E+01 0. -1.
</event>
<event>
 5   0  0.3374790E-06  0.3117215E+04  0.7818609E-02  0.8211029E-01
       -2   -1    0    0    0  501  0.00000000000E+00  0.00000000000E+00  0.98916559557E+03  0.98916559557E+03  0.25500000920E-02 0. -1.
        2   -1    0    0  501    0  0.00000000000E+00  0.00000000000E+00 -0.24558648225E+04  0.24558648225E+04  0.25500000920E-02 0.  1.
    10030    2    1    2    0    0  0.00000000000E+00  0.00000000000E+00 -0.14666992269E+04  0.34450304181E+04  0.31172147759E+04 0.  0.
        2    1    3    3  502    0 -0.12026585385E+04 -0.15936009430E+03  0.34805889411E+03  0.12621125915E+04  0.25500000920E-02 0. -1.
       -2    1    3    3    0  502  0.12026585385E+04  0.15936009430E+03 -0.18147581210E+04  0.21829178266E+04  0.25500000920E-02 0.  1.
</event>
<event>
 5   0  0.1171915E-06  0.3097374E+04  0.7818609E-02  0.8216459E-01
       -1   -1    0    0    0  501  0.00000000000E+00  0.00000000000E+00  0.12005653573E+04  0.12005653573E+04  0.50400001928E-02 0.  1.
        1   -1    0    0  501    0  0.00000000000E+00  0.00000000000E+00 -0.19977513527E+04  0.19977513527E+04  0.50400001928E-02 0. -1.
    10030    2    1    2    0    0  0.00000000000E+00  0.00000000000E+00 -0.79718599537E+03  0.31983167100E+04  0.30973737692E+04 0.  0.
        2    1    3    3  502    0  0.99947904691E+03 -0.25732052087E+03 -0.15908917478E+04  0.18963408895E+04  0.25500000920E-02 0. -1.
       -2    1    3    3    0  502 -0.99947904691E+03  0.25732052087E+03  0.79370575247E+03  0.13019758205E+04  0.25500000920E-02 0.  1.
</event>
<event>
 5   0  0.1171915E-06  0.3060038E+04  0.7818609E-02  0.8226792E-01
        1   -1    0    0  501    0  0.00000000000E+00  0.00000000000E+00  0.18597987797E+04  0.18597987797E+04  0.50400001928E-02 0.  1.
       -1   -1    0    0    0  501  0.00000000000E+00  0.00000000000E+00 -0.12587156009E+04  0.12587156009E+04  0.50400001928E-02 0. -1.
    10030    2    1    2    0    0  0.00000000000E+00  0.00000000000E+00  0.60108317883E+03  0.31185143806E+04  0.30600377373E+04 0.  0.
        2    1    3    3  502    0 -0.12539280076E+04  0.39750237398E+03 -0.49580917594E+03  0.14057632534E+04  0.25500000920E-02 0. -1.
       -2    1    3    3    0  502  0.12539280076E+04 -0.39750237398E+03  0.10968923548E+04  0.17127511272E+04  0.25500000920E-02 0.  1.
</event>
<event>
 5   0  0.1198763E-06  0.3113402E+04  0.7818609E-02  0.8212069E-01
       -1   -1    0    0    0  501  0.00000000000E+00  0.00000000000E+00  0.10344793147E+04  0.10344793147E+04  0.50400001928E-02 0.  1.
        1   -1    0    0  501    0  0.00000000000E+00  0.00000000000E+00 -0.23425491263E+04  0.23425491263E+04  0.50400001928E-02 0. -1.
    10030    2    1    2    0    0  0.00000000000E+00  0.00000000000E+00 -0.13080698116E+04  0.33770284410E+04  0.31134023927E+04 0.  0.
        1    1    3    3  502    0 -0.92684019289E+02 -0.15094691642E+04 -0.10543828862E+04  0.18435863842E+04  0.50400001928E-02 0. -1.
       -1    1    3    3    0  502  0.92684019289E+02  0.15094691642E+04 -0.25368692538E+03  0.15334420567E+04  0.50400001928E-02 0.  1.
</event>
<event>
 5   0  0.3374790E-06  0.3079425E+04  0.7818609E-02  0.8221407E-01
       -2   -1    0    0    0  501  0.00000000000E+00  0.00000000000E+00  0.17806644134E+04  0.17806644134E+04  0.25500000920E-02 0. -1.
        2   -1    0    0  501    0  0.00000000000E+00  0.00000000000E+00 -0.13313648740E+04  0.13313648740E+04  0.25500000920E-02 0.  1.
    10030    2    1    2    0    0  0.00000000000E+00  0.00000000000E+00  0.44929953934E+03  0.31120292874E+04  0.30794246556E+04 0.  0.
        2    1    3    3  502    0  0.59292417054E+03 -0.57161434351E+03 -0.10900516859E+04  0.13662044897E+04  0.25500000920E-02 0.  1.
       -2    1    3    3    0  502 -0.59292417054E+03  0.57161434351E+03  0.15393512252E+04  0.17458247977E+04  0.25500000920E-02 0. -1.
</event>
<event>
 5   0  0.3445959E-06  0.3102881E+04  0.7818609E-02  0.8214948E-01
       -2   -1    0    0    0  501  0.00000000000E+00  0.00000000000E+00  0.84268283132E+03  0.84268283133E+03  0.25500000920E-02 0. -1.
        2   -1    0    0  501    0  0.00000000000E+00  0.00000000000E+00 -0.28563153812E+04  0.28563153812E+04  0.25500000920E-02 0.  1.
    10030    2    1    2    0    0  0.00000000000E+00  0.00000000000E+00 -0.20136325498E+04  0.36989982125E+04  0.31028811982E+04 0.  0.
        4    1    3    3  502    0  0.49367862195E+03  0.13637603792E+04 -0.16634612155E+04  0.22069584912E+04  0.12699999809E+01 0.  1.
       -4    1    3    3    0  502 -0.49367862195E+03 -0.13637603792E+04 -0.35017133436E+03  0.14920397213E+04  0.12699999809E+01 0. -1.
</event>
<event>
 5   0  0.1198763E-06  0.3092059E+04  0.7818609E-02  0.8217921E-01
        1   -1    0    0  501    0  0.00000000000E+00  0.00000000000E+00  0.12942405438E+04  0.12942405438E+04  0.50400001928E-02 0. -1.
       -1   -1    0    0    0  501  0.00000000000E+00  0.00000000000E+00 -0.18468026880E+04  0.18468026880E+04  0.50400001928E-02 0.  1.
    10030    2    1    2    0    0  0.00000000000E+00  0.00000000000E+00 -0.55256214426E+03  0.31410432318E+04  0.30920588062E+04 0.  0.
        1    1    3    3  502    0 -0.10458703504E+03 -0.81429466703E+03 -0.16070700320E+04  0.18046296962E+04  0.50400001928E-02 0.  1.
       -1    1    3    3    0  502  0.10458703504E+03  0.81429466703E+03  0.10545078878E+04  0.13364135356E+04  0.50400001928E-02 0. -1.
</event>
<event>
 5   0  0.3445410E-06  0.2874229E+04  0.7818609E-02  0.8280587E-01
        2   -1    0    0  501    0  0.00000000000E+00  0.00000000000E+00  0.72984488784E+03  0.72984488785E+03  0.25500000920E-02 0.  1.
       -2   -1    0    0    0  501  0.00000000000E+00  0.00000000000E+00 -0.28297759178E+04  0.28297759178E+04  0.25500000920E-02 0. -1.
    10030    2    1    2    0    0  0.00000000000E+00  0.00000000000E+00 -0.20999310300E+04  0.35596208057E+04  0.28742285834E+04 0.  0.
        1    1    3    3  502    0  0.12146499579E+04 -0.52774531522E+03 -0.17410755678E+04  0.21875177190E+04  0.50400001928E-02 0. -1.
       -1    1    3    3    0  502 -0.12146499579E+04  0.52774531522E+03 -0.35885546216E+03  0.13721030867E+04  0.50400001928E-02 0.  1.
</event>
<event>
 5   0  0.1171915E-06  0.3116648E+04  0.7818609E-02  0.8211184E-01
        1   -1    0    0  501    0  0.00000000000E+00  0.00000000000E+00  0.16221472573E+04  0.16221472573E+04  0.50400001928E-02 0.  1.
       -1   -1    0    0    0  501  0.00000000000E+00  0.00000000000E+00 -0.14970118036E+04  0.14970118036E+04  0.50400001928E-02 0. -1.
    10030    2    1    2    0    0  0.00000000000E+00  0.00000000000E+00  0.12513545372E+03  0.31191590609E+04  0.31166479373E+04 0.  0.
        2    1    3    3  502    0  0.28473051017E+03  0.70703572276E+03 -0.12977192893E+04  0.15050070865E+04  0.25500000920E-02 0. -1.
       -2    1    3    3    0  502 -0.28473051017E+03 -0.70703572276E+03  0.14228547430E+04  0.16141519744E+04  0.25500000920E-02 0.  1.
</event>
<event>
 5   0  0.1198763E-06  0.3016130E+04  0.7818609E-02  0.8239140E-01
       -1   -1    0    0    0  501  0.00000000000E+00  0.00000000000E+00  0.17427141276E+04  0.17427141276E+04  0.50400001928E-02 0. -1.
        1   -1    0    0  501    0  0.00000000000E+00  0.00000000000E+00 -0.13050107270E+04  0.13050107271E+04  0.50400001928E-02 0.  1.
    10030    2    1    2    0    0  0.00000000000E+00  0.00000000000E+00  0.43770340055E+03  0.30477248546E+04  0.30161303889E+04 0.  0.
        1    1    3    3  502    0 -0.95314909809E+03  0.10542166257E+04 -0.29080730545E+03  0.14506670142E+04  0.50400001928E-02 0.  1.
       -1    1    3    3    0  502  0.95314909809E+03 -0.10542166257E+04  0.72851070600E+03  0.15970578405E+04  0.50400001928E-02 0. -1.
</event>
<event>
 5   0  0.1211008E-06  0.3110121E+04  0.7818609E-02  0.8212966E-01
       -1   -1    0    0    0  501  0.00000000000E+00  0.00000000000E+00  0.12567497831E+04  0.12567497831E+04  0.50400001928E-02 0. -1.
        1   -1    0    0  501    0  0.00000000000E+00  0.00000000000E+00 -0.19241807383E+04  0.19241807384E+04  0.50400001928E-02 0.  1.
    10030    2    1    2    0    0  0.00000000000E+00  0.00000000000E+00 -0.66743095529E+03  0.31809305214E+04  0.31101213645E+04 0.  0.
        3    1    3    3  502    0  0.46203099340E+03  0.55168873602E+03 -0.17436441502E+04  0.18863000910E+04  0.10100000352E+00 0.  1.
       -3    1    3    3    0  502 -0.46203099340E+03 -0.55168873602E+03  0.10762131949E+04  0.12946304305E+04  0.10100000352E+00 0. -1.
</event>
<event>
 5   0  0.1198763E-06  0.3077289E+04  0.7818609E-02  0.8221998E-01
        1   -1    0    0  501    0  0.00000000000E+00  0.00000000000E+00  0.14358348617E+04  0.14358348617E+04  0.50400001928E-02 0. -1.
       -1   -1    0    0    0  501  0.00000000000E+00  0.00000000000E+00 -0.16488157283E+04  0.16488157283E+04  0.50400001928E-02 0.  1.
    10030    2    1    2    0    0  0.00000000000E+00  0.00000000000E+00 -0.21298086662E+03  0.30846505900E+04  0.30772891337E+04 0.  0.
        1    1    3    3  502    0  0.17146834881E+03  0.87335436200E+03  0.11516127442E+04  0.14554590853E+04  0.50400001928E-02 0. -1.
       -1    1    3    3    0  502 -0.17146834881E+03 -0.87335436200E+03 -0.13645936108E+04  0.16291915047E+04  0.50400001928E-02 0.  1.
</event>
<event>
 5   0  0.1198763E-06  0.3081824E+04  0.7818609E-02  0.8220744E-01
        1   -1    0    0  501    0  0.00000000000E+00  0.00000000000E+00  0.88822334785E+03  0.88822334787E+03  0.50400001928E-02 0. -1.
       -1   -1    0    0    0  501  0.00000000000E+00  0.00000000000E+00 -0.26732130471E+04  0.26732130471E+04  0.50400001928E-02 0.  1.
    10030    2    1    2    0    0  0.00000000000E+00  0.00000000000E+00 -0.17849896992E+04  0.35614363950E+04  0.30818242924E+04 0.  0.
        1    1    3    3  502    0  0.26266702574E+03  0.82526547153E+02  0.85956748275E+03  0.90258564958E+03  0.50400001928E-02 0. -1.
       -1    1    3    3    0  502 -0.26266702574E+03 -0.82526547153E+02 -0.26445571820E+04  0.26588507454E+04  0.50400001928E-02 0.  1.
</event>
<event>
 5   0  0.1171915E-06  0.3109271E+04  0.7818609E-02  0.8213198E-01
       -1   -1    0    0    0  501  0.00000000000E+00  0.00000000000E+00  0.92508176226E+03  0.92508176227E+03  0.50400001928E-02 0.  1.
        1   -1    0    0  501    0  0.00000000000E+00  0.00000000000E+00 -0.26126252862E+04  0.26126252862E+04  0.50400001928E-02 0. -1.
    10030    2    1    2    0    0  0.00000000000E+00  0.00000000000E+00 -0.16875435239E+04  0.35377070484E+04  0.31092712998E+04 0.  0.
        2    1    3    3  502    0 -0.13401046987E+04  0.69887364165E+03 -0.42947286631E+03  0.15712262451E+04  0.25500000920E-02 0.  1.
       -2    1    3    3    0  502  0.13401046987E+04 -0.69887364165E+03 -0.12580706576E+04  0.19664808033E+04  0.25500000920E-02 0. -1.
</event>
<event>
 5   0  0.1198763E-06  0.3113340E+04  0.7818609E-02  0.8212086E-01
       -1   -1    0    0    0  501  0.00000000000E+00  0.00000000000E+00  0.22511696003E+04  0.22511696003E+04  0.50400001928E-02 0. -1.
        1   -1    0    0  501    0  0.00000000000E+00  0.00000000000E+00 -0.10764277166E+04  0.10764277166E+04  0.50400001928E-02 0.  1.
    10030    2    1    2    0    0  0.00000000000E+00  0.00000000000E+00  0.11747418837E+04  0.33275973170E+04  0.31133399125E+04 0.  0.
        1    1    3    3  502    0  0.67981525402E+02 -0.15565292806E+03  0.22412358850E+04  0.22476627002E+04  0.50400001928E-02 0. -1.
       -1    1    3    3    0  502 -0.67981525402E+02  0.15565292806E+03 -0.10664940012E+04  0.10799346168E+04  0.50400001928E-02 0.  1.
</event>
<event>
 5   0  0.3374790E-06  0.3130118E+04  0.7818609E-02  0.8207520E-01
        2   -1    0    0  501    0  0.00000000000E+00  0.00000000000E+00  0.21560204307E+04  0.21560204307E+04  0.25500000920E-02 0. -1.
       -2   -1    0    0    0  501  0.00000000000E+00  0.00000000000E+00 -0.11360792891E+04  0.11360792891E+04  0.25500000920E-02 0.  1.
    10030    2    1    2    0    0  0.00000000000E+00  0.00000000000E+00  0.10199411416E+04  0.32920997198E+04  0.31301183097E+04 0.  0.
        2    1    3    3  502    0 -0.90037601336E+03 -0.58929625838E+03  0.17052053776E+04  0.20163512654E+04  0.25500000920E-02 0. -1.
       -2    1    3    3    0  502  0.90037601336E+03  0.58929625838E+03 -0.68526423606E+03  0.12757484544E+04  0.25500000920E-02 0.  1.
</event>
<event>
 5   0  0.1171915E-06  0.3053878E+04  0.7818609E-02  0.8228511E-01
       -1   -1    0    0    0  501  0.00000000000E+00  0.00000000000E+00  0.12351190922E+04  0.12351190922E+04  0.50400001928E-02 0. -1.
        1   -1    0    0  501    0  0.00000000000E+00  0.00000000000E+00 -0.18877062947E+04  0.18877062947E+04  0.50400001928E-02 0.  1.
    10030    2    1    2    0    0  0.00000000000E+00  0.00000000000E+00 -0.65258720246E+03  0.31228253869E+04  0.30538775909E+04 0.  0.
        2    1    3    3  502    0 -0.13542780107E+04 -0.43101732732E+03  0.24460968026E+03  0.14421091368E+04  0.25500000920E-02 0. -1.
       -2    1    3    3    0  502  0.13542780107E+04  0.43101732732E+03 -0.89719688273E+03  0.16807162501E+04  0.25500000920E-02 0.  1.
</event>
<event>
 5   0  0.1250276E-06  0.3106750E+04  0.7818609E-02  0.8213888E-01
        1   -1    0    0  501    0  0.00000000000E+00  0.00000000000E+00  0.15867633126E+04  0.15867633126E+04  0.50400001928E-02 0.  1.
       -1   -1    0    0    0  501  0.00000000000E+00  0.00000000000E+00 -0.15206892590E+04  0.15206892590E+04  0.50400001928E-02 0. -1.
    10030    2    1    2    0    0  0.00000000000E+00  0.00000000000E+00  0.66074053548E+02  0.31074525716E+04  0.31067500228E+04 0.  0.
        5    1    3    3  502    0  0.60199337531E+03  0.57965763148E+03 -0.12766684268E+04  0.15258778967E+04  0.46999998093E+01 0. -1.
       -5    1    3    3    0  502 -0.60199337531E+03 -0.57965763148E+03  0.13427424804E+04  0.15815746749E+04  0.46999998093E+01 0.  1.
</event>
<event>
 5   0  0.3445410E-06  0.3088070E+04  0.7818609E-02  0.8219020E-01
        2   -1    0    0  501    0  0.00000000000E+00  0.00000000000E+00  0.96557987010E+03  0.96557987011E+03  0.25500000920E-02 0. -1.
       -2   -1    0    0    0  501  0.00000000000E+00  0.00000000000E+00 -0.24690282460E+04  0.24690282460E+04  0.25500000920E-02 0.  1.
    10030    2    1    2    0    0  0.00000000000E+00  0.00000000000E+00 -0.15034483759E+04  0.34346081161E+04  0.30880699300E+04 0.  0.
        1    1    3    3  502    0 -0.22176690374E+03  0.72442371682E+03  0.74464305864E+03  0.10622916576E+04  0.50400001928E-02 0. -1.
       -1    1    3    3    0  502  0.22176690374E+03 -0.72442371682E+03 -0.22480914345E+04  0.23723164585E+04  0.50400001928E-02 0.  1.
</event>
<event>
 5   0  0.3445410E-06  0.3087144E+04  0.7818609E-02  0.8219275E-01
        2   -1    0    0  501    0  0.00000000000E+00  0.00000000000E+00  0.15130051792E+04  0.15130051792E+04  0.25500000920E-02 0. -1.
       -2   -1    0    0    0  501  0.00000000000E+00  0.00000000000E+00 -0.15747565301E+04  0.15747565301E+04  0.25500000920E-02 0.  1.
    10030    2    1    2    0    0  0.00000000000E+00  0.00000000000E+00 -0.61751350880E+02  0.30877617093E+04  0.30871441729E+04 0.  0.
        1    1    3    3  502    0  0.12852203143E+04  0.79916586752E+03  0.27275949881E+03  0.15378085330E+04  0.50400001928E-02 0.  1.
       -1    1    3    3    0  502 -0.12852203143E+04 -0.79916586752E+03 -0.33451084969E+03  0.15499531763E+04  0.50400001928E-02 0. -1.
</event>
<event>
 5   0  0.3374790E-06  0.3161474E+04  0.7818609E-02  0.8199067E-01
       -2   -1    0    0    0  501  0.00000000000E+00  0.00000000000E+00  0.12169534681E+04  0.12169534681E+04  0.25500000920E-02 0.  1.
        2   -1    0    0  501    0  0.00000000000E+00  0.00000000000E+00 -0.20532660391E+04  0.20532660391E+04  0.25500000920E-02 0. -1.
    10030    2    1    2    0    0  0.00000000000E+00  0.00000000000E+00 -0.83631257108E+03  0.32702195072E+04  0.31614738507E+04 0.  0.
        2    1    3    3  502    0 -0.32548062453E+03 -0.15313540581E+04 -0.19213083173E+03  0.15773069278E+04  0.25500000920E-02 0. -1.
       -2    1    3    3    0  502  0.32548062453E+03  0.15313540581E+04 -0.64418173935E+03  0.16929125794E+04  0.25500000920E-02 0.  1.
</event>
<event>
 5   0  0.3441897E-06  0.3020266E+04  0.7818609E-02  0.8237967E-01
       -2   -1    0    0    0  501  0.00000000000E+00  0.00000000000E+00  0.13414896147E+04  0.13414896147E+04  0.25500000920E-02 0. -1.
        2   -1    0    0  501    0  0.00000000000E+00  0.00000000000E+00 -0.16999774299E+04  0.16999774299E+04  0.25500000920E-02 0.  1.
    10030    2    1    2    0    0  0.00000000000E+00  0.00000000000E+00 -0.35848781519E+03  0.30414670446E+04  0.30202662581E+04 0.  0.
        5    1    3    3  502    0 -0.82183478022E+03 -0.12543778673E+04 -0.35826619725E+03  0.15418342966E+04  0.46999998093E+01 0.  1.
       -5    1    3    3    0  502  0.82183478022E+03  0.12543778673E+04 -0.22161793573E+00  0.14996327481E+04  0.46999998093E+01 0. -1.
</event>
<event>
 5   0  0.1235960E-06  0.3114800E+04  0.7818609E-02  0.8211688E-01
       -1   -1    0    0    0  501  0.00000000000E+00  0.00000000000E+00  0.12833057100E+04  0.12833057100E+04  0.50400001928E-02 0. -1.
        1   -1    0    0  501    0  0.00000000000E+00  0.00000000000E+00 -0.18900369976E+04  0.18900369976E+04  0.50400001928E-02 0.  1.
    10030    2    1    2    0    0  0.00000000000E+00  0.00000000000E+00 -0.60673128758E+03  0.31733427076E+04  0.31148003282E+04 0.  0.
        4    1    3    3  502    0 -0.14581501337E+04 -0.54459509493E+03 -0.25034886206E+03  0.15765347429E+04  0.12699999809E+01 0.  1.
       -4    1    3    3    0  502  0.14581501337E+04  0.54459509493E+03 -0.35638242552E+03  0.15968079647E+04  0.12699999809E+01 0. -1.
</event>
<event>
 5   0  0.3445410E-06  0.3038111E+04  0.7818609E-02  0.8232931E-01
        2   -1    0    0  501    0  0.00000000000E+00  0.00000000000E+00  0.24842519591E+04  0.24842519591E+04  0.25500000920E-02 0. -1.
       -2   -1    0    0    0  501  0.00000000000E+00  0.00000000000E+00 -0.92886296900E+03  0.92886296900E+03  0.25500000920E-02 0.  1.
    10030    2    1    2    0    0  0.00000000000E+00  0.00000000000E+00  0.15553889901E+04  0.34131149281E+04  0.30381110253E+04 0.  0.
        1    1    3    3  502    0 -0.12710014127E+04  0.60482741091E+03  0.14193989967E+04  0.19989883191E+04  0.50400001928E-02 0. -1.
       -1    1    3    3    0  502  0.12710014127E+04 -0.60482741091E+03  0.13598999346E+03  0.14141266090E+04  0.50400001928E-02 0.  1.
</event>
<event>
 5   0  0.1198763E-06  0.3106034E+04  0.7818609E-02  0.8214084E-01
        1   -1    0    0  501    0  0.00000000000E+00  0.00000000000E+00  0.18287150132E+04  0.18287150132E+04  0.50400001928E-02 0.  1.
       -1   -1    0    0    0  501  0.00000000000E+00  0.00000000000E+00 -0.13188836979E+04  0.13188836979E+04  0.50400001928E-02 0. -1.
    10030    2    1    2    0    0  0.00000000000E+00  0.00000000000E+00  0.50983131534E+03  0.31475987112E+04  0.31060343972E+04 0.  0.
        1    1    3    3  502    0 -0.11538444062E+04  0.49027814289E+03 -0.67393754001E+03  0.14233486498E+04  0.50400001928E-02 0. -1.
       -1    1    3    3    0  502  0.11538444062E+04 -0.49027814289E+03  0.11837688553E+04  0.17242500613E+04  0.50400001928E-02 0.  1.
</event>
<event>
 5   0  0.1171915E-06  0.3094224E+04  0.7818609E-02  0.8217325E-01
        1   -1    0    0  501    0  0.00000000000E+00  0.00000000000E+00  0.18507820262E+04  0.18507820262E+04  0.50400001928E-02 0. -1.
       -1   -1    0    0    0  501  0.00000000000E+00  0.00000000000E+00 -0.12932672967E+04  0.12932672967E+04  0.50400001928E-02 0.  1.
    10030    2    1    2    0    0  0.00000000000E+00  0.00000000000E+00  0.55751472952E+03  0.31440493229E+04  0.30942242116E+04 0.  0.
        2    1    3    3  502    0  0.91964214981E+03 -0.46183336444E+03 -0.89506069074E+03  0.13638787997E+04  0.25500000920E-02 0.  1.
       -2    1    3    3    0  502 -0.91964214981E+03  0.46183336444E+03  0.14525754203E+04  0.17801705232E+04  0.25500000920E-02 0. -1.
</event>
<event>
 5   0  0.1198763E-06  0.3101737E+04  0.7818609E-02  0.8215261E-01
       -1   -1    0    0    0  501  0.00000000000E+00  0.00000000000E+00  0.77109851863E+03  0.77109851865E+03  0.50400001928E-02 0. -1.
        1   -1    0    0  501    0  0.00000000000E+00  0.00000000000E+00 -0.31191770229E+04  0.31191770229E+04  0.50400001928E-02 0.  1.
    10030    2    1    2    0    0  0.00000000000E+00  0.00000000000E+00 -0.23480785043E+04  0.38902755416E+04  0.31017367920E+04 0.  0.
        1    1    3    3  502    0  0.56922028524E+03  0.86332245771E+03  0.27558399004E+03  0.10701793937E+04  0.50400001928E-02 0. -1.
       -1    1    3    3    0  502 -0.56922028524E+03 -0.86332245771E+03 -0.26236624943E+04  0.28200961479E+04  0.50400001928E-02 0.  1.
</event>
<event>
 5   0  0.1250276E-06  0.2897177E+04  0.7818609E-02  0.8273718E-01
       -1   -1    0    0    0  501  0.00000000000E+00  0.00000000000E+00  0.11779157443E+04  0.11779157443E+04  0.50400001928E-02 0. -1.
        1   -1    0    0  501    0  0.00000000000E+00  0.00000000000E+00 -0.17814590601E+04  0.17814590601E+04  0.50400001928E-02 0.  1.
    10030    2    1    2    0    0  0.00000000000E+00  0.00000000000E+00 -0.60354331586E+03  0.29593748044E+04  0.28971770223E+04 0.  0.
        5    1    3    3  502    0 -0.98373113063E+03 -0.82459173028E+03 -0.98753242285E+03  0.16195434033E+04  0.46999998093E+01 0.  1.
       -5    1    3    3    0  502  0.98373113063E+03  0.82459173028E+03  0.38398910699E+03  0.13398314011E+04  0.46999998093E+01 0. -1.
</event>
<event>
 5   0  0.1171915E-06  0.3061719E+04  0.7818609E-02  0.8226323E-01
       -1   -1    0    0    0  501  0.00000000000E+00  0.00000000000E+00  0.16946511274E+04  0.16946511274E+04  0.50400001928E-02 0. -1.
        1   -1    0    0  501    0  0.00000000000E+00  0.00000000000E+00 -0.13828983315E+04  0.13828983315E+04  0.50400001928E-02 0.  1.
    10030    2    1    2    0    0  0.00000000000E+00  0.00000000000E+00  0.31175279585E+03  0.30775494589E+04  0.30617186132E+04 0.  0.
        2    1    3    3  502    0 -0.14368059178E+03  0.11085442213E+04  0.12072366804E+04  0.16452765134E+04  0.25500000920E-02 0. -1.
       -2    1    3    3    0  502  0.14368059178E+03 -0.11085442213E+04 -0.89548388452E+03  0.14322729455E+04  0.25500000920E-02 0.  1.
</event>
<event>
 5   0  0.3445410E-06  0.2788219E+04  0.7818609E-02  0.8306935E-01
        2   -1    0    0  501    0  0.00000000000E+00  0.00000000000E+00  0.10413301925E+04  0.10413301925E+04  0.25500000920E-02 0.  1.
       -2   -1    0    0    0  501  0.00000000000E+00  0.00000000000E+00 -0.18664024286E+04  0.18664024286E+04  0.25500000920E-02 0. -1.
    10030    2    1    2    0    0  0.00000000000E+00  0.00000000000E+00 -0.82507223610E+03  0.29077326212E+04  0.27882189300E+04 0.  0.
        1    1    3    3  502    0 -0.13787592416E+04 -0.14762010770E+03 -0.26223177105E+03  0.14112172916E+04  0.50400001928E-02 0.  1.
       -1    1    3    3    0  502  0.13787592416E+04  0.14762010770E+03 -0.56284046506E+03  0.14965153295E+04  0.50400001928E-02 0. -1.
</event>
<event>
 5   0  0.3340899E-06  0.3095622E+04  0.7818609E-02  0.8216941E-01
       -2   -1    0    0    0  501  0.00000000000E+00  0.00000000000E+00  0.16782005199E+04  0.16782005199E+04  0.25500000920E-02 0.  1.
        2   -1    0    0  501    0  0.00000000000E+00  0.00000000000E+00 -0.14275519368E+04  0.14275519368E+04  0.25500000920E-02 0. -1.
    10030    2    1    2    0    0  0.00000000000E+00  0.00000000000E+00  0.25064858308E+03  0.31057524568E+04  0.30956216840E+04 0.  0.
        3    1    3    3  502    0 -0.11001892017E+04 -0.94974420406E+03 -0.40866566923E+03  0.15097807696E+04  0.10100000352E+00 0. -1.
       -3    1    3    3    0  502  0.11001892017E+04  0.94974420406E+03  0.65931425231E+03  0.15959716872E+04  0.10100000352E+00 0.  1.
</event>
<event>
 5   0  0.1198763E-06  0.3225717E+04  0.7818609E-02  0.8182058E-01
       -1   -1    0    0    0  501  0.00000000000E+00  0.00000000000E+00  0.14218966823E+04  0.14218966823E+04  0.50400001928E-02 0. -1.
        1   -1    0    0  501    0  0.00000000000E+00  0.00000000000E+00 -0.18294667368E+04  0.18294667369E+04  0.50400001928E-02 0.  1.
    10030    2    1    2    0    0  0.00000000000E+00  0.00000000000E+00 -0.40757005451E+03  0.32513634192E+04  0.32257170884E+04 0.  0.
        1    1    3    3  502    0  0.89284171919E+02  0.81599447081E+03 -0.16031653494E+04  0.18010990471E+04  0.50400001928E-02 0.  1.
       -1    1    3    3    0  502 -0.89284171919E+02 -0.81599447081E+03  0.11955952949E+04  0.14502643721E+04  0.50400001928E-02 0. -1.
</event>
<event>
 5   0  0.1171915E-06  0.3001829E+04  0.7818609E-02  0.8243209E-01
       -1   -1    0    0    0  501  0.00000000000E+00  0.00000000000E+00  0.19602143599E+04  0.19602143599E+04  0.50400001928E-02 0. -1.
        1   -1    0    0  501    0  0.00000000000E+00  0.00000000000E+00 -0.11492333219E+04  0.11492333219E+04  0.50400001928E-02 0.  1.
    10030    2    1    2    0    0  0.00000000000E+00  0.00000000000E+00  0.81098103793E+03  0.31094476818E+04  0.30018285497E+04 0.  0.
        2    1    3    3  502    0  0.72667101712E+02  0.27562048013E+03 -0.11209396374E+04  0.11566126523E+04  0.25500000920E-02 0.  1.
       -2    1    3    3    0  502 -0.72667101712E+02 -0.27562048013E+03  0.19319206753E+04  0.19528350295E+04  0.25500000920E-02 0. -1.
</event>
<event>
 5   0  0.1198763E-06  0.3131409E+04  0.7818609E-02  0.8207171E-01
        1   -1    0    0  501    0  0.00000000000E+00  0.00000000000E+00  0.22385655246E+04  0.22385655246E+04  0.50400001928E-02 0.  1.
       -1   -1    0    0    0  501  0.00000000000E+00  0.00000000000E+00 -0.10950896001E+04  0.10950896001E+04  0.50400001928E-02 0. -1.
    10030    2    1    2    0    0  0.00000000000E+00  0.00000000000E+00  0.11434759245E+04  0.33336551247E+04  0.31314085171E+04 0.  0.
        1    1    3    3  502    0 -0.13887333465E+04 -0.41150818748E+03  0.12047064908E+04  0.18839418847E+04  0.50400001928E-02 0. -1.
       -1    1    3    3    0  502  0.13887333465E+04  0.41150818748E+03 -0.61230566375E+02  0.14497132400E+04  0.50400001928E-02 0.  1.
</event>
<event>
 5   0  0.1235960E-06  0.3124738E+04  0.7818609E-02  0.8208981E-01
       -1   -1    0    0    0  501  0.00000000000E+00  0.00000000000E+00  0.12420798607E+04  0.12420798607E+04  0.50400001928E-02 0. -1.
        1   -1    0    0  501    0  0.00000000000E+00  0.00000000000E+00 -0.19652493242E+04  0.19652493242E+04  0.50400001928E-02 0.  1.
    10030    2    1    2    0    0  0.00000000000E+00  0.00000000000E+00 -0.72316946345E+03  0.32073291849E+04  0.31247378174E+04 0.  0.
        4    1    3    3  502    0  0.71792739976E+03 -0.37923894742E+03  0.10085198217E+04  0.12947415859E+04  0.12699999809E+01 0. -1.
       -4    1    3    3    0  502 -0.71792739976E+03  0.37923894742E+03 -0.17316892852E+04  0.19125875990E+04  0.12699999809E+01 0.  1.
</event>
<event>
 5   0  0.1211008E-06  0.3083553E+04  0.7818609E-02  0.8220266E-01
        1   -1    0    0  501    0  0.00000000000E+00  0.00000000000E+00  0.20995171409E+04  0.20995171409E+04  0.50400001928E-02 0. -1.
       -1   -1    0    0    0  501  0.00000000000E+00  0.00000000000E+00 -0.11322004503E+04  0.11322004503E+04  0.50400001928E-02 0.  1.
    10030    2    1    2    0    0  0.00000000000E+00  0.00000000000E+00  0.96731669061E+03  0.32317175911E+04  0.30835526603E+04 0.  0.
        3    1    3    3  502    0  0.91340806374E+02 -0.35978572874E+03  0.20519858173E+04  0.20852900801E+04  0.10100000352E+00 0. -1.
       -3    1    3    3    0  502 -0.91340806374E+02  0.35978572874E+03 -0.10846691267E+04  0.11464275111E+04  0.10100000352E+00 0.  1.
</event>
<event>
 5   0  0.3445410E-06  0.3061296E+04  0.7818609E-02  0.8226441E-01
       -2   -1    0    0    0  501  0.00000000000E+00  0.00000000000E+00  0.12383353541E+04  0.12383353541E+04  0.25500000920E-02 0.  1.
        2   -1    0    0  501    0  0.00000000000E+00  0.00000000000E+00 -0.18919613442E+04  0.18919613442E+04  0.25500000920E-02 0. -1.
    10030    2    1    2    0    0  0.00000000000E+00  0.00000000000E+00 -0.65362599007E+03  0.31302966983E+04  0.30612955565E+04 0.  0.
        1    1    3    3  502    0  0.24609709874E+03 -0.82762869018E+03  0.96553724962E+03  0.12952973447E+04  0.50400001928E-02 0.  1.
       -1    1    3    3    0  502 -0.24609709874E+03  0.82762869018E+03 -0.16191632397E+04  0.18349993536E+04  0.50400001928E-02 0. -1.
</event>
<event>
 5   0  0.1250276E-06  0.3086308E+04  0.7818609E-02  0.8219506E-01
        1   -1    0    0  501    0  0.00000000000E+00  0.00000000000E+00  0.24935977869E+04  0.24935977869E+04  0.50400001928E-02 0.  1.
       -1   -1    0    0    0  501  0.00000000000E+00  0.00000000000E+00 -0.95497532633E+03  0.95497532634E+03  0.50400001928E-02 0. -1.
    10030    2    1    2    0    0  0.00000000000E+00  0.00000000000E+00  0.15386224606E+04  0.34485731132E+04  0.30863080600E+04 0.  0.
        5    1    3    3  502    0  0.15326473407E+04 -0.17550532126E+03  0.81247561488E+03  0.17435448671E+04  0.46999998093E+01 0. -1.
       -5    1    3    3    0  502 -0.15326473407E+04  0.17550532126E+03  0.72614684570E+03  0.17050282462E+04  0.46999998093E+01 0.  1.
</event>
<event>
 5   0  0.3374790E-06  0.3141656E+04  0.7818609E-02  0.8204398E-01
        2   -1    0    0  501    0  0.00000000000E+00  0.00000000000E+00  0.16891036853E+04  0.16891036853E+04  0.25500000920E-02 0.  1.
       -2   -1    0    0    0  501  0.00000000000E+00  0.00000000000E+00 -0.14608346218E+04  0.14608346218E+04  0.25500000920E-02 0. -1.
    10030    2    1    2    0    0  0.00000000000E+00  0.00000000000E+00  0.22826906349E+03  0.31499383071E+04  0.31416563423E+04 0.  0.
        2    1    3    3  502    0  0.76642238131E+03  0.24802223292E+03  0.14662379680E+04  0.16729530996E+04  0.25500000920E-02 0.  1.
       -2    1    3    3    0  502 -0.76642238131E+03 -0.24802223292E+03 -0.12379689045E+04  0.14769852075E+04  0.25500000920E-02 0. -1.
</event>
<event>
 5   0  0.1235960E-06  0.3172896E+04  0.7818609E-02  0.8196012E-01
        1   -1    0    0  501    0  0.00000000000E+00  0.00000000000E+00  0.20886428922E+04  0.20886428922E+04  0.50400001928E-02 0. -1.
       -1   -1    0    0    0  501  0.00000000000E+00  0.00000000000E+00 -0.12050015304E+04  0.12050015304E+04  0.50400001928E-02 0.  1.
    10030    2    1    2    0    0  0.00000000000E+00  0.00000000000E+00  0.88364136181E+03  0.32936444227E+04  0.31728963939E+04 0.  0.
        4    1    3    3  502    0 -0.62627212227E+03  0.10218242668E+04  0.15208372521E+04  0.19363081272E+04  0.12699999809E+01 0. -1.
       -4    1    3    3    0  502  0.62627212227E+03 -0.10218242668E+04 -0.63719589030E+03  0.13573362954E+04  0.12699999809E+01 0.  1.
</event>
<event>
 5   0  0.3340899E-06  0.3025876E+04  0.7818609E-02  0.8236380E-01
       -2   -1    0    0    0  501  0.00000000000E+00  0.00000000000E+00  0.11256647767E+04  0.11256647767E+04  0.25500000920E-02 0. -1.
        2   -1    0    0  501    0  0.00000000000E+00  0.00000000000E+00 -0.20334483344E+04  0.20334483344E+04  0.25500000920E-02 0.  1.
    10030    2    1    2    0    0  0.00000000000E+00  0.00000000000E+00 -0.90778355766E+03  0.31591131111E+04  0.30258758502E+04 0.  0.
        3    1    3    3  502    0  0.77088438300E+03  0.93552546920E+03 -0.13990213185E+04  0.18511432401E+04  0.10100000352E+00 0.  1.
       -3    1    3    3    0  502 -0.77088438300E+03 -0.93552546920E+03  0.49123776085E+03  0.13079698710E+04  0.10100000352E+00 0. -1.
</event>
<event>
 5   0  0.1198763E-06  0.3111609E+04  0.7818609E-02  0.8212559E-01
       -1   -1    0    0    0  501  0.00000000000E+00  0.00000000000E+00  0.77166161192E+03  0.77166161193E+03  0.50400001928E-02 0.  1.
        1   -1    0    0  501    0  0.00000000000E+00  0.00000000000E+00 -0.31367732116E+04  0.31367732116E+04  0.50400001928E-02 0. -1.
    10030    2    1    2    0    0  0.00000000000E+00  0.00000000000E+00 -0.23651115997E+04  0.39084348235E+04  0.31116088910E+04 0.  0.
        1    1    3    3  502    0  0.18519096581E+03 -0.12032570624E+03  0.75187253845E+03  0.78363657616E+03  0.50400001928E-02 0.  1.
       -1    1    3    3    0  502 -0.18519096581E+03  0.12032570624E+03 -0.31169841381E+04  0.31247982474E+04  0.50400001928E-02 0. -1.
</event>
<event>
 5   0  0.3340899E-06  0.3124733E+04  0.7818609E-02  0.8208983E-01
        2   -1    0    0  501    0  0.00000000000E+00  0.00000000000E+00  0.16552951131E+04  0.16552951131E+04  0.25500000920E-02 0. -1.
       -2   -1    0    0    0  501  0.00000000000E+00  0.00000000000E+00 -0.14746552769E+04  0.14746552769E+04  0.25500000920E-02 0.  1.
    10030    2    1    2    0    0  0.00000000000E+00  0.00000000000E+00  0.18063983626E+03  0.31299503900E+04  0.31247333795E+04 0.  0.
        3    1    3    3  502    0  0.61332595597E+03  0.60436553311E+03 -0.12155296551E+04  0.14896102774E+04  0.10100000352E+00 0.  1.
       -3    1    3    3    0  502 -0.61332595597E+03 -0.60436553311E+03  0.13961694914E+04  0.16403401125E+04  0.10100000352E+00 0. -1.
</event>
<event>
 5   0  0.1211008E-06  0.3103314E+04  0.7818609E-02  0.8214829E-01
       -1   -1    0    0    0  501  0.00000000000E+00  0.00000000000E+00  0.12569049686E+04  0.12569049686E+04  0.50400001928E-02 0.  1.
        1   -1    0    0  501    0  0.00000000000E+00  0.00000000000E+00 -0.19155300147E+04  0.19155300147E+04  0.50400001928E-02 0. -1.
    10030    2    1    2    0    0  0.00000000000E+00  0.00000000000E+00 -0.65862504604E+03  0.31724349833E+04  0.31033138372E+04 0.  0.
        3    1    3    3  502    0 -0.98075012677E+03 -0.55818728875E+03  0.75939433427E+03  0.13601924958E+04  0.10100000352E+00 0.  1.
       -3    1    3    3    0  502  0.98075012677E+03  0.55818728875E+03 -0.14180193803E+04  0.18122424875E+04  0.10100000352E+00 0. -1.
</event>
<event>
 5   0  0.1250276E-06  0.3108340E+04  0.7818609E-02  0.8213453E-01
        1   -1    0    0  501    0  0.00000000000E+00  0.00000000000E+00  0.25315712039E+04  0.25315712039E+04  0.50400001928E-02 0. -1.
       -1   -1    0    0    0  501  0.00000000000E+00  0.00000000000E+00 -0.95412858579E+03  0.95412858580E+03  0.50400001928E-02 0.  1.
    10030    2    1    2    0    0  0.00000000000E+00  0.00000000000E+00  0.15774426181E+04  0.34856997897E+04  0.31083400410E+04 0.  0.
        5    1    3    3  502    0  0.13132775010E+04  0.22295581845E+01  0.17207136562E+04  0.21646201381E+04  0.46999998093E+01 0. -1.
       -5    1    3    3    0  502 -0.13132775010E+04 -0.22295581845E+01 -0.14327103811E+03  0.13210796516E+04  0.46999998093E+01 0.  1.
</event>
<event>
 5   0  0.1211008E-06  0.3108110E+04  0.7818609E-02  0.8213516E-01
       -1   -1    0    0    0  501  0.00000000000E+00  0.00000000000E+00  0.22285996811E+04  0.22285996811E+04  0.50400001928E-02 0. -1.
        1   -1    0    0  501    0  0.00000000000E+00  0.00000000000E+00 -0.10836793566E+04  0.10836793566E+04  0.50400001928E-02 0.  1.
    10030    2    1    2    0    0  0.00000000000E+00  0.00000000000E+00  0.11449203245E+04  0.33122790377E+04  0.31081103381E+04 0.  0.
        3    1    3    3  502    0 -0.20927059690E+03 -0.12296981334E+04 -0.41532248028E+03  0.13147031813E+04  0.10100000352E+00 0.  1.
       -3    1    3    3    0  502  0.20927059690E+03  0.12296981334E+04  0.15602428048E+04  0.19975758564E+04  0.10100000352E+00 0. -1.
</event>
<event>
 5   0  0.3441897E-06  0.3114225E+04  0.7818609E-02  0.8211845E-01
        2   -1    0    0  501    0  0.00000000000E+00  0.00000000000E+00  0.25714593990E+04  0.25714593990E+04  0.25500000920E-02 0.  1.
       -2   -1    0    0    0  501  0.00000000000E+00  0.00000000000E+00 -0.94288843091E+03  0.94288843091E+03  0.25500000920E-02 0. -1.
    10030    2    1    2    0    0  0.00000000000E+00  0.00000000000E+00  0.16285709681E+04  0.35143478299E+04  0.31142249873E+04 0.  0.
        5    1    3    3  502    0 -0.15487372506E+04  0.62003654471E+02  0.98221981820E+03  0.18349957455E+04  0.46999998093E+01 0.  1.
       -5    1    3    3    0  502  0.15487372506E+04 -0.62003654471E+02  0.64635114992E+03  0.16793520845E+04  0.46999998093E+01 0. -1.
</event>
<event>
 5   0  0.3445410E-06  0.3102916E+04  0.7818609E-02  0.8214938E-01
        2   -1    0    0  501    0  0.00000000000E+00  0.00000000000E+00  0.16326481357E+04  0.16326481357E+04  0.25500000920E-02 0. -1.
       -2   -1    0    0    0  501  0.00000000000E+00  0.00000000000E+00 -0.14743055150E+04  0.14743055150E+04  0.25500000920E-02 0.  1.
    10030    2    1    2    0    0  0.00000000000E+00  0.00000000000E+00  0.15834262064E+03  0.31069536507E+04  0.31029161449E+04 0.  0.
        1    1    3    3  502    0  0.83827341003E+03  0.70594741465E+03  0.11787614652E+04  0.16095162795E+04  0.50400001928E-02 0. -1.
       -1    1    3    3    0  502 -0.83827341003E+03 -0.70594741465E+03 -0.10204188446E+04  0.14974373712E+04  0.50400001928E-02 0.  1.
</event>
<event>
 5   0  0.3445410E-06  0.3119670E+04  0.7818609E-02  0.8210360E-01
        2   -1    0    0  501    0  0.00000000000E+00  0.00000000000E+00  0.19115501215E+04  0.19115501215E+04  0.25500000920E-02 0.  1.
       -2   -1    0    0    0  501  0.00000000000E+00  0.00000000000E+00 -0.12728336462E+04  0.12728336462E+04  0.25500000920E-02 0. -1.
    10030    2    1    2    0    0  0.00000000000E+00  0.00000000000E+00  0.63871647531E+03  0.31843837678E+04  0.31196700538E+04 0.  0.
        1    1    3    3  502    0  0.38269662950E+03  0.10395410262E+04  0.14403110744E+04  0.18170300620E+04  0.50400001928E-02 0.  1.
       -1    1    3    3    0  502 -0.38269662950E+03 -0.10395410262E+04 -0.80159459904E+03  0.13673537058E+04  0.50400001928E-02 0. -1.
</event>
<event>
 5   0  0.1171915E-06  0.3131382E+04  0.7818609E-02  0.8207178E-01
        1   -1    0    0  501    0  0.00000000000E+00  0.00000000000E+00  0.18663598543E+04  0.18663598543E+04  0.50400001928E-02 0.  1.
       -1   -1    0    0    0  501  0.00000000000E+00  0.00000000000E+00 -0.13134596558E+04  0.13134596559E+04  0.50400001928E-02 0. -1.
    10030    2    1    2    0    0  0.00000000000E+00  0.00000000000E+00  0.55290019848E+03  0.31798195102E+04  0.31313820412E+04 0.  0.
        2    1    3    3  502    0  0.11129398539E+04 -0.16265249217E+02  0.13946134722E+04  0.17843336049E+04  0.25500000920E-02 0.  1.
       -2    1    3    3    0  502 -0.11129398539E+04  0.16265249217E+02 -0.84171327372E+03  0.13954859053E+04  0.25500000920E-02 0. -1.
</event>
<event>
 5   0  0.1171915E-06  0.3104000E+04  0.7818609E-02  0.8214641E-01
       -1   -1    0    0    0  501  0.00000000000E+00  0.00000000000E+00  0.14261018107E+04  0.14261018107E+04  0.50400001928E-02 0. -1.
        1   -1    0    0  501    0  0.00000000000E+00  0.00000000000E+00 -0.16890123275E+04  0.16890123275E+04  0.50400001928E-02 0.  1.
    10030    2    1    2    0    0  0.00000000000E+00  0.00000000000E+00 -0.26291051686E+03  0.31151141382E+04  0.31039997026E+04 0.  0.
        2    1    3    3  502    0  0.76785104580E+03 -0.18991827822E+03  0.12086310119E+04  0.14444559889E+04  0.25500000920E-02 0. -1.
       -2    1    3    3    0  502 -0.76785104580E+03  0.18991827822E+03 -0.14715415288E+04  0.16706581493E+04  0.25500000920E-02 0.  1.
</event>
<event>
 5   0  0.3374790E-06  0.3076282E+04  0.7818609E-02  0.8222278E-01
        2   -1    0    0  501    0  0.00000000000E+00  0.00000000000E+00  0.17102766064E+04  0.17102766064E+04  0.25500000920E-02 0. -1.
       -2   -1    0    0    0  501  0.00000000000E+00  0.00000000000E+00 -0.13833300608E+04  0.13833300608E+04  0.25500000920E-02 0.  1.
    10030    2    1    2    0    0  0.00000000000E+00  0.00000000000E+00  0.32694654553E+03  0.30936066672E+04  0.30762815488E+04 0.  0.
        2    1    3    3  502    0  0.50768355858E+03 -0.13392642813E+04 -0.40049312322E+03  0.14872007775E+04  0.25500000920E-02 0.  1.
       -2    1    3    3    0  502 -0.50768355858E+03  0.13392642813E+04  0.72743966875E+03  0.16064058897E+04  0.25500000920E-02 0. -1.
</event>
<event>
 5   0  0.1250276E-06  0.3106493E+04  0.7818609E-02  0.8213958E-01
       -1   -1    0    0    0  501  0.00000000000E+00  0.00000000000E+00  0.19401299813E+04  0.19401299813E+04  0.50400001928E-02 0. -1.
        1   -1    0    0  501    0  0.00000000000E+00  0.00000000000E+00 -0.12435119900E+04  0.12435119900E+04  0.50400001928E-02 0.  1.
    10030    2    1    2    0    0  0.00000000000E+00  0.00000000000E+00  0.69661799129E+03  0.31836419713E+04  0.31064931314E+04 0.  0.
        5    1    3    3  502    0 -0.10270354496E+04  0.10470444547E+04  0.87232823506E+03  0.17064825064E+04  0.46999998093E+01 0.  1.
       -5    1    3    3    0  502  0.10270354496E+04 -0.10470444547E+04 -0.17571024377E+03  0.14771594649E+04  0.46999998093E+01 0. -1.
</event>
<event>
 5   0  0.1235960E-06  0.3104228E+04  0.7818609E-02  0.8214579E-01
        1   -1    0    0  501    0  0.00000000000E+00  0.00000000000E+00  0.25136145754E+04  0.25136145754E+04  0.50400001928E-02 0. -1.
       -1   -1    0    0    0  501  0.00000000000E+00  0.00000000000E+00 -0.95840378907E+03  0.95840378909E+03  0.50400001928E-02 0.  1.
    10030    2    1    2    0    0  0.00000000000E+00  0.00000000000E+00  0.15552107863E+04  0.34720183645E+04  0.31042279126E+04 0.  0.
        4    1    3    3  502    0  0.11051162860E+04 -0.86572035280E+03  0.37121986187E+02  0.14043266677E+04  0.12699999809E+01 0.  1.
       -4    1    3    3    0  502 -0.11051162860E+04  0.86572035280E+03  0.15180888001E+04  0.20676916968E+04  0.12699999809E+01 0. -1.
</event>
<event>
 5   0  0.1211008E-06  0.3077886E+04  0.7818609E-02  0.8221833E-01
        1   -1    0    0  501    0  0.00000000000E+00  0.00000000000E+00  0.20453798907E+04  0.20453798907E+04  0.50400001928E-02 0. -1.
       -1   -1    0    0    0  501  0.00000000000E+00  0.00000000000E+00 -0.11578997838E+04  0.11578997838E+04  0.50400001928E-02 0.  1.
    10030    2    1    2    0    0  0.00000000000E+00  0.00000000000E+00  0.88748010690E+03  0.32032796745E+04  0.30778855945E+04 0.  0.
        3    1    3    3  502    0 -0.75798613933E+03  0.24981034025E+03  0.18131727140E+04  0.19810460607E+04  0.10100000352E+00 0. -1.
       -3    1    3    3    0  502  0.75798613933E+03 -0.24981034025E+03 -0.92569260712E+03  0.12222336138E+04  0.10100000352E+00 0.  1.
</event>
<event>
 5   0  0.1250276E-06  0.3102439E+04  0.7818609E-02  0.8215069E-01
        1   -1    0    0  501    0  0.00000000000E+00  0.00000000000E+00  0.17609028928E+04  0.17609028928E+04  0.50400001928E-02 0.  1.
       -1   -1    0    0    0  501  0.00000000000E+00  0.00000000000E+00 -0.13665050234E+04  0.13665050234E+04  0.50400001928E-02 0. -1.
    10030    2    1    2    0    0  0.00000000000E+00  0.00000000000E+00  0.39439786944E+03  0.31274079162E+04  0.31024394587E+04 0.  0.
        5    1    3    3  502    0  0.13841274014E+04 -0.40138004297E+03  0.77570428997E+03  0.16366593530E+04  0.46999998093E+01 0.  1.
       -5    1    3    3    0  502 -0.13841274014E+04  0.40138004297E+03 -0.38130642053E+03  0.14907485632E+04  0.46999998093E+01 0. -1.
</event>
<event>
 5   0  0.3374790E-06  0.2943762E+04  0.7818609E-02  0.8259975E-01
       -2   -1    0    0    0  501  0.00000000000E+00  0.00000000000E+00  0.86756943949E+03  0.86756943950E+03  0.25500000920E-02 0.  1.
        2   -1    0    0  501    0  0.00000000000E+00  0.00000000000E+00 -0.24971298121E+04  0.24971298121E+04  0.25500000920E-02 0. -1.
    10030    2    1    2    0    0  0.00000000000E+00  0.00000000000E+00 -0.16295603726E+04  0.33646992516E+04  0.29437618867E+04 0.  0.
        2    1    3    3  502    0  0.71053165109E+03 -0.10619002424E+04  0.20423316267E+02  0.12778515031E+04  0.25500000920E-02 0.  1.
       -2    1    3    3    0  502 -0.71053165109E+03  0.10619002424E+04 -0.16499836889E+04  0.20868477485E+04  0.25500000920E-02 0. -1.
</event>
<event>
 5   0  0.3374790E-06  0.3110132E+04  0.7818609E-02  0.8212963E-01
       -2   -1    0    0    0  501  0.00000000000E+00  0.00000000000E+00  0.11240666382E+04  0.11240666382E+04  0.25500000920E-02 0. -1.
        2   -1    0    0  501    0  0.00000000000E+00  0.00000000000E+00 -0.21513228901E+04  0.21513228901E+04  0.25500000920E-02 0.  1.
    10030    2    1    2    0    0  0.00000000000E+00  0.00000000000E+00 -0.10272562519E+04  0.32753895284E+04  0.31101320158E+04 0.  0.
        2    1    3    3  502    0  0.29223939643E+03  0.11694267702E+04  0.52105642299E+03  0.13131879651E+04  0.25500000920E-02 0.  1.
       -2    1    3    3    0  502 -0.29223939643E+03 -0.11694267702E+04 -0.15483126749E+04  0.19622015633E+04  0.25500000920E-02 0. -1.
</event>
<event>
 5   0  0.1235960E-06  0.3092977E+04  0.7818609E-02  0.8217668E-01
       -1   -1    0    0    0  501  0.00000000000E+00  0.00000000000E+00  0.30485450627E+04  0.30485450627E+04  0.50400001928E-02 0. -1.
        1   -1    0    0  501    0  0.00000000000E+00  0.00000000000E+00 -0.78451431845E+03  0.78451431847E+03  0.50400001928E-02 0.  1.
    10030    2    1    2    0    0  0.00000000000E+00  0.00000000000E+00  0.22640307443E+04  0.38330593812E+04  0.30929773696E+04 0.  0.
        4    1    3    3  502    0 -0.54850740390E+03  0.11413594314E+04  0.31871393758E+02  0.12667198279E+04  0.12699999809E+01 0.  1.
       -4    1    3    3    0  502  0.54850740390E+03 -0.11413594314E+04  0.22321593505E+04  0.25663395533E+04  0.12699999809E+01 0. -1.
</event>
<event>
 5   0  0.1198763E-06  0.3123044E+04  0.7818609E-02  0.8209442E-01
        1   -1    0    0  501    0  0.00000000000E+00  0.00000000000E+00  0.20235751004E+04  0.20235751004E+04  0.50400001928E-02 0. -1.
       -1   -1    0    0    0  501  0.00000000000E+00  0.00000000000E+00 -0.12049718478E+04  0.12049718478E+04  0.50400001928E-02 0.  1.
    10030    2    1    2    0    0  0.00000000000E+00  0.00000000000E+00  0.81860325257E+03  0.32285469482E+04  0.31230440457E+04 0.  0.
        1    1    3    3  502    0  0.70518120453E+03 -0.72165507712E+03 -0.82271526543E+03  0.13018936168E+04  0.50400001928E-02 0.  1.
       -1    1    3    3    0  502 -0.70518120453E+03  0.72165507712E+03  0.16413185180E+04  0.19266533313E+04  0.50400001928E-02 0. -1.
</event>
<event>
 5   0  0.1198763E-06  0.3169845E+04  0.7818609E-02  0.8196827E-01
        1   -1    0    0  501    0  0.00000000000E+00  0.00000000000E+00  0.19772660373E+04  0.19772660373E+04  0.50400001928E-02 0.  1.
       -1   -1    0    0    0  501  0.00000000000E+00  0.00000000000E+00 -0.12704310184E+04  0.12704310184E+04  0.50400001928E-02 0. -1.
    10030    2    1    2    0    0  0.00000000000E+00  0.00000000000E+00  0.70683501893E+03  0.32476970557E+04  0.31698454887E+04 0.  0.
        1    1    3    3  502    0 -0.98664187420E+03 -0.12351741809E+04  0.23721839499E+03  0.15985587296E+04  0.50400001928E-02 0.  1.
       -1    1    3    3    0  502  0.98664187420E+03  0.12351741809E+04  0.46961662393E+03  0.16491383261E+04  0.50400001928E-02 0. -1.
</event>
<event>
 5   0  0.1250276E-06  0.3114947E+04  0.7818609E-02  0.8211648E-01
        1   -1    0    0  501    0  0.00000000000E+00  0.00000000000E+00  0.14340617511E+04  0.14340617511E+04  0.50400001928E-02 0.  1.
       -1   -1    0    0    0  501  0.00000000000E+00  0.00000000000E+00 -0.16915053854E+04  0.16915053854E+04  0.50400001928E-02 0. -1.
    10030    2    1    2    0    0  0.00000000000E+00  0.00000000000E+00 -0.25744363427E+03  0.31255671365E+04  0.31149466609E+04 0.  0.
        5    1    3    3  502    0  0.64119868940E+02 -0.14782891681E+04 -0.61643547683E+03  0.16029550864E+04  0.46999998093E+01 0. -1.
       -5    1    3    3    0  502 -0.64119868940E+02  0.14782891681E+04  0.35899184256E+03  0.15226120501E+04  0.46999998093E+01 0.  1.
</event>
<event>
 5   0  0.3445410E-06  0.3090506E+04  0.7818609E-02  0.8218348E-01
        2   -1    0    0  501    0  0.00000000000E+00  0.00000000000E+00  0.13995030473E+04  0.13995030473E+04  0.25500000920E-02 0.  1.
       -2   -1    0    0    0  501  0.00000000000E+00  0.00000000000E+00 -0.17061818819E+04  0.17061818819E+04  0.25500000920E-02 0. -1.
    10030    2    1    2    0    0  0.00000000000E+00  0.00000000000E+00 -0.30667883463E+03  0.31056849291E+04  0.30905059410E+04 0.  0.
        1    1    3    3  502    0  0.31898929687E+03 -0.11546833402E+04 -0.11342272141E+04  0.16497027493E+04  0.50400001928E-02 0. -1.
       -1    1    3    3    0  502 -0.31898929687E+03  0.11546833402E+04  0.82754837945E+03  0.14559821799E+04  0.50400001928E-02 0.  1.
</event>
<event>
 5   0  0.3340899E-06  0.3124000E+04  0.7818609E-02  0.8209182E-01
        2   -1    0    0  501    0  0.00000000000E+00  0.00000000000E+00  0.15288495046E+04  0.15288495046E+04  0.25500000920E-02 0. -1.
       -2   -1    0    0    0  501  0.00000000000E+00  0.00000000000E+00 -0.15958695978E+04  0.15958695978E+04  0.25500000920E-02 0.  1.
    10030    2    1    2    0    0  0.00000000000E+00  0.00000000000E+00 -0.67020093208E+02  0.31247191025E+04  0.31240002843E+04 0.  0.
        3    1    3    3  502    0  0.14648056311E+04 -0.33992700202E+03 -0.45626381370E+03  0.15714269253E+04  0.10100000352E+00 0.  1.
       -3    1    3    3    0  502 -0.14648056311E+04  0.33992700202E+03  0.38924372049E+03  0.15532921772E+04  0.10100000352E+00 0. -1.
</event>
<event>
 5   0  0.3445410E-06  0.3115237E+04  0.7818609E-02  0.8211569E-01
       -2   -1    0    0    0  501  0.00000000000E+00  0.00000000000E+00  0.18155621225E+04  0.18155621225E+04  0.25500000920E-02 0. -1.
        2   -1    0    0  501    0  0.00000000000E+00  0.00000000000E+00 -0.13363216874E+04  0.13363216874E+04  0.25500000920E-02 0.  1.
    10030    2    1    2    0    0  0.00000000000E+00  0.00000000000E+00  0.47924043510E+03  0.31518838098E+04  0.31152367737E+04 0.  0.
        1    1    3    3  502    0  0.12257799305E+03  0.50119490022E+03  0.17265871956E+04  0.18020335836E+04  0.50400001928E-02 0. -1.
       -1    1    3    3    0  502 -0.12257799305E+03 -0.50119490022E+03 -0.12473467605E+04  0.13498502262E+04  0.50400001928E-02 0.  1.
</event>
<event>
 5   0  0.3340899E-06  0.3143556E+04  0.7818609E-02  0.8203885E-01
       -2   -1    0    0    0  501  0.00000000000E+00  0.00000000000E+00  0.75798992546E+03  0.75798992547E+03  0.25500000920E-02 0.  1.
        2   -1    0    0  501    0  0.00000000000E+00  0.00000000000E+00 -0.32592603069E+04  0.32592603069E+04  0.25500000920E-02 0. -1.
    10030    2    1    2    0    0  0.00000000000E+00  0.00000000000E+00 -0.25012703814E+04  0.40172502324E+04  0.31435562518E+04 0.  0.
        3    1    3    3  502    0  0.62541292240E+03 -0.13745022102E+04 -0.18078028922E+04  0.23555358110E+04  0.10100000352E+00 0. -1.
       -3    1    3    3    0  502 -0.62541292240E+03  0.13745022102E+04 -0.69346748921E+03  0.16617144214E+04  0.10100000352E+00 0.  1.
</event>
<event>
 5   0  0.3441897E-06  0.3037572E+04  0.7818609E-02  0.8233083E-01
        2   -1    0    0  501    0  0.00000000000E+00  0.00000000000E+00  0.17265546360E+04  0.17265546360E+04  0.25500000920E-02 0. -1.
       -2   -1    0    0    0  501  0.00000000000E+00  0.00000000000E+00 -0.13360199187E+04  0.13360199187E+04  0.25500000920E-02 0.  1.
    10030    2    1    2    0    0  0.00000000000E+00  0.00000000000E+00  0.39053471725E+03  0.30625745547E+04  0.30375723099E+04 0.  0.
        5    1    3    3  502    0  0.70066750678E+02 -0.13272334336E+04 -0.54578678373E+03  0.14367892122E+04  0.46999998093E+01 0.  1.
       -5    1    3    3    0  502 -0.70066750678E+02  0.13272334336E+04  0.93632150098E+03  0.16257853426E+04  0.46999998093E+01 0. -1.
</event>
<event>
 5   0  0.1171915E-06  0.2933267E+04  0.7818609E-02  0.8263048E-01
       -1   -1    0    0    0  501  0.00000000000E+00  0.00000000000E+00  0.11412462629E+04  0.11412462629E+04  0.50400001928E-02 0. -1.
        1   -1    0    0  501    0  0.00000000000E+00  0.00000000000E+00 -0.18847937332E+04  0.18847937332E+04  0.50400001928E-02 0.  1.
    10030    2    1    2    0    0  0.00000000000E+00  0.00000000000E+00 -0.74354747026E+03  0.30260399961E+04  0.29332669871E+04 0.  0.
        2    1    3    3  502    0  0.12224571389E+04  0.25223137271E+03 -0.11661886155E+04  0.17082207143E+04  0.25500000920E-02 0.  1.
       -2    1    3    3    0  502 -0.12224571389E+04 -0.25223137271E+03  0.42264114522E+03  0.13178192818E+04  0.25500000920E-02 0. -1.
</event>
<event>
 5   0  0.1211008E-06  0.3233582E+04  0.7818609E-02  0.8180004E-01
        1   -1    0    0  501    0  0.00000000000E+00  0.00000000000E+00  0.20507096327E+04  0.20507096327E+04  0.50400001928E-02 0. -1.
       -1   -1    0    0    0  501  0.00000000000E+00  0.00000000000E+00 -0.12746873361E+04  0.12746873362E+04  0.50400001928E-02 0.  1.
    10030    2    1    2    0    0  0.00000000000E+00  0.00000000000E+00  0.77602229653E+03  0.33253969688E+04  0.32335822853E+04 0.  0.
        3    1    3    3  502    0 -0.15302487471E+04 -0.43558593643E+03  0.92417597479E+02  0.15937180925E+04  0.10100000352E+00 0. -1.
       -3    1    3    3    0  502  0.15302487471E+04  0.43558593643E+03  0.68360469905E+03  0.17316788763E+04  0.10100000352E+00 0.  1.
</event>
<event>
 5   0  0.3445410E-06  0.3109409E+04  0.7818609E-02  0.8213160E-01
        2   -1    0    0  501    0  0.00000000000E+00  0.00000000000E+00  0.86272188232E+03  0.86272188232E+03  0.25500000920E-02 0.  1.
       -2   -1    0    0    0  501  0.00000000000E+00  0.00000000000E+00 -0.28017218922E+04  0.28017218922E+04  0.25500000920E-02 0. -1.
    10030    2    1    2    0    0  0.00000000000E+00  0.00000000000E+00 -0.19390000098E+04  0.36644437745E+04  0.31094094517E+04 0.  0.
        1    1    3    3  502    0 -0.14449625807E+04 -0.16782808470E+03 -0.16160922078E+04  0.21743590204E+04  0.50400001928E-02 0. -1.
       -1    1    3    3    0  502  0.14449625807E+04  0.16782808470E+03 -0.32290780206E+03  0.14900847541E+04  0.50400001928E-02 0.  1.
</event>
<event>
 5   0  0.1211008E-06  0.3132937E+04  0.7818609E-02  0.8206756E-01
        1   -1    0    0  501    0  0.00000000000E+00  0.00000000000E+00  0.17909682254E+04  0.17909682254E+04  0.50400001928E-02 0. -1.
       -1   -1    0    0    0  501  0.00000000000E+00  0.00000000000E+00 -0.13701098806E+04  0.13701098806E+04  0.50400001928E-02 0.  1.
    10030    2    1    2    0    0  0.00000000000E+00  0.00000000000E+00  0.42085834475E+03  0.31610781060E+04  0.31329368085E+04 0.  0.
        3    1    3    3  502    0 -0.11794243614E+04  0.65991216249E+03 -0.58870614244E+03  0.14741440971E+04  0.10100000352E+00 0.  1.
       -3    1    3    3    0  502  0.11794243614E+04 -0.65991216249E+03  0.10095644872E+04  0.16869340090E+04  0.10100000352E+00 0. -1.
</event>
<event>
 5   0  0.1171915E-06  0.3003466E+04  0.7818609E-02  0.8242742E-01
       -1   -1    0    0    0  501  0.00000000000E+00  0.00000000000E+00  0.10866247141E+04  0.10866247141E+04  0.50400001928E-02 0. -1.
        1   -1    0    0  501    0  0.00000000000E+00  0.00000000000E+00 -0.20754196847E+04  0.20754196847E+04  0.50400001928E-02 0.  1.
    10030    2    1    2    0    0  0.00000000000E+00  0.00000000000E+00 -0.98879497065E+03  0.31620443988E+04  0.30034662119E+04 0.  0.
        2    1    3    3  502    0 -0.79561056206E+03  0.11226820074E+04 -0.11276461050E+04  0.17790437865E+04  0.25500000920E-02 0. -1.
       -2    1    3    3    0  502  0.79561056206E+03 -0.11226820074E+04  0.13885113437E+03  0.13830006123E+04  0.25500000920E-02 0.  1.
</event>
<event>
 5   0  0.1235960E-06  0.3054403E+04  0.7818609E-02  0.8228364E-01
        1   -1    0    0  501    0  0.00000000000E+00  0.00000000000E+00  0.18046481163E+04  0.18046481163E+04  0.50400001928E-02 0. -1.
       -1   -1    0    0    0  501  0.00000000000E+00  0.00000000000E+00 -0.12924097510E+04  0.12924097510E+04  0.50400001928E-02 0.  1.
    10030    2    1    2    0    0  0.00000000000E+00  0.00000000000E+00  0.51223836528E+03  0.30970578673E+04  0.30544032626E+04 0.  0.
        4    1    3    3  502    0  0.10278443345E+03 -0.23234652127E+03 -0.12708304573E+04  0.12959788616E+04  0.12699999809E+01 0.  1.
       -4    1    3    3    0  502 -0.10278443345E+03  0.23234652127E+03  0.17830688226E+04  0.18010790057E+04  0.12699999809E+01 0. -1.
</event>
<event>
 5   0  0.3445959E-06  0.3091528E+04  0.7818609E-02  0.8218067E-01
        2   -1    0    0  501    0  0.00000000000E+00  0.00000000000E+00  0.16922538865E+04  0.16922538865E+04  0.25500000920E-02 0. -1.
       -2   -1    0    0    0  501  0.00000000000E+00  0.00000000000E+00 -0.14119545495E+04  0.14119545495E+04  0.25500000920E-02 0.  1.
    10030    2    1    2    0    0  0.00000000000E+00  0.00000000000E+00  0.28029933695E+03  0.31042084360E+04  0.30915275020E+04 0.  0.
        4    1    3    3  502    0 -0.10311051044E+04 -0.49034216147E+03 -0.90612771428E+03  0.14576289717E+04  0.12699999809E+01 0.  1.
       -4    1    3    3    0  502  0.10311051044E+04  0.49034216147E+03  0.11864270512E+04  0.16465794643E+04  0.12699999809E+01 0. -1.
</event>
<event>
 5   0  0.1250276E-06  0.3154830E+04  0.7818609E-02  0.8200849E-01
        1   -1    0    0  501    0  0.00000000000E+00  0.00000000000E+00  0.21428087521E+04  0.21428087521E+04  0.50400001928E-02 0.  1.
       -1   -1    0    0    0  501  0.00000000000E+00  0.00000000000E+00 -0.11612037465E+04  0.11612037465E+04  0.50400001928E-02 0. -1.
    10030    2    1    2    0    0  0.00000000000E+00  0.00000000000E+00  0.98160500558E+03  0.33040124986E+04  0.31548296632E+04 0.  0.
        5    1    3    3  502    0 -0.79456403398E+03 -0.50198857896E+03 -0.83594575602E+03  0.12578362113E+04  0.46999998093E+01 0. -1.
       -5    1    3    3    0  502  0.79456403398E+03  0.50198857896E+03  0.18175507616E+04  0.20461762872E+04  0.46999998093E+01 0.  1.
</event>
<event>
 5   0  0.1250276E-06  0.3116339E+04  0.7818609E-02  0.8211268E-01
       -1   -1    0    0    0  501  0.00000000000E+00  0.00000000000E+00  0.73690011063E+03  0.73690011064E+03  0.50400001928E-02 0.  1.
        1   -1    0    0  501    0  0.00000000000E+00  0.00000000000E+00 -0.32947367460E+04  0.32947367460E+04  0.50400001928E-02 0. -1.
    10030    2    1    2    0    0  0.00000000000E+00  0.00000000000E+00 -0.25578366354E+04  0.40316368566E+04  0.31163387959E+04 0.  0.
        5    1    3    3  502    0  0.54422871480E+03  0.26986383407E+03  0.57738944055E+03  0.83810025594E+03  0.46999998093E+01 0.  1.
       -5    1    3    3    0  502 -0.54422871480E+03 -0.26986383407E+03 -0.31352260759E+04  0.31935366007E+04  0.46999998093E+01 0. -1.
</event>
<event>
 5   0  0.1250276E-06  0.3079082E+04  0.7818609E-02  0.8221502E-01
        1   -1    0    0  501    0  0.00000000000E+00  0.00000000000E+00  0.21632374212E+04  0.21632374212E+04  0.50400001928E-02 0. -1.
       -1   -1    0    0    0  501  0.00000000000E+00  0.00000000000E+00 -0.10956661628E+04  0.10956661629E+04  0.50400001928E-02 0.  1.
    10030    2    1    2    0    0  0.00000000000E+00  0.00000000000E+00  0.10675712584E+04  0.32589035841E+04  0.30790817103E+04 0.  0.
        5    1    3    3  502    0  0.93205671829E+03  0.32706150393E+02 -0.76264323870E+03  0.12047598175E+04  0.46999998093E+01 0.  1.
       -5    1    3    3    0  502 -0.93205671829E+03 -0.32706150393E+02  0.18302144971E+04  0.20541437666E+04  0.46999998093E+01 0. -1.
</event>
<event>
 5   0  0.3441897E-06  0.3089094E+04  0.7818609E-02  0.8218737E-01
        2   -1    0    0  501    0  0.00000000000E+00  0.00000000000E+00  0.11824272824E+04  0.11824272824E+04  0.25500000920E-02 0.  1.
       -2   -1    0    0    0  501  0.00000000000E+00  0.00000000000E+00 -0.20175658296E+04  0.20175658296E+04  0.25500000920E-02 0. -1.
    10030    2    1    2    0    0  0.00000000000E+00  0.00000000000E+00 -0.83513854715E+03  0.31999931120E+04  0.30890936412E+04 0.  0.
        5    1    3    3  502    0  0.91214492872E+03 -0.12965395790E+03 -0.17017449021E+04  0.19351424551E+04  0.46999998093E+01 0. -1.
       -5    1    3    3    0  502 -0.91214492872E+03  0.12965395790E+03  0.86660635494E+03  0.12648506569E+04  0.46999998093E+01 0.  1.
</event>
<event>
 5   0  0.3445410E-06  0.2644860E+04  0.7818609E-02  0.8353121E-01
       -2   -1    0    0    0  501  0.00000000000E+00  0.00000000000E+00  0.12005282520E+04  0.12005282520E+04  0.25500000920E-02 0.  1.
        2   -1    0    0  501    0  0.00000000000E+00  0.00000000000E+00 -0.14567091287E+04  0.14567091287E+04  0.25500000920E-02 0. -1.
    10030    2    1    2    0    0  0.00000000000E+00  0.00000000000E+00 -0.25618087666E+03  0.26572373807E+04  0.26448595153E+04 0.  0.
        1    1    3    3  502    0 -0.52137561817E+03  0.29178504965E+03 -0.13133783895E+04  0.14428907944E+04  0.50400001928E-02 0. -1.
       -1    1    3    3    0  502  0.52137561817E+03 -0.29178504965E+03  0.10571975129E+04  0.12143465863E+04  0.50400001928E-02 0.  1.
</event>
<event>
 5   0  0.1171915E-06  0.2978357E+04  0.7818609E-02  0.8249938E-01
        1   -1    0    0  501    0  0.00000000000E+00  0.00000000000E+00  0.20472630957E+04  0.20472630957E+04  0.50400001928E-02 0.  1.
       -1   -1    0    0    0  501  0.00000000000E+00  0.00000000000E+00 -0.10832281727E+04  0.10832281728E+04  0.50400001928E-02 0. -1.
    10030    2    1    2    0    0  0.00000000000E+00  0.00000000000E+00  0.96403492299E+03  0.31304912685E+04  0.29783573072E+04 0.  0.
        2    1    3    3  502    0 -0.14849317533E+04 -0.78261701940E+02  0.56679639148E+03  0.15913533094E+04  0.25500000920E-02 0.  1.
       -2    1    3    3    0  502  0.14849317533E+04  0.78261701940E+02  0.39723853151E+03  0.15391379591E+04  0.25500000920E-02 0. -1.
</event>
<event>
 5   0  0.1109562E-06  0.3122035E+04  0.7818609E-02  0.8209717E-01
        4   -1    0    0  501    0  0.00000000000E+00  0.00000000000E+00  0.15237654685E+04  0.15237659978E+04  0.12699999809E+01 0.  1.
       -4   -1    0    0    0  501  0.00000000000E+00  0.00000000000E+00 -0.15991789046E+04  0.15991794088E+04  0.12699999809E+01 0. -1.
    10030    2    1    2    0    0  0.00000000000E+00  0.00000000000E+00 -0.75413436028E+02  0.31229454066E+04  0.31220347254E+04 0.  0.
        5    1    3    3  502    0 -0.35023678766E+03 -0.12064989675E+04  0.88908799117E+03  0.15390923013E+04  0.46999998093E+01 0.  1.
       -5    1    3    3    0  502  0.35023678766E+03  0.12064989675E+04 -0.96450142720E+03  0.15838531053E+04  0.46999998093E+01 0. -1.
</event>
<event>
 5   0  0.3445410E-06  0.3096709E+04  0.7818609E-02  0.8216642E-01
       -2   -1    0    0    0  501  0.00000000000E+00  0.00000000000E+00  0.15068278935E+04  0.15068278935E+04  0.25500000920E-02 0.  1.
        2   -1    0    0  501    0  0.00000000000E+00  0.00000000000E+00 -0.15910253716E+04  0.15910253716E+04  0.25500000920E-02 0. -1.
    10030    2    1    2    0    0  0.00000000000E+00  0.00000000000E+00 -0.84197478106E+02  0.30978532651E+04  0.30967088395E+04 0.  0.
        1    1    3    3  502    0 -0.93284208536E+03  0.14549139666E+03 -0.12697601996E+04  0.15822936097E+04  0.50400001928E-02 0. -1.
       -1    1    3    3    0  502  0.93284208536E+03 -0.14549139666E+03  0.11855627215E+04  0.15155596555E+04  0.50400001928E-02 0.  1.
</event>
<event>
 5   0  0.3445410E-06  0.3105383E+04  0.7818609E-02  0.8214262E-01
       -2   -1    0    0    0  501  0.00000000000E+00  0.00000000000E+00  0.10817331928E+04  0.10817331928E+04  0.25500000920E-02 0.  1.
        2   -1    0    0  501    0  0.00000000000E+00  0.00000000000E+00 -0.22286926509E+04  0.22286926509E+04  0.25500000920E-02 0. -1.
    10030    2    1    2    0    0  0.00000000000E+00  0.00000000000E+00 -0.11469594581E+04  0.33104258437E+04  0.31053829503E+04 0.  0.
        1    1    3    3  502    0 -0.58397004093E+03  0.49457781051E+03 -0.20136923686E+04  0.21542017489E+04  0.50400001928E-02 0. -1.
       -1    1    3    3    0  502  0.58397004093E+03 -0.49457781051E+03  0.86673291051E+03  0.11562240949E+04  0.50400001928E-02 0.  1.
</event>
<event>
 5   0  0.3340899E-06  0.3112880E+04  0.7818609E-02  0.8212212E-01
       -2   -1    0    0    0  501  0.00000000000E+00  0.00000000000E+00  0.21205143908E+04  0.21205143908E+04  0.25500000920E-02 0. -1.
        2   -1    0    0  501    0  0.00000000000E+00  0.00000000000E+00 -0.11424138809E+04  0.11424138809E+04  0.25500000920E-02 0.  1.
    10030    2    1    2    0    0  0.00000000000E+00  0.00000000000E+00  0.97810050989E+03  0.32629282717E+04  0.31128797437E+04 0.  0.
        3    1    3    3  502    0 -0.83214973035E+03 -0.11670042167E+04  0.11250363014E+04  0.18221083133E+04  0.10100000352E+00 0. -1.
       -3    1    3    3    0  502  0.83214973035E+03  0.11670042167E+04 -0.14693579154E+03  0.14408199584E+04  0.10100000352E+00 0.  1.
</event>
<event>
 5   0  0.1235960E-06  0.3103265E+04  0.7818609E-02  0.8214843E-01
       -1   -1    0    0    0  501  0.00000000000E+00  0.00000000000E+00  0.90059541438E+03  0.90059541439E+03  0.50400001928E-02 0. -1.
        1   -1    0    0  501    0  0.00000000000E+00  0.00000000000E+00 -0.26733011510E+04  0.26733011510E+04  0.50400001928E-02 0.  1.
    10030    2    1    2    0    0  0.00000000000E+00  0.00000000000E+00 -0.17727057366E+04  0.35738965654E+04  0.31032645764E+04 0.  0.
        4    1    3    3  502    0 -0.80416953283E+03  0.48531488683E+03  0.53599813977E+03  0.10814410736E+04  0.12699999809E+01 0. -1.
       -4    1    3    3    0  502  0.80416953283E+03 -0.48531488683E+03 -0.23087038764E+04  0.24924554918E+04  0.12699999809E+01 0.  1.
</event>
<event>
 5   0  0.1235960E-06  0.3114390E+04  0.7818609E-02  0.8211800E-01
       -1   -1    0    0    0  501  0.00000000000E+00  0.00000000000E+00  0.12232371673E+04  0.12232371673E+04  0.50400001928E-02 0.  1.
        1   -1    0    0  501    0  0.00000000000E+00  0.00000000000E+00 -0.19823266512E+04  0.19823266512E+04  0.50400001928E-02 0. -1.
    10030    2    1    2    0    0  0.00000000000E+00  0.00000000000E+00 -0.75908948395E+03  0.32055638185E+04  0.31143895950E+04 0.  0.
        4    1    3    3  502    0  0.68251956545E+03  0.10359595476E+04 -0.13482719626E+04  0.18321801330E+04  0.12699999809E+01 0. -1.
       -4    1    3    3    0  502 -0.68251956545E+03 -0.10359595476E+04  0.58918247868E+03  0.13733836855E+04  0.12699999809E+01 0.  1.
</event>
<event>
 5   0  0.1198763E-06  0.2779702E+04  0.7818609E-02  0.8309598E-01
       -1   -1    0    0    0  501  0.00000000000E+00  0.00000000000E+00  0.86174431744E+03  0.86174431745E+03  0.50400001928E-02 0.  1.
        1   -1    0    0  501    0  0.00000000000E+00  0.00000000000E+00 -0.22416003703E+04  0.22416003703E+04  0.50400001928E-02 0. -1.
    10030    2    1    2    0    0  0.00000000000E+00  0.00000000000E+00 -0.13798560529E+04  0.31033446877E+04  0.27797024165E+04 0.  0.
        1    1    3    3  502    0 -0.23720872506E+03  0.94847319147E+03  0.41292058842E+03  0.10613071123E+04  0.50400001928E-02 0.  1.
       -1    1    3    3    0  502  0.23720872506E+03 -0.94847319147E+03 -0.17927766413E+04  0.20420375755E+04  0.50400001928E-02 0. -1.
</event>
<event>
 5   0  0.3441897E-06  0.3176703E+04  0.7818609E-02  0.8194997E-01
       -2   -1    0    0    0  501  0.00000000000E+00  0.00000000000E+00  0.12442637995E+04  0.12442637995E+04  0.25500000920E-02 0.  1.
        2   -1    0    0  501    0  0.00000000000E+00  0.00000000000E+00 -0.20275933460E+04  0.20275933460E+04  0.25500000920E-02 0. -1.
    10030    2    1    2    0    0  0.00000000000E+00  0.00000000000E+00 -0.78332954642E+03  0.32718571455E+04  0.31767033230E+04 0.  0.
        5    1    3    3  502    0 -0.11824376581E+03  0.14628589851E+04  0.23390036845E+03  0.14861593020E+04  0.46999998093E+01 0.  1.
       -5    1    3    3    0  502  0.11824376581E+03 -0.14628589851E+04 -0.10172299149E+04  0.17856978435E+04  0.46999998093E+01 0. -1.
</event>
<event>
 5   0  0.1211008E-06  0.3154560E+04  0.7818609E-02  0.8200922E-01
       -1   -1    0    0    0  501  0.00000000000E+00  0.00000000000E+00  0.24118719937E+04  0.24118719937E+04  0.50400001928E-02 0.  1.
        1   -1    0    0  501    0  0.00000000000E+00  0.00000000000E+00 -0.10314862043E+04  0.10314862043E+04  0.50400001928E-02 0. -1.
    10030    2    1    2    0    0  0.00000000000E+00  0.00000000000E+00  0.13803857894E+04  0.34433581980E+04  0.31545603105E+04 0.  0.
        3    1    3    3  502    0 -0.31200637199E+03 -0.15437761388E+04  0.59744372855E+03  0.16844974805E+04  0.10100000352E+00 0. -1.
       -3    1    3    3    0  502  0.31200637199E+03  0.15437761388E+04  0.78294206082E+03  0.17588607175E+04  0.10100000352E+00 0.  1.
</event>
<event>
 5   0  0.3441897E-06  0.3087084E+04  0.7818609E-02  0.8219292E-01
       -2   -1    0    0    0  501  0.00000000000E+00  0.00000000000E+00  0.86764995566E+03  0.86764995567E+03  0.25500000920E-02 0.  1.
        2   -1    0    0  501    0  0.00000000000E+00  0.00000000000E+00 -0.27459478986E+04  0.27459478986E+04  0.25500000920E-02 0. -1.
    10030    2    1    2    0    0  0.00000000000E+00  0.00000000000E+00 -0.18782979429E+04  0.36135978542E+04  0.30870837841E+04 0.  0.
        5    1    3    3  502    0 -0.13400832367E+04  0.47615234347E+02 -0.44299632184E+02  0.13416686772E+04  0.46999998093E+01 0. -1.
       -5    1    3    3    0  502  0.13400832367E+04 -0.47615234347E+02 -0.18339983107E+04  0.22719291771E+04  0.46999998093E+01 0.  1.
</event>
<event>
 5   0  0.3445410E-06  0.3109274E+04  0.7818609E-02  0.8213197E-01
        2   -1    0    0  501    0  0.00000000000E+00  0.00000000000E+00  0.19192174110E+04  0.19192174110E+04  0.25500000920E-02 0. -1.
       -2   -1    0    0    0  501  0.00000000000E+00  0.00000000000E+00 -0.12593136183E+04  0.12593136183E+04  0.25500000920E-02 0.  1.
    10030    2    1    2    0    0  0.00000000000E+00  0.00000000000E+00  0.65990379268E+03  0.31785310293E+04  0.31092742704E+04 0.  0.
        1    1    3    3  502    0  0.10311123744E+04  0.50805165240E+03 -0.74006574816E+03  0.13671161332E+04  0.50400001928E-02 0.  1.
       -1    1    3    3    0  502 -0.10311123744E+04 -0.50805165240E+03  0.13999695408E+04  0.18114148960E+04  0.50400001928E-02 0. -1.
</event>
<event>
 5   0  0.3445959E-06  0.3114758E+04  0.7818609E-02  0.8211699E-01
        2   -1    0    0  501    0  0.00000000000E+00  0.00000000000E+00  0.13726999818E+04  0.13726999818E+04  0.25500000920E-02 0. -1.
       -2   -1    0    0    0  501  0.00000000000E+00  0.00000000000E+00 -0.17669045770E+04  0.17669045770E+04  0.25500000920E-02 0.  1.
    10030    2    1    2    0    0  0.00000000000E+00  0.00000000000E+00 -0.39420459521E+03  0.31396045587E+04  0.31147583409E+04 0.  0.
        4    1    3    3  502    0  0.11829509703E+04 -0.10315240280E+03 -0.12128184271E+04  0.16973342530E+04  0.12699999809E+01 0.  1.
       -4    1    3    3    0  502 -0.11829509703E+04  0.10315240280E+03  0.81861383191E+03  0.14422703058E+04  0.12699999809E+01 0. -1.
</event>
<event>
 5   0  0.3441897E-06  0.2988639E+04  0.7818609E-02  0.8246983E-01
        2   -1    0    0  501    0  0.00000000000E+00  0.00000000000E+00  0.12395979029E+04  0.12395979029E+04  0.25500000920E-02 0. -1.
       -2   -1    0    0    0  501  0.00000000000E+00  0.00000000000E+00 -0.18013827771E+04  0.18013827771E+04  0.25500000920E-02 0.  1.
    10030    2    1    2    0    0  0.00000000000E+00  0.00000000000E+00 -0.56178487416E+03  0.30409806800E+04  0.29886386954E+04 0.  0.
        5    1    3    3  502    0 -0.48300179187E+02 -0.14840183038E+04 -0.10964458859E+03  0.14888543445E+04  0.46999998093E+01 0.  1.
       -5    1    3    3    0  502  0.48300179187E+02  0.14840183038E+04 -0.45214028557E+03  0.15521263355E+04  0.46999998093E+01 0. -1.
</event>
<event>
 5   0  0.1235960E-06  0.3132077E+04  0.7818609E-02  0.8206989E-01
       -1   -1    0    0    0  501  0.00000000000E+00  0.00000000000E+00  0.15963912539E+04  0.15963912539E+04  0.50400001928E-02 0. -1.
        1   -1    0    0  501    0  0.00000000000E+00  0.00000000000E+00 -0.15362628420E+04  0.15362628420E+04  0.50400001928E-02 0.  1.
    10030    2    1    2    0    0  0.00000000000E+00  0.00000000000E+00  0.60128411907E+02  0.31326540960E+04  0.31320769881E+04 0.  0.
        4    1    3    3  502    0 -0.87050937144E+03 -0.55144628682E+03  0.12095165707E+04  0.15889655505E+04  0.12699999809E+01 0. -1.
       -4    1    3    3    0  502  0.87050937144E+03  0.55144628682E+03 -0.11493881588E+04  0.15436885455E+04  0.12699999809E+01 0.  1.
</event>
<event>
 5   0  0.3445410E-06  0.2951955E+04  0.7818609E-02  0.8257585E-01
       -2   -1    0    0    0  501  0.00000000000E+00  0.00000000000E+00  0.13761532679E+04  0.13761532679E+04  0.25500000920E-02 0. -1.
        2   -1    0    0  501    0  0.00000000000E+00  0.00000000000E+00 -0.15830424612E+04  0.15830424612E+04  0.25500000920E-02 0.  1.
    10030    2    1    2    0    0  0.00000000000E+00  0.00000000000E+00 -0.20688919324E+03  0.29591957291E+04  0.29519546448E+04 0.  0.
        1    1    3    3  502    0  0.61855750013E+03  0.99832240374E+03  0.79275512488E+03  0.14169409624E+04  0.50400001928E-02 0. -1.
       -1    1    3    3    0  502 -0.61855750013E+03 -0.99832240374E+03 -0.99964431812E+03  0.15422547667E+04  0.50400001928E-02 0.  1.
</event>
<event>
 5   0  0.1235960E-06  0.3122141E+04  0.7818609E-02  0.8209688E-01
       -1   -1    0    0    0  501  0.00000000000E+00  0.00000000000E+00  0.15668464955E+04  0.15668464955E+04  0.50400001928E-02 0.  1.
        1   -1    0    0  501    0  0.00000000000E+00  0.00000000000E+00 -0.15553159834E+04  0.15553159834E+04  0.50400001928E-02 0. -1.
    10030    2    1    2    0    0  0.00000000000E+00  0.00000000000E+00  0.11530512038E+02  0.31221624789E+04  0.31221411871E+04 0.  0.
        4    1    3    3  502    0 -0.14888763282E+04 -0.25667246513E+03  0.39858635375E+03  0.15625319738E+04  0.12699999809E+01 0. -1.
       -4    1    3    3    0  502  0.14888763282E+04  0.25667246513E+03 -0.38705584171E+03  0.15596305051E+04  0.12699999809E+01 0.  1.
</event>
<event>
 5   0  0.1171915E-06  0.3241039E+04  0.7818609E-02  0.8178062E-01
       -1   -1    0    0    0  501  0.00000000000E+00  0.00000000000E+00  0.18611734828E+04  0.18611734828E+04  0.50400001928E-02 0.  1.
        1   -1    0    0  501    0  0.00000000000E+00  0.00000000000E+00 -0.14109824226E+04  0.14109824226E+04  0.50400001928E-02 0. -1.
    10030    2    1    2    0    0  0.00000000000E+00  0.00000000000E+00  0.45019106020E+03  0.32721559054E+04  0.32410387653E+04 0.  0.
        2    1    3    3  502    0  0.16183403731E+04 -0.74023760536E+02  0.18499022770E+03  0.16305601690E+04  0.25500000920E-02 0. -1.
       -2    1    3    3    0  502 -0.16183403731E+04  0.74023760536E+02  0.26520083250E+03  0.16415957364E+04  0.25500000920E-02 0.  1.
</event>
<event>
 5   0  0.1171915E-06  0.3134297E+04  0.7818609E-02  0.8206388E-01
       -1   -1    0    0    0  501  0.00000000000E+00  0.00000000000E+00  0.12119450726E+04  0.12119450726E+04  0.50400001928E-02 0. -1.
        1   -1    0    0  501    0  0.00000000000E+00  0.00000000000E+00 -0.20264574062E+04  0.20264574062E+04  0.50400001928E-02 0.  1.
    10030    2    1    2    0    0  0.00000000000E+00  0.00000000000E+00 -0.81451233361E+03  0.32384024788E+04  0.31342974130E+04 0.  0.
        2    1    3    3  502    0 -0.94939840225E+03  0.12015350387E+04 -0.75135127851E+03  0.17057469095E+04  0.25500000920E-02 0. -1.
       -2    1    3    3    0  502  0.94939840225E+03 -0.12015350387E+04 -0.63161055108E+02  0.15326555694E+04  0.25500000920E-02 0.  1.
</event>
<event>
 5   0  0.1198763E-06  0.3109229E+04  0.7818609E-02  0.8213210E-01
        1   -1    0    0  501    0  0.00000000000E+00  0.00000000000E+00  0.18873629915E+04  0.18873629915E+04  0.50400001928E-02 0. -1.
       -1   -1    0    0    0  501  0.00000000000E+00  0.00000000000E+00 -0.12805304919E+04  0.12805304919E+04  0.50400001928E-02 0.  1.
    10030    2    1    2    0    0  0.00000000000E+00  0.00000000000E+00  0.60683249956E+03  0.31678934834E+04  0.31092287532E+04 0.  0.
        1    1    3    3  502    0 -0.14825721155E+04  0.32062600907E+03  0.65043726113E+03  0.16504210815E+04  0.50400001928E-02 0. -1.
       -1    1    3    3    0  502  0.14825721155E+04 -0.32062600907E+03 -0.43604761572E+02  0.15174724020E+04  0.50400001928E-02 0.  1.
</event>
<event>
 5   0  0.1235960E-06  0.3072119E+04  0.7818609E-02  0.8223431E-01
       -1   -1    0    0    0  501  0.00000000000E+00  0.00000000000E+00  0.32201153874E+04  0.32201153874E+04  0.50400001928E-02 0.  1.
        1   -1    0    0  501    0  0.00000000000E+00  0.00000000000E+00 -0.73273124713E+03  0.73273124715E+03  0.50400001928E-02 0. -1.
    10030    2    1    2    0    0  0.00000000000E+00  0.00000000000E+00  0.24873841402E+04  0.39528466345E+04  0.30721192449E+04 0.  0.
        4    1    3    3  502    0 -0.43237649927E+03 -0.12428989059E+04  0.22631245924E+04  0.26179155183E+04  0.12699999809E+01 0.  1.
       -4    1    3    3    0  502  0.43237649927E+03  0.12428989059E+04  0.22425954781E+03  0.13349311162E+04  0.12699999809E+01 0. -1.
</event>
<event>
 5   0  0.3445959E-06  0.2933857E+04  0.7818609E-02  0.8262875E-01
        2   -1    0    0  501    0  0.00000000000E+00  0.00000000000E+00  0.12670960449E+04  0.12670960449E+04  0.25500000920E-02 0.  1.
       -2   -1    0    0    0  501  0.00000000000E+00  0.00000000000E+00 -0.16982768558E+04  0.16982768558E+04  0.25500000920E-02 0. -1.
    10030    2    1    2    0    0  0.00000000000E+00  0.00000000000E+00 -0.43118081089E+03  0.29653729007E+04  0.29338574520E+04 0.  0.
        4    1    3    3  502    0  0.12106759413E+04  0.75055670529E+03  0.13861182026E+03  0.14311835844E+04  0.12699999809E+01 0.  1.
       -4    1    3    3    0  502 -0.12106759413E+04 -0.75055670529E+03 -0.56979263115E+03  0.15341893163E+04  0.12699999809E+01 0. -1.
</event>
<event>
 5   0  0.3445959E-06  0.3127764E+04  0.7818609E-02  0.8208160E-01
        2   -1    0    0  501    0  0.00000000000E+00  0.00000000000E+00  0.24001778495E+04  0.24001778495E+04  0.25500000920E-02 0. -1.
       -2   -1    0    0    0  501  0.00000000000E+00  0.00000000000E+00 -0.10189770746E+04  0.10189770746E+04  0.25500000920E-02 0.  1.
    10030    2    1    2    0    0  0.00000000000E+00  0.00000000000E+00  0.13812007748E+04  0.34191549241E+04  0.31277635484E+04 0.  0.
        4    1    3    3  502    0  0.14676878039E+04 -0.53192910857E+03  0.79237921788E+03  0.17506920072E+04  0.12699999809E+01 0.  1.
       -4    1    3    3    0  502 -0.14676878039E+04  0.53192910857E+03  0.58882155697E+03  0.16684629169E+04  0.12699999809E+01 0. -1.
</event>
<event>
 5   0  0.1250276E-06  0.3109838E+04  0.7818609E-02  0.8213043E-01
        1   -1    0    0  501    0  0.00000000000E+00  0.00000000000E+00  0.20370743740E+04  0.20370743740E+04  0.50400001928E-02 0.  1.
       -1   -1    0    0    0  501  0.00000000000E+00  0.00000000000E+00 -0.11868852191E+04  0.11868852191E+04  0.50400001928E-02 0. -1.
    10030    2    1    2    0    0  0.00000000000E+00  0.00000000000E+00  0.85018915496E+03  0.32239595931E+04  0.31098382368E+04 0.  0.
        5    1    3    3  502    0 -0.90797727121E+03  0.34924984495E+03  0.16826011375E+04  0.19435963720E+04  0.46999998093E+01 0.  1.
       -5    1    3    3    0  502  0.90797727121E+03 -0.34924984495E+03 -0.83241198258E+03  0.12803632211E+04  0.46999998093E+01 0. -1.
</event>
<event>
 5   0  0.3374790E-06  0.3086363E+04  0.7818609E-02  0.8219490E-01
       -2   -1    0    0    0  501  0.00000000000E+00  0.00000000000E+00  0.14330227273E+04  0.14330227273E+04  0.25500000920E-02 0. -1.
        2   -1    0    0  501    0  0.00000000000E+00  0.00000000000E+00 -0.16618081906E+04  0.16618081906E+04  0.25500000920E-02 0.  1.
    10030    2    1    2    0    0  0.00000000000E+00  0.00000000000E+00 -0.22878546326E+03  0.30948309180E+04  0.30863628469E+04 0.  0.
        2    1    3    3  502    0  0.10598900536E+04  0.43510534768E+03  0.92223540662E+03  0.14707826945E+04  0.25500000920E-02 0. -1.
       -2    1    3    3    0  502 -0.10598900536E+04 -0.43510534768E+03 -0.11510208699E+04  0.16240482235E+04  0.25500000920E-02 0.  1.
</event>
<event>
 5   0  0.1250276E-06  0.3166458E+04  0.7818609E-02  0.8197732E-01
        1   -1    0    0  501    0  0.00000000000E+00  0.00000000000E+00  0.25726016202E+04  0.25726016202E+04  0.50400001928E-02 0. -1.
       -1   -1    0    0    0  501  0.00000000000E+00  0.00000000000E+00 -0.97435003560E+03  0.97435003562E+03  0.50400001928E-02 0.  1.
    10030    2    1    2    0    0  0.00000000000E+00  0.00000000000E+00  0.15982515846E+04  0.35469516558E+04  0.31664582614E+04 0.  0.
        5    1    3    3  502    0  0.12725683173E+04 -0.93382438720E+03  0.93692997903E+03  0.18355702067E+04  0.46999998093E+01 0. -1.
       -5    1    3    3    0  502 -0.12725683173E+04  0.93382438720E+03  0.66132160554E+03  0.17113814491E+04  0.46999998093E+01 0.  1.
</event>
<event>
 5   0  0.3445410E-06  0.3092830E+04  0.7818609E-02  0.8217708E-01
        2   -1    0    0  501    0  0.00000000000E+00  0.00000000000E+00  0.97010159184E+03  0.97010159184E+03  0.25500000920E-02 0. -1.
       -2   -1    0    0    0  501  0.00000000000E+00  0.00000000000E+00 -0.24651027301E+04  0.24651027301E+04  0.25500000920E-02 0.  1.
    10030    2    1    2    0    0  0.00000000000E+00  0.00000000000E+00 -0.14950011382E+04  0.34352043219E+04  0.30928304722E+04 0.  0.
        1    1    3    3  502    0 -0.57207695437E+03  0.13504664336E+04 -0.12920473457E+04  0.19545889526E+04  0.50400001928E-02 0.  1.
       -1    1    3    3    0  502  0.57207695437E+03 -0.13504664336E+04 -0.20295379255E+03  0.14806153693E+04  0.50400001928E-02 0. -1.
</event>
<event>
 5   0  0.3445959E-06  0.3096945E+04  0.7818609E-02  0.8216577E-01
       -2   -1    0    0    0  501  0.00000000000E+00  0.00000000000E+00  0.11080173461E+04  0.11080173461E+04  0.25500000920E-02 0.  1.
        2   -1    0    0  501    0  0.00000000000E+00  0.00000000000E+00 -0.21640163280E+04  0.21640163280E+04  0.25500000920E-02 0. -1.
    10030    2    1    2    0    0  0.00000000000E+00  0.00000000000E+00 -0.10559989819E+04  0.32720336742E+04  0.30969453523E+04 0.  0.
        4    1    3    3  502    0 -0.10872281002E+04  0.34691833919E+03  0.57775937204E+03  0.12791500228E+04  0.12699999809E+01 0.  1.
       -4    1    3    3    0  502  0.10872281002E+04 -0.34691833919E+03 -0.16337583539E+04  0.19928836514E+04  0.12699999809E+01 0. -1.
</event>
<event>
 5   0  0.1250276E-06  0.3080205E+04  0.7818609E-02  0.8221191E-01
       -1   -1    0    0    0  501  0.00000000000E+00  0.00000000000E+00  0.10211325522E+04  0.10211325522E+04  0.50400001928E-02 0.  1.
        1   -1    0    0  501    0  0.00000000000E+00  0.00000000000E+00 -0.23228291040E+04  0.23228291040E+04  0.50400001928E-02 0. -1.
    10030    2    1    2    0    0  0.00000000000E+00  0.00000000000E+00 -0.13016965517E+04  0.33439616562E+04  0.30802054550E+04 0.  0.
        5    1    3    3  502    0 -0.96523385450E+03 -0.55892122058E+03 -0.18037770049E+04  0.21207788423E+04  0.46999998093E+01 0. -1.
       -5    1    3    3    0  502  0.96523385450E+03  0.55892122058E+03  0.50208045315E+03  0.12231828139E+04  0.46999998093E+01 0.  1.
</event>
<event>
 5   0  0.3445959E-06  0.3136813E+04  0.7818609E-02  0.8205707E-01
        2   -1    0    0  501    0  0.00000000000E+00  0.00000000000E+00  0.21697767439E+04  0.21697767439E+04  0.25500000920E-02 0.  1.
       -2   -1    0    0    0  501  0.00000000000E+00  0.00000000000E+00 -0.11337108628E+04  0.11337108628E+04  0.25500000920E-02 0. -1.
    10030    2    1    2    0    0  0.00000000000E+00  0.00000000000E+00  0.10360658811E+04  0.33034876067E+04  0.31368133285E+04 0.  0.
        4    1    3    3  502    0 -0.48946830221E+02 -0.12648940553E+04 -0.45720926754E+03  0.13458806375E+04  0.12699999809E+01 0. -1.
       -4    1    3    3    0  502  0.48946830221E+02  0.12648940553E+04  0.14932751486E+04  0.19576069691E+04  0.12699999809E+01 0.  1.
</event>
<event>
 5   0  0.3441897E-06  0.3060557E+04  0.7818609E-02  0.8226647E-01
       -2   -1    0    0    0  501  0.00000000000E+00  0.00000000000E+00  0.13290286100E+04  0.13290286100E+04  0.25500000920E-02 0.  1.
        2   -1    0    0  501    0  0.00000000000E+00  0.00000000000E+00 -0.17620030121E+04  0.17620030121E+04  0.25500000920E-02 0. -1.
    10030    2    1    2    0    0  0.00000000000E+00  0.00000000000E+00 -0.43297440204E+03  0.30910316221E+04  0.30605570827E+04 0.  0.
        5    1    3    3  502    0 -0.52627226326E+03 -0.51598071446E+03 -0.15709342032E+04  0.17352391632E+04  0.46999998093E+01 0. -1.
       -5    1    3    3    0  502  0.52627226326E+03  0.51598071446E+03  0.11379598011E+04  0.13557924590E+04  0.46999998093E+01 0.  1.
</event>
<event>
 5   0  0.3445410E-06  0.3175086E+04  0.7818609E-02  0.8195428E-01
       -2   -1    0    0    0  501  0.00000000000E+00  0.00000000000E+00  0.18892973404E+04  0.18892973404E+04  0.25500000920E-02 0. -1.
        2   -1    0    0  501    0  0.00000000000E+00  0.00000000000E+00 -0.13339840261E+04  0.13339840262E+04  0.25500000920E-02 0.  1.
    10030    2    1    2    0    0  0.00000000000E+00  0.00000000000E+00  0.55531331429E+03  0.32232813666E+04  0.31750858085E+04 0.  0.
        1    1    3    3  502    0 -0.29785052711E+03 -0.45709307022E+03  0.17911400221E+04  0.18723866027E+04  0.50400001928E-02 0. -1.
       -1    1    3    3    0  502  0.29785052711E+03  0.45709307022E+03 -0.12358267078E+04  0.13508947639E+04  0.50400001928E-02 0.  1.
</event>
<event>
 5   0  0.1235960E-06  0.3117511E+04  0.7818609E-02  0.8210949E-01
       -1   -1    0    0    0  501  0.00000000000E+00  0.00000000000E+00  0.15033666685E+04  0.15033666685E+04  0.50400001928E-02 0. -1.
        1   -1    0    0  501    0  0.00000000000E+00  0.00000000000E+00 -0.16161851443E+04  0.16161851443E+04  0.50400001928E-02 0.  1.
    10030    2    1    2    0    0  0.00000000000E+00  0.00000000000E+00 -0.11281847579E+03  0.31195518128E+04  0.31175111074E+04 0.  0.
        4    1    3    3  502    0 -0.41792633062E+03  0.14722978410E+04  0.23940889119E+03  0.15490776547E+04  0.12699999809E+01 0. -1.
       -4    1    3    3    0  502  0.41792633062E+03 -0.14722978410E+04 -0.35222736698E+03  0.15704741581E+04  0.12699999809E+01 0.  1.
</event>
<event>
 5   0  0.3445410E-06  0.3054435E+04  0.7818609E-02  0.8228355E-01
       -2   -1    0    0    0  501  0.00000000000E+00  0.00000000000E+00  0.15835869697E+04  0.15835869697E+04  0.25500000920E-02 0. -1.
        2   -1    0    0  501    0  0.00000000000E+00  0.00000000000E+00 -0.14728544455E+04  0.14728544455E+04  0.25500000920E-02 0.  1.
    10030    2    1    2    0    0  0.00000000000E+00  0.00000000000E+00  0.11073252429E+03  0.30564414152E+04  0.30544348794E+04 0.  0.
        1    1    3    3  502    0  0.12670039337E+04 -0.85250523826E+03  0.37217124573E+02  0.15275631783E+04  0.50400001928E-02 0.  1.
       -1    1    3    3    0  502 -0.12670039337E+04  0.85250523826E+03  0.73515399714E+02  0.15288782369E+04  0.50400001928E-02 0. -1.
</event>
<event>
 5   0  0.1171915E-06  0.3117313E+04  0.7818609E-02  0.8211002E-01
        1   -1    0    0  501    0  0.00000000000E+00  0.00000000000E+00  0.15138908477E+04  0.15138908477E+04  0.50400001928E-02 0.  1.
       -1   -1    0    0    0  501  0.00000000000E+00  0.00000000000E+00 -0.16047462096E+04  0.16047462096E+04  0.50400001928E-02 0. -1.
    10030    2    1    2    0    0  0.00000000000E+00  0.00000000000E+00 -0.90855361944E+02  0.31186370573E+04  0.31173133302E+04 0.  0.
        2    1    3    3  502    0  0.24866085779E+03  0.77123182197E+03  0.12865954984E+04  0.15205126510E+04  0.25500000920E-02 0.  1.
       -2    1    3    3    0  502 -0.24866085779E+03 -0.77123182197E+03 -0.13774508603E+04  0.15981244063E+04  0.25500000920E-02 0. -1.
</event>
<event>
 5   0  0.3340899E-06  0.3150422E+04  0.7818609E-02  0.8202035E-01
       -2   -1    0    0    0  501  0.00000000000E+00  0.00000000000E+00  0.15430412600E+04  0.15430412600E+04  0.25500000920E-02 0. -1.
        2   -1    0    0  501    0  0.00000000000E+00  0.00000000000E+00 -0.16080509707E+04  0.16080509707E+04  0.25500000920E-02 0.  1.
    10030    2    1    2    0    0  0.00000000000E+00  0.00000000000E+00 -0.65009710737E+02  0.31510922307E+04  0.31504215565E+04 0.  0.
        3    1    3    3  502    0 -0.12288310652E+04 -0.27991660033E+03 -0.97764511404E+03  0.15950451621E+04  0.10100000352E+00 0.  1.
       -3    1    3    3    0  502  0.12288310652E+04  0.27991660033E+03  0.91263540330E+03  0.15560470686E+04  0.10100000352E+00 0. -1.
</event>
<event>
 5   0  0.1235960E-06  0.2801601E+04  0.7818609E-02  0.8302772E-01
       -1   -1    0    0    0  501  0.00000000000E+00  0.00000000000E+00  0.81643262901E+03  0.81643262902E+03  0.50400001928E-02 0.  1.
        1   -1    0    0  501    0  0.00000000000E+00  0.00000000000E+00 -0.24034335275E+04  0.24034335275E+04  0.50400001928E-02 0. -1.
    10030    2    1    2    0    0  0.00000000000E+00  0.00000000000E+00 -0.15870008985E+04  0.32198661565E+04  0.28016006522E+04 0.  0.
        4    1    3    3  502    0 -0.98143298224E+02  0.12797751276E+04 -0.14868187455E+03  0.12921162475E+04  0.12699999809E+01 0.  1.
       -4    1    3    3    0  502  0.98143298224E+02 -0.12797751276E+04 -0.14383190240E+04  0.19277499091E+04  0.12699999809E+01 0. -1.
</event>
<event>
 5   0  0.1198763E-06  0.3117291E+04  0.7818609E-02  0.8211009E-01
        1   -1    0    0  501    0  0.00000000000E+00  0.00000000000E+00  0.15442775067E+04  0.15442775067E+04  0.50400001928E-02 0.  1.
       -1   -1    0    0    0  501  0.00000000000E+00  0.00000000000E+00 -0.15731469952E+04  0.15731469953E+04  0.50400001928E-02 0. -1.
    10030    2    1    2    0    0  0.00000000000E+00  0.00000000000E+00 -0.28869488545E+02  0.31174245020E+04  0.31172908235E+04 0.  0.
        1    1    3    3  502    0  0.22798039844E+03  0.15316841120E+04  0.16261588942E+03  0.15570726407E+04  0.50400001928E-02 0. -1.
       -1    1    3    3    0  502 -0.22798039844E+03 -0.15316841120E+04 -0.19148537796E+03  0.15603518613E+04  0.50400001928E-02 0.  1.
</event>
<event>
 5   0  0.3445410E-06  0.3069888E+04  0.7818609E-02  0.8224051E-01
       -2   -1    0    0    0  501  0.00000000000E+00  0.00000000000E+00  0.15855293334E+04  0.15855293334E+04  0.25500000920E-02 0.  1.
        2   -1    0    0  501    0  0.00000000000E+00  0.00000000000E+00 -0.14859722930E+04  0.14859722930E+04  0.25500000920E-02 0. -1.
    10030    2    1    2    0    0  0.00000000000E+00  0.00000000000E+00  0.99557040396E+02  0.30715016265E+04  0.30698877239E+04 0.  0.
        1    1    3    3  502    0 -0.56364530909E+03  0.13831711568E+04  0.40379242468E+03  0.15472255187E+04  0.50400001928E-02 0.  1.
       -1    1    3    3    0  502  0.56364530909E+03 -0.13831711568E+04 -0.30423538428E+03  0.15242761077E+04  0.50400001928E-02 0. -1.
</event>
<event>
 5   0  0.3445959E-06  0.3090627E+04  0.7818609E-02  0.8218315E-01
        2   -1    0    0  501    0  0.00000000000E+00  0.00000000000E+00  0.26953357834E+04  0.26953357834E+04  0.25500000920E-02 0. -1.
       -2   -1    0    0    0  501  0.00000000000E+00  0.00000000000E+00 -0.88597283226E+03  0.88597283227E+03  0.25500000920E-02 0.  1.
    10030    2    1    2    0    0  0.00000000000E+00  0.00000000000E+00  0.18093629511E+04  0.35813086156E+04  0.30906273007E+04 0.  0.
        4    1    3    3  502    0  0.36110169764E+03  0.12107886888E+04  0.19356489894E+04  0.23115238065E+04  0.12699999809E+01 0. -1.
       -4    1    3    3    0  502 -0.36110169764E+03 -0.12107886888E+04 -0.12628603834E+03  0.12697848091E+04  0.12699999809E+01 0.  1.
</event>
<event>
 5   0  0.1250276E-06  0.3058838E+04  0.7818609E-02  0.8227126E-01
       -1   -1    0    0    0  501  0.00000000000E+00  0.00000000000E+00  0.14049438282E+04  0.14049438282E+04  0.50400001928E-02 0.  1.
        1   -1    0    0  501    0  0.00000000000E+00  0.00000000000E+00 -0.16649222775E+04  0.16649222775E+04  0.50400001928E-02 0. -1.
    10030    2    1    2    0    0  0.00000000000E+00  0.00000000000E+00 -0.25997844933E+03  0.30698661057E+04  0.30588378696E+04 0.  0.
        5    1    3    3  502    0 -0.44802259818E+03 -0.77034310608E+03  0.11174512464E+04  0.14292907779E+04  0.46999998093E+01 0.  1.
       -5    1    3    3    0  502  0.44802259818E+03  0.77034310608E+03 -0.13774296957E+04  0.16405753278E+04  0.46999998093E+01 0. -1.
</event>
<event>
 5   0  0.3445410E-06  0.3079111E+04  0.7818609E-02  0.8221494E-01
        2   -1    0    0  501    0  0.00000000000E+00  0.00000000000E+00  0.23081902264E+04  0.23081902264E+04  0.25500000920E-02 0. -1.
       -2   -1    0    0    0  501  0.00000000000E+00  0.00000000000E+00 -0.10268787189E+04  0.10268787189E+04  0.25500000920E-02 0.  1.
    10030    2    1    2    0    0  0.00000000000E+00  0.00000000000E+00  0.12813115075E+04  0.33350689453E+04  0.30791111852E+04 0.  0.
        1    1    3    3  502    0 -0.14230122400E+04  0.54219089911E+03  0.88597058424E+03  0.17617828137E+04  0.50400001928E-02 0. -1.
       -1    1    3    3    0  502  0.14230122400E+04 -0.54219089911E+03  0.39534092328E+03  0.15732861316E+04  0.50400001928E-02 0.  1.
</event>
<event>
 5   0  0.3340899E-06  0.3104892E+04  0.7818609E-02  0.8214397E-01
        2   -1    0    0  501    0  0.00000000000E+00  0.00000000000E+00  0.18174536992E+04  0.18174536992E+04  0.25500000920E-02 0. -1.
       -2   -1    0    0    0  501  0.00000000000E+00  0.00000000000E+00 -0.13260794502E+04  0.13260794502E+04  0.25500000920E-02 0.  1.
    10030    2    1    2    0    0  0.00000000000E+00  0.00000000000E+00  0.49137424899E+03  0.31435331494E+04  0.31048916259E+04 0.  0.
        3    1    3    3  502    0  0.53835721942E+02  0.68158909213E+03  0.16568144403E+04  0.17923437381E+04  0.10100000352E+00 0. -1.
       -3    1    3    3    0  502 -0.53835721942E+02 -0.68158909213E+03 -0.11654401914E+04  0.13511894113E+04  0.10100000352E+00 0.  1.
</event>
<event>
 5   0  0.1198763E-06  0.2921354E+04  0.7818609E-02  0.8266552E-01
        1   -1    0    0  501    0  0.00000000000E+00  0.00000000000E+00  0.17702722466E+04  0.17702722466E+04  0.50400001928E-02 0. -1.
       -1   -1    0    0    0  501  0.00000000000E+00  0.00000000000E+00 -0.12052251306E+04  0.12052251306E+04  0.50400001928E-02 0.  1.
    10030    2    1    2    0    0  0.00000000000E+00  0.00000000000E+00  0.56504711597E+03  0.29754973772E+04  0.29213535217E+04 0.  0.
        1    1    3    3  502    0 -0.55364630846E+03 -0.91206438154E+03 -0.73355821475E+03  0.12947947040E+04  0.50400001928E-02 0.  1.
       -1    1    3    3    0  502  0.55364630846E+03  0.91206438154E+03  0.12986053307E+04  0.16807026733E+04  0.50400001928E-02 0. -1.
</event>
<event>
 5   0  0.1198763E-06  0.3016725E+04  0.7818609E-02  0.8238971E-01
        1   -1    0    0  501    0  0.00000000000E+00  0.00000000000E+00  0.19877317980E+04  0.19877317980E+04  0.50400001928E-02 0.  1.
       -1   -1    0    0    0  501  0.00000000000E+00  0.00000000000E+00 -0.11445997030E+04  0.11445997030E+04  0.50400001928E-02 0. -1.
    10030    2    1    2    0    0  0.00000000000E+00  0.00000000000E+00  0.84313209492E+03  0.31323315010E+04  0.30167248636E+04 0.  0.
        1    1    3    3  502    0 -0.12822763479E+04 -0.69232958965E+03  0.17280867143E+02  0.14573439956E+04  0.50400001928E-02 0. -1.
       -1    1    3    3    0  502  0.12822763479E+04  0.69232958965E+03  0.82585122777E+03  0.16749875055E+04  0.50400001928E-02 0.  1.
</event>
<event>
 5   0  0.1211008E-06  0.2816214E+04  0.7818609E-02  0.8298252E-01
        1   -1    0    0  501    0  0.00000000000E+00  0.00000000000E+00  0.18827906729E+04  0.18827906729E+04  0.50400001928E-02 0.  1.
       -1   -1    0    0    0  501  0.00000000000E+00  0.00000000000E+00 -0.10530991652E+04  0.10530991652E+04  0.50400001928E-02 0. -1.
    10030    2    1    2    0    0  0.00000000000E+00  0.00000000000E+00  0.82969150768E+03  0.29358898381E+04  0.28162139733E+04 0.  0.
        3    1    3    3  502    0  0.66120495554E+03 -0.29507853534E+03  0.16738512104E+04  0.18237437375E+04  0.10100000352E+00 0.  1.
       -3    1    3    3    0  502 -0.66120495554E+03  0.29507853534E+03 -0.84415970271E+03  0.11121461006E+04  0.10100000352E+00 0. -1.
</event>
<event>
 5   0  0.1250276E-06  0.3091275E+04  0.7818609E-02  0.8218137E-01
       -1   -1    0    0    0  501  0.00000000000E+00  0.00000000000E+00  0.20382287975E+04  0.20382287975E+04  0.50400001928E-02 0. -1.
        1   -1    0    0  501    0  0.00000000000E+00  0.00000000000E+00 -0.11720935660E+04  0.11720935660E+04  0.50400001928E-02 0.  1.
    10030    2    1    2    0    0  0.00000000000E+00  0.00000000000E+00  0.86613523149E+03  0.32103223635E+04  0.30912747271E+04 0.  0.
        5    1    3    3  502    0 -0.83819057694E+03  0.92709591412E+03  0.13774289374E+04  0.18599470005E+04  0.46999998093E+01 0. -1.
       -5    1    3    3    0  502  0.83819057694E+03 -0.92709591412E+03 -0.51129370589E+03  0.13503753630E+04  0.46999998093E+01 0.  1.
</event>
<event>
 5   0  0.1250276E-06  0.3104629E+04  0.7818609E-02  0.8214469E-01
        1   -1    0    0  501    0  0.00000000000E+00  0.00000000000E+00  0.21697727774E+04  0.21697727774E+04  0.50400001928E-02 0. -1.
       -1   -1    0    0    0  501  0.00000000000E+00  0.00000000000E+00 -0.11105676912E+04  0.11105676912E+04  0.50400001928E-02 0.  1.
    10030    2    1    2    0    0  0.00000000000E+00  0.00000000000E+00  0.10592050862E+04  0.32803404686E+04  0.31046285084E+04 0.  0.
        5    1    3    3  502    0  0.91770662583E+03 -0.53967198622E+03  0.17232418181E+04  0.20255902245E+04  0.46999998093E+01 0. -1.
       -5    1    3    3    0  502 -0.91770662583E+03  0.53967198622E+03 -0.66403673192E+03  0.12547502441E+04  0.46999998093E+01 0.  1.
</event>
<event>
 5   0  0.3445959E-06  0.3006483E+04  0.7818609E-02  0.8241882E-01
       -2   -1    0    0    0  501  0.00000000000E+00  0.00000000000E+00  0.25122343208E+04  0.25122343208E+04  0.25500000920E-02 0. -1.
        2   -1    0    0  501    0  0.00000000000E+00  0.00000000000E+00 -0.89949196496E+03  0.89949196496E+03  0.25500000920E-02 0.  1.
    10030    2    1    2    0    0  0.00000000000E+00  0.00000000000E+00  0.16127423559E+04  0.34117262858E+04  0.30064827195E+04 0.  0.
        4    1    3    3  502    0  0.46077246541E+03  0.79012326782E+03  0.21601174945E+04  0.23457867009E+04  0.12699999809E+01 0. -1.
       -4    1    3    3    0  502 -0.46077246541E+03 -0.79012326782E+03 -0.54737513866E+03  0.10659395849E+04  0.12699999809E+01 0.  1.
</event>
<event>
 5   0  0.3445410E-06  0.3037748E+04  0.7818609E-02  0.8233033E-01
        2   -1    0    0  501    0  0.00000000000E+00  0.00000000000E+00  0.15697296692E+04  0.15697296692E+04  0.25500000920E-02 0.  1.
       -2   -1    0    0    0  501  0.00000000000E+00  0.00000000000E+00 -0.14696660863E+04  0.14696660863E+04  0.25500000920E-02 0. -1.
    10030    2    1    2    0    0  0.00000000000E+00  0.00000000000E+00  0.10006358296E+03  0.30393957555E+04  0.30377481525E+04 0.  0.
        1    1    3    3  502    0  0.94652793196E+03 -0.11678559724E+04  0.26734941427E+03  0.15268524511E+04  0.50400001928E-02 0. -1.
       -1    1    3    3    0  502 -0.94652793196E+03  0.11678559724E+04 -0.16728583131E+03  0.15125433044E+04  0.50400001928E-02 0.  1.
</event>
<event>
 5   0  0.1171915E-06  0.3109286E+04  0.7818609E-02  0.8213194E-01
       -1   -1    0    0    0  501  0.00000000000E+00  0.00000000000E+00  0.94698138400E+03  0.94698138402E+03  0.50400001928E-02 0.  1.
        1   -1    0    0  501    0  0.00000000000E+00  0.00000000000E+00 -0.25522313182E+04  0.25522313182E+04  0.50400001928E-02 0. -1.
    10030    2    1    2    0    0  0.00000000000E+00  0.00000000000E+00 -0.16052499342E+04  0.34992127022E+04  0.31092864429E+04 0.  0.
        2    1    3    3  502    0 -0.17964803413E+03  0.11964188142E+04  0.29614587856E+03  0.12455495881E+04  0.25500000920E-02 0.  1.
       -2    1    3    3    0  502  0.17964803413E+03 -0.11964188142E+04 -0.19013958127E+04  0.22536631141E+04  0.25500000920E-02 0. -1.
</event>
<event>
 5   0  0.3441897E-06  0.3096895E+04  0.7818609E-02  0.8216591E-01
        2   -1    0    0  501    0  0.00000000000E+00  0.00000000000E+00  0.16970313137E+04  0.16970313137E+04  0.25500000920E-02 0. -1.
       -2   -1    0    0    0  501  0.00000000000E+00  0.00000000000E+00 -0.14128728192E+04  0.14128728192E+04  0.25500000920E-02 0.  1.
    10030    2    1    2    0    0  0.00000000000E+00  0.00000000000E+00  0.28415849448E+03  0.31099041329E+04  0.30968948425E+04 0.  0.
        5    1    3    3  502    0 -0.26723870894E+03 -0.14006937035E+04  0.74819401518E+03  0.16103340501E+04  0.46999998093E+01 0. -1.
       -5    1    3    3    0  502  0.26723870894E+03  0.14006937035E+04 -0.46403552070E+03  0.14995700828E+04  0.46999998093E+01 0.  1.
</event>
<event>
 5   0  0.1171915E-06  0.3090108E+04  0.7818609E-02  0.8218458E-01
        1   -1    0    0  501    0  0.00000000000E+00  0.00000000000E+00  0.24384660694E+04  0.24384660694E+04  0.50400001928E-02 0.  1.
       -1   -1    0    0    0  501  0.00000000000E+00  0.00000000000E+00 -0.97897285238E+03  0.97897285239E+03  0.50400001928E-02 0. -1.
    10030    2    1    2    0    0  0.00000000000E+00  0.00000000000E+00  0.14594932170E+04  0.34174389218E+04  0.30901081427E+04 0.  0.
        2    1    3    3  502    0  0.11192520830E+03 -0.59533401222E+03  0.23016606996E+04  0.23800402968E+04  0.25500000920E-02 0.  1.
       -2    1    3    3    0  502 -0.11192520830E+03  0.59533401222E+03 -0.84216748259E+03  0.10373986250E+04  0.25500000920E-02 0. -1.
</event>
<event>
 5   0  0.3374790E-06  0.3097147E+04  0.7818609E-02  0.8216521E-01
        2   -1    0    0  501    0  0.00000000000E+00  0.00000000000E+00  0.23872211893E+04  0.23872211893E+04  0.25500000920E-02 0.  1.
       -2   -1    0    0    0  501  0.00000000000E+00  0.00000000000E+00 -0.10045484308E+04  0.10045484308E+04  0.25500000920E-02 0. -1.
    10030    2    1    2    0    0  0.00000000000E+00  0.00000000000E+00  0.13826727585E+04  0.33917696201E+04  0.30971466221E+04 0.  0.
        2    1    3    3  502    0  0.11750890575E+04 -0.51242981401E+03  0.16426866476E+04  0.20837077601E+04  0.25500000920E-02 0.  1.
       -2    1    3    3    0  502 -0.11750890575E+04  0.51242981401E+03 -0.26001388903E+03  0.13080618601E+04  0.25500000920E-02 0. -1.
</event>
<event>
 5   0  0.3340899E-06  0.3085042E+04  0.7818609E-02  0.8219855E-01
        2   -1    0    0  501    0  0.00000000000E+00  0.00000000000E+00  0.16170005086E+04  0.16170005086E+04  0.25500000920E-02 0. -1.
       -2   -1    0    0    0  501  0.00000000000E+00  0.00000000000E+00 -0.14714721976E+04  0.14714721976E+04  0.25500000920E-02 0.  1.
    10030    2    1    2    0    0  0.00000000000E+00  0.00000000000E+00  0.14552831098E+03  0.30884727062E+04  0.30850421663E+04 0.  0.
        3    1    3    3  502    0  0.12740088995E+04  0.24246365218E+03 -0.76331959497E+03  0.15048402284E+04  0.10100000352E+00 0.  1.
       -3    1    3    3    0  502 -0.12740088995E+04 -0.24246365218E+03  0.90884790595E+03  0.15836324779E+04  0.10100000352E+00 0. -1.
</event>
<event>
 5   0  0.3445410E-06  0.3076492E+04  0.7818609E-02  0.8222219E-01
       -2   -1    0    0    0  501  0.00000000000E+00  0.00000000000E+00  0.11799188779E+04  0.11799188779E+04  0.25500000920E-02 0.  1.
        2   -1    0    0  501    0  0.00000000000E+00  0.00000000000E+00 -0.20053932081E+04  0.20053932081E+04  0.25500000920E-02 0. -1.
    10030    2    1    2    0    0  0.00000000000E+00  0.00000000000E+00 -0.82547433023E+03  0.31853120860E+04  0.30764923558E+04 0.  0.
        1    1    3    3  502    0  0.27443475787E+03 -0.66502856755E+03 -0.18204706064E+04  0.19574704750E+04  0.50400001928E-02 0. -1.
       -1    1    3    3    0  502 -0.27443475787E+03  0.66502856755E+03  0.99499627613E+03  0.12278416109E+04  0.50400001928E-02 0.  1.
</event>
<event>
 5   0  0.3445959E-06  0.3116613E+04  0.7818609E-02  0.8211193E-01
       -2   -1    0    0    0  501  0.00000000000E+00  0.00000000000E+00  0.10782531542E+04  0.10782531543E+04  0.25500000920E-02 0. -1.
        2   -1    0    0  501    0  0.00000000000E+00  0.00000000000E+00 -0.22520867037E+04  0.22520867037E+04  0.25500000920E-02 0.  1.
    10030    2    1    2    0    0  0.00000000000E+00  0.00000000000E+00 -0.11738335494E+04  0.33303398579E+04  0.31166132849E+04 0.  0.
        4    1    3    3  502    0  0.99493493242E+03 -0.11246658975E+04 -0.14175609878E+03  0.15082656614E+04  0.12699999809E+01 0. -1.
       -4    1    3    3    0  502 -0.99493493242E+03  0.11246658975E+04 -0.10320774506E+04  0.18220741966E+04  0.12699999809E+01 0.  1.
</event>
<event>
 5   0  0.1250276E-06  0.3085836E+04  0.7818609E-02  0.8219636E-01
       -1   -1    0    0    0  501  0.00000000000E+00  0.00000000000E+00  0.16237664976E+04  0.16237664976E+04  0.50400001928E-02 0. -1.
        1   -1    0    0  501    0  0.00000000000E+00  0.00000000000E+00 -0.14660947143E+04  0.14660947143E+04  0.50400001928E-02 0.  1.
    10030    2    1    2    0    0  0.00000000000E+00  0.00000000000E+00  0.15767178324E+03  0.30898612119E+04  0.30858356920E+04 0.  0.
        5    1    3    3  502    0  0.14755669953E+04  0.39435072805E+03 -0.13999653607E+03  0.15337638587E+04  0.46999998093E+01 0.  1.
       -5    1    3    3    0  502 -0.14755669953E+04 -0.39435072805E+03  0.29766831931E+03  0.15560973532E+04  0.46999998093E+01 0. -1.
</event>
<event>
 5   0  0.1235960E-06  0.3042035E+04  0.7818609E-02  0.8231828E-01
       -1   -1    0    0    0  501  0.00000000000E+00  0.00000000000E+00  0.15902137399E+04  0.15902137399E+04  0.50400001928E-02 0. -1.
        1   -1    0    0  501    0  0.00000000000E+00  0.00000000000E+00 -0.14548325939E+04  0.14548325939E+04  0.50400001928E-02 0.  1.
    10030    2    1    2    0    0  0.00000000000E+00  0.00000000000E+00  0.13538114596E+03  0.30450463338E+04  0.30420353582E+04 0.  0.
        4    1    3    3  502    0 -0.10196198614E+04  0.85688737046E+03 -0.66761975231E+03  0.14898316596E+04  0.12699999809E+01 0. -1.
       -4    1    3    3    0  502  0.10196198614E+04 -0.85688737046E+03  0.80300089827E+03  0.15552146742E+04  0.12699999809E+01 0.  1.
</event>
<event>
 5   0  0.1109562E-06  0.3156265E+04  0.7818609E-02  0.8200464E-01
       -3   -1    0    0    0  501  0.00000000000E+00  0.00000000000E+00  0.15212907879E+04  0.15212907912E+04  0.10100000352E+00 0.  1.
        3   -1    0    0  501    0  0.00000000000E+00  0.00000000000E+00 -0.16370980281E+04  0.16370980312E+04  0.10100000352E+00 0. -1.
    10030    2    1    2    0    0  0.00000000000E+00  0.00000000000E+00 -0.11580724023E+03  0.31583888225E+04  0.31562649821E+04 0.  0.
        2    1    3    3  502    0  0.70971959265E+03  0.11604434585E+04  0.74274178628E+03  0.15498375017E+04  0.25500000920E-02 0.  1.
       -2    1    3    3    0  502 -0.70971959265E+03 -0.11604434585E+04 -0.85854902651E+03  0.16085513208E+04  0.25500000920E-02 0. -1.
</event>
<event>
 5   0  0.3340899E-06  0.3084591E+04  0.7818609E-02  0.8219979E-01
        2   -1    0    0  501    0  0.00000000000E+00  0.00000000000E+00  0.23745362364E+04  0.23745362364E+04  0.25500000920E-02 0. -1.
       -2   -1    0    0    0  501  0.00000000000E+00  0.00000000000E+00 -0.10017433024E+04  0.10017433024E+04  0.25500000920E-02 0.  1.
    10030    2    1    2    0    0  0.00000000000E+00  0.00000000000E+00  0.13727929340E+04  0.33762795388E+04  0.30845912345E+04 0.  0.
        3    1    3    3  502    0 -0.14628470400E+04 -0.48813737776E+03  0.66251093449E+03  0.16784279283E+04  0.10100000352E+00 0.  1.
       -3    1    3    3    0  502  0.14628470400E+04  0.48813737776E+03  0.71028199952E+03  0.16978516104E+04  0.10100000352E+00 0. -1.
</event>
<event>
 5   0  0.3374790E-06  0.3103660E+04  0.7818609E-02  0.8214734E-01
        2   -1    0    0  501    0  0.00000000000E+00  0.00000000000E+00  0.24053003327E+04  0.24053003327E+04  0.25500000920E-02 0.  1.
       -2   -1    0    0    0  501  0.00000000000E+00  0.00000000000E+00 -0.10011957526E+04  0.10011957526E+04  0.25500000920E-02 0. -1.
    10030    2    1    2    0    0  0.00000000000E+00  0.00000000000E+00  0.14041045800E+04  0.34064960853E+04  0.31036600825E+04 0.  0.
        2    1    3    3  502    0  0.26100214373E+03 -0.12102887600E+04  0.17288884684E+04  0.21264939073E+04  0.25500000920E-02 0.  1.
       -2    1    3    3    0  502 -0.26100214373E+03  0.12102887600E+04 -0.32478388832E+03  0.12800021780E+04  0.25500000920E-02 0. -1.
</event>
<event>
 5   0  0.3441897E-06  0.3170438E+04  0.7818609E-02  0.8196668E-01
       -2   -1    0    0    0  501  0.00000000000E+00  0.00000000000E+00  0.13236884249E+04  0.13236884249E+04  0.25500000920E-02 0.  1.
        2   -1    0    0  501    0  0.00000000000E+00  0.00000000000E+00 -0.18984223663E+04  0.18984223663E+04  0.25500000920E-02 0. -1.
    10030    2    1    2    0    0  0.00000000000E+00  0.00000000000E+00 -0.57473394142E+03  0.32221107912E+04  0.31704382737E+04 0.  0.
        5    1    3    3  502    0 -0.60814420310E+02  0.92821673143E+03 -0.15918810259E+04  0.18437440128E+04  0.46999998093E+01 0. -1.
       -5    1    3    3    0  502  0.60814420310E+02 -0.92821673143E+03  0.10171470845E+04  0.13783667784E+04  0.46999998093E+01 0.  1.
</event>
<event>
 5   0  0.1235960E-06  0.3017846E+04  0.7818609E-02  0.8238653E-01
       -1   -1    0    0    0  501  0.00000000000E+00  0.00000000000E+00  0.12153711388E+04  0.12153711388E+04  0.50400001928E-02 0.  1.
        1   -1    0    0  501    0  0.00000000000E+00  0.00000000000E+00 -0.18733770662E+04  0.18733770662E+04  0.50400001928E-02 0. -1.
    10030    2    1    2    0    0  0.00000000000E+00  0.00000000000E+00 -0.65800592738E+03  0.30887482050E+04  0.30178458664E+04 0.  0.
        4    1    3    3  502    0  0.16605277564E+03 -0.62989925165E+03 -0.17220461635E+04  0.18411385591E+04  0.12699999809E+01 0. -1.
       -4    1    3    3    0  502 -0.16605277564E+03  0.62989925165E+03  0.10640402361E+04  0.12476096459E+04  0.12699999809E+01 0.  1.
</event>
<event>
 5   0  0.1198763E-06  0.3229333E+04  0.7818609E-02  0.8181113E-01
        1   -1    0    0  501    0  0.00000000000E+00  0.00000000000E+00  0.10983473847E+04  0.10983473847E+04  0.50400001928E-02 0.  1.
       -1   -1    0    0    0  501  0.00000000000E+00  0.00000000000E+00 -0.23737008028E+04  0.23737008028E+04  0.50400001928E-02 0. -1.
    10030    2    1    2    0    0  0.00000000000E+00  0.00000000000E+00 -0.12753534180E+04  0.34720481875E+04  0.32293331007E+04 0.  0.
        1    1    3    3  502    0  0.12847019741E+04 -0.23365577515E+03  0.38349498811E+03  0.13609271066E+04  0.50400001928E-02 0.  1.
       -1    1    3    3    0  502 -0.12847019741E+04  0.23365577515E+03 -0.16588484061E+04  0.21111210809E+04  0.50400001928E-02 0. -1.
</event>
<event>
 5   0  0.3374790E-06  0.2929087E+04  0.7818609E-02  0.8264276E-01
       -2   -1    0    0    0  501  0.00000000000E+00  0.00000000000E+00  0.15692936499E+04  0.15692936499E+04  0.25500000920E-02 0.  1.
        2   -1    0    0  501    0  0.00000000000E+00  0.00000000000E+00 -0.13667853675E+04  0.13667853675E+04  0.25500000920E-02 0. -1.
    10030    2    1    2    0    0  0.00000000000E+00  0.00000000000E+00  0.20250828238E+03  0.29360790175E+04  0.29290869554E+04 0.  0.
        2    1    3    3  502    0  0.11993908180E+04 -0.70430218080E+03  0.56094203201E+03  0.14997452648E+04  0.25500000920E-02 0.  1.
       -2    1    3    3    0  502 -0.11993908180E+04  0.70430218080E+03 -0.35843374964E+03  0.14363337526E+04  0.25500000920E-02 0. -1.
</event>
<event>
 5   0  0.1235960E-06  0.3174927E+04  0.7818609E-02  0.8195470E-01
        1   -1    0    0  501    0  0.00000000000E+00  0.00000000000E+00  0.14530712488E+04  0.14530712488E+04  0.50400001928E-02 0. -1.
       -1   -1    0    0    0  501  0.00000000000E+00  0.00000000000E+00 -0.17342859141E+04  0.17342859141E+04  0.50400001928E-02 0.  1.
    10030    2    1    2    0    0  0.00000000000E+00  0.00000000000E+00 -0.28121466536E+03  0.31873571629E+04  0.31749274001E+04 0.  0.
        4    1    3    3  502    0  0.87270971361E+02  0.34112957584E+03  0.14133719091E+04  0.14565738486E+04  0.12699999809E+01 0. -1.
       -4    1    3    3    0  502 -0.87270971361E+02 -0.34112957584E+03 -0.16945865745E+04  0.17307833143E+04  0.12699999809E+01 0.  1.
</event>
<event>
 5   0  0.3445959E-06  0.2997482E+04  0.7818609E-02  0.8244450E-01
       -2   -1    0    0    0  501  0.00000000000E+00  0.00000000000E+00  0.10917654805E+04  0.10917654805E+04  0.25500000920E-02 0. -1.
        2   -1    0    0  501    0  0.00000000000E+00  0.00000000000E+00 -0.20574242837E+04  0.20574242837E+04  0.25500000920E-02 0.  1.
    10030    2    1    2    0    0  0.00000000000E+00  0.00000000000E+00 -0.96565880323E+03  0.31491897642E+04  0.29974821512E+04 0.  0.
        4    1    3    3  502    0  0.93997768604E+02  0.69078044260E+03  0.91104764736E+03  0.11471802949E+04  0.12699999809E+01 0. -1.
       -4    1    3    3    0  502 -0.93997768604E+02 -0.69078044260E+03 -0.18767064506E+04  0.20020094693E+04  0.12699999809E+01 0.  1.
</event>
<event>
 5   0  0.1250276E-06  0.3140899E+04  0.7818609E-02  0.8204602E-01
        1   -1    0    0  501    0  0.00000000000E+00  0.00000000000E+00  0.21968128564E+04  0.21968128564E+04  0.50400001928E-02 0.  1.
       -1   -1    0    0    0  501  0.00000000000E+00  0.00000000000E+00 -0.11226775153E+04  0.11226775153E+04  0.50400001928E-02 0. -1.
    10030    2    1    2    0    0  0.00000000000E+00  0.00000000000E+00  0.10741353411E+04  0.33194903717E+04  0.31408994885E+04 0.  0.
        5    1    3    3  502    0  0.14234076386E+04  0.23397929473E+03  0.11932190459E+04  0.18720655430E+04  0.46999998093E+01 0.  1.
       -5    1    3    3    0  502 -0.14234076386E+04 -0.23397929473E+03 -0.11908370483E+03  0.14474248287E+04  0.46999998093E+01 0. -1.
</event>
<event>
 5   0  0.3441897E-06  0.3111562E+04  0.7818609E-02  0.8212572E-01
        2   -1    0    0  501    0  0.00000000000E+00  0.00000000000E+00  0.14109775998E+04  0.14109775998E+04  0.25500000920E-02 0. -1.
       -2   -1    0    0    0  501  0.00000000000E+00  0.00000000000E+00 -0.17154446179E+04  0.17154446179E+04  0.25500000920E-02 0.  1.
    10030    2    1    2    0    0  0.00000000000E+00  0.00000000000E+00 -0.30446701813E+03  0.31264222177E+04  0.31115616205E+04 0.  0.
        5    1    3    3  502    0 -0.52189271218E+02 -0.69017314096E+03  0.12477511762E+04  0.14268734254E+04  0.46999998093E+01 0. -1.
       -5    1    3    3    0  502  0.52189271218E+02  0.69017314096E+03 -0.15522181943E+04  0.16995487923E+04  0.46999998093E+01 0.  1.
</event>
<event>
 5   0  0.3445410E-06  0.3104380E+04  0.7818609E-02  0.8214537E-01
       -2   -1    0    0    0  501  0.00000000000E+00  0.00000000000E+00  0.10680776277E+04  0.10680776277E+04  0.25500000920E-02 0.  1.
        2   -1    0    0  501    0  0.00000000000E+00  0.00000000000E+00 -0.22557288283E+04  0.22557288283E+04  0.25500000920E-02 0. -1.
    10030    2    1    2    0    0  0.00000000000E+00  0.00000000000E+00 -0.11876512006E+04  0.33238064559E+04  0.31043798064E+04 0.  0.
        1    1    3    3  502    0  0.34152628025E+03 -0.14171366510E+04 -0.22862400639E+02  0.14578886024E+04  0.50400001928E-02 0.  1.
       -1    1    3    3    0  502 -0.34152628025E+03  0.14171366510E+04 -0.11647887999E+04  0.18659178535E+04  0.50400001928E-02 0. -1.
</event>
<event>
 5   0  0.1211008E-06  0.3134219E+04  0.7818609E-02  0.8206409E-01
        1   -1    0    0  501    0  0.00000000000E+00  0.00000000000E+00  0.17735560487E+04  0.17735560488E+04  0.50400001928E-02 0.  1.
       -1   -1    0    0    0  501  0.00000000000E+00  0.00000000000E+00 -0.13846938175E+04  0.13846938175E+04  0.50400001928E-02 0. -1.
    10030    2    1    2    0    0  0.00000000000E+00  0.00000000000E+00  0.38886223121E+03  0.31582498663E+04  0.31342189431E+04 0.  0.
        3    1    3    3  502    0  0.86706230883E+03  0.12262338606E+04  0.64550778344E+03  0.16346641358E+04  0.10100000352E+00 0.  1.
       -3    1    3    3    0  502 -0.86706230883E+03 -0.12262338606E+04 -0.25664555223E+03  0.15235857304E+04  0.10100000352E+00 0. -1.
</event>
<event>
 5   0  0.1235960E-06  0.3148014E+04  0.7818609E-02  0.8202683E-01
        1   -1    0    0  501    0  0.00000000000E+00  0.00000000000E+00  0.17817494485E+04  0.17817494485E+04  0.50400001928E-02 0.  1.
       -1   -1    0    0    0  501  0.00000000000E+00  0.00000000000E+00 -0.13904864318E+04  0.13904864318E+04  0.50400001928E-02 0. -1.
    10030    2    1    2    0    0  0.00000000000E+00  0.00000000000E+00  0.39126301671E+03  0.31722358803E+04  0.31480142521E+04 0.  0.
        4    1    3    3  502    0 -0.11428816339E+03 -0.11212718221E+04 -0.91154181956E+03  0.14495593762E+04  0.12699999809E+01 0. -1.
       -4    1    3    3    0  502  0.11428816339E+03  0.11212718221E+04  0.13028048363E+04  0.17226765041E+04  0.12699999809E+01 0.  1.
</event>
<event>
 5   0  0.1235960E-06  0.3249321E+04  0.7818609E-02  0.8175912E-01
        1   -1    0    0  501    0  0.00000000000E+00  0.00000000000E+00  0.16665309855E+04  0.16665309856E+04  0.50400001928E-02 0.  1.
       -1   -1    0    0    0  501  0.00000000000E+00  0.00000000000E+00 -0.15838422960E+04  0.15838422960E+04  0.50400001928E-02 0. -1.
    10030    2    1    2    0    0  0.00000000000E+00  0.00000000000E+00  0.82688689583E+02  0.32503732815E+04  0.32493213214E+04 0.  0.
        4    1    3    3  502    0  0.35051316206E+03  0.84769051161E+03 -0.13000155649E+04  0.15910627776E+04  0.12699999809E+01 0. -1.
       -4    1    3    3    0  502 -0.35051316206E+03 -0.84769051161E+03  0.13827042545E+04  0.16593105040E+04  0.12699999809E+01 0.  1.
</event>
<event>
 5   0  0.1235960E-06  0.3039162E+04  0.7818609E-02  0.8232636E-01
       -1   -1    0    0    0  501  0.00000000000E+00  0.00000000000E+00  0.11698876377E+04  0.11698876377E+04  0.50400001928E-02 0.  1.
        1   -1    0    0  501    0  0.00000000000E+00  0.00000000000E+00 -0.19738018642E+04  0.19738018642E+04  0.50400001928E-02 0. -1.
    10030    2    1    2    0    0  0.00000000000E+00  0.00000000000E+00 -0.80391422650E+03  0.31436895018E+04  0.30391619898E+04 0.  0.
        4    1    3    3  502    0  0.33267442419E+03 -0.11682925895E+04 -0.13463447774E+04  0.18133465526E+04  0.12699999809E+01 0. -1.
       -4    1    3    3    0  502 -0.33267442419E+03  0.11682925895E+04  0.54243055089E+03  0.13303429493E+04  0.12699999809E+01 0.  1.
</event>
<event>
 5   0  0.1211008E-06  0.3086791E+04  0.7818609E-02  0.8219372E-01
       -1   -1    0    0    0  501  0.00000000000E+00  0.00000000000E+00  0.15455600605E+04  0.15455600605E+04  0.50400001928E-02 0. -1.
        1   -1    0    0  501    0  0.00000000000E+00  0.00000000000E+00 -0.15412336967E+04  0.15412336967E+04  0.50400001928E-02 0.  1.
    10030    2    1    2    0    0  0.00000000000E+00  0.00000000000E+00  0.43263638127E+01  0.30867937572E+04  0.30867907253E+04 0.  0.
        3    1    3    3  502    0  0.31613557866E+03 -0.10812060096E+04  0.10572097603E+04  0.15448756024E+04  0.10100000352E+00 0. -1.
       -3    1    3    3    0  502 -0.31613557866E+03  0.10812060096E+04 -0.10528833965E+04  0.15419181548E+04  0.10100000352E+00 0.  1.
</event>
<event>
 5   0  0.3441897E-06  0.3072163E+04  0.7818609E-02  0.8223419E-01
        2   -1    0    0  501    0  0.00000000000E+00  0.00000000000E+00  0.15856405913E+04  0.15856405913E+04  0.25500000920E-02 0.  1.
       -2   -1    0    0    0  501  0.00000000000E+00  0.00000000000E+00 -0.14880715582E+04  0.14880715582E+04  0.25500000920E-02 0. -1.
    10030    2    1    2    0    0  0.00000000000E+00  0.00000000000E+00  0.97569033045E+02  0.30737121495E+04  0.30721631893E+04 0.  0.
        5    1    3    3  502    0 -0.11211609008E+04 -0.69744776468E+03  0.83409390574E+03  0.15617841988E+04  0.46999998093E+01 0.  1.
       -5    1    3    3    0  502  0.11211609008E+04  0.69744776468E+03 -0.73652487270E+03  0.15119279507E+04  0.46999998093E+01 0. -1.
</event>
<event>
 5   0  0.3374790E-06  0.3188299E+04  0.7818609E-02  0.8191914E-01
        2   -1    0    0  501    0  0.00000000000E+00  0.00000000000E+00  0.25379206725E+04  0.25379206725E+04  0.25500000920E-02 0.  1.
       -2   -1    0    0    0  501  0.00000000000E+00  0.00000000000E+00 -0.10013363659E+04  0.10013363659E+04  0.25500000920E-02 0. -1.
    10030    2    1    2    0    0  0.00000000000E+00  0.00000000000E+00  0.15365843066E+04  0.35392570384E+04  0.31882987709E+04 0.  0.
        2    1    3    3  502    0  0.77298342002E+03 -0.50052941679E+03  0.22127915981E+04  0.23967644276E+04  0.25500000920E-02 0.  1.
       -2    1    3    3    0  502 -0.77298342002E+03  0.50052941679E+03 -0.67620729146E+03  0.11424926108E+04  0.25500000920E-02 0. -1.
</event>
<event>
 5   0  0.1171915E-06  0.3083572E+04  0.7818609E-02  0.8220261E-01
       -1   -1    0    0    0  501  0.00000000000E+00  0.00000000000E+00  0.11324154985E+04  0.11324154985E+04  0.50400001928E-02 0. -1.
        1   -1    0    0  501    0  0.00000000000E+00  0.00000000000E+00 -0.20991446608E+04  0.20991446608E+04  0.50400001928E-02 0.  1.
    10030    2    1    2    0    0  0.00000000000E+00  0.00000000000E+00 -0.96672916231E+03  0.32315601592E+04  0.30835719206E+04 0.  0.
        2    1    3    3  502    0 -0.64147436613E+03 -0.12945181391E+04 -0.10475675343E+04  0.17845627794E+04  0.25500000920E-02 0.  1.
       -2    1    3    3    0  502  0.64147436613E+03  0.12945181391E+04  0.80838371995E+02  0.14469973798E+04  0.25500000920E-02 0. -1.
</event>
<event>
 5   0  0.1198763E-06  0.3105150E+04  0.7818609E-02  0.8214326E-01
        1   -1    0    0  501    0  0.00000000000E+00  0.00000000000E+00  0.17255094491E+04  0.17255094492E+04  0.50400001928E-02 0. -1.
       -1   -1    0    0    0  501  0.00000000000E+00  0.00000000000E+00 -0.13969728256E+04  0.13969728256E+04  0.50400001928E-02 0.  1.
    10030    2    1    2    0    0  0.00000000000E+00  0.00000000000E+00  0.32853662354E+03  0.31224822748E+04  0.31051504381E+04 0.  0.
        1    1    3    3  502    0  0.51351220291E+03  0.35236962947E+03  0.15943986855E+04  0.17117144349E+04  0.50400001928E-02 0. -1.
       -1    1    3    3    0  502 -0.51351220291E+03 -0.35236962947E+03 -0.12658620619E+04  0.14107678399E+04  0.50400001928E-02 0.  1.
</event>
<event>
 5   0  0.1211008E-06  0.3105899E+04  0.7818609E-02  0.8214121E-01
        1   -1    0    0  501    0  0.00000000000E+00  0.00000000000E+00  0.20518020889E+04  0.20518020889E+04  0.50400001928E-02 0.  1.
       -1   -1    0    0    0  501  0.00000000000E+00  0.00000000000E+00 -0.11753828186E+04  0.11753828186E+04  0.50400001928E-02 0. -1.
    10030    2    1    2    0    0  0.00000000000E+00  0.00000000000E+00  0.87641927025E+03  0.32271849075E+04  0.31058994977E+04 0.  0.
        3    1    3    3  502    0  0.19323857710E+03  0.17501506685E+03  0.20289003515E+04  0.20455825742E+04  0.10100000352E+00 0.  1.
       -3    1    3    3    0  502 -0.19323857710E+03 -0.17501506685E+03 -0.11524810812E+04  0.11816023333E+04  0.10100000352E+00 0. -1.
</event>
<event>
 5   0  0.1198763E-06  0.3206229E+04  0.7818609E-02  0.8187174E-01
       -1   -1    0    0    0  501  0.00000000000E+00  0.00000000000E+00  0.13998194151E+04  0.13998194151E+04  0.50400001928E-02 0. -1.
        1   -1    0    0  501    0  0.00000000000E+00  0.00000000000E+00 -0.18359343279E+04  0.18359343279E+04  0.50400001928E-02 0.  1.
    10030    2    1    2    0    0  0.00000000000E+00  0.00000000000E+00 -0.43611491279E+03  0.32357537430E+04  0.32062292601E+04 0.  0.
        1    1    3    3  502    0 -0.11714064411E+04 -0.80481544283E+03  0.53042938949E+03  0.15169958090E+04  0.50400001928E-02 0. -1.
       -1    1    3    3    0  502  0.11714064411E+04  0.80481544283E+03 -0.96654430228E+03  0.17187579340E+04  0.50400001928E-02 0.  1.
</event>
<event>
 5   0  0.1235960E-06  0.2830340E+04  0.7818609E-02  0.8293911E-01
       -1   -1    0    0    0  501  0.00000000000E+00  0.00000000000E+00  0.72916167287E+03  0.72916167289E+03  0.50400001928E-02 0. -1.
        1   -1    0    0  501    0  0.00000000000E+00  0.00000000000E+00 -0.27465864778E+04  0.27465864778E+04  0.50400001928E-02 0.  1.
    10030    2    1    2    0    0  0.00000000000E+00  0.00000000000E+00 -0.20174248049E+04  0.34757481507E+04  0.28303396198E+04 0.  0.
        4    1    3    3  502    0  0.13362149739E+04  0.46599162820E+03 -0.99736894643E+03  0.17312900052E+04  0.12699999809E+01 0. -1.
       -4    1    3    3    0  502 -0.13362149739E+04 -0.46599162820E+03 -0.10200558585E+04  0.17444581455E+04  0.12699999809E+01 0.  1.
</event>
<event>
 5   0  0.1235960E-06  0.2964099E+04  0.7818609E-02  0.8254057E-01
        1   -1    0    0  501    0  0.00000000000E+00  0.00000000000E+00  0.12119649269E+04  0.12119649269E+04  0.50400001928E-02 0. -1.
       -1   -1    0    0    0  501  0.00000000000E+00  0.00000000000E+00 -0.18123224689E+04  0.18123224689E+04  0.50400001928E-02 0.  1.
    10030    2    1    2    0    0  0.00000000000E+00  0.00000000000E+00 -0.60035754200E+03  0.30242873958E+04  0.29640993698E+04 0.  0.
        4    1    3    3  502    0 -0.10734726466E+04  0.94170949019E+03  0.10449736483E+03  0.14318106017E+04  0.12699999809E+01 0.  1.
       -4    1    3    3    0  502  0.10734726466E+04 -0.94170949019E+03 -0.70485490684E+03  0.15924767941E+04  0.12699999809E+01 0. -1.
</event>
<event>
 5   0  0.1211008E-06  0.3154729E+04  0.7818609E-02  0.8200876E-01
       -1   -1    0    0    0  501  0.00000000000E+00  0.00000000000E+00  0.10493582850E+04  0.10493582851E+04  0.50400001928E-02 0.  1.
        1   -1    0    0  501    0  0.00000000000E+00  0.00000000000E+00 -0.23710482947E+04  0.23710482947E+04  0.50400001928E-02 0. -1.
    10030    2    1    2    0    0  0.00000000000E+00  0.00000000000E+00 -0.13216900097E+04  0.34204065797E+04  0.31547292577E+04 0.  0.
        3    1    3    3  502    0 -0.14036187542E+03 -0.34382177491E+03 -0.23229740987E+04  0.23524717942E+04  0.10100000352E+00 0. -1.
       -3    1    3    3    0  502  0.14036187542E+03  0.34382177491E+03  0.10012840891E+04  0.10679347856E+04  0.10100000352E+00 0.  1.
</event>
<event>
 5   0  0.3374790E-06  0.3102330E+04  0.7818609E-02  0.8215099E-01
        2   -1    0    0  501    0  0.00000000000E+00  0.00000000000E+00  0.27438063420E+04  0.27438063420E+04  0.25500000920E-02 0.  1.
       -2   -1    0    0    0  501  0.00000000000E+00  0.00000000000E+00 -0.87692490978E+03  0.87692490978E+03  0.25500000920E-02 0. -1.
    10030    2    1    2    0    0  0.00000000000E+00  0.00000000000E+00  0.18668814322E+04  0.36207312517E+04  0.31023295304E+04 0.  0.
        2    1    3    3  502    0 -0.37895327056E+03 -0.10891453220E+04 -0.27734916420E+03  0.11860715293E+04  0.25500000920E-02 0. -1.
       -2    1    3    3    0  502  0.37895327056E+03  0.10891453220E+04  0.21442305964E+04  0.24346597224E+04  0.25500000920E-02 0.  1.
</event>
<event>
 5   0  0.1109562E-06  0.3178621E+04  0.7818609E-02  0.8194486E-01
        3   -1    0    0  501    0  0.00000000000E+00  0.00000000000E+00  0.16103675285E+04  0.16103675316E+04  0.10100000352E+00 0.  1.
       -3   -1    0    0    0  501  0.00000000000E+00  0.00000000000E+00 -0.15685288739E+04  0.15685288771E+04  0.10100000352E+00 0. -1.
    10030    2    1    2    0    0  0.00000000000E+00  0.00000000000E+00  0.41838654610E+02  0.31788964087E+04  0.31786210697E+04 0.  0.
        2    1    3    3  502    0 -0.87072582008E+03 -0.24982270270E+03  0.13269164911E+04  0.16066369256E+04  0.25500000920E-02 0.  1.
       -2    1    3    3    0  502  0.87072582008E+03  0.24982270270E+03 -0.12850778365E+04  0.15722594831E+04  0.25500000920E-02 0. -1.
</event>
<event>
 5   0  0.3445410E-06  0.3094008E+04  0.7818609E-02  0.8217384E-01
        2   -1    0    0  501    0  0.00000000000E+00  0.00000000000E+00  0.20711886125E+04  0.20711886125E+04  0.25500000920E-02 0.  1.
       -2   -1    0    0    0  501  0.00000000000E+00  0.00000000000E+00 -0.11554823454E+04  0.11554823454E+04  0.25500000920E-02 0. -1.
    10030    2    1    2    0    0  0.00000000000E+00  0.00000000000E+00  0.91570626711E+03  0.32266709579E+04  0.30940083230E+04 0.  0.
        1    1    3    3  502    0 -0.94275329887E+03  0.11796471658E+04  0.80822056541E+03  0.17127672640E+04  0.50400001928E-02 0.  1.
       -1    1    3    3    0  502  0.94275329887E+03 -0.11796471658E+04  0.10748570170E+03  0.15139036939E+04  0.50400001928E-02 0. -1.
</event>
<event>
 5   0  0.1211008E-06  0.3093039E+04  0.7818609E-02  0.8217651E-01
       -1   -1    0    0    0  501  0.00000000000E+00  0.00000000000E+00  0.16812535571E+04  0.16812535571E+04  0.50400001928E-02 0. -1.
        1   -1    0    0  501    0  0.00000000000E+00  0.00000000000E+00 -0.14225825016E+04  0.14225825016E+04  0.50400001928E-02 0.  1.
    10030    2    1    2    0    0  0.00000000000E+00  0.00000000000E+00  0.25867105546E+03  0.31038360587E+04  0.30930385650E+04 0.  0.
        3    1    3    3  502    0 -0.43805078139E+03 -0.66879510800E+03 -0.11991236511E+04  0.14412053720E+04  0.10100000352E+00 0.  1.
       -3    1    3    3    0  502  0.43805078139E+03  0.66879510800E+03  0.14577947066E+04  0.16626306867E+04  0.10100000352E+00 0. -1.
</event>
<event>
 5   0  0.3445410E-06  0.3080859E+04  0.7818609E-02  0.8221011E-01
       -2   -1    0    0    0  501  0.00000000000E+00  0.00000000000E+00  0.16110100108E+04  0.16110100108E+04  0.25500000920E-02 0. -1.
        2   -1    0    0  501    0  0.00000000000E+00  0.00000000000E+00 -0.14729416821E+04  0.14729416821E+04  0.25500000920E-02 0.  1.
    10030    2    1    2    0    0  0.00000000000E+00  0.00000000000E+00  0.13806832877E+03  0.30839516929E+04  0.30808594874E+04 0.  0.
        1    1    3    3  502    0  0.28301706296E+03 -0.57284680091E+03 -0.13340401292E+04  0.14791602961E+04  0.50400001928E-02 0.  1.
       -1    1    3    3    0  502 -0.28301706296E+03  0.57284680091E+03  0.14721084580E+04  0.16047913968E+04  0.50400001928E-02 0. -1.
</event>
<event>
 5   0  0.1198763E-06  0.3091388E+04  0.7818609E-02  0.8218105E-01
        1   -1    0    0  501    0  0.00000000000E+00  0.00000000000E+00  0.13764688281E+04  0.13764688281E+04  0.50400001928E-02 0.  1.
       -1   -1    0    0    0  501  0.00000000000E+00  0.00000000000E+00 -0.17357238181E+04  0.17357238181E+04  0.50400001928E-02 0. -1.
    10030    2    1    2    0    0  0.00000000000E+00  0.00000000000E+00 -0.35925498995E+03  0.31121926462E+04  0.30913878629E+04 0.  0.
        1    1    3    3  502    0 -0.59941969644E+03 -0.91422488624E+03 -0.12797113673E+04  0.16830841627E+04  0.50400001928E-02 0. -1.
       -1    1    3    3    0  502  0.59941969644E+03  0.91422488624E+03  0.92045637731E+03  0.14291084835E+04  0.50400001928E-02 0.  1.
</event>
<event>
 5   0  0.3441897E-06  0.3068936E+04  0.7818609E-02  0.8224315E-01
        2   -1    0    0  501    0  0.00000000000E+00  0.00000000000E+00  0.22481528555E+04  0.22481528555E+04  0.25500000920E-02 0.  1.
       -2   -1    0    0    0  501  0.00000000000E+00  0.00000000000E+00 -0.10473452437E+04  0.10473452437E+04  0.25500000920E-02 0. -1.
    10030    2    1    2    0    0  0.00000000000E+00  0.00000000000E+00  0.12008076118E+04  0.32954980992E+04  0.30689361025E+04 0.  0.
        5    1    3    3  502    0 -0.56221444604E+03 -0.97534372247E+03  0.17200630600E+04  0.20557284550E+04  0.46999998093E+01 0.  1.
       -5    1    3    3    0  502  0.56221444604E+03  0.97534372247E+03 -0.51925544818E+03  0.12397696442E+04  0.46999998093E+01 0. -1.
</event>
<event>
 5   0  0.1171915E-06  0.3107260E+04  0.7818609E-02  0.8213748E-01
       -1   -1    0    0    0  501  0.00000000000E+00  0.00000000000E+00  0.12526353202E+04  0.12526353202E+04  0.50400001928E-02 0. -1.
        1   -1    0    0  501    0  0.00000000000E+00  0.00000000000E+00 -0.19269508765E+04  0.19269508765E+04  0.50400001928E-02 0.  1.
    10030    2    1    2    0    0  0.00000000000E+00  0.00000000000E+00 -0.67431555638E+03  0.31795861967E+04  0.31072603548E+04 0.  0.
        2    1    3    3  502    0  0.47395883385E+03 -0.10594891042E+04 -0.13939663126E+04  0.18139173682E+04  0.25500000920E-02 0.  1.
       -2    1    3    3    0  502 -0.47395883385E+03  0.10594891042E+04  0.71965075622E+03  0.13656688285E+04  0.25500000920E-02 0. -1.
</event>
<event>
 5   0  0.3340899E-06  0.3078326E+04  0.7818609E-02  0.8221711E-01
       -2   -1    0    0    0  501  0.00000000000E+00  0.00000000000E+00  0.14735721980E+04  0.14735721980E+04  0.25500000920E-02 0. -1.
        2   -1    0    0  501    0  0.00000000000E+00  0.00000000000E+00 -0.16076733569E+04  0.16076733569E+04  0.25500000920E-02 0.  1.
    10030    2    1    2    0    0  0.00000000000E+00  0.00000000000E+00 -0.13410115884E+03  0.30812455549E+04  0.30783260140E+04 0.  0.
        3    1    3    3  502    0  0.10524475557E+04 -0.39714415126E+03  0.98449488356E+03  0.14948576923E+04  0.10100000352E+00 0. -1.
       -3    1    3    3    0  502 -0.10524475557E+04  0.39714415126E+03 -0.11185960424E+04  0.15863878626E+04  0.10100000352E+00 0.  1.
</event>
<event>
 5   0  0.3374790E-06  0.2879825E+04  0.7818609E-02  0.8278906E-01
        2   -1    0    0  501    0  0.00000000000E+00  0.00000000000E+00  0.26071577513E+04  0.26071577513E+04  0.25500000920E-02 0.  1.
       -2   -1    0    0    0  501  0.00000000000E+00  0.00000000000E+00 -0.79525217006E+03  0.79525217007E+03  0.25500000920E-02 0. -1.
    10030    2    1    2    0    0  0.00000000000E+00  0.00000000000E+00  0.18119055812E+04  0.34024099213E+04  0.28798248970E+04 0.  0.
        2    1    3    3  502    0  0.47269257667E+03 -0.70749982318E+03 -0.46645583241E+03  0.97034803830E+03  0.25500000920E-02 0. -1.
       -2    1    3    3    0  502 -0.47269257667E+03  0.70749982318E+03  0.22783614136E+04  0.24320618830E+04  0.25500000920E-02 0.  1.
</event>
<event>
 5   0  0.1171915E-06  0.3061997E+04  0.7818609E-02  0.8226246E-01
        1   -1    0    0  501    0  0.00000000000E+00  0.00000000000E+00  0.21247110825E+04  0.21247110825E+04  0.50400001928E-02 0. -1.
       -1   -1    0    0    0  501  0.00000000000E+00  0.00000000000E+00 -0.11031883135E+04  0.11031883135E+04  0.50400001928E-02 0.  1.
    10030    2    1    2    0    0  0.00000000000E+00  0.00000000000E+00  0.10215227691E+04  0.32278993960E+04  0.30619970188E+04 0.  0.
        2    1    3    3  502    0  0.61444993595E+03  0.16013986297E+03 -0.95783167660E+03  0.11491888532E+04  0.25500000920E-02 0.  1.
       -2    1    3    3    0  502 -0.61444993595E+03 -0.16013986297E+03  0.19793544457E+04  0.20787105429E+04  0.25500000920E-02 0. -1.
</event>
<event>
 5   0  0.3441897E-06  0.3087819E+04  0.7818609E-02  0.8219089E-01
       -2   -1    0    0    0  501  0.00000000000E+00  0.00000000000E+00  0.13262646114E+04  0.13262646114E+04  0.25500000920E-02 0.  1.
        2   -1    0    0  501    0  0.00000000000E+00  0.00000000000E+00 -0.17972707948E+04  0.17972707948E+04  0.25500000920E-02 0. -1.
    10030    2    1    2    0    0  0.00000000000E+00  0.00000000000E+00 -0.47100618342E+03  0.31235354062E+04  0.30878190700E+04 0.  0.
        5    1    3    3  502    0  0.87743614237E+03 -0.11708362474E+04  0.26302888771E+03  0.14865927445E+04  0.46999998093E+01 0.  1.
       -5    1    3    3    0  502 -0.87743614237E+03  0.11708362474E+04 -0.73403507114E+03  0.16369426618E+04  0.46999998093E+01 0. -1.
</event>
<event>
 5   0  0.3441897E-06  0.3101107E+04  0.7818609E-02  0.8215434E-01
        2   -1    0    0  501    0  0.00000000000E+00  0.00000000000E+00  0.13648137829E+04  0.13648137829E+04  0.25500000920E-02 0. -1.
       -2   -1    0    0    0  501  0.00000000000E+00  0.00000000000E+00 -0.17615711174E+04  0.17615711174E+04  0.25500000920E-02 0.  1.
    10030    2    1    2    0    0  0.00000000000E+00  0.00000000000E+00 -0.39675733444E+03  0.31263849003E+04  0.31011072478E+04 0.  0.
        5    1    3    3  502    0  0.65464417590E+03  0.33939436742E+03 -0.15734787240E+04  0.17377010441E+04  0.46999998093E+01 0.  1.
       -5    1    3    3    0  502 -0.65464417590E+03 -0.33939436742E+03  0.11767213896E+04  0.13886838562E+04  0.46999998093E+01 0. -1.
</event>
<event>
 5   0  0.3340899E-06  0.3028143E+04  0.7818609E-02  0.8235740E-01
       -2   -1    0    0    0  501  0.00000000000E+00  0.00000000000E+00  0.17566789921E+04  0.17566789921E+04  0.25500000920E-02 0.  1.
        2   -1    0    0  501    0  0.00000000000E+00  0.00000000000E+00 -0.13049693501E+04  0.13049693501E+04  0.25500000920E-02 0. -1.
    10030    2    1    2    0    0  0.00000000000E+00  0.00000000000E+00  0.45170964196E+03  0.30616483422E+04  0.30281428254E+04 0.  0.
        3    1    3    3  502    0  0.78158515643E+03  0.11136110714E+04  0.89759091711E+03  0.16299308083E+04  0.10100000352E+00 0.  1.
       -3    1    3    3    0  502 -0.78158515643E+03 -0.11136110714E+04 -0.44588127515E+03  0.14317175339E+04  0.10100000352E+00 0. -1.
</event>
<event>
 5   0  0.3445410E-06  0.3068424E+04  0.7818609E-02  0.8224458E-01
       -2   -1    0    0    0  501  0.00000000000E+00  0.00000000000E+00  0.10769734109E+04  0.10769734109E+04  0.25500000920E-02 0. -1.
        2   -1    0    0  501    0  0.00000000000E+00  0.00000000000E+00 -0.21855746986E+04  0.21855746986E+04  0.25500000920E-02 0.  1.
    10030    2    1    2    0    0  0.00000000000E+00  0.00000000000E+00 -0.11086012876E+04  0.32625481095E+04  0.30684235940E+04 0.  0.
        1    1    3    3  502    0  0.32977591534E+02 -0.13674832253E+04  0.18442612150E+03  0.13802575438E+04  0.50400001928E-02 0. -1.
       -1    1    3    3    0  502 -0.32977591534E+02  0.13674832253E+04 -0.12930274091E+04  0.18822905657E+04  0.50400001928E-02 0.  1.
</event>
<event>
 5   0  0.1250276E-06  0.3103919E+04  0.7818609E-02  0.8214663E-01
        1   -1    0    0  501    0  0.00000000000E+00  0.00000000000E+00  0.23166203208E+04  0.23166203208E+04  0.50400001928E-02 0. -1.
       -1   -1    0    0    0  501  0.00000000000E+00  0.00000000000E+00 -0.10396946223E+04  0.10396946223E+04  0.50400001928E-02 0.  1.
    10030    2    1    2    0    0  0.00000000000E+00  0.00000000000E+00  0.12769256985E+04  0.33563149431E+04  0.31039186133E+04 0.  0.
        5    1    3    3  502    0  0.45946671384E+03 -0.14748504469E+04  0.47712531218E+03  0.16167758519E+04  0.46999998093E+01 0.  1.
       -5    1    3    3    0  502 -0.45946671384E+03  0.14748504469E+04  0.79980038631E+03  0.17395390912E+04  0.46999998093E+01 0. -1.
</event>
<event>
 5   0  0.1198763E-06  0.2872561E+04  0.7818609E-02  0.8281089E-01
       -1   -1    0    0    0  501  0.00000000000E+00  0.00000000000E+00  0.13918816512E+04  0.13918816512E+04  0.50400001928E-02 0.  1.
        1   -1    0    0  501    0  0.00000000000E+00  0.00000000000E+00 -0.14820951251E+04  0.14820951251E+04  0.50400001928E-02 0. -1.
    10030    2    1    2    0    0  0.00000000000E+00  0.00000000000E+00 -0.90213473940E+02  0.28739767763E+04  0.28725605372E+04 0.  0.
        1    1    3    3  502    0  0.74133123290E+03 -0.32667965137E+03  0.11414836484E+04  0.13997415872E+04  0.50400001928E-02 0.  1.
       -1    1    3    3    0  502 -0.74133123290E+03  0.32667965137E+03 -0.12316971223E+04  0.14742351891E+04  0.50400001928E-02 0. -1.
</event>
<event>
 5   0  0.3374790E-06  0.3064830E+04  0.7818609E-02  0.8225457E-01
        2   -1    0    0  501    0  0.00000000000E+00  0.00000000000E+00  0.13595981487E+04  0.13595981487E+04  0.25500000920E-02 0.  1.
       -2   -1    0    0    0  501  0.00000000000E+00  0.00000000000E+00 -0.17271983673E+04  0.17271983673E+04  0.25500000920E-02 0. -1.
    10030    2    1    2    0    0  0.00000000000E+00  0.00000000000E+00 -0.36760021851E+03  0.30867965160E+04  0.30648299807E+04 0.  0.
        2    1    3    3  502    0  0.80786162065E+03  0.48613948890E+03 -0.14004830874E+04  0.16882905197E+04  0.25500000920E-02 0. -1.
       -2    1    3    3    0  502 -0.80786162065E+03 -0.48613948890E+03  0.10328828689E+04  0.13985059963E+04  0.25500000920E-02 0.  1.
</event>
<event>
 5   0  0.1171915E-06  0.3160349E+04  0.7818609E-02  0.8199368E-01
       -1   -1    0    0    0  501  0.00000000000E+00  0.00000000000E+00  0.11244766121E+04  0.11244766121E+04  0.50400001928E-02 0.  1.
        1   -1    0    0  501    0  0.00000000000E+00  0.00000000000E+00 -0.22205457857E+04  0.22205457857E+04  0.50400001928E-02 0. -1.
    10030    2    1    2    0    0  0.00000000000E+00  0.00000000000E+00 -0.10960691736E+04  0.33450223978E+04  0.31603492226E+04 0.  0.
        2    1    3    3  502    0 -0.13730948309E+04  0.70027270428E+03 -0.91648612457E+03  0.17932423404E+04  0.25500000920E-02 0.  1.
       -2    1    3    3    0  502  0.13730948309E+04 -0.70027270428E+03 -0.17958304903E+03  0.15517800574E+04  0.25500000920E-02 0. -1.
</event>
<event>
 5   0  0.3445410E-06  0.3075144E+04  0.7818609E-02  0.8222593E-01
       -2   -1    0    0    0  501  0.00000000000E+00  0.00000000000E+00  0.11554424871E+04  0.11554424871E+04  0.25500000920E-02 0.  1.
        2   -1    0    0  501    0  0.00000000000E+00  0.00000000000E+00 -0.20460803955E+04  0.20460803955E+04  0.25500000920E-02 0. -1.
    10030    2    1    2    0    0  0.00000000000E+00  0.00000000000E+00 -0.89063790842E+03  0.32015228826E+04  0.30751443680E+04 0.  0.
        1    1    3    3  502    0 -0.15463953598E+03  0.96719132414E+03  0.78861386216E+03  0.12574912593E+04  0.50400001928E-02 0.  1.
       -1    1    3    3    0  502  0.15463953598E+03 -0.96719132414E+03 -0.16792517706E+04  0.19440316234E+04  0.50400001928E-02 0. -1.
</event>
<event>
 5   0  0.3441897E-06  0.3094541E+04  0.7818609E-02  0.8217238E-01
        2   -1    0    0  501    0  0.00000000000E+00  0.00000000000E+00  0.20161906420E+04  0.20161906420E+04  0.25500000920E-02 0. -1.
       -2   -1    0    0    0  501  0.00000000000E+00  0.00000000000E+00 -0.11874103929E+04  0.11874103929E+04  0.25500000920E-02 0.  1.
    10030    2    1    2    0    0  0.00000000000E+00  0.00000000000E+00  0.82878024911E+03  0.32036010349E+04  0.30945408205E+04 0.  0.
        5    1    3    3  502    0 -0.81992921527E+03  0.11677786298E+04  0.10338363465E+04  0.17620529298E+04  0.46999998093E+01 0. -1.
       -5    1    3    3    0  502  0.81992921527E+03 -0.11677786298E+04 -0.20505609736E+03  0.14415481051E+04  0.46999998093E+01 0.  1.
</event>
<event>
 5   0  0.1250276E-06  0.3082410E+04  0.7818609E-02  0.8220582E-01
        1   -1    0    0  501    0  0.00000000000E+00  0.00000000000E+00  0.14528416645E+04  0.14528416645E+04  0.50400001928E-02 0. -1.
       -1   -1    0    0    0  501  0.00000000000E+00  0.00000000000E+00 -0.16349424962E+04  0.16349424962E+04  0.50400001928E-02 0.  1.
    10030    2    1    2    0    0  0.00000000000E+00  0.00000000000E+00 -0.18210083176E+03  0.30877841607E+04  0.30824098219E+04 0.  0.
        5    1    3    3  502    0  0.95985090277E+03 -0.12054920943E+04 -0.63333733329E+02  0.15422575001E+04  0.46999998093E+01 0.  1.
       -5    1    3    3    0  502 -0.95985090277E+03  0.12054920943E+04 -0.11876709843E+03  0.15455266606E+04  0.46999998093E+01 0. -1.
</event>
<event>
 5   0  0.1250276E-06  0.3164456E+04  0.7818609E-02  0.8198268E-01
        1   -1    0    0  501    0  0.00000000000E+00  0.00000000000E+00  0.17434081431E+04  0.17434081431E+04  0.50400001928E-02 0.  1.
       -1   -1    0    0    0  501  0.00000000000E+00  0.00000000000E+00 -0.14359488257E+04  0.14359488257E+04  0.50400001928E-02 0. -1.
    10030    2    1    2    0    0  0.00000000000E+00  0.00000000000E+00  0.30745931739E+03  0.31793569689E+04  0.31644556410E+04 0.  0.
        5    1    3    3  502    0 -0.10323484655E+04  0.81540766782E+03 -0.72949454346E+03  0.15042663986E+04  0.46999998093E+01 0. -1.
       -5    1    3    3    0  502  0.10323484655E+04 -0.81540766782E+03  0.10369538609E+04  0.16750905703E+04  0.46999998093E+01 0.  1.
</event>
<event>
 5   0  0.3445410E-06  0.3031805E+04  0.7818609E-02  0.8234707E-01
        2   -1    0    0  501    0  0.00000000000E+00  0.00000000000E+00  0.21424551791E+04  0.21424551791E+04  0.25500000920E-02 0.  1.
       -2   -1    0    0    0  501  0.00000000000E+00  0.00000000000E+00 -0.10725824960E+04  0.10725824960E+04  0.25500000920E-02 0. -1.
    10030    2    1    2    0    0  0.00000000000E+00  0.00000000000E+00  0.10698726831E+04  0.32150376751E+04  0.30318046927E+04 0.  0.
        1    1    3    3  502    0  0.37832909462E+02 -0.15051977125E+04  0.34850308096E+03  0.15454791749E+04  0.50400001928E-02 0.  1.
       -1    1    3    3    0  502 -0.37832909462E+02  0.15051977125E+04  0.72136960216E+03  0.16695585002E+04  0.50400001928E-02 0. -1.
</event>
<event>
 5   0  0.3445959E-06  0.3099518E+04  0.7818609E-02  0.8215870E-01
       -2   -1    0    0    0  501  0.00000000000E+00  0.00000000000E+00  0.16820898167E+04  0.16820898167E+04  0.25500000920E-02 0. -1.
        2   -1    0    0  501    0  0.00000000000E+00  0.00000000000E+00 -0.14278385247E+04  0.14278385247E+04  0.25500000920E-02 0.  1.
    10030    2    1    2    0    0  0.00000000000E+00  0.00000000000E+00  0.25425129205E+03  0.31099283414E+04  0.30995177963E+04 0.  0.
        4    1    3    3  502    0  0.59207891784E+03 -0.10538023205E+03 -0.13059884295E+04  0.14378003440E+04  0.12699999809E+01 0.  1.
       -4    1    3    3    0  502 -0.59207891784E+03  0.10538023205E+03  0.15602397216E+04  0.16721279975E+04  0.12699999809E+01 0. -1.
</event>
<event>
 5   0  0.1171915E-06  0.3069912E+04  0.7818609E-02  0.8224044E-01
       -1   -1    0    0    0  501  0.00000000000E+00  0.00000000000E+00  0.12757030295E+04  0.12757030295E+04  0.50400001928E-02 0. -1.
        1   -1    0    0  501    0  0.00000000000E+00  0.00000000000E+00 -0.18468950838E+04  0.18468950838E+04  0.50400001928E-02 0.  1.
    10030    2    1    2    0    0  0.00000000000E+00  0.00000000000E+00 -0.57119205436E+03  0.31225981133E+04  0.30699118252E+04 0.  0.
        2    1    3    3  502    0  0.14250463636E+04  0.55531783112E+03 -0.41804062263E+03  0.15855260938E+04  0.25500000920E-02 0.  1.
       -2    1    3    3    0  502 -0.14250463636E+04 -0.55531783112E+03 -0.15315143173E+03  0.15370720195E+04  0.25500000920E-02 0. -1.
</event>
<event>
 5   0  0.1235960E-06  0.3083527E+04  0.7818609E-02  0.8220273E-01
        1   -1    0    0  501    0  0.00000000000E+00  0.00000000000E+00  0.28021157758E+04  0.28021157758E+04  0.50400001928E-02 0.  1.
       -1   -1    0    0    0  501  0.00000000000E+00  0.00000000000E+00 -0.84830020990E+03  0.84830020991E+03  0.50400001928E-02 0. -1.
    10030    2    1    2    0    0  0.00000000000E+00  0.00000000000E+00  0.19538155659E+04  0.36504159857E+04  0.30835274610E+04 0.  0.
        4    1    3    3  502    0 -0.45432824000E+03 -0.13567844066E+04  0.29709284900E+03  0.14613500092E+04  0.12699999809E+01 0. -1.
       -4    1    3    3    0  502  0.45432824000E+03  0.13567844066E+04  0.16567227169E+04  0.21890659764E+04  0.12699999809E+01 0.  1.
</event>
<event>
 5   0  0.3340899E-06  0.2513610E+04  0.7818609E-02  0.8398153E-01
        2   -1    0    0  501    0  0.00000000000E+00  0.00000000000E+00  0.96937218690E+03  0.96937218690E+03  0.25500000920E-02 0. -1.
       -2   -1    0    0    0  501  0.00000000000E+00  0.00000000000E+00 -0.16294652339E+04  0.16294652339E+04  0.25500000920E-02 0.  1.
    10030    2    1    2    0    0  0.00000000000E+00  0.00000000000E+00 -0.66009304699E+03  0.25988374208E+04  0.25136095777E+04 0.  0.
        3    1    3    3  502    0  0.42726679608E+03 -0.72832278947E+03  0.63240179336E+03  0.10549611553E+04  0.10100000352E+00 0. -1.
       -3    1    3    3    0  502 -0.42726679608E+03  0.72832278947E+03 -0.12924948403E+04  0.15438762655E+04  0.10100000352E+00 0.  1.
</event>
<event>
 5   0  0.1198763E-06  0.3069451E+04  0.7818609E-02  0.8224172E-01
       -1   -1    0    0    0  501  0.00000000000E+00  0.00000000000E+00  0.95789236276E+03  0.95789236278E+03  0.50400001928E-02 0.  1.
        1   -1    0    0  501    0  0.00000000000E+00  0.00000000000E+00 -0.24589212074E+04  0.24589212074E+04  0.50400001928E-02 0. -1.
    10030    2    1    2    0    0  0.00000000000E+00  0.00000000000E+00 -0.15010288447E+04  0.34168135702E+04  0.30694506644E+04 0.  0.
        1    1    3    3  502    0  0.13337616933E+04  0.65648934895E+03 -0.11751019532E+04  0.18949309012E+04  0.50400001928E-02 0. -1.
       -1    1    3    3    0  502 -0.13337616933E+04 -0.65648934895E+03 -0.32592689143E+03  0.15218826690E+04  0.50400001928E-02 0.  1.
</event>
<event>
 5   0  0.3441897E-06  0.3142880E+04  0.7818609E-02  0.8204067E-01
        2   -1    0    0  501    0  0.00000000000E+00  0.00000000000E+00  0.14748754957E+04  0.14748754957E+04  0.25500000920E-02 0.  1.
       -2   -1    0    0    0  501  0.00000000000E+00  0.00000000000E+00 -0.16743270220E+04  0.16743270220E+04  0.25500000920E-02 0. -1.
    10030    2    1    2    0    0  0.00000000000E+00  0.00000000000E+00 -0.19945152626E+03  0.31492025177E+04  0.31428801419E+04 0.  0.
        5    1    3    3  502    0  0.86929728792E+03 -0.61990311076E+03 -0.12550604759E+04  0.16477732033E+04  0.46999998093E+01 0. -1.
       -5    1    3    3    0  502 -0.86929728792E+03  0.61990311076E+03  0.10556089496E+04  0.15014293144E+04  0.46999998093E+01 0.  1.
</event>
<event>
 5   0  0.1171915E-06  0.3152238E+04  0.7818609E-02  0.8201546E-01
        1   -1    0    0  501    0  0.00000000000E+00  0.00000000000E+00  0.19571101829E+04  0.19571101829E+04  0.50400001928E-02 0.  1.
       -1   -1    0    0    0  501  0.00000000000E+00  0.00000000000E+00 -0.12692952857E+04  0.12692952857E+04  0.50400001928E-02 0. -1.
    10030    2    1    2    0    0  0.00000000000E+00  0.00000000000E+00  0.68781489717E+03  0.32264054686E+04  0.31522377631E+04 0.  0.
        2    1    3    3  502    0 -0.14050049560E+04  0.37670948079E+03  0.96498082582E+03  0.17456050394E+04  0.25500000920E-02 0.  1.
       -2    1    3    3    0  502  0.14050049560E+04 -0.37670948079E+03 -0.27716592865E+03  0.14808004292E+04  0.25500000920E-02 0. -1.
</event>
<event>
 5   0  0.3445410E-06  0.3126706E+04  0.7818609E-02  0.8208447E-01
        2   -1    0    0  501    0  0.00000000000E+00  0.00000000000E+00  0.17575866286E+04  0.17575866286E+04  0.25500000920E-02 0.  1.
       -2   -1    0    0    0  501  0.00000000000E+00  0.00000000000E+00 -0.13905840423E+04  0.13905840423E+04  0.25500000920E-02 0. -1.
    10030    2    1    2    0    0  0.00000000000E+00  0.00000000000E+00  0.36700258635E+03  0.31481706709E+04  0.31267055626E+04 0.  0.
        1    1    3    3  502    0  0.34489744507E+03  0.72863790364E+03 -0.11651735301E+04  0.14168616014E+04  0.50400001928E-02 0. -1.
       -1    1    3    3    0  502 -0.34489744507E+03 -0.72863790364E+03  0.15321761165E+04  0.17313090695E+04  0.50400001928E-02 0.  1.
</event>
<event>
 5   0  0.3374790E-06  0.3086859E+04  0.7818609E-02  0.8219354E-01
        2   -1    0    0  501    0  0.00000000000E+00  0.00000000000E+00  0.18936068108E+04  0.18936068108E+04  0.25500000920E-02 0. -1.
       -2   -1    0    0    0  501  0.00000000000E+00  0.00000000000E+00 -0.12580087715E+04  0.12580087715E+04  0.25500000920E-02 0.  1.
    10030    2    1    2    0    0  0.00000000000E+00  0.00000000000E+00  0.63559803923E+03  0.31516155823E+04  0.30868585829E+04 0.  0.
        2    1    3    3  502    0 -0.59595124326E+02 -0.14697202095E+04 -0.15949593994E+03  0.14795499410E+04  0.25500000920E-02 0.  1.
       -2    1    3    3    0  502  0.59595124326E+02  0.14697202095E+04  0.79509397917E+03  0.16720656413E+04  0.25500000920E-02 0. -1.
</event>
<event>
 5   0  0.1109562E-06  0.3132668E+04  0.7818609E-02  0.8206829E-01
        3   -1    0    0  501    0  0.00000000000E+00  0.00000000000E+00  0.17761902964E+04  0.17761902993E+04  0.10100000352E+00 0. -1.
       -3   -1    0    0    0  501  0.00000000000E+00  0.00000000000E+00 -0.13812720097E+04  0.13812720134E+04  0.10100000352E+00 0.  1.
    10030    2    1    2    0    0  0.00000000000E+00  0.00000000000E+00  0.39491828674E+03  0.31574623127E+04  0.31326678411E+04 0.  0.
        5    1    3    3  502    0 -0.38686176493E+01  0.11712882768E+04  0.12456172115E+04  0.17098290912E+04  0.46999998093E+01 0. -1.
       -5    1    3    3    0  502  0.38686176493E+01 -0.11712882768E+04 -0.85069892472E+03  0.14476332215E+04  0.46999998093E+01 0.  1.
</event>
<event>
 5   0  0.1235960E-06  0.3047176E+04  0.7818609E-02  0.8230386E-01
       -1   -1    0    0    0  501  0.00000000000E+00  0.00000000000E+00  0.19213710646E+04  0.19213710647E+04  0.50400001928E-02 0. -1.
        1   -1    0    0  501    0  0.00000000000E+00  0.00000000000E+00 -0.12081579812E+04  0.12081579812E+04  0.50400001928E-02 0.  1.
    10030    2    1    2    0    0  0.00000000000E+00  0.00000000000E+00  0.71321308344E+03  0.31295290459E+04  0.30471756015E+04 0.  0.
        4    1    3    3  502    0 -0.12135115725E+04  0.39414710537E+03  0.12117906286E+04  0.17596591766E+04  0.12699999809E+01 0. -1.
       -4    1    3    3    0  502  0.12135115725E+04 -0.39414710537E+03 -0.49857754516E+03  0.13698698693E+04  0.12699999809E+01 0.  1.
</event>
<event>
 5   0  0.3445959E-06  0.3042540E+04  0.7818609E-02  0.8231687E-01
       -2   -1    0    0    0  501  0.00000000000E+00  0.00000000000E+00  0.14194584100E+04  0.14194584100E+04  0.25500000920E-02 0. -1.
        2   -1    0    0  501    0  0.00000000000E+00  0.00000000000E+00 -0.16303841013E+04  0.16303841013E+04  0.25500000920E-02 0.  1.
    10030    2    1    2    0    0  0.00000000000E+00  0.00000000000E+00 -0.21092569138E+03  0.30498425113E+04  0.30425400074E+04 0.  0.
        4    1    3    3  502    0  0.13817337113E+04 -0.35182592600E+03  0.42617911459E+03  0.14881531446E+04  0.12699999809E+01 0. -1.
       -4    1    3    3    0  502 -0.13817337113E+04  0.35182592600E+03 -0.63710480597E+03  0.15616893667E+04  0.12699999809E+01 0.  1.
</event>
<event>
 5   0  0.3441897E-06  0.3102140E+04  0.7818609E-02  0.8215151E-01
        2   -1    0    0  501    0  0.00000000000E+00  0.00000000000E+00  0.17021862815E+04  0.17021862815E+04  0.25500000920E-02 0.  1.
       -2   -1    0    0    0  501  0.00000000000E+00  0.00000000000E+00 -0.14133692992E+04  0.14133692992E+04  0.25500000920E-02 0. -1.
    10030    2    1    2    0    0  0.00000000000E+00  0.00000000000E+00  0.28881698228E+03  0.31155555807E+04  0.31021397981E+04 0.  0.
        5    1    3    3  502    0  0.92182846803E+03 -0.16281618062E+03  0.13864941947E+04  0.16729211204E+04  0.46999998093E+01 0.  1.
       -5    1    3    3    0  502 -0.92182846803E+03  0.16281618062E+03 -0.10976772124E+04  0.14426344602E+04  0.46999998093E+01 0. -1.
</event>
<event>
 5   0  0.1198763E-06  0.3108841E+04  0.7818609E-02  0.8213316E-01
        1   -1    0    0  501    0  0.00000000000E+00  0.00000000000E+00  0.16633058549E+04  0.16633058549E+04  0.50400001928E-02 0. -1.
       -1   -1    0    0    0  501  0.00000000000E+00  0.00000000000E+00 -0.14526631603E+04  0.14526631603E+04  0.50400001928E-02 0.  1.
    10030    2    1    2    0    0  0.00000000000E+00  0.00000000000E+00  0.21064269462E+03  0.31159690152E+04  0.31088410314E+04 0.  0.
        1    1    3    3  502    0  0.55147591478E+03 -0.11504470486E+04  0.99537149642E+03  0.16181528086E+04  0.50400001928E-02 0. -1.
       -1    1    3    3    0  502 -0.55147591478E+03  0.11504470486E+04 -0.78472880180E+03  0.14978162065E+04  0.50400001928E-02 0.  1.
</event>
<event>
 5   0  0.3445959E-06  0.3087615E+04  0.7818609E-02  0.8219145E-01
        2   -1    0    0  501    0  0.00000000000E+00  0.00000000000E+00  0.19072209918E+04  0.19072209918E+04  0.25500000920E-02 0.  1.
       -2   -1    0    0    0  501  0.00000000000E+00  0.00000000000E+00 -0.12496410218E+04  0.12496410218E+04  0.25500000920E-02 0. -1.
    10030    2    1    2    0    0  0.00000000000E+00  0.00000000000E+00  0.65757997009E+03  0.31568620136E+04  0.30876149948E+04 0.  0.
        4    1    3    3  502    0  0.11438788362E+04 -0.38361840587E+03 -0.65599285763E+03  0.13732989898E+04  0.12699999809E+01 0. -1.
       -4    1    3    3    0  502 -0.11438788362E+04  0.38361840587E+03  0.13135728277E+04  0.17835630238E+04  0.12699999809E+01 0.  1.
</event>
<event>
 5   0  0.1211008E-06  0.2532419E+04  0.7818609E-02  0.8391526E-01
        1   -1    0    0  501    0  0.00000000000E+00  0.00000000000E+00  0.16170134873E+04  0.16170134874E+04  0.50400001928E-02 0. -1.
       -1   -1    0    0    0  501  0.00000000000E+00  0.00000000000E+00 -0.99151069802E+03  0.99151069803E+03  0.50400001928E-02 0.  1.
    10030    2    1    2    0    0  0.00000000000E+00  0.00000000000E+00  0.62550278933E+03  0.26085241854E+04  0.25324187423E+04 0.  0.
        3    1    3    3  502    0  0.31936697022E+03 -0.33804734740E+03 -0.90035784471E+03  0.10133684076E+04  0.10100000352E+00 0.  1.
       -3    1    3    3    0  502 -0.31936697022E+03  0.33804734740E+03  0.15258606340E+04  0.15951557778E+04  0.10100000352E+00 0. -1.
</event>
<event>
 5   0  0.1171915E-06  0.3111196E+04  0.7818609E-02  0.8212672E-01
        1   -1    0    0  501    0  0.00000000000E+00  0.00000000000E+00  0.22925048180E+04  0.22925048180E+04  0.50400001928E-02 0. -1.
       -1   -1    0    0    0  501  0.00000000000E+00  0.00000000000E+00 -0.10555635123E+04  0.10555635123E+04  0.50400001928E-02 0.  1.
    10030    2    1    2    0    0  0.00000000000E+00  0.00000000000E+00  0.12369413057E+04  0.33480683303E+04  0.31111955500E+04 0.  0.
        2    1    3    3  502    0  0.11186404681E+04  0.35899169336E+03 -0.47879349581E+03  0.12686507575E+04  0.25500000920E-02 0.  1.
       -2    1    3    3    0  502 -0.11186404681E+04 -0.35899169336E+03  0.17157348015E+04  0.20794175728E+04  0.25500000920E-02 0. -1.
</event>
<event>
 5   0  0.1171915E-06  0.3128170E+04  0.7818609E-02  0.8208049E-01
       -1   -1    0    0    0  501  0.00000000000E+00  0.00000000000E+00  0.16627443730E+04  0.16627443730E+04  0.50400001928E-02 0.  1.
        1   -1    0    0  501    0  0.00000000000E+00  0.00000000000E+00 -0.14712797912E+04  0.14712797912E+04  0.50400001928E-02 0. -1.
    10030    2    1    2    0    0  0.00000000000E+00  0.00000000000E+00  0.19146458176E+03  0.31340241642E+04  0.31281701961E+04 0.  0.
        2    1    3    3  502    0 -0.40099325869E+03  0.48815439948E+03 -0.13377744110E+04  0.14794359351E+04  0.25500000920E-02 0. -1.
       -2    1    3    3    0  502  0.40099325869E+03 -0.48815439948E+03  0.15292389927E+04  0.16545882292E+04  0.25500000920E-02 0.  1.
</event>
<event>
 5   0  0.1198763E-06  0.2974730E+04  0.7818609E-02  0.8250984E-01
        1   -1    0    0  501    0  0.00000000000E+00  0.00000000000E+00  0.23797760409E+04  0.23797760409E+04  0.50400001928E-02 0. -1.
       -1   -1    0    0    0  501  0.00000000000E+00  0.00000000000E+00 -0.92960610297E+03  0.92960610298E+03  0.50400001928E-02 0.  1.
    10030    2    1    2    0    0  0.00000000000E+00  0.00000000000E+00  0.14501699380E+04  0.33093821439E+04  0.29747297903E+04 0.  0.
        1    1    3    3  502    0  0.78530930254E+03  0.86732615442E+03 -0.29653084566E+03  0.12070194287E+04  0.50400001928E-02 0.  1.
       -1    1    3    3    0  502 -0.78530930254E+03 -0.86732615442E+03  0.17467007836E+04  0.21023627152E+04  0.50400001928E-02 0. -1.
</event>
<event>
 5   0  0.1250276E-06  0.3096593E+04  0.7818609E-02  0.8216674E-01
        1   -1    0    0  501    0  0.00000000000E+00  0.00000000000E+00  0.19884162472E+04  0.19884162473E+04  0.50400001928E-02 0.  1.
       -1   -1    0    0    0  501  0.00000000000E+00  0.00000000000E+00 -0.12055937367E+04  0.12055937367E+04  0.50400001928E-02 0. -1.
    10030    2    1    2    0    0  0.00000000000E+00  0.00000000000E+00  0.78282251055E+03  0.31940099840E+04  0.30965930786E+04 0.  0.
        5    1    3    3  502    0  0.20176473478E+03  0.18828034839E+03  0.19628360141E+04  0.19821467671E+04  0.46999998093E+01 0.  1.
       -5    1    3    3    0  502 -0.20176473478E+03 -0.18828034839E+03 -0.11800135036E+04  0.12118632169E+04  0.46999998093E+01 0. -1.
</event>
<event>
 5   0  0.1171915E-06  0.3078668E+04  0.7818609E-02  0.8221617E-01
       -1   -1    0    0    0  501  0.00000000000E+00  0.00000000000E+00  0.11816683848E+04  0.11816683848E+04  0.50400001928E-02 0. -1.
        1   -1    0    0  501    0  0.00000000000E+00  0.00000000000E+00 -0.20052575106E+04  0.20052575106E+04  0.50400001928E-02 0.  1.
    10030    2    1    2    0    0  0.00000000000E+00  0.00000000000E+00 -0.82358912575E+03  0.31869258954E+04  0.30786681560E+04 0.  0.
        2    1    3    3  502    0  0.53178079135E+03 -0.55320978460E+03 -0.17931536921E+04  0.19504440621E+04  0.25500000920E-02 0.  1.
       -2    1    3    3    0  502 -0.53178079135E+03  0.55320978460E+03  0.96956456632E+03  0.12364818333E+04  0.25500000920E-02 0. -1.
</event>
<event>
 5   0  0.3445959E-06  0.3096744E+04  0.7818609E-02  0.8216632E-01
       -2   -1    0    0    0  501  0.00000000000E+00  0.00000000000E+00  0.13005730968E+04  0.13005730968E+04  0.25500000920E-02 0.  1.
        2   -1    0    0  501    0  0.00000000000E+00  0.00000000000E+00 -0.18433842545E+04  0.18433842545E+04  0.25500000920E-02 0. -1.
    10030    2    1    2    0    0  0.00000000000E+00  0.00000000000E+00 -0.54281115770E+03  0.31439573513E+04  0.30967440763E+04 0.  0.
        4    1    3    3  502    0  0.14924336312E+04  0.37232871323E+03 -0.45150102696E+03  0.16030725512E+04  0.12699999809E+01 0. -1.
       -4    1    3    3    0  502 -0.14924336312E+04 -0.37232871323E+03 -0.91310130746E+02  0.15408848001E+04  0.12699999809E+01 0.  1.
</event>
<event>
 5   0  0.3445959E-06  0.3058117E+04  0.7818609E-02  0.8227327E-01
       -2   -1    0    0    0  501  0.00000000000E+00  0.00000000000E+00  0.20005846585E+04  0.20005846585E+04  0.25500000920E-02 0. -1.
        2   -1    0    0  501    0  0.00000000000E+00  0.00000000000E+00 -0.11686684680E+04  0.11686684680E+04  0.25500000920E-02 0.  1.
    10030    2    1    2    0    0  0.00000000000E+00  0.00000000000E+00  0.83191619049E+03  0.31692531265E+04  0.30581172037E+04 0.  0.
        4    1    3    3  502    0 -0.15972796112E+03  0.10884874885E+04  0.15164825557E+04  0.18735098049E+04  0.12699999809E+01 0. -1.
       -4    1    3    3    0  502  0.15972796112E+03 -0.10884874885E+04 -0.68456636523E+03  0.12957433216E+04  0.12699999809E+01 0.  1.
</event>
<event>
 5   0  0.3445410E-06  0.3098718E+04  0.7818609E-02  0.8216090E-01
       -2   -1    0    0    0  501  0.00000000000E+00  0.00000000000E+00  0.12676418560E+04  0.12676418560E+04  0.25500000920E-02 0.  1.
        2   -1    0    0  501    0  0.00000000000E+00  0.00000000000E+00 -0.18936838602E+04  0.18936838602E+04  0.25500000920E-02 0. -1.
    10030    2    1    2    0    0  0.00000000000E+00  0.00000000000E+00 -0.62604200419E+03  0.31613257162E+04  0.30987177498E+04 0.  0.
        1    1    3    3  502    0  0.66024387232E+03  0.10721149263E+04  0.60808327236E+03  0.13982552172E+04  0.50400001928E-02 0.  1.
       -1    1    3    3    0  502 -0.66024387232E+03 -0.10721149263E+04 -0.12341252765E+04  0.17630704990E+04  0.50400001928E-02 0. -1.
</event>
<event>
 5   0  0.1235960E-06  0.2990267E+04  0.7818609E-02  0.8246516E-01
       -1   -1    0    0    0  501  0.00000000000E+00  0.00000000000E+00  0.15691488045E+04  0.15691488045E+04  0.50400001928E-02 0.  1.
        1   -1    0    0  501    0  0.00000000000E+00  0.00000000000E+00 -0.14246098873E+04  0.14246098873E+04  0.50400001928E-02 0. -1.
    10030    2    1    2    0    0  0.00000000000E+00  0.00000000000E+00  0.14453891719E+03  0.29937586918E+04  0.29902674807E+04 0.  0.
        4    1    3    3  502    0 -0.10179793894E+04 -0.12117656611E+03  0.11618679500E+04  0.15494852512E+04  0.12699999809E+01 0.  1.
       -4    1    3    3    0  502  0.10179793894E+04  0.12117656611E+03 -0.10173290329E+04  0.14442734406E+04  0.12699999809E+01 0. -1.
</event>
<event>
 5   0  0.1235960E-06  0.3081641E+04  0.7818609E-02  0.8220794E-01
       -1   -1    0    0    0  501  0.00000000000E+00  0.00000000000E+00  0.14399033517E+04  0.14399033517E+04  0.50400001928E-02 0. -1.
        1   -1    0    0  501    0  0.00000000000E+00  0.00000000000E+00 -0.16488109095E+04  0.16488109095E+04  0.50400001928E-02 0.  1.
    10030    2    1    2    0    0  0.00000000000E+00  0.00000000000E+00 -0.20890755779E+03  0.30887142611E+04  0.30816413515E+04 0.  0.
        4    1    3    3  502    0  0.74450390370E+03  0.94106829746E+03  0.86432096797E+03  0.14788333076E+04  0.12699999809E+01 0. -1.
       -4    1    3    3    0  502 -0.74450390370E+03 -0.94106829746E+03 -0.10732285258E+04  0.16098809535E+04  0.12699999809E+01 0.  1.
</event>
<event>
 5   0  0.3441897E-06  0.3090692E+04  0.7818609E-02  0.8218297E-01
       -2   -1    0    0    0  501  0.00000000000E+00  0.00000000000E+00  0.15561248709E+04  0.15561248709E+04  0.25500000920E-02 0.  1.
        2   -1    0    0  501    0  0.00000000000E+00  0.00000000000E+00 -0.15346414853E+04  0.15346414853E+04  0.25500000920E-02 0. -1.
    10030    2    1    2    0    0  0.00000000000E+00  0.00000000000E+00  0.21483385668E+02  0.30907663562E+04  0.30906916916E+04 0.  0.
        5    1    3    3  502    0  0.41982455478E+03 -0.14442204454E+04 -0.34429694097E+03  0.15429153656E+04  0.46999998093E+01 0. -1.
       -5    1    3    3    0  502 -0.41982455478E+03  0.14442204454E+04  0.36578032664E+03  0.15478509906E+04  0.46999998093E+01 0.  1.
</event>
<event>
 5   0  0.1250276E-06  0.3081091E+04  0.7818609E-02  0.8220947E-01
        1   -1    0    0  501    0  0.00000000000E+00  0.00000000000E+00  0.26348320296E+04  0.26348320296E+04  0.50400001928E-02 0.  1.
       -1   -1    0    0    0  501  0.00000000000E+00  0.00000000000E+00 -0.90073285088E+03  0.90073285089E+03  0.50400001928E-02 0. -1.
    10030    2    1    2    0    0  0.00000000000E+00  0.00000000000E+00  0.17340991788E+04  0.35355648805E+04  0.30810905639E+04 0.  0.
        5    1    3    3  502    0 -0.58997565440E+03  0.26219403984E+03 -0.73799717539E+03  0.98055030885E+03  0.46999998093E+01 0. -1.
       -5    1    3    3    0  502  0.58997565440E+03 -0.26219403984E+03  0.24720963541E+04  0.25550145717E+04  0.46999998093E+01 0.  1.
</event>
<event>
 5   0  0.1109562E-06  0.2645850E+04  0.7818609E-02  0.8352792E-01
        3   -1    0    0  501    0  0.00000000000E+00  0.00000000000E+00  0.72483976536E+03  0.72483977240E+03  0.10100000352E+00 0.  1.
       -3   -1    0    0    0  501  0.00000000000E+00  0.00000000000E+00 -0.24145058882E+04  0.24145058903E+04  0.10100000352E+00 0. -1.
    10030    2    1    2    0    0  0.00000000000E+00  0.00000000000E+00 -0.16896661229E+04  0.31393456627E+04  0.26458495013E+04 0.  0.
        2    1    3    3  502    0  0.74947786502E+03 -0.67527535782E+03  0.17060378000E+03  0.10231419886E+04  0.25500000920E-02 0.  1.
       -2    1    3    3    0  502 -0.74947786502E+03  0.67527535782E+03 -0.18602699029E+04  0.21162036742E+04  0.25500000920E-02 0. -1.
</event>
<event>
 5   0  0.3374790E-06  0.3058999E+04  0.7818609E-02  0.8227081E-01
       -2   -1    0    0    0  501  0.00000000000E+00  0.00000000000E+00  0.13837531203E+04  0.13837531203E+04  0.25500000920E-02 0. -1.
        2   -1    0    0  501    0  0.00000000000E+00  0.00000000000E+00 -0.16905968615E+04  0.16905968615E+04  0.25500000920E-02 0.  1.
    10030    2    1    2    0    0  0.00000000000E+00  0.00000000000E+00 -0.30684374118E+03  0.30743499818E+04  0.30589989750E+04 0.  0.
        2    1    3    3  502    0  0.12173290034E+04 -0.45074084196E+02  0.77612342055E+03  0.14443992313E+04  0.25500000920E-02 0. -1.
       -2    1    3    3    0  502 -0.12173290034E+04  0.45074084196E+02 -0.10829671617E+04  0.16299507505E+04  0.25500000920E-02 0.  1.
</event>
<event>
 5   0  0.1211008E-06  0.3101391E+04  0.7818609E-02  0.8215356E-01
        1   -1    0    0  501    0  0.00000000000E+00  0.00000000000E+00  0.20240710273E+04  0.20240710273E+04  0.50400001928E-02 0. -1.
       -1   -1    0    0    0  501  0.00000000000E+00  0.00000000000E+00 -0.11880295900E+04  0.11880295900E+04  0.50400001928E-02 0.  1.
    10030    2    1    2    0    0  0.00000000000E+00  0.00000000000E+00  0.83604143730E+03  0.32121006172E+04  0.31013908316E+04 0.  0.
        3    1    3    3  502    0 -0.85103099214E+03  0.10496489057E+04 -0.36981696670E+03  0.14009929243E+04  0.10100000352E+00 0.  1.
       -3    1    3    3    0  502  0.85103099214E+03 -0.10496489057E+04  0.12058584040E+04  0.18111076930E+04  0.10100000352E+00 0. -1.
</event>
<event>
 5   0  0.3340899E-06  0.3111093E+04  0.7818609E-02  0.8212700E-01
        2   -1    0    0  501    0  0.00000000000E+00  0.00000000000E+00  0.18030668289E+04  0.18030668289E+04  0.25500000920E-02 0.  1.
       -2   -1    0    0    0  501  0.00000000000E+00  0.00000000000E+00 -0.13420049471E+04  0.13420049471E+04  0.25500000920E-02 0. -1.
    10030    2    1    2    0    0  0.00000000000E+00  0.00000000000E+00  0.46106188175E+03  0.31450717760E+04  0.31110928012E+04 0.  0.
        3    1    3    3  502    0 -0.53537259923E+03  0.68197333866E+03 -0.10750906671E+04  0.13811341019E+04  0.10100000352E+00 0. -1.
       -3    1    3    3    0  502  0.53537259923E+03 -0.68197333866E+03  0.15361525489E+04  0.17639376742E+04  0.10100000352E+00 0.  1.
</event>
<event>
 5   0  0.3445959E-06  0.3108091E+04  0.7818609E-02  0.8213521E-01
        2   -1    0    0  501    0  0.00000000000E+00  0.00000000000E+00  0.24466783407E+04  0.24466783407E+04  0.25500000920E-02 0. -1.
       -2   -1    0    0    0  501  0.00000000000E+00  0.00000000000E+00 -0.98707613345E+03  0.98707613345E+03  0.25500000920E-02 0.  1.
    10030    2    1    2    0    0  0.00000000000E+00  0.00000000000E+00  0.14596022073E+04  0.34337544742E+04  0.31080912447E+04 0.  0.
        4    1    3    3  502    0 -0.45101423848E+03  0.20259509954E+03  0.23574665133E+04  0.24087566485E+04  0.12699999809E+01 0. -1.
       -4    1    3    3    0  502  0.45101423848E+03 -0.20259509954E+03 -0.89786430602E+03  0.10249978256E+04  0.12699999809E+01 0.  1.
</event>
<event>
 5   0  0.3445959E-06  0.2973213E+04  0.7818609E-02  0.8251422E-01
        2   -1    0    0  501    0  0.00000000000E+00  0.00000000000E+00  0.16060759549E+04  0.16060759549E+04  0.25500000920E-02 0. -1.
       -2   -1    0    0    0  501  0.00000000000E+00  0.00000000000E+00 -0.13760235634E+04  0.13760235634E+04  0.25500000920E-02 0.  1.
    10030    2    1    2    0    0  0.00000000000E+00  0.00000000000E+00  0.23005239145E+03  0.29820995183E+04  0.29732126453E+04 0.  0.
        4    1    3    3  502    0  0.12024338643E+04 -0.51522876656E+03  0.82331601145E+03  0.15456903789E+04  0.12699999809E+01 0. -1.
       -4    1    3    3    0  502 -0.12024338643E+04  0.51522876656E+03 -0.59326362000E+03  0.14364091393E+04  0.12699999809E+01 0.  1.
</event>
<event>
 5   0  0.1171915E-06  0.3111482E+04  0.7818609E-02  0.8212594E-01
        1   -1    0    0  501    0  0.00000000000E+00  0.00000000000E+00  0.13583886984E+04  0.13583886984E+04  0.50400001928E-02 0.  1.
       -1   -1    0    0    0  501  0.00000000000E+00  0.00000000000E+00 -0.17817657008E+04  0.17817657008E+04  0.50400001928E-02 0. -1.
    10030    2    1    2    0    0  0.00000000000E+00  0.00000000000E+00 -0.42337700235E+03  0.31401543992E+04  0.31114822135E+04 0.  0.
        2    1    3    3  502    0 -0.61816291165E+03 -0.87428940985E+03 -0.13507265422E+04  0.17236500658E+04  0.25500000920E-02 0. -1.
       -2    1    3    3    0  502  0.61816291165E+03  0.87428940985E+03  0.92734953985E+03  0.14165043334E+04  0.25500000920E-02 0.  1.
</event>
<event>
 5   0  0.3445410E-06  0.3099157E+04  0.7818609E-02  0.8215969E-01
       -2   -1    0    0    0  501  0.00000000000E+00  0.00000000000E+00  0.15294008775E+04  0.15294008775E+04  0.25500000920E-02 0. -1.
        2   -1    0    0  501    0  0.00000000000E+00  0.00000000000E+00 -0.15700220154E+04  0.15700220154E+04  0.25500000920E-02 0.  1.
    10030    2    1    2    0    0  0.00000000000E+00  0.00000000000E+00 -0.40621137818E+02  0.30994228929E+04  0.30991566905E+04 0.  0.
        1    1    3    3  502    0  0.13879595259E+03  0.45655753879E+03 -0.14947112420E+04  0.15690349899E+04  0.50400001928E-02 0.  1.
       -1    1    3    3    0  502 -0.13879595259E+03 -0.45655753879E+03  0.14540901041E+04  0.15303879030E+04  0.50400001928E-02 0. -1.
</event>
<event>
 5   0  0.1198763E-06  0.3134507E+04  0.7818609E-02  0.8206331E-01
        1   -1    0    0  501    0  0.00000000000E+00  0.00000000000E+00  0.79147892258E+03  0.79147892259E+03  0.50400001928E-02 0. -1.
       -1   -1    0    0    0  501  0.00000000000E+00  0.00000000000E+00 -0.31034098699E+04  0.31034098699E+04  0.50400001928E-02 0.  1.
    10030    2    1    2    0    0  0.00000000000E+00  0.00000000000E+00 -0.23119309473E+04  0.38948887925E+04  0.31345069789E+04 0.  0.
        1    1    3    3  502    0  0.12853725311E+04  0.30785145361E+03 -0.10944071535E+03  0.13262474623E+04  0.50400001928E-02 0. -1.
       -1    1    3    3    0  502 -0.12853725311E+04 -0.30785145361E+03 -0.22024902320E+04  0.25686413302E+04  0.50400001928E-02 0.  1.
</event>
<event>
 5   0  0.1250276E-06  0.3122397E+04  0.7818609E-02  0.8209618E-01
       -1   -1    0    0    0  501  0.00000000000E+00  0.00000000000E+00  0.17135474713E+04  0.17135474713E+04  0.50400001928E-02 0. -1.
        1   -1    0    0  501    0  0.00000000000E+00  0.00000000000E+00 -0.14223946263E+04  0.14223946263E+04  0.50400001928E-02 0.  1.
    10030    2    1    2    0    0  0.00000000000E+00  0.00000000000E+00  0.29115284495E+03  0.31359420976E+04  0.31223969735E+04 0.  0.
        5    1    3    3  502    0 -0.15489868791E+04 -0.13634201338E+03  0.28535318052E+03  0.15809484570E+04  0.46999998093E+01 0. -1.
       -5    1    3    3    0  502  0.15489868791E+04  0.13634201338E+03  0.57996644253E+01  0.15549936406E+04  0.46999998093E+01 0.  1.
</event>
<event>
 5   0  0.3445410E-06  0.2880327E+04  0.7818609E-02  0.8278755E-01
        2   -1    0    0  501    0  0.00000000000E+00  0.00000000000E+00  0.28624069246E+04  0.28624069246E+04  0.25500000920E-02 0. -1.
       -2   -1    0    0    0  501  0.00000000000E+00  0.00000000000E+00 -0.72458997224E+03  0.72458997224E+03  0.25500000920E-02 0.  1.
    10030    2    1    2    0    0  0.00000000000E+00  0.00000000000E+00  0.21378169523E+04  0.35869968968E+04  0.28803273106E+04 0.  0.
        1    1    3    3  502    0 -0.33814679891E+03 -0.13145603182E+04  0.16683046922E+04  0.21507330457E+04  0.50400001928E-02 0. -1.
       -1    1    3    3    0  502  0.33814679891E+03  0.13145603182E+04  0.46951226013E+03  0.14362638511E+04  0.50400001928E-02 0.  1.
</event>
<event>
 5   0  0.1250276E-06  0.3116400E+04  0.7818609E-02  0.8211251E-01
        1   -1    0    0  501    0  0.00000000000E+00  0.00000000000E+00  0.27317386381E+04  0.27317386381E+04  0.50400001928E-02 0. -1.
       -1   -1    0    0    0  501  0.00000000000E+00  0.00000000000E+00 -0.88880662015E+03  0.88880662017E+03  0.50400001928E-02 0.  1.
    10030    2    1    2    0    0  0.00000000000E+00  0.00000000000E+00  0.18429320179E+04  0.36205452582E+04  0.31164000937E+04 0.  0.
        5    1    3    3  502    0  0.77645577928E+03  0.63742966416E+03  0.23052746137E+04  0.25146596765E+04  0.46999998093E+01 0. -1.
       -5    1    3    3    0  502 -0.77645577928E+03 -0.63742966416E+03 -0.46234259584E+03  0.11058855817E+04  0.46999998093E+01 0.  1.
</event>
<event>
 5   0  0.1211008E-06  0.3112326E+04  0.7818609E-02  0.8212363E-01
       -1   -1    0    0    0  501  0.00000000000E+00  0.00000000000E+00  0.16498375428E+04  0.16498375428E+04  0.50400001928E-02 0. -1.
        1   -1    0    0  501    0  0.00000000000E+00  0.00000000000E+00 -0.14678075194E+04  0.14678075194E+04  0.50400001928E-02 0.  1.
    10030    2    1    2    0    0  0.00000000000E+00  0.00000000000E+00  0.18203002343E+03  0.31176450622E+04  0.31123264296E+04 0.  0.
        3    1    3    3  502    0  0.10380412599E+04 -0.49062544457E+02  0.12513152902E+04  0.16265690137E+04  0.10100000352E+00 0. -1.
       -3    1    3    3    0  502 -0.10380412599E+04  0.49062544457E+02 -0.10692852668E+04  0.14910760485E+04  0.10100000352E+00 0.  1.
</event>
<event>
 5   0  0.1235960E-06  0.3106080E+04  0.7818609E-02  0.8214071E-01
        1   -1    0    0  501    0  0.00000000000E+00  0.00000000000E+00  0.10195761655E+04  0.10195761655E+04  0.50400001928E-02 0.  1.
       -1   -1    0    0    0  501  0.00000000000E+00  0.00000000000E+00 -0.23656240222E+04  0.23656240222E+04  0.50400001928E-02 0. -1.
    10030    2    1    2    0    0  0.00000000000E+00  0.00000000000E+00 -0.13460478566E+04  0.33852001877E+04  0.31060804044E+04 0.  0.
        4    1    3    3  502    0 -0.98305607328E+02  0.14482858997E+03  0.10087905043E+04  0.10238648384E+04  0.12699999809E+01 0.  1.
       -4    1    3    3    0  502  0.98305607328E+02 -0.14482858997E+03 -0.23548383609E+04  0.23613353493E+04  0.12699999809E+01 0. -1.
</event>
<event>
 5   0  0.3441897E-06  0.2879584E+04  0.7818609E-02  0.8278978E-01
       -2   -1    0    0    0  501  0.00000000000E+00  0.00000000000E+00  0.13219710034E+04  0.13219710034E+04  0.25500000920E-02 0. -1.
        2   -1    0    0  501    0  0.00000000000E+00  0.00000000000E+00 -0.15681141206E+04  0.15681141206E+04  0.25500000920E-02 0.  1.
    10030    2    1    2    0    0  0.00000000000E+00  0.00000000000E+00 -0.24614311719E+03  0.28900851239E+04  0.28795842737E+04 0.  0.
        5    1    3    3  502    0  0.72538701630E+02 -0.39109071969E+03 -0.15118681362E+04  0.15633237558E+04  0.46999998093E+01 0.  1.
       -5    1    3    3    0  502 -0.72538701630E+02  0.39109071969E+03  0.12657250190E+04  0.13267613681E+04  0.46999998093E+01 0. -1.
</event>
<event>
 5   0  0.3445410E-06  0.3095659E+04  0.7818609E-02  0.8216930E-01
       -2   -1    0    0    0  501  0.00000000000E+00  0.00000000000E+00  0.11871846735E+04  0.11871846735E+04  0.25500000920E-02 0.  1.
        2   -1    0    0  501    0  0.00000000000E+00  0.00000000000E+00 -0.20180315632E+04  0.20180315632E+04  0.25500000920E-02 0. -1.
    10030    2    1    2    0    0  0.00000000000E+00  0.00000000000E+00 -0.83084688976E+03  0.32052162367E+04  0.30956589879E+04 0.  0.
        1    1    3    3  502    0 -0.30089737770E+03  0.92922089852E+03 -0.16586621922E+04  0.19248768734E+04  0.50400001928E-02 0.  1.
       -1    1    3    3    0  502  0.30089737770E+03 -0.92922089852E+03  0.82781530240E+03  0.12803393632E+04  0.50400001928E-02 0. -1.
</event>
<event>
 5   0  0.1171915E-06  0.3091636E+04  0.7818609E-02  0.8218037E-01
       -1   -1    0    0    0  501  0.00000000000E+00  0.00000000000E+00  0.85103803745E+03  0.85103803746E+03  0.50400001928E-02 0. -1.
        1   -1    0    0  501    0  0.00000000000E+00  0.00000000000E+00 -0.28078100625E+04  0.28078100625E+04  0.50400001928E-02 0.  1.
    10030    2    1    2    0    0  0.00000000000E+00  0.00000000000E+00 -0.19567720250E+04  0.36588480999E+04  0.30916359198E+04 0.  0.
        2    1    3    3  502    0 -0.10324635062E+04  0.11430191147E+04 -0.11330519176E+04  0.19121402240E+04  0.25500000920E-02 0. -1.
       -2    1    3    3    0  502  0.10324635062E+04 -0.11430191147E+04 -0.82372010737E+03  0.17467078759E+04  0.25500000920E-02 0.  1.
</event>
<event>
 5   0  0.1250276E-06  0.3118826E+04  0.7818609E-02  0.8210590E-01
       -1   -1    0    0    0  501  0.00000000000E+00  0.00000000000E+00  0.10393858352E+04  0.10393858352E+04  0.50400001928E-02 0. -1.
        1   -1    0    0  501    0  0.00000000000E+00  0.00000000000E+00 -0.23396203957E+04  0.23396203958E+04  0.50400001928E-02 0.  1.
    10030    2    1    2    0    0  0.00000000000E+00  0.00000000000E+00 -0.13002345606E+04  0.33790062310E+04  0.31188256117E+04 0.  0.
        5    1    3    3  502    0  0.71703746178E+03  0.18064819708E+03  0.83735913775E+03  0.11171252876E+04  0.46999998093E+01 0. -1.
       -5    1    3    3    0  502 -0.71703746178E+03 -0.18064819708E+03 -0.21375936983E+04  0.22618809433E+04  0.46999998093E+01 0.  1.
</event>
<event>
 5   0  0.3340899E-06  0.3154197E+04  0.7818609E-02  0.8201019E-01
        2   -1    0    0  501    0  0.00000000000E+00  0.00000000000E+00  0.25988421837E+04  0.25988421837E+04  0.25500000920E-02 0.  1.
       -2   -1    0    0    0  501  0.00000000000E+00  0.00000000000E+00 -0.95705708346E+03  0.95705708347E+03  0.25500000920E-02 0. -1.
    10030    2    1    2    0    0  0.00000000000E+00  0.00000000000E+00  0.16417851003E+04  0.35558992672E+04  0.31541974071E+04 0.  0.
        3    1    3    3  502    0  0.19494591266E+03  0.26166690788E+02  0.25849601316E+04  0.25924327372E+04  0.10100000352E+00 0.  1.
       -3    1    3    3    0  502 -0.19494591266E+03 -0.26166690788E+02 -0.94317503133E+03  0.96346653003E+03  0.10100000352E+00 0. -1.
</event>
<event>
 5   0  0.3445410E-06  0.3080317E+04  0.7818609E-02  0.8221161E-01
       -2   -1    0    0    0  501  0.00000000000E+00  0.00000000000E+00  0.14219889200E+04  0.14219889200E+04  0.25500000920E-02 0.  1.
        2   -1    0    0  501    0  0.00000000000E+00  0.00000000000E+00 -0.16681482515E+04  0.16681482515E+04  0.25500000920E-02 0. -1.
    10030    2    1    2    0    0  0.00000000000E+00  0.00000000000E+00 -0.24615933148E+03  0.30901371715E+04  0.30803170814E+04 0.  0.
        1    1    3    3  502    0  0.92787455487E+03 -0.25355308348E+03  0.10836049738E+04  0.14489444761E+04  0.50400001928E-02 0.  1.
       -1    1    3    3    0  502 -0.92787455487E+03  0.25355308348E+03 -0.13297643053E+04  0.16411926954E+04  0.50400001928E-02 0. -1.
</event>
<event>
 5   0  0.1109562E-06  0.3124993E+04  0.7818609E-02  0.8208912E-01
       -3   -1    0    0    0  501  0.00000000000E+00  0.00000000000E+00  0.17824432770E+04  0.17824432799E+04  0.10100000352E+00 0.  1.
        3   -1    0    0  501    0  0.00000000000E+00  0.00000000000E+00 -0.13696902242E+04  0.13696902279E+04  0.10100000352E+00 0. -1.
    10030    2    1    2    0    0  0.00000000000E+00  0.00000000000E+00  0.41275305287E+03  0.31521335078E+04  0.31249928909E+04 0.  0.
        1    1    3    3  502    0  0.84927763825E+03  0.12380261886E+04 -0.23029647710E+03  0.15188870326E+04  0.50400001928E-02 0. -1.
       -1    1    3    3    0  502 -0.84927763825E+03 -0.12380261886E+04  0.64304952996E+03  0.16332464751E+04  0.50400001928E-02 0.  1.
</event>
<event>
 5   0  0.1171915E-06  0.2857631E+04  0.7818609E-02  0.8285596E-01
       -1   -1    0    0    0  501  0.00000000000E+00  0.00000000000E+00  0.13398419913E+04  0.13398419914E+04  0.50400001928E-02 0. -1.
        1   -1    0    0  501    0  0.00000000000E+00  0.00000000000E+00 -0.15236975115E+04  0.15236975115E+04  0.50400001928E-02 0.  1.
    10030    2    1    2    0    0  0.00000000000E+00  0.00000000000E+00 -0.18385552011E+03  0.28635395028E+04  0.28576311224E+04 0.  0.
        2    1    3    3  502    0 -0.61610274850E+02 -0.89804672894E+03  0.10199745518E+04  0.13603793000E+04  0.25500000920E-02 0. -1.
       -2    1    3    3    0  502  0.61610274850E+02  0.89804672894E+03 -0.12038300720E+04  0.15031602029E+04  0.25500000920E-02 0.  1.
</event>
<event>
 5   0  0.1250276E-06  0.3098028E+04  0.7818609E-02  0.8216279E-01
        1   -1    0    0  501    0  0.00000000000E+00  0.00000000000E+00  0.20237434094E+04  0.20237434094E+04  0.50400001928E-02 0.  1.
       -1   -1    0    0    0  501  0.00000000000E+00  0.00000000000E+00 -0.11856463563E+04  0.11856463563E+04  0.50400001928E-02 0. -1.
    10030    2    1    2    0    0  0.00000000000E+00  0.00000000000E+00  0.83809705312E+03  0.32093897657E+04  0.30980277593E+04 0.  0.
        5    1    3    3  502    0 -0.12840864434E+04 -0.13211460300E+03  0.13060323547E+04  0.18363210133E+04  0.46999998093E+01 0.  1.
       -5    1    3    3    0  502  0.12840864434E+04  0.13211460300E+03 -0.46793530154E+03  0.13730687524E+04  0.46999998093E+01 0. -1.
</event>
<event>
 5   0  0.1171915E-06  0.3083032E+04  0.7818609E-02  0.8220410E-01
       -1   -1    0    0    0  501  0.00000000000E+00  0.00000000000E+00  0.15135735942E+04  0.15135735942E+04  0.50400001928E-02 0.  1.
        1   -1    0    0  501    0  0.00000000000E+00  0.00000000000E+00 -0.15699742772E+04  0.15699742772E+04  0.50400001928E-02 0. -1.
    10030    2    1    2    0    0  0.00000000000E+00  0.00000000000E+00 -0.56400682983E+02  0.30835478714E+04  0.30830320203E+04 0.  0.
        2    1    3    3  502    0  0.12109914126E+04 -0.68742837317E+03  0.63313161820E+03  0.15296776182E+04  0.25500000920E-02 0.  1.
       -2    1    3    3    0  502 -0.12109914126E+04  0.68742837317E+03 -0.68953230118E+03  0.15538702533E+04  0.25500000920E-02 0. -1.
</event>
<event>
 5   0  0.1250276E-06  0.3075497E+04  0.7818609E-02  0.8222495E-01
        1   -1    0    0  501    0  0.00000000000E+00  0.00000000000E+00  0.16596631165E+04  0.16596631165E+04  0.50400001928E-02 0.  1.
       -1   -1    0    0    0  501  0.00000000000E+00  0.00000000000E+00 -0.14247896177E+04  0.14247896177E+04  0.50400001928E-02 0. -1.
    10030    2    1    2    0    0  0.00000000000E+00  0.00000000000E+00  0.23487349883E+03  0.30844527342E+04  0.30754972133E+04 0.  0.
        5    1    3    3  502    0  0.11042157661E+04  0.10500300175E+04 -0.90030772642E+02  0.15264282249E+04  0.46999998093E+01 0. -1.
       -5    1    3    3    0  502 -0.11042157661E+04 -0.10500300175E+04  0.32490427147E+03  0.15580245093E+04  0.46999998093E+01 0.  1.
</event>
<event>
 5   0  0.1171915E-06  0.3048414E+04  0.7818609E-02  0.8230040E-01
        1   -1    0    0  501    0  0.00000000000E+00  0.00000000000E+00  0.19723131407E+04  0.19723131407E+04  0.50400001928E-02 0.  1.
       -1   -1    0    0    0  501  0.00000000000E+00  0.00000000000E+00 -0.11779094856E+04  0.11779094856E+04  0.50400001928E-02 0. -1.
    10030    2    1    2    0    0  0.00000000000E+00  0.00000000000E+00  0.79440365503E+03  0.31502226263E+04  0.30484135920E+04 0.  0.
        2    1    3    3  502    0  0.59239800036E+03  0.80654266939E+03 -0.79087258124E+03  0.12755100580E+04  0.25500000920E-02 0. -1.
       -2    1    3    3    0  502 -0.59239800036E+03 -0.80654266939E+03  0.15852762363E+04  0.18747125683E+04  0.25500000920E-02 0.  1.
</event>
<event>
 5   0  0.3340899E-06  0.2938985E+04  0.7818609E-02  0.8261372E-01
        2   -1    0    0  501    0  0.00000000000E+00  0.00000000000E+00  0.15544813355E+04  0.15544813355E+04  0.25500000920E-02 0.  1.
       -2   -1    0    0    0  501  0.00000000000E+00  0.00000000000E+00 -0.13891504339E+04  0.13891504339E+04  0.25500000920E-02 0. -1.
    10030    2    1    2    0    0  0.00000000000E+00  0.00000000000E+00  0.16533090164E+03  0.29436317694E+04  0.29389851457E+04 0.  0.
        3    1    3    3  502    0  0.72295013512E+03 -0.12395506380E+04  0.39981372270E+03  0.14896287138E+04  0.10100000352E+00 0. -1.
       -3    1    3    3    0  502 -0.72295013512E+03  0.12395506380E+04 -0.23448282106E+03  0.14540030555E+04  0.10100000352E+00 0.  1.
</event>
<event>
 5   0  0.3374790E-06  0.3057984E+04  0.7818609E-02  0.8227364E-01
       -2   -1    0    0    0  501  0.00000000000E+00  0.00000000000E+00  0.10958306095E+04  0.10958306095E+04  0.25500000920E-02 0. -1.
        2   -1    0    0  501    0  0.00000000000E+00  0.00000000000E+00 -0.21333734146E+04  0.21333734146E+04  0.25500000920E-02 0.  1.
    10030    2    1    2    0    0  0.00000000000E+00  0.00000000000E+00 -0.10375428052E+04  0.32292040241E+04  0.30579835769E+04 0.  0.
        2    1    3    3  502    0  0.11019476791E+04  0.81231359180E+03  0.20029107827E+03  0.13835673366E+04  0.25500000920E-02 0. -1.
       -2    1    3    3    0  502 -0.11019476791E+04 -0.81231359180E+03 -0.12378338834E+04  0.18456366874E+04  0.25500000920E-02 0.  1.
</event>
<event>
 5   0  0.3445410E-06  0.3225024E+04  0.7818609E-02  0.8182240E-01
        2   -1    0    0  501    0  0.00000000000E+00  0.00000000000E+00  0.17884382423E+04  0.17884382423E+04  0.25500000920E-02 0.  1.
       -2   -1    0    0    0  501  0.00000000000E+00  0.00000000000E+00 -0.14538910053E+04  0.14538910053E+04  0.25500000920E-02 0. -1.
    10030    2    1    2    0    0  0.00000000000E+00  0.00000000000E+00  0.33454723698E+03  0.32423292476E+04  0.32250235807E+04 0.  0.
        1    1    3    3  502    0 -0.13978410678E+04 -0.43291537814E+03  0.84827010053E+03  0.16914306190E+04  0.50400001928E-02 0.  1.
       -1    1    3    3    0  502  0.13978410678E+04  0.43291537814E+03 -0.51372286354E+03  0.15508986285E+04  0.50400001928E-02 0. -1.
</event>
<event>
 5   0  0.1171915E-06  0.3129413E+04  0.7818609E-02  0.8207712E-01
       -1   -1    0    0    0  501  0.00000000000E+00  0.00000000000E+00  0.22138166864E+04  0.22138166864E+04  0.50400001928E-02 0. -1.
        1   -1    0    0  501    0  0.00000000000E+00  0.00000000000E+00 -0.11059208300E+04  0.11059208300E+04  0.50400001928E-02 0.  1.
    10030    2    1    2    0    0  0.00000000000E+00  0.00000000000E+00  0.11078958564E+04  0.33197375165E+04  0.31294127164E+04 0.  0.
        2    1    3    3  502    0 -0.12386907441E+04  0.34946707319E+03 -0.39001563711E+03  0.13448398388E+04  0.25500000920E-02 0.  1.
       -2    1    3    3    0  502  0.12386907441E+04 -0.34946707319E+03  0.14979114935E+04  0.19748976776E+04  0.25500000920E-02 0. -1.
</event>
<event>
 5   0  0.3445959E-06  0.3081742E+04  0.7818609E-02  0.8220766E-01
       -2   -1    0    0    0  501  0.00000000000E+00  0.00000000000E+00  0.12153660288E+04  0.12153660288E+04  0.25500000920E-02 0. -1.
        2   -1    0    0  501    0  0.00000000000E+00  0.00000000000E+00 -0.19535547984E+04  0.19535547984E+04  0.25500000920E-02 0.  1.
    10030    2    1    2    0    0  0.00000000000E+00  0.00000000000E+00 -0.73818876960E+03  0.31689208272E+04  0.30817424535E+04 0.  0.
        4    1    3    3  502    0  0.53348412413E+03  0.13768133582E+04 -0.82208114871E+03  0.16899820596E+04  0.12699999809E+01 0.  1.
       -4    1    3    3    0  502 -0.53348412413E+03 -0.13768133582E+04  0.83892379108E+02  0.14789387675E+04  0.12699999809E+01 0. -1.
</event>
<event>
 5   0  0.1198763E-06  0.3016396E+04  0.7818609E-02  0.8239064E-01
        1   -1    0    0  501    0  0.00000000000E+00  0.00000000000E+00  0.17368307408E+04  0.17368307408E+04  0.50400001928E-02 0. -1.
       -1   -1    0    0    0  501  0.00000000000E+00  0.00000000000E+00 -0.13096615905E+04  0.13096615905E+04  0.50400001928E-02 0.  1.
    10030    2    1    2    0    0  0.00000000000E+00  0.00000000000E+00  0.42716915025E+03  0.30464923313E+04  0.30163955380E+04 0.  0.
        1    1    3    3  502    0 -0.27584697862E+03 -0.11362966640E+04  0.11756639646E+04  0.16581457783E+04  0.50400001928E-02 0. -1.
       -1    1    3    3    0  502  0.27584697862E+03  0.11362966640E+04 -0.74849481438E+03  0.13883465531E+04  0.50400001928E-02 0.  1.
</event>
<event>
 5   0  0.1235960E-06  0.3083364E+04  0.7818609E-02  0.8220318E-01
       -1   -1    0    0    0  501  0.00000000000E+00  0.00000000000E+00  0.10290847001E+04  0.10290847001E+04  0.50400001928E-02 0.  1.
        1   -1    0    0  501    0  0.00000000000E+00  0.00000000000E+00 -0.23096085526E+04  0.23096085526E+04  0.50400001928E-02 0. -1.
    10030    2    1    2    0    0  0.00000000000E+00  0.00000000000E+00 -0.12805238525E+04  0.33386932527E+04  0.30833636339E+04 0.  0.
        4    1    3    3  502    0  0.73796460599E+02 -0.80686066051E+03 -0.20604807940E+04  0.22140579844E+04  0.12699999809E+01 0. -1.
       -4    1    3    3    0  502 -0.73796460599E+02  0.80686066051E+03  0.77995694150E+03  0.11246352682E+04  0.12699999809E+01 0.  1.
</event>
<event>
 5   0  0.3340899E-06  0.3070239E+04  0.7818609E-02  0.8223953E-01
        2   -1    0    0  501    0  0.00000000000E+00  0.00000000000E+00  0.16744046378E+04  0.16744046378E+04  0.25500000920E-02 0. -1.
       -2   -1    0    0    0  501  0.00000000000E+00  0.00000000000E+00 -0.14074209086E+04  0.14074209086E+04  0.25500000920E-02 0.  1.
    10030    2    1    2    0    0  0.00000000000E+00  0.00000000000E+00  0.26698372911E+03  0.30818255464E+04  0.30702391416E+04 0.  0.
        3    1    3    3  502    0 -0.58516315500E+03 -0.81518958019E+03 -0.10326332748E+04  0.14398893916E+04  0.10100000352E+00 0.  1.
       -3    1    3    3    0  502  0.58516315500E+03  0.81518958019E+03  0.12996170039E+04  0.16419361548E+04  0.10100000352E+00 0. -1.
</event>
<event>
 5   0  0.1250276E-06  0.3065820E+04  0.7818609E-02  0.8225181E-01
       -1   -1    0    0    0  501  0.00000000000E+00  0.00000000000E+00  0.88381712034E+03  0.88381712035E+03  0.50400001928E-02 0.  1.
        1   -1    0    0  501    0  0.00000000000E+00  0.00000000000E+00 -0.26587098742E+04  0.26587098742E+04  0.50400001928E-02 0. -1.
    10030    2    1    2    0    0  0.00000000000E+00  0.00000000000E+00 -0.17748927539E+04  0.35425269946E+04  0.30658201545E+04 0.  0.
        5    1    3    3  502    0 -0.47044403343E+03 -0.12023730687E+04 -0.18422290853E+04  0.22496330095E+04  0.46999998093E+01 0. -1.
       -5    1    3    3    0  502  0.47044403343E+03  0.12023730687E+04  0.67336331396E+02  0.12928939850E+04  0.46999998093E+01 0.  1.
</event>
<event>
 5   0  0.3340899E-06  0.3098225E+04  0.7818609E-02  0.8216225E-01
        2   -1    0    0  501    0  0.00000000000E+00  0.00000000000E+00  0.20440080691E+04  0.20440080691E+04  0.25500000920E-02 0.  1.
       -2   -1    0    0    0  501  0.00000000000E+00  0.00000000000E+00 -0.11740409286E+04  0.11740409286E+04  0.25500000920E-02 0. -1.
    10030    2    1    2    0    0  0.00000000000E+00  0.00000000000E+00  0.86996714051E+03  0.32180489977E+04  0.30982247378E+04 0.  0.
        3    1    3    3  502    0  0.94654759251E+03 -0.11343290606E+04 -0.48970341135E+02  0.14781924323E+04  0.10100000352E+00 0. -1.
       -3    1    3    3    0  502 -0.94654759251E+03  0.11343290606E+04  0.91893748165E+03  0.17398565653E+04  0.10100000352E+00 0.  1.
</event>
<event>
 5   0  0.1235960E-06  0.3244312E+04  0.7818609E-02  0.8177211E-01
        1   -1    0    0  501    0  0.00000000000E+00  0.00000000000E+00  0.16406366519E+04  0.16406366519E+04  0.50400001928E-02 0.  1.
       -1   -1    0    0    0  501  0.00000000000E+00  0.00000000000E+00 -0.16038839071E+04  0.16038839071E+04  0.50400001928E-02 0. -1.
    10030    2    1    2    0    0  0.00000000000E+00  0.00000000000E+00  0.36752744852E+02  0.32445205590E+04  0.32443123915E+04 0.  0.
        4    1    3    3  502    0 -0.34172276341E+03 -0.14021102796E+04 -0.72241499038E+03  0.16138688653E+04  0.12699999809E+01 0. -1.
       -4    1    3    3    0  502  0.34172276341E+03  0.14021102796E+04  0.75916773523E+03  0.16306516937E+04  0.12699999809E+01 0.  1.
</event>
<event>
 5   0  0.1250276E-06  0.3109479E+04  0.7818609E-02  0.8213141E-01
       -1   -1    0    0    0  501  0.00000000000E+00  0.00000000000E+00  0.93794578234E+03  0.93794578235E+03  0.50400001928E-02 0.  1.
        1   -1    0    0  501    0  0.00000000000E+00  0.00000000000E+00 -0.25771366108E+04  0.25771366109E+04  0.50400001928E-02 0. -1.
    10030    2    1    2    0    0  0.00000000000E+00  0.00000000000E+00 -0.16391908285E+04  0.35150823932E+04  0.31094786796E+04 0.  0.
        5    1    3    3  502    0  0.97847817413E+03 -0.10956497247E+04 -0.24393061513E+03  0.14890910286E+04  0.46999998093E+01 0.  1.
       -5    1    3    3    0  502 -0.97847817413E+03  0.10956497247E+04 -0.13952602134E+04  0.20259913646E+04  0.46999998093E+01 0. -1.
</event>
<event>
 5   0  0.3441897E-06  0.3095606E+04  0.7818609E-02  0.8216945E-01
        2   -1    0    0  501    0  0.00000000000E+00  0.00000000000E+00  0.17631926805E+04  0.17631926805E+04  0.25500000920E-02 0. -1.
       -2   -1    0    0    0  501  0.00000000000E+00  0.00000000000E+00 -0.13587251602E+04  0.13587251602E+04  0.25500000920E-02 0.  1.
    10030    2    1    2    0    0  0.00000000000E+00  0.00000000000E+00  0.40446752032E+03  0.31219178407E+04  0.30956060843E+04 0.  0.
        5    1    3    3  502    0 -0.14337385041E+04 -0.53191111186E+03 -0.38830662541E+02  0.15297272435E+04  0.46999998093E+01 0. -1.
       -5    1    3    3    0  502  0.14337385041E+04  0.53191111186E+03  0.44329818286E+03  0.15921905973E+04  0.46999998093E+01 0.  1.
</event>
<event>
 5   0  0.1198763E-06  0.3113026E+04  0.7818609E-02  0.8212172E-01
        1   -1    0    0  501    0  0.00000000000E+00  0.00000000000E+00  0.15224316714E+04  0.15224316714E+04  0.50400001928E-02 0. -1.
       -1   -1    0    0    0  501  0.00000000000E+00  0.00000000000E+00 -0.15913574519E+04  0.15913574519E+04  0.50400001928E-02 0.  1.
    10030    2    1    2    0    0  0.00000000000E+00  0.00000000000E+00 -0.68925780490E+02  0.31137891233E+04  0.31130261710E+04 0.  0.
        1    1    3    3  502    0  0.39262750427E+03  0.11997357269E+04  0.87637041831E+03  0.15367326643E+04  0.50400001928E-02 0. -1.
       -1    1    3    3    0  502 -0.39262750427E+03 -0.11997357269E+04 -0.94529619880E+03  0.15770564590E+04  0.50400001928E-02 0.  1.
</event>
<event>
 5   0  0.3441897E-06  0.2628162E+04  0.7818609E-02  0.8358698E-01
       -2   -1    0    0    0  501  0.00000000000E+00  0.00000000000E+00  0.11353744530E+04  0.11353744530E+04  0.25500000920E-02 0. -1.
        2   -1    0    0  501    0  0.00000000000E+00  0.00000000000E+00 -0.15209161352E+04  0.15209161353E+04  0.25500000920E-02 0.  1.
    10030    2    1    2    0    0  0.00000000000E+00  0.00000000000E+00 -0.38554168223E+03  0.26562905883E+04  0.26281623429E+04 0.  0.
        5    1    3    3  502    0 -0.62872892352E+03 -0.98357270954E+03 -0.80261234237E+03  0.14166594497E+04  0.46999998093E+01 0. -1.
       -5    1    3    3    0  502  0.62872892352E+03  0.98357270954E+03  0.41707066014E+03  0.12396311386E+04  0.46999998093E+01 0.  1.
</event>
<event>
 5   0  0.1171915E-06  0.3093138E+04  0.7818609E-02  0.8217624E-01
       -1   -1    0    0    0  501  0.00000000000E+00  0.00000000000E+00  0.15753956735E+04  0.15753956735E+04  0.50400001928E-02 0. -1.
        1   -1    0    0  501    0  0.00000000000E+00  0.00000000000E+00 -0.15182696890E+04  0.15182696890E+04  0.50400001928E-02 0.  1.
    10030    2    1    2    0    0  0.00000000000E+00  0.00000000000E+00  0.57125984472E+02  0.30936653625E+04  0.30931378884E+04 0.  0.
        2    1    3    3  502    0 -0.35733804834E+03 -0.14741596440E+04  0.33034008647E+03  0.15524051371E+04  0.25500000920E-02 0.  1.
       -2    1    3    3    0  502  0.35733804834E+03  0.14741596440E+04 -0.27321410200E+03  0.15412602254E+04  0.25500000920E-02 0. -1.
</event>
<event>
 5   0  0.1211008E-06  0.3097762E+04  0.7818609E-02  0.8216352E-01
        1   -1    0    0  501    0  0.00000000000E+00  0.00000000000E+00  0.23546821492E+04  0.23546821492E+04  0.50400001928E-02 0. -1.
       -1   -1    0    0    0  501  0.00000000000E+00  0.00000000000E+00 -0.10188349157E+04  0.10188349157E+04  0.50400001928E-02 0.  1.
    10030    2    1    2    0    0  0.00000000000E+00  0.00000000000E+00  0.13358472335E+04  0.33735170649E+04  0.30977620238E+04 0.  0.
        3    1    3    3  502    0 -0.14682628780E+04  0.43005624200E+03  0.93084439914E+03  0.17908700556E+04  0.10100000352E+00 0. -1.
       -3    1    3    3    0  502  0.14682628780E+04 -0.43005624200E+03  0.40500283434E+03  0.15826470094E+04  0.10100000352E+00 0.  1.
</event>
<event>
 5   0  0.1250276E-06  0.3095668E+04  0.7818609E-02  0.8216928E-01
        1   -1    0    0  501    0  0.00000000000E+00  0.00000000000E+00  0.14295767575E+04  0.14295767575E+04  0.50400001928E-02 0.  1.
       -1   -1    0    0    0  501  0.00000000000E+00  0.00000000000E+00 -0.16758741145E+04  0.16758741145E+04  0.50400001928E-02 0. -1.
    10030    2    1    2    0    0  0.00000000000E+00  0.00000000000E+00 -0.24629735708E+03  0.31054508720E+04  0.30956683818E+04 0.  0.
        5    1    3    3  502    0 -0.72040243871E+03  0.24838198000E+03  0.12283634552E+04  0.14455352468E+04  0.46999998093E+01 0.  1.
       -5    1    3    3    0  502  0.72040243871E+03 -0.24838198000E+03 -0.14746608122E+04  0.16599156252E+04  0.46999998093E+01 0. -1.
</event>
<event>
 5   0  0.3374790E-06  0.3148836E+04  0.7818609E-02  0.8202462E-01
       -2   -1    0    0    0  501  0.00000000000E+00  0.00000000000E+00  0.12674714650E+04  0.12674714650E+04  0.25500000920E-02 0. -1.
        2   -1    0    0  501    0  0.00000000000E+00  0.00000000000E+00 -0.19556988762E+04  0.19556988762E+04  0.25500000920E-02 0.  1.
    10030    2    1    2    0    0  0.00000000000E+00  0.00000000000E+00 -0.68822741118E+03  0.32231703412E+04  0.31488363055E+04 0.  0.
        2    1    3    3  502    0 -0.83826210955E+03  0.10561789370E+04  0.48784330101E+03  0.14339415600E+04  0.25500000920E-02 0. -1.
       -2    1    3    3    0  502  0.83826210955E+03 -0.10561789370E+04 -0.11760707122E+04  0.17892287812E+04  0.25500000920E-02 0.  1.
</event>
<event>
 5   0  0.3445410E-06  0.3133329E+04  0.7818609E-02  0.8206650E-01
       -2   -1    0    0    0  501  0.00000000000E+00  0.00000000000E+00  0.13894441499E+04  0.13894441499E+04  0.25500000920E-02 0.  1.
        2   -1    0    0  501    0  0.00000000000E+00  0.00000000000E+00 -0.17664890967E+04  0.17664890967E+04  0.25500000920E-02 0. -1.
    10030    2    1    2    0    0  0.00000000000E+00  0.00000000000E+00 -0.37704494672E+03  0.31559332466E+04  0.31333291824E+04 0.  0.
        1    1    3    3  502    0  0.92719592961E+03 -0.36376482236E+03 -0.14065524121E+04  0.17234868221E+04  0.50400001928E-02 0. -1.
       -1    1    3    3    0  502 -0.92719592961E+03  0.36376482236E+03  0.10295074654E+04  0.14324464245E+04  0.50400001928E-02 0.  1.
</event>
<event>
 5   0  0.1198763E-06  0.3108094E+04  0.7818609E-02  0.8213520E-01
        1   -1    0    0  501    0  0.00000000000E+00  0.00000000000E+00  0.15363297354E+04  0.15363297354E+04  0.50400001928E-02 0. -1.
       -1   -1    0    0    0  501  0.00000000000E+00  0.00000000000E+00 -0.15719685887E+04  0.15719685887E+04  0.50400001928E-02 0.  1.
    10030    2    1    2    0    0  0.00000000000E+00  0.00000000000E+00 -0.35638853334E+02  0.31082983241E+04  0.31080940049E+04 0.  0.
        1    1    3    3  502    0 -0.72948301694E+03 -0.71092853562E+03  0.11559260075E+04  0.15406913349E+04  0.50400001928E-02 0. -1.
       -1    1    3    3    0  502  0.72948301694E+03  0.71092853562E+03 -0.11915648608E+04  0.15676069891E+04  0.50400001928E-02 0.  1.
</event>
<event>
 5   0  0.1211008E-06  0.3084116E+04  0.7818609E-02  0.8220111E-01
        1   -1    0    0  501    0  0.00000000000E+00  0.00000000000E+00  0.14265094422E+04  0.14265094422E+04  0.50400001928E-02 0.  1.
       -1   -1    0    0    0  501  0.00000000000E+00  0.00000000000E+00 -0.16669665220E+04  0.16669665220E+04  0.50400001928E-02 0. -1.
    10030    2    1    2    0    0  0.00000000000E+00  0.00000000000E+00 -0.24045707979E+03  0.30934759642E+04  0.30841163943E+04 0.  0.
        3    1    3    3  502    0 -0.15304404819E+04  0.16416631282E+03 -0.21402610872E+03  0.15540289033E+04  0.10100000352E+00 0.  1.
       -3    1    3    3    0  502  0.15304404819E+04 -0.16416631282E+03 -0.26430971069E+02  0.15394470609E+04  0.10100000352E+00 0. -1.
</event>
<event>
 5   0  0.1211008E-06  0.3110590E+04  0.7818609E-02  0.8212838E-01
       -1   -1    0    0    0  501  0.00000000000E+00  0.00000000000E+00  0.14620745941E+04  0.14620745941E+04  0.50400001928E-02 0.  1.
        1   -1    0    0  501    0  0.00000000000E+00  0.00000000000E+00 -0.16544593008E+04  0.16544593008E+04  0.50400001928E-02 0. -1.
    10030    2    1    2    0    0  0.00000000000E+00  0.00000000000E+00 -0.19238470667E+03  0.31165338948E+04  0.31105902402E+04 0.  0.
        3    1    3    3  502    0  0.10719622338E+04  0.10516580093E+04  0.30937155354E+03  0.15332313483E+04  0.10100000352E+00 0.  1.
       -3    1    3    3    0  502 -0.10719622338E+04 -0.10516580093E+04 -0.50175626021E+03  0.15833025466E+04  0.10100000352E+00 0. -1.
</event>
<event>
 5   0  0.1235960E-06  0.3075754E+04  0.7818609E-02  0.8222424E-01
       -1   -1    0    0    0  501  0.00000000000E+00  0.00000000000E+00  0.14983108010E+04  0.14983108010E+04  0.50400001928E-02 0. -1.
        1   -1    0    0  501    0  0.00000000000E+00  0.00000000000E+00 -0.15784877485E+04  0.15784877485E+04  0.50400001928E-02 0.  1.
    10030    2    1    2    0    0  0.00000000000E+00  0.00000000000E+00 -0.80176947509E+02  0.30767985495E+04  0.30757537241E+04 0.  0.
        4    1    3    3  502    0  0.10803569940E+04  0.69509988628E+03 -0.88579185489E+03  0.15604370892E+04  0.12699999809E+01 0.  1.
       -4    1    3    3    0  502 -0.10803569940E+04 -0.69509988628E+03  0.80561490738E+03  0.15163614603E+04  0.12699999809E+01 0. -1.
</event>
<event>
 5   0  0.3445410E-06  0.3106613E+04  0.7818609E-02  0.8213925E-01
       -2   -1    0    0    0  501  0.00000000000E+00  0.00000000000E+00  0.16191560389E+04  0.16191560390E+04  0.25500000920E-02 0. -1.
        2   -1    0    0  501    0  0.00000000000E+00  0.00000000000E+00 -0.14901350181E+04  0.14901350181E+04  0.25500000920E-02 0.  1.
    10030    2    1    2    0    0  0.00000000000E+00  0.00000000000E+00  0.12902102082E+03  0.31092910571E+04  0.31066130197E+04 0.  0.
        1    1    3    3  502    0  0.12556253441E+04  0.54481199217E+03  0.79954539577E+03  0.15851460348E+04  0.50400001928E-02 0. -1.
       -1    1    3    3    0  502 -0.12556253441E+04 -0.54481199217E+03 -0.67052437496E+03  0.15241450223E+04  0.50400001928E-02 0.  1.
</event>
<event>
 5   0  0.3340899E-06  0.3130128E+04  0.7818609E-02  0.8207518E-01
       -2   -1    0    0    0  501  0.00000000000E+00  0.00000000000E+00  0.11557276107E+04  0.11557276107E+04  0.25500000920E-02 0.  1.
        2   -1    0    0  501    0  0.00000000000E+00  0.00000000000E+00 -0.21193795184E+04  0.21193795184E+04  0.25500000920E-02 0. -1.
    10030    2    1    2    0    0  0.00000000000E+00  0.00000000000E+00 -0.96365190775E+03  0.32751071291E+04  0.31301280657E+04 0.  0.
        3    1    3    3  502    0 -0.11211773010E+04 -0.67910821708E+03  0.41288173641E+03  0.13742990392E+04  0.10100000352E+00 0.  1.
       -3    1    3    3    0  502  0.11211773010E+04  0.67910821708E+03 -0.13765336442E+04  0.19008080899E+04  0.10100000352E+00 0. -1.
</event>
<event>
 5   0  0.1211008E-06  0.3000810E+04  0.7818609E-02  0.8243499E-01
       -1   -1    0    0    0  501  0.00000000000E+00  0.00000000000E+00  0.94913963205E+03  0.94913963207E+03  0.50400001928E-02 0. -1.
        1   -1    0    0  501    0  0.00000000000E+00  0.00000000000E+00 -0.23718490278E+04  0.23718490278E+04  0.50400001928E-02 0.  1.
    10030    2    1    2    0    0  0.00000000000E+00  0.00000000000E+00 -0.14227093957E+04  0.33209886598E+04  0.30008104995E+04 0.  0.
        3    1    3    3  502    0  0.20754356295E+03 -0.14755135305E+04 -0.51649616260E+03  0.15770170593E+04  0.10100000352E+00 0. -1.
       -3    1    3    3    0  502 -0.20754356295E+03  0.14755135305E+04 -0.90621323310E+03  0.17439716005E+04  0.10100000352E+00 0.  1.
</event>
<event>
 5   0  0.3445959E-06  0.2716657E+04  0.7818609E-02  0.8329620E-01
        2   -1    0    0  501    0  0.00000000000E+00  0.00000000000E+00  0.11854733009E+04  0.11854733009E+04  0.25500000920E-02 0. -1.
       -2   -1    0    0    0  501  0.00000000000E+00  0.00000000000E+00 -0.15563883213E+04  0.15563883213E+04  0.25500000920E-02 0.  1.
    10030    2    1    2    0    0  0.00000000000E+00  0.00000000000E+00 -0.37091502048E+03  0.27418616222E+04  0.27166573584E+04 0.  0.
        4    1    3    3  502    0 -0.85892622551E+03 -0.91101398776E+03 -0.71698805790E+03  0.14428354843E+04  0.12699999809E+01 0.  1.
       -4    1    3    3    0  502  0.85892622551E+03  0.91101398776E+03  0.34607303742E+03  0.12990261379E+04  0.12699999809E+01 0. -1.
</event>
<event>
 5   0  0.1211008E-06  0.3089299E+04  0.7818609E-02  0.8218681E-01
        1   -1    0    0  501    0  0.00000000000E+00  0.00000000000E+00  0.26144980725E+04  0.26144980725E+04  0.50400001928E-02 0. -1.
       -1   -1    0    0    0  501  0.00000000000E+00  0.00000000000E+00 -0.91258132263E+03  0.91258132264E+03  0.50400001928E-02 0.  1.
    10030    2    1    2    0    0  0.00000000000E+00  0.00000000000E+00  0.17019167499E+04  0.35270793951E+04  0.30892990202E+04 0.  0.
        3    1    3    3  502    0  0.62323486227E+03 -0.14098767755E+04  0.96379641099E+03  0.18179872793E+04  0.10100000352E+00 0. -1.
       -3    1    3    3    0  502 -0.62323486227E+03  0.14098767755E+04  0.73812033888E+03  0.17090921159E+04  0.10100000352E+00 0.  1.
</event>
<event>
 5   0  0.1211008E-06  0.3092687E+04  0.7818609E-02  0.8217748E-01
       -1   -1    0    0    0  501  0.00000000000E+00  0.00000000000E+00  0.16509371923E+04  0.16509371923E+04  0.50400001928E-02 0.  1.
        1   -1    0    0  501    0  0.00000000000E+00  0.00000000000E+00 -0.14483762082E+04  0.14483762082E+04  0.50400001928E-02 0. -1.
    10030    2    1    2    0    0  0.00000000000E+00  0.00000000000E+00  0.20256098415E+03  0.30993134005E+04  0.30926869551E+04 0.  0.
        3    1    3    3  502    0  0.11994900546E+04  0.76876028453E+03 -0.50118092366E+03  0.15102817931E+04  0.10100000352E+00 0. -1.
       -3    1    3    3    0  502 -0.11994900546E+04 -0.76876028453E+03  0.70374190782E+03  0.15890316074E+04  0.10100000352E+00 0.  1.
</event>
<event>
 5   0  0.3441897E-06  0.3092542E+04  0.7818609E-02  0.8217788E-01
        2   -1    0    0  501    0  0.00000000000E+00  0.00000000000E+00  0.18282305000E+04  0.18282305000E+04  0.25500000920E-02 0.  1.
       -2   -1    0    0    0  501  0.00000000000E+00  0.00000000000E+00 -0.13077966953E+04  0.13077966953E+04  0.25500000920E-02 0. -1.
    10030    2    1    2    0    0  0.00000000000E+00  0.00000000000E+00  0.52043380471E+03  0.31360271953E+04  0.30925418711E+04 0.  0.
        5    1    3    3  502    0 -0.14109836889E+04  0.56221549096E+03 -0.33634365464E+02  0.15192480342E+04  0.46999998093E+01 0. -1.
       -5    1    3    3    0  502  0.14109836889E+04 -0.56221549096E+03  0.55406817018E+03  0.16167791612E+04  0.46999998093E+01 0.  1.
</event>
<event>
 5   0  0.1235960E-06  0.3108091E+04  0.7818609E-02  0.8213521E-01
       -1   -1    0    0    0  501  0.00000000000E+00  0.00000000000E+00  0.15044950870E+04  0.15044950870E+04  0.50400001928E-02 0. -1.
        1   -1    0    0  501    0  0.00000000000E+00  0.00000000000E+00 -0.16052283123E+04  0.16052283123E+04  0.50400001928E-02 0.  1.
    10030    2    1    2    0    0  0.00000000000E+00  0.00000000000E+00 -0.10073322525E+03  0.31097233993E+04  0.31080914461E+04 0.  0.
        4    1    3    3  502    0  0.15144647816E+04  0.17562091058E+03 -0.35153997684E+03  0.15646176041E+04  0.12699999809E+01 0.  1.
       -4    1    3    3    0  502 -0.15144647816E+04 -0.17562091058E+03  0.25080675158E+03  0.15451057952E+04  0.12699999809E+01 0. -1.
</event>
<event>
 5   0  0.1211008E-06  0.3139863E+04  0.7818609E-02  0.8204882E-01
        1   -1    0    0  501    0  0.00000000000E+00  0.00000000000E+00  0.21805992333E+04  0.21805992333E+04  0.50400001928E-02 0. -1.
       -1   -1    0    0    0  501  0.00000000000E+00  0.00000000000E+00 -0.11302785778E+04  0.11302785778E+04  0.50400001928E-02 0.  1.
    10030    2    1    2    0    0  0.00000000000E+00  0.00000000000E+00  0.10503206555E+04  0.33108778110E+04  0.31398627996E+04 0.  0.
        3    1    3    3  502    0  0.10201022853E+04  0.97865675197E+03  0.12452198418E+04  0.18838657530E+04  0.10100000352E+00 0. -1.
       -3    1    3    3    0  502 -0.10201022853E+04 -0.97865675197E+03 -0.19489918631E+03  0.14270120580E+04  0.10100000352E+00 0.  1.
</event>
<event>
 5   0  0.3374790E-06  0.3114847E+04  0.7818609E-02  0.8211675E-01
       -2   -1    0    0    0  501  0.00000000000E+00  0.00000000000E+00  0.15299603800E+04  0.15299603800E+04  0.25500000920E-02 0.  1.
        2   -1    0    0  501    0  0.00000000000E+00  0.00000000000E+00 -0.15853794074E+04  0.15853794074E+04  0.25500000920E-02 0. -1.
    10030    2    1    2    0    0  0.00000000000E+00  0.00000000000E+00 -0.55419027408E+02  0.31153397874E+04  0.31148468217E+04 0.  0.
        2    1    3    3  502    0 -0.65612698221E+03  0.10879602240E+04 -0.92863374315E+03  0.15736965065E+04  0.25500000920E-02 0. -1.
       -2    1    3    3    0  502  0.65612698221E+03 -0.10879602240E+04  0.87321471574E+03  0.15416432809E+04  0.25500000920E-02 0.  1.
</event>
<event>
 5   0  0.1235960E-06  0.3098752E+04  0.7818609E-02  0.8216081E-01
       -1   -1    0    0    0  501  0.00000000000E+00  0.00000000000E+00  0.91898564994E+03  0.91898564995E+03  0.50400001928E-02 0.  1.
        1   -1    0    0  501    0  0.00000000000E+00  0.00000000000E+00 -0.26121904276E+04  0.26121904276E+04  0.50400001928E-02 0. -1.
    10030    2    1    2    0    0  0.00000000000E+00  0.00000000000E+00 -0.16932047777E+04  0.35311760776E+04  0.30987516957E+04 0.  0.
        4    1    3    3  502    0  0.96857375936E+03  0.78800442134E+03 -0.18919336301E+04  0.22668261003E+04  0.12699999809E+01 0. -1.
       -4    1    3    3    0  502 -0.96857375936E+03 -0.78800442134E+03  0.19872885242E+03  0.12643499773E+04  0.12699999809E+01 0.  1.
</event>
<event>
 5   0  0.3445410E-06  0.3110863E+04  0.7818609E-02  0.8212763E-01
        2   -1    0    0  501    0  0.00000000000E+00  0.00000000000E+00  0.18109817905E+04  0.18109817905E+04  0.25500000920E-02 0.  1.
       -2   -1    0    0    0  501  0.00000000000E+00  0.00000000000E+00 -0.13359424303E+04  0.13359424303E+04  0.25500000920E-02 0. -1.
    10030    2    1    2    0    0  0.00000000000E+00  0.00000000000E+00  0.47503936020E+03  0.31469242208E+04  0.31108631692E+04 0.  0.
        1    1    3    3  502    0  0.78823289165E+03 -0.42439193850E+03 -0.10492109211E+04  0.13792255674E+04  0.50400001928E-02 0. -1.
       -1    1    3    3    0  502 -0.78823289165E+03  0.42439193850E+03  0.15242502813E+04  0.17676986533E+04  0.50400001928E-02 0.  1.
</event>
<event>
 5   0  0.1171915E-06  0.3106645E+04  0.7818609E-02  0.8213917E-01
        1   -1    0    0  501    0  0.00000000000E+00  0.00000000000E+00  0.17590578390E+04  0.17590578390E+04  0.50400001928E-02 0.  1.
       -1   -1    0    0    0  501  0.00000000000E+00  0.00000000000E+00 -0.13716494092E+04  0.13716494092E+04  0.50400001928E-02 0. -1.
    10030    2    1    2    0    0  0.00000000000E+00  0.00000000000E+00  0.38740842982E+03  0.31307072483E+04  0.31066449078E+04 0.  0.
        2    1    3    3  502    0  0.21145062553E+03  0.75457269844E+03 -0.11578471106E+04  0.13981063106E+04  0.25500000920E-02 0. -1.
       -2    1    3    3    0  502 -0.21145062553E+03 -0.75457269844E+03  0.15452555404E+04  0.17326009377E+04  0.25500000920E-02 0.  1.
</event>
<event>
 5   0  0.1235960E-06  0.3104129E+04  0.7818609E-02  0.8214606E-01
       -1   -1    0    0    0  501  0.00000000000E+00  0.00000000000E+00  0.14705360473E+04  0.14705360473E+04  0.50400001928E-02 0. -1.
        1   -1    0    0  501    0  0.00000000000E+00  0.00000000000E+00 -0.16381128261E+04  0.16381128261E+04  0.50400001928E-02 0.  1.
    10030    2    1    2    0    0  0.00000000000E+00  0.00000000000E+00 -0.16757677877E+03  0.31086488735E+04  0.31041288378E+04 0.  0.
        4    1    3    3  502    0 -0.30028675621E+03 -0.90772613340E+03 -0.13081738709E+04  0.16203269296E+04  0.12699999809E+01 0.  1.
       -4    1    3    3    0  502  0.30028675621E+03  0.90772613340E+03  0.11405970921E+04  0.14883219439E+04  0.12699999809E+01 0. -1.
</event>
<event>
 5   0  0.3340899E-06  0.3084285E+04  0.7818609E-02  0.8220064E-01
       -2   -1    0    0    0  501  0.00000000000E+00  0.00000000000E+00  0.30525156215E+04  0.30525156215E+04  0.25500000920E-02 0. -1.
        2   -1    0    0  501    0  0.00000000000E+00  0.00000000000E+00 -0.77909602614E+03  0.77909602615E+03  0.25500000920E-02 0.  1.
    10030    2    1    2    0    0  0.00000000000E+00  0.00000000000E+00  0.22734195954E+04  0.38316116477E+04  0.30842845462E+04 0.  0.
        3    1    3    3  502    0 -0.82379716181E+03 -0.66350156854E+03 -0.25739765864E+03  0.10886366061E+04  0.10100000352E+00 0.  1.
       -3    1    3    3    0  502  0.82379716181E+03  0.66350156854E+03  0.25308172540E+04  0.27429750416E+04  0.10100000352E+00 0. -1.
</event>
<event>
 5   0  0.1211008E-06  0.3074333E+04  0.7818609E-02  0.8222817E-01
       -1   -1    0    0    0  501  0.00000000000E+00  0.00000000000E+00  0.14442778696E+04  0.14442778696E+04  0.50400001928E-02 0.  1.
        1   -1    0    0  501    0  0.00000000000E+00  0.00000000000E+00 -0.16360296503E+04  0.16360296503E+04  0.50400001928E-02 0. -1.
    10030    2    1    2    0    0  0.00000000000E+00  0.00000000000E+00 -0.19175178069E+03  0.30803075199E+04  0.30743333703E+04 0.  0.
        3    1    3    3  502    0  0.31275782046E+03  0.11724909282E+04  0.84953014626E+03  0.14813014246E+04  0.10100000352E+00 0.  1.
       -3    1    3    3    0  502 -0.31275782046E+03 -0.11724909282E+04 -0.10412819269E+04  0.15990060952E+04  0.10100000352E+00 0. -1.
</event>
<event>
 5   0  0.3374790E-06  0.2723978E+04  0.7818609E-02  0.8327267E-01
        2   -1    0    0  501    0  0.00000000000E+00  0.00000000000E+00  0.27825483798E+04  0.27825483798E+04  0.25500000920E-02 0. -1.
       -2   -1    0    0    0  501  0.00000000000E+00  0.00000000000E+00 -0.66665991787E+03  0.66665991787E+03  0.25500000920E-02 0.  1.
    10030    2    1    2    0    0  0.00000000000E+00  0.00000000000E+00  0.21158884620E+04  0.34492082977E+04  0.27239775876E+04 0.  0.
        2    1    3    3  502    0 -0.47325554449E+03  0.11066204700E+04  0.25068912488E+03  0.12294001433E+04  0.25500000920E-02 0.  1.
       -2    1    3    3    0  502  0.47325554449E+03 -0.11066204700E+04  0.18651993371E+04  0.22198081544E+04  0.25500000920E-02 0. -1.
</event>
<event>
 5   0  0.3340899E-06  0.3088751E+04  0.7818609E-02  0.8218832E-01
        2   -1    0    0  501    0  0.00000000000E+00  0.00000000000E+00  0.21370050736E+04  0.21370050736E+04  0.25500000920E-02 0. -1.
       -2   -1    0    0    0  501  0.00000000000E+00  0.00000000000E+00 -0.11160928653E+04  0.11160928653E+04  0.25500000920E-02 0.  1.
    10030    2    1    2    0    0  0.00000000000E+00  0.00000000000E+00  0.10209122083E+04  0.32530979389E+04  0.30887512789E+04 0.  0.
        3    1    3    3  502    0 -0.12741083708E+04  0.82344211605E+03  0.81513566466E+03  0.17221658518E+04  0.10100000352E+00 0. -1.
       -3    1    3    3    0  502  0.12741083708E+04 -0.82344211605E+03  0.20577654364E+03  0.15309320871E+04  0.10100000352E+00 0.  1.
</event>
<event>
 5   0  0.3374790E-06  0.3091603E+04  0.7818609E-02  0.8218046E-01
       -2   -1    0    0    0  501  0.00000000000E+00  0.00000000000E+00  0.12355581377E+04  0.12355581377E+04  0.25500000920E-02 0. -1.
        2   -1    0    0  501    0  0.00000000000E+00  0.00000000000E+00 -0.19339454510E+04  0.19339454510E+04  0.25500000920E-02 0.  1.
    10030    2    1    2    0    0  0.00000000000E+00  0.00000000000E+00 -0.69838731332E+03  0.31695035887E+04  0.30916028463E+04 0.  0.
        2    1    3    3  502    0 -0.44339953494E+03  0.10284507812E+04 -0.14414923717E+04  0.18254354041E+04  0.25500000920E-02 0.  1.
       -2    1    3    3    0  502  0.44339953494E+03 -0.10284507812E+04  0.74310505840E+03  0.13440681846E+04  0.25500000920E-02 0. -1.
</event>
<event>
 5   0  0.3374790E-06  0.3173753E+04  0.7818609E-02  0.8195784E-01
        2   -1    0    0  501    0  0.00000000000E+00  0.00000000000E+00  0.12542877673E+04  0.12542877673E+04  0.25500000920E-02 0.  1.
       -2   -1    0    0    0  501  0.00000000000E+00  0.00000000000E+00 -0.20076550110E+04  0.20076550110E+04  0.25500000920E-02 0. -1.
    10030    2    1    2    0    0  0.00000000000E+00  0.00000000000E+00 -0.75336724371E+03  0.32619427784E+04  0.31737530599E+04 0.  0.
        2    1    3    3  502    0 -0.14818203698E+04  0.98209692781E+02  0.19808781527E+03  0.14982241270E+04  0.25500000920E-02 0.  1.
       -2    1    3    3    0  502  0.14818203698E+04 -0.98209692781E+02 -0.95145505898E+03  0.17637186514E+04  0.25500000920E-02 0. -1.
</event>
<event>
 5   0  0.1250276E-06  0.3076275E+04  0.7818609E-02  0.8222279E-01
        1   -1    0    0  501    0  0.00000000000E+00  0.00000000000E+00  0.80075993468E+03  0.80075993469E+03  0.50400001928E-02 0. -1.
       -1   -1    0    0    0  501  0.00000000000E+00  0.00000000000E+00 -0.29545267989E+04  0.29545267989E+04  0.50400001928E-02 0.  1.
    10030    2    1    2    0    0  0.00000000000E+00  0.00000000000E+00 -0.21537668642E+04  0.37552867336E+04  0.30762748164E+04 0.  0.
        5    1    3    3  502    0  0.48386451337E+03  0.81743172279E+03  0.39990425102E+03  0.10306624029E+04  0.46999998093E+01 0. -1.
       -5    1    3    3    0  502 -0.48386451337E+03 -0.81743172279E+03 -0.25536711152E+04  0.27246243307E+04  0.46999998093E+01 0.  1.
</event>
<event>
 5   0  0.1198763E-06  0.3076221E+04  0.7818609E-02  0.8222294E-01
       -1   -1    0    0    0  501  0.00000000000E+00  0.00000000000E+00  0.10062649470E+04  0.10062649470E+04  0.50400001928E-02 0.  1.
        1   -1    0    0  501    0  0.00000000000E+00  0.00000000000E+00 -0.23510545153E+04  0.23510545153E+04  0.50400001928E-02 0. -1.
    10030    2    1    2    0    0  0.00000000000E+00  0.00000000000E+00 -0.13447895683E+04  0.33573194622E+04  0.30762208940E+04 0.  0.
        1    1    3    3  502    0  0.11700944659E+03  0.51182051583E+03  0.90544186136E+03  0.10466500921E+04  0.50400001928E-02 0.  1.
       -1    1    3    3    0  502 -0.11700944659E+03 -0.51182051583E+03 -0.22502314296E+04  0.23106693701E+04  0.50400001928E-02 0. -1.
</event>
<event>
 5   0  0.3374790E-06  0.3074562E+04  0.7818609E-02  0.8222754E-01
       -2   -1    0    0    0  501  0.00000000000E+00  0.00000000000E+00  0.10155437262E+04  0.10155437262E+04  0.25500000920E-02 0. -1.
        2   -1    0    0  501    0  0.00000000000E+00  0.00000000000E+00 -0.23270620643E+04  0.23270620643E+04  0.25500000920E-02 0.  1.
    10030    2    1    2    0    0  0.00000000000E+00  0.00000000000E+00 -0.13115183381E+04  0.33426057904E+04  0.30745622646E+04 0.  0.
        2    1    3    3  502    0 -0.14004529541E+04  0.99870468087E+02  0.24915746714E+02  0.14042305300E+04  0.25500000920E-02 0. -1.
       -2    1    3    3    0  502  0.14004529541E+04 -0.99870468087E+02 -0.13364340848E+04  0.19383752604E+04  0.25500000920E-02 0.  1.
</event>
<event>
 5   0  0.3374790E-06  0.3099928E+04  0.7818609E-02  0.8215758E-01
       -2   -1    0    0    0  501  0.00000000000E+00  0.00000000000E+00  0.14751605203E+04  0.14751605203E+04  0.25500000920E-02 0.  1.
        2   -1    0    0  501    0  0.00000000000E+00  0.00000000000E+00 -0.16285608527E+04  0.16285608527E+04  0.25500000920E-02 0. -1.
    10030    2    1    2    0    0  0.00000000000E+00  0.00000000000E+00 -0.15340033242E+03  0.31037213730E+04  0.30999281765E+04 0.  0.
        2    1    3    3  502    0  0.95677349424E+03 -0.11941435777E+04  0.17057221952E+03  0.15396393362E+04  0.25500000920E-02 0.  1.
       -2    1    3    3    0  502 -0.95677349424E+03  0.11941435777E+04 -0.32397255194E+03  0.15640820368E+04  0.25500000920E-02 0. -1.
</event>
<event>
 5   0  0.3340899E-06  0.3091438E+04  0.7818609E-02  0.8218092E-01
        2   -1    0    0  501    0  0.00000000000E+00  0.00000000000E+00  0.16997491937E+04  0.16997491937E+04  0.25500000920E-02 0. -1.
       -2   -1    0    0    0  501  0.00000000000E+00  0.00000000000E+00 -0.14056468923E+04  0.14056468923E+04  0.25500000920E-02 0.  1.
    10030    2    1    2    0    0  0.00000000000E+00  0.00000000000E+00  0.29410230144E+03  0.31053960860E+04  0.30914379643E+04 0.  0.
        3    1    3    3  502    0  0.41361472296E+03 -0.55741049285E+03  0.15343965263E+04  0.16840891624E+04  0.10100000352E+00 0. -1.
       -3    1    3    3    0  502 -0.41361472296E+03  0.55741049285E+03 -0.12402942249E+04  0.14213069236E+04  0.10100000352E+00 0.  1.
</event>
<event>
 5   0  0.1171915E-06  0.3163838E+04  0.7818609E-02  0.8198433E-01
       -1   -1    0    0    0  501  0.00000000000E+00  0.00000000000E+00  0.17638405841E+04  0.17638405841E+04  0.50400001928E-02 0.  1.
        1   -1    0    0  501    0  0.00000000000E+00  0.00000000000E+00 -0.14187606535E+04  0.14187606535E+04  0.50400001928E-02 0. -1.
    10030    2    1    2    0    0  0.00000000000E+00  0.00000000000E+00  0.34507993063E+03  0.31826012377E+04  0.31638379351E+04 0.  0.
        2    1    3    3  502    0  0.11972060340E+04 -0.49764154090E+03 -0.73921177419E+03  0.14924421055E+04  0.25500000920E-02 0. -1.
       -2    1    3    3    0  502 -0.11972060340E+04  0.49764154090E+03  0.10842917048E+04  0.16901591322E+04  0.25500000920E-02 0.  1.
</event>
<event>
 5   0  0.1198763E-06  0.3051065E+04  0.7818609E-02  0.8229298E-01
       -1   -1    0    0    0  501  0.00000000000E+00  0.00000000000E+00  0.10783334446E+04  0.10783334446E+04  0.50400001928E-02 0.  1.
        1   -1    0    0  501    0  0.00000000000E+00  0.00000000000E+00 -0.21581903230E+04  0.21581903230E+04  0.50400001928E-02 0. -1.
    10030    2    1    2    0    0  0.00000000000E+00  0.00000000000E+00 -0.10798568784E+04  0.32365237676E+04  0.30510646044E+04 0.  0.
        1    1    3    3  502    0  0.25674177678E+03  0.10768200119E+04 -0.16533946238E+04  0.19897666848E+04  0.50400001928E-02 0. -1.
       -1    1    3    3    0  502 -0.25674177678E+03 -0.10768200119E+04  0.57353774542E+03  0.12467570828E+04  0.50400001928E-02 0.  1.
</event>
<event>
 5   0  0.3374790E-06  0.3027638E+04  0.7818609E-02  0.8235882E-01
       -2   -1    0    0    0  501  0.00000000000E+00  0.00000000000E+00  0.82812742631E+03  0.82812742631E+03  0.25500000920E-02 0.  1.
        2   -1    0    0  501    0  0.00000000000E+00  0.00000000000E+00 -0.27672655801E+04  0.27672655801E+04  0.25500000920E-02 0. -1.
    10030    2    1    2    0    0  0.00000000000E+00  0.00000000000E+00 -0.19391381538E+04  0.35953930065E+04  0.30276383686E+04 0.  0.
        2    1    3    3  502    0 -0.14939284475E+04 -0.22823998491E+03 -0.86514239288E+03  0.17413750477E+04  0.25500000920E-02 0.  1.
       -2    1    3    3    0  502  0.14939284475E+04  0.22823998491E+03 -0.10739957610E+04  0.18540179588E+04  0.25500000920E-02 0. -1.
</event>
<event>
 5   0  0.3441897E-06  0.3088544E+04  0.7818609E-02  0.8218889E-01
        2   -1    0    0  501    0  0.00000000000E+00  0.00000000000E+00  0.18016492591E+04  0.18016492591E+04  0.25500000920E-02 0. -1.
       -2   -1    0    0    0  501  0.00000000000E+00  0.00000000000E+00 -0.13236624262E+04  0.13236624262E+04  0.25500000920E-02 0.  1.
    10030    2    1    2    0    0  0.00000000000E+00  0.00000000000E+00  0.47798683281E+03  0.31253116853E+04  0.30885436241E+04 0.  0.
        5    1    3    3  502    0  0.14258022198E+04 -0.28886471502E+02  0.83850481965E+03  0.16543454358E+04  0.46999998093E+01 0. -1.
       -5    1    3    3    0  502 -0.14258022198E+04  0.28886471502E+02 -0.36051798684E+03  0.14709662495E+04  0.46999998093E+01 0.  1.
</event>
<event>
 5   0  0.1171915E-06  0.3054648E+04  0.7818609E-02  0.8228296E-01
        1   -1    0    0  501    0  0.00000000000E+00  0.00000000000E+00  0.13005260688E+04  0.13005260688E+04  0.50400001928E-02 0.  1.
       -1   -1    0    0    0  501  0.00000000000E+00  0.00000000000E+00 -0.17936727975E+04  0.17936727976E+04  0.50400001928E-02 0. -1.
    10030    2    1    2    0    0  0.00000000000E+00  0.00000000000E+00 -0.49314672875E+03  0.30941988664E+04  0.30546477585E+04 0.  0.
        2    1    3    3  502    0 -0.63422540339E+03  0.41275943033E+03  0.10972942857E+04  0.13329167112E+04  0.25500000920E-02 0.  1.
       -2    1    3    3    0  502  0.63422540339E+03 -0.41275943033E+03 -0.15904410144E+04  0.17612821551E+04  0.25500000920E-02 0. -1.
</event>
<event>
 5   0  0.1250276E-06  0.3089338E+04  0.7818609E-02  0.8218670E-01
       -1   -1    0    0    0  501  0.00000000000E+00  0.00000000000E+00  0.15089508021E+04  0.15089508021E+04  0.50400001928E-02 0. -1.
        1   -1    0    0  501    0  0.00000000000E+00  0.00000000000E+00 -0.15812329601E+04  0.15812329601E+04  0.50400001928E-02 0.  1.
    10030    2    1    2    0    0  0.00000000000E+00  0.00000000000E+00 -0.72282157951E+02  0.30901837622E+04  0.30893382744E+04 0.  0.
        5    1    3    3  502    0 -0.66686633620E+03  0.11663621561E+04 -0.79849745974E+03  0.15629240777E+04  0.46999998093E+01 0.  1.
       -5    1    3    3    0  502  0.66686633620E+03 -0.11663621561E+04  0.72621530179E+03  0.15272596845E+04  0.46999998093E+01 0. -1.
</event>
<event>
 5   0  0.3445959E-06  0.3033015E+04  0.7818609E-02  0.8234366E-01
       -2   -1    0    0    0  501  0.00000000000E+00  0.00000000000E+00  0.15116087292E+04  0.15116087292E+04  0.25500000920E-02 0.  1.
        2   -1    0    0  501    0  0.00000000000E+00  0.00000000000E+00 -0.15214221014E+04  0.15214221014E+04  0.25500000920E-02 0. -1.
    10030    2    1    2    0    0  0.00000000000E+00  0.00000000000E+00 -0.98133722350E+01  0.30330308306E+04  0.30330149549E+04 0.  0.
        4    1    3    3  502    0 -0.23097886747E+03 -0.11620452240E+04  0.94172014499E+03  0.15134526039E+04  0.12699999809E+01 0.  1.
       -4    1    3    3    0  502  0.23097886747E+03  0.11620452240E+04 -0.95153351722E+03  0.15195782267E+04  0.12699999809E+01 0. -1.
</event>
<event>
 5   0  0.1211008E-06  0.3099920E+04  0.7818609E-02  0.8215760E-01
        1   -1    0    0  501    0  0.00000000000E+00  0.00000000000E+00  0.16800228992E+04  0.16800228992E+04  0.50400001928E-02 0. -1.
       -1   -1    0    0    0  501  0.00000000000E+00  0.00000000000E+00 -0.14299659977E+04  0.14299659977E+04  0.50400001928E-02 0.  1.
    10030    2    1    2    0    0  0.00000000000E+00  0.00000000000E+00  0.25005690153E+03  0.31099888969E+04  0.30999197546E+04 0.  0.
        3    1    3    3  502    0  0.13801502717E+04 -0.48269248579E+03 -0.39100481944E+03  0.15135030847E+04  0.10100000352E+00 0.  1.
       -3    1    3    3    0  502 -0.13801502717E+04  0.48269248579E+03  0.64106172096E+03  0.15964858122E+04  0.10100000352E+00 0. -1.
</event>
<event>
 5   0  0.1171915E-06  0.3102878E+04  0.7818609E-02  0.8214948E-01
       -1   -1    0    0    0  501  0.00000000000E+00  0.00000000000E+00  0.89559546003E+03  0.89559546004E+03  0.50400001928E-02 0. -1.
        1   -1    0    0  501    0  0.00000000000E+00  0.00000000000E+00 -0.26875565020E+04  0.26875565020E+04  0.50400001928E-02 0.  1.
    10030    2    1    2    0    0  0.00000000000E+00  0.00000000000E+00 -0.17919610419E+04  0.35831519620E+04  0.31028782778E+04 0.  0.
        2    1    3    3  502    0 -0.52175803802E+02  0.50236957858E+03 -0.25899597821E+04  0.26387476539E+04  0.25500000920E-02 0.  1.
       -2    1    3    3    0  502  0.52175803802E+02 -0.50236957858E+03  0.79799874014E+03  0.94440430815E+03  0.25500000920E-02 0. -1.
</event>
<event>
 5   0  0.3374790E-06  0.3122307E+04  0.7818609E-02  0.8209643E-01
       -2   -1    0    0    0  501  0.00000000000E+00  0.00000000000E+00  0.10685600124E+04  0.10685600124E+04  0.25500000920E-02 0. -1.
        2   -1    0    0  501    0  0.00000000000E+00  0.00000000000E+00 -0.22808261602E+04  0.22808261602E+04  0.25500000920E-02 0.  1.
    10030    2    1    2    0    0  0.00000000000E+00  0.00000000000E+00 -0.12122661478E+04  0.33493861726E+04  0.31223066026E+04 0.  0.
        2    1    3    3  502    0  0.13217654442E+04  0.22097537459E+03  0.25292435932E+03  0.13637685791E+04  0.25500000920E-02 0. -1.
       -2    1    3    3    0  502 -0.13217654442E+04 -0.22097537459E+03 -0.14651905071E+04  0.19856175936E+04  0.25500000920E-02 0.  1.
</event>
<event>
 5   0  0.3441897E-06  0.3127629E+04  0.7818609E-02  0.8208196E-01
        2   -1    0    0  501    0  0.00000000000E+00  0.00000000000E+00  0.24715918119E+04  0.24715918119E+04  0.25500000920E-02 0. -1.
       -2   -1    0    0    0  501  0.00000000000E+00  0.00000000000E+00 -0.98944992894E+03  0.98944992894E+03  0.25500000920E-02 0.  1.
    10030    2    1    2    0    0  0.00000000000E+00  0.00000000000E+00  0.14821418829E+04  0.34610417408E+04  0.31276293531E+04 0.  0.
        5    1    3    3  502    0  0.70350408773E+03 -0.13888009009E+04  0.57765194098E+03  0.16605390085E+04  0.46999998093E+01 0.  1.
       -5    1    3    3    0  502 -0.70350408773E+03  0.13888009009E+04  0.90448994194E+03  0.18005027323E+04  0.46999998093E+01 0. -1.
</event>
<event>
 5   0  0.1235960E-06  0.3099485E+04  0.7818609E-02  0.8215879E-01
        1   -1    0    0  501    0  0.00000000000E+00  0.00000000000E+00  0.24800908218E+04  0.24800908218E+04  0.50400001928E-02 0.  1.
       -1   -1    0    0    0  501  0.00000000000E+00  0.00000000000E+00 -0.96839251485E+03  0.96839251487E+03  0.50400001928E-02 0. -1.
    10030    2    1    2    0    0  0.00000000000E+00  0.00000000000E+00  0.15116983070E+04  0.34484833367E+04  0.30994847237E+04 0.  0.
        4    1    3    3  502    0 -0.10380895807E+04 -0.30928770017E+03  0.19889837010E+04  0.22648060921E+04  0.12699999809E+01 0.  1.
       -4    1    3    3    0  502  0.10380895807E+04  0.30928770017E+03 -0.47728539406E+03  0.11836772446E+04  0.12699999809E+01 0. -1.
</event>
<event>
 5   0  0.3441897E-06  0.3007377E+04  0.7818609E-02  0.8241627E-01
        2   -1    0    0  501    0  0.00000000000E+00  0.00000000000E+00  0.19285823745E+04  0.19285823745E+04  0.25500000920E-02 0.  1.
       -2   -1    0    0    0  501  0.00000000000E+00  0.00000000000E+00 -0.11724050129E+04  0.11724050129E+04  0.25500000920E-02 0. -1.
    10030    2    1    2    0    0  0.00000000000E+00  0.00000000000E+00  0.75617736159E+03  0.31009873875E+04  0.30073773583E+04 0.  0.
        5    1    3    3  502    0  0.11334396234E+04 -0.58499976969E+03 -0.44303239067E+03  0.13502629002E+04  0.46999998093E+01 0. -1.
       -5    1    3    3    0  502 -0.11334396234E+04  0.58499976969E+03  0.11992097523E+04  0.17507244873E+04  0.46999998093E+01 0.  1.
</event>
<event>
 5   0  0.1211008E-06  0.3093645E+04  0.7818609E-02  0.8217484E-01
        1   -1    0    0  501    0  0.00000000000E+00  0.00000000000E+00  0.10654988625E+04  0.10654988625E+04  0.50400001928E-02 0.  1.
       -1   -1    0    0    0  501  0.00000000000E+00  0.00000000000E+00 -0.22455764899E+04  0.22455764899E+04  0.50400001928E-02 0. -1.
    10030    2    1    2    0    0  0.00000000000E+00  0.00000000000E+00 -0.11800776274E+04  0.33110753525E+04  0.30936445793E+04 0.  0.
        3    1    3    3  502    0  0.21194606217E+03  0.11174611807E+04 -0.17120602672E+04  0.20554296369E+04  0.10100000352E+00 0. -1.
       -3    1    3    3    0  502 -0.21194606217E+03 -0.11174611807E+04  0.53198263976E+03  0.12556457155E+04  0.10100000352E+00 0.  1.
</event>
<event>
 5   0  0.3374790E-06  0.3099575E+04  0.7818609E-02  0.8215855E-01
        2   -1    0    0  501    0  0.00000000000E+00  0.00000000000E+00  0.15757553134E+04  0.15757553134E+04  0.25500000920E-02 0.  1.
       -2   -1    0    0    0  501  0.00000000000E+00  0.00000000000E+00 -0.15242477163E+04  0.15242477164E+04  0.25500000920E-02 0. -1.
    10030    2    1    2    0    0  0.00000000000E+00  0.00000000000E+00  0.51507597068E+02  0.31000030298E+04  0.30995750922E+04 0.  0.
        2    1    3    3  502    0  0.11748948037E+04 -0.93764020843E+03 -0.35151768431E+03  0.15437330218E+04  0.25500000920E-02 0. -1.
       -2    1    3    3    0  502 -0.11748948037E+04  0.93764020843E+03  0.40302528138E+03  0.15562700080E+04  0.25500000920E-02 0.  1.
</event>
<event>
 5   0  0.3340899E-06  0.3097019E+04  0.7818609E-02  0.8216557E-01
        2   -1    0    0  501    0  0.00000000000E+00  0.00000000000E+00  0.19392036268E+04  0.19392036268E+04  0.25500000920E-02 0.  1.
       -2   -1    0    0    0  501  0.00000000000E+00  0.00000000000E+00 -0.12365287742E+04  0.12365287742E+04  0.25500000920E-02 0. -1.
    10030    2    1    2    0    0  0.00000000000E+00  0.00000000000E+00  0.70267485254E+03  0.31757324010E+04  0.30970186203E+04 0.  0.
        3    1    3    3  502    0  0.10702482633E+04  0.63197136434E+03 -0.59575063533E+03  0.13783098273E+04  0.10100000352E+00 0. -1.
       -3    1    3    3    0  502 -0.10702482633E+04 -0.63197136434E+03  0.12984254879E+04  0.17974225736E+04  0.10100000352E+00 0.  1.
</event>
<event>
 5   0  0.3445410E-06  0.3037830E+04  0.7818609E-02  0.8233010E-01
        2   -1    0    0  501    0  0.00000000000E+00  0.00000000000E+00  0.17017710985E+04  0.17017710985E+04  0.25500000920E-02 0. -1.
       -2   -1    0    0    0  501  0.00000000000E+00  0.00000000000E+00 -0.13557070009E+04  0.13557070009E+04  0.25500000920E-02 0.  1.
    10030    2    1    2    0    0  0.00000000000E+00  0.00000000000E+00  0.34606409759E+03  0.30574780995E+04  0.30378301416E+04 0.  0.
        1    1    3    3  502    0  0.14686163783E+04 -0.41448978602E+02  0.56094789710E+03  0.15726457413E+04  0.50400001928E-02 0. -1.
       -1    1    3    3    0  502 -0.14686163783E+04  0.41448978602E+02 -0.21488379950E+03  0.14848323581E+04  0.50400001928E-02 0.  1.
</event>
<event>
 5   0  0.1198763E-06  0.3064168E+04  0.7818609E-02  0.8225641E-01
        1   -1    0    0  501    0  0.00000000000E+00  0.00000000000E+00  0.10238770525E+04  0.10238770525E+04  0.50400001928E-02 0.  1.
       -1   -1    0    0    0  501  0.00000000000E+00  0.00000000000E+00 -0.22925424409E+04  0.22925424409E+04  0.50400001928E-02 0. -1.
    10030    2    1    2    0    0  0.00000000000E+00  0.00000000000E+00 -0.12686653884E+04  0.33164194934E+04  0.30641681397E+04 0.  0.
        1    1    3    3  502    0  0.99226348503E+03  0.54029020435E+03 -0.17543049110E+04  0.20866446869E+04  0.50400001928E-02 0. -1.
       -1    1    3    3    0  502 -0.99226348503E+03 -0.54029020435E+03  0.48563952264E+03  0.12297748065E+04  0.50400001928E-02 0.  1.
</event>
<event>
 5   0  0.3340899E-06  0.3123059E+04  0.7818609E-02  0.8209438E-01
        2   -1    0    0  501    0  0.00000000000E+00  0.00000000000E+00  0.18380187339E+04  0.18380187339E+04  0.25500000920E-02 0. -1.
       -2   -1    0    0    0  501  0.00000000000E+00  0.00000000000E+00 -0.13266315651E+04  0.13266315651E+04  0.25500000920E-02 0.  1.
    10030    2    1    2    0    0  0.00000000000E+00  0.00000000000E+00  0.51138716880E+03  0.31646502990E+04  0.31230585455E+04 0.  0.
        3    1    3    3  502    0  0.85247985165E+03  0.56704118039E+03  0.14504273322E+04  0.17753864520E+04  0.10100000352E+00 0. -1.
       -3    1    3    3    0  502 -0.85247985165E+03 -0.56704118039E+03 -0.93904016344E+03  0.13892638470E+04  0.10100000352E+00 0.  1.
</event>
<event>
 5   0  0.1235960E-06  0.3110748E+04  0.7818609E-02  0.8212794E-01
       -1   -1    0    0    0  501  0.00000000000E+00  0.00000000000E+00  0.10486093604E+04  0.10486093604E+04  0.50400001928E-02 0.  1.
        1   -1    0    0  501    0  0.00000000000E+00  0.00000000000E+00 -0.23070439065E+04  0.23070439065E+04  0.50400001928E-02 0. -1.
    10030    2    1    2    0    0  0.00000000000E+00  0.00000000000E+00 -0.12584345461E+04  0.33556532668E+04  0.31107477140E+04 0.  0.
        4    1    3    3  502    0 -0.81312692936E+03 -0.36422218856E+03  0.74604693306E+03  0.11620760927E+04  0.12699999809E+01 0.  1.
       -4    1    3    3    0  502  0.81312692936E+03  0.36422218856E+03 -0.20044814792E+04  0.21935771742E+04  0.12699999809E+01 0. -1.
</event>
<event>
 5   0  0.3441897E-06  0.2710303E+04  0.7818609E-02  0.8331670E-01
       -2   -1    0    0    0  501  0.00000000000E+00  0.00000000000E+00  0.10557161726E+04  0.10557161726E+04  0.25500000920E-02 0. -1.
        2   -1    0    0  501    0  0.00000000000E+00  0.00000000000E+00 -0.17395167811E+04  0.17395167811E+04  0.25500000920E-02 0.  1.
    10030    2    1    2    0    0  0.00000000000E+00  0.00000000000E+00 -0.68380060853E+03  0.27952329538E+04  0.27103033029E+04 0.  0.
        5    1    3    3  502    0  0.89661717864E+03  0.41021768263E+03 -0.13006616358E+04  0.16321592119E+04  0.46999998093E+01 0.  1.
       -5    1    3    3    0  502 -0.89661717864E+03 -0.41021768263E+03  0.61686102723E+03  0.11630737419E+04  0.46999998093E+01 0. -1.
</event>
<event>
 5   0  0.1235960E-06  0.3073526E+04  0.7818609E-02  0.8223041E-01
        1   -1    0    0  501    0  0.00000000000E+00  0.00000000000E+00  0.13313275838E+04  0.13313275838E+04  0.50400001928E-02 0. -1.
       -1   -1    0    0    0  501  0.00000000000E+00  0.00000000000E+00 -0.17738987892E+04  0.17738987892E+04  0.50400001928E-02 0.  1.
    10030    2    1    2    0    0  0.00000000000E+00  0.00000000000E+00 -0.44257120549E+03  0.31052263730E+04  0.30735259159E+04 0.  0.
        4    1    3    3  502    0  0.90156006022E+03 -0.35225219192E+03 -0.14272242276E+04  0.17244891295E+04  0.12699999809E+01 0.  1.
       -4    1    3    3    0  502 -0.90156006022E+03  0.35225219192E+03  0.98465302210E+03  0.13807372435E+04  0.12699999809E+01 0. -1.
</event>
<event>
 5   0  0.1211008E-06  0.3009098E+04  0.7818609E-02  0.8241138E-01
        1   -1    0    0  501    0  0.00000000000E+00  0.00000000000E+00  0.22485954205E+04  0.22485954205E+04  0.50400001928E-02 0.  1.
       -1   -1    0    0    0  501  0.00000000000E+00  0.00000000000E+00 -0.10067029937E+04  0.10067029938E+04  0.50400001928E-02 0. -1.
    10030    2    1    2    0    0  0.00000000000E+00  0.00000000000E+00  0.12418924268E+04  0.32552984143E+04  0.30090980320E+04 0.  0.
        3    1    3    3  502    0  0.45253272052E+03  0.13008302221E+04  0.12760699096E+04  0.18775781087E+04  0.10100000352E+00 0.  1.
       -3    1    3    3    0  502 -0.45253272052E+03 -0.13008302221E+04 -0.34177482839E+02  0.13777203056E+04  0.10100000352E+00 0. -1.
</event>
<event>
 5   0  0.3445410E-06  0.2950730E+04  0.7818609E-02  0.8257942E-01
       -2   -1    0    0    0  501  0.00000000000E+00  0.00000000000E+00  0.16817187432E+04  0.16817187432E+04  0.25500000920E-02 0. -1.
        2   -1    0    0  501    0  0.00000000000E+00  0.00000000000E+00 -0.12943317978E+04  0.12943317978E+04  0.25500000920E-02 0.  1.
    10030    2    1    2    0    0  0.00000000000E+00  0.00000000000E+00  0.38738694536E+03  0.29760505410E+04  0.29507301091E+04 0.  0.
        1    1    3    3  502    0 -0.39637320803E+03  0.28933950668E+03 -0.12096023828E+04  0.13053608676E+04  0.50400001928E-02 0.  1.
       -1    1    3    3    0  502  0.39637320803E+03 -0.28933950668E+03  0.15969893282E+04  0.16706896733E+04  0.50400001928E-02 0. -1.
</event>
<event>
 5   0  0.3445959E-06  0.3114788E+04  0.7818609E-02  0.8211691E-01
       -2   -1    0    0    0  501  0.00000000000E+00  0.00000000000E+00  0.10539582438E+04  0.10539582438E+04  0.25500000920E-02 0.  1.
        2   -1    0    0  501    0  0.00000000000E+00  0.00000000000E+00 -0.23013019848E+04  0.23013019848E+04  0.25500000920E-02 0. -1.
    10030    2    1    2    0    0  0.00000000000E+00  0.00000000000E+00 -0.12473437410E+04  0.33552602286E+04  0.31147880816E+04 0.  0.
        4    1    3    3  502    0 -0.37014350143E+03 -0.88545323067E+03  0.69757897376E+03  0.11864449726E+04  0.12699999809E+01 0.  1.
       -4    1    3    3    0  502  0.37014350143E+03  0.88545323067E+03 -0.19449227148E+04  0.21688152560E+04  0.12699999809E+01 0. -1.
</event>
<event>
 5   0  0.3340899E-06  0.3106387E+04  0.7818609E-02  0.8213987E-01
       -2   -1    0    0    0  501  0.00000000000E+00  0.00000000000E+00  0.12656835545E+04  0.12656835545E+04  0.25500000920E-02 0.  1.
        2   -1    0    0  501    0  0.00000000000E+00  0.00000000000E+00 -0.19060130865E+04  0.19060130865E+04  0.25500000920E-02 0. -1.
    10030    2    1    2    0    0  0.00000000000E+00  0.00000000000E+00 -0.64032953198E+03  0.31716966409E+04  0.31063865942E+04 0.  0.
        3    1    3    3  502    0 -0.11198905125E+04  0.81663082976E+03 -0.10358794031E+04  0.17303429776E+04  0.10100000352E+00 0. -1.
       -3    1    3    3    0  502  0.11198905125E+04 -0.81663082976E+03  0.39554987115E+03  0.14413536633E+04  0.10100000352E+00 0.  1.
</event>
<event>
 5   0  0.1235960E-06  0.3101308E+04  0.7818609E-02  0.8215379E-01
       -1   -1    0    0    0  501  0.00000000000E+00  0.00000000000E+00  0.14577003528E+04  0.14577003528E+04  0.50400001928E-02 0. -1.
        1   -1    0    0  501    0  0.00000000000E+00  0.00000000000E+00 -0.16495352496E+04  0.16495352496E+04  0.50400001928E-02 0.  1.
    10030    2    1    2    0    0  0.00000000000E+00  0.00000000000E+00 -0.19183489681E+03  0.31072356024E+04  0.31013081854E+04 0.  0.
        4    1    3    3  502    0  0.64938134095E+03  0.12559385866E+04 -0.73388293533E+03  0.15930045935E+04  0.12699999809E+01 0.  1.
       -4    1    3    3    0  502 -0.64938134095E+03 -0.12559385866E+04  0.54204803851E+03  0.15142310089E+04  0.12699999809E+01 0. -1.
</event>
<event>
 5   0  0.1171915E-06  0.3110697E+04  0.7818609E-02  0.8212808E-01
        1   -1    0    0  501    0  0.00000000000E+00  0.00000000000E+00  0.23287916471E+04  0.23287916471E+04  0.50400001928E-02 0.  1.
       -1   -1    0    0    0  501  0.00000000000E+00  0.00000000000E+00 -0.10387829506E+04  0.10387829506E+04  0.50400001928E-02 0. -1.
    10030    2    1    2    0    0  0.00000000000E+00  0.00000000000E+00  0.12900086965E+04  0.33675745977E+04  0.31106970656E+04 0.  0.
        2    1    3    3  502    0 -0.20927502720E+03 -0.10935584608E+04 -0.53069957712E+03  0.12334132257E+04  0.25500000920E-02 0. -1.
       -2    1    3    3    0  502  0.20927502720E+03  0.10935584608E+04  0.18207082736E+04  0.21341613720E+04  0.25500000920E-02 0.  1.
</event>
<event>
 5   0  0.3441897E-06  0.3084598E+04  0.7818609E-02  0.8219978E-01
        2   -1    0    0  501    0  0.00000000000E+00  0.00000000000E+00  0.13658231540E+04  0.13658231540E+04  0.25500000920E-02 0.  1.
       -2   -1    0    0    0  501  0.00000000000E+00  0.00000000000E+00 -0.17415764978E+04  0.17415764978E+04  0.25500000920E-02 0. -1.
    10030    2    1    2    0    0  0.00000000000E+00  0.00000000000E+00 -0.37575334375E+03  0.31073996518E+04  0.30845975460E+04 0.  0.
        5    1    3    3  502    0  0.82998284624E+03 -0.54075784749E+03  0.10029669996E+04  0.14097004884E+04  0.46999998093E+01 0.  1.
       -5    1    3    3    0  502 -0.82998284624E+03  0.54075784749E+03 -0.13787203433E+04  0.16976991635E+04  0.46999998093E+01 0. -1.
</event>
<event>
 5   0  0.1198763E-06  0.3081311E+04  0.7818609E-02  0.8220886E-01
        1   -1    0    0  501    0  0.00000000000E+00  0.00000000000E+00  0.10239940450E+04  0.10239940450E+04  0.50400001928E-02 0. -1.
       -1   -1    0    0    0  501  0.00000000000E+00  0.00000000000E+00 -0.23180015990E+04  0.23180015990E+04  0.50400001928E-02 0.  1.
    10030    2    1    2    0    0  0.00000000000E+00  0.00000000000E+00 -0.12940075540E+04  0.33419956441E+04  0.30813113012E+04 0.  0.
        1    1    3    3  502    0  0.33554338835E+03  0.58310379589E+03 -0.21502713683E+04  0.22530571142E+04  0.50400001928E-02 0.  1.
       -1    1    3    3    0  502 -0.33554338835E+03 -0.58310379589E+03  0.85626381427E+03  0.10889385299E+04  0.50400001928E-02 0. -1.
</event>
<event>
 5   0  0.3340899E-06  0.3102022E+04  0.7818609E-02  0.8215183E-01
       -2   -1    0    0    0  501  0.00000000000E+00  0.00000000000E+00  0.10391472100E+04  0.10391472100E+04  0.25500000920E-02 0. -1.
        2   -1    0    0  501    0  0.00000000000E+00  0.00000000000E+00 -0.23150086142E+04  0.23150086142E+04  0.25500000920E-02 0.  1.
    10030    2    1    2    0    0  0.00000000000E+00  0.00000000000E+00 -0.12758614042E+04  0.33541558241E+04  0.31020217552E+04 0.  0.
        3    1    3    3  502    0 -0.10817690272E+04 -0.84970894739E+03  0.13683168881E+03  0.13823720356E+04  0.10100000352E+00 0. -1.
       -3    1    3    3    0  502  0.10817690272E+04  0.84970894739E+03 -0.14126930930E+04  0.19717837885E+04  0.10100000352E+00 0.  1.
</event>
<event>
 5   0  0.1171915E-06  0.3071292E+04  0.7818609E-02  0.8223661E-01
       -1   -1    0    0    0  501  0.00000000000E+00  0.00000000000E+00  0.12672914821E+04  0.12672914821E+04  0.50400001928E-02 0.  1.
        1   -1    0    0  501    0  0.00000000000E+00  0.00000000000E+00 -0.18608261754E+04  0.18608261754E+04  0.50400001928E-02 0. -1.
    10030    2    1    2    0    0  0.00000000000E+00  0.00000000000E+00 -0.59353469332E+03  0.31281176575E+04  0.30712923415E+04 0.  0.
        2    1    3    3  502    0 -0.51871257922E+03  0.13895563374E+04  0.10843728866E+03  0.14871745695E+04  0.25500000920E-02 0.  1.
       -2    1    3    3    0  502  0.51871257922E+03 -0.13895563374E+04 -0.70197198198E+03  0.16409430880E+04  0.25500000920E-02 0. -1.
</event>
<event>
 5   0  0.1235960E-06  0.3091720E+04  0.7818609E-02  0.8218014E-01
       -1   -1    0    0    0  501  0.00000000000E+00  0.00000000000E+00  0.10262849391E+04  0.10262849391E+04  0.50400001928E-02 0. -1.
        1   -1    0    0  501    0  0.00000000000E+00  0.00000000000E+00 -0.23284794475E+04  0.23284794475E+04  0.50400001928E-02 0.  1.
    10030    2    1    2    0    0  0.00000000000E+00  0.00000000000E+00 -0.13021945084E+04  0.33547643866E+04  0.30917201607E+04 0.  0.
        4    1    3    3  502    0  0.55973519933E+03  0.11350847941E+04 -0.16142921002E+04  0.20512585358E+04  0.12699999809E+01 0.  1.
       -4    1    3    3    0  502 -0.55973519933E+03 -0.11350847941E+04  0.31209759182E+03  0.13035058508E+04  0.12699999809E+01 0. -1.
</event>
<event>
 5   0  0.1109562E-06  0.2565366E+04  0.7818609E-02  0.8380062E-01
       -3   -1    0    0    0  501  0.00000000000E+00  0.00000000000E+00  0.12010245275E+04  0.12010245317E+04  0.10100000352E+00 0.  1.
        3   -1    0    0  501    0  0.00000000000E+00  0.00000000000E+00 -0.13698935953E+04  0.13698935991E+04  0.10100000352E+00 0. -1.
    10030    2    1    2    0    0  0.00000000000E+00  0.00000000000E+00 -0.16886906786E+03  0.25709181308E+04  0.25653661090E+04 0.  0.
        3    1    3    3  502    0 -0.82757147022E+03  0.92787472892E+03  0.23160452334E+03  0.12647002476E+04  0.10100000352E+00 0.  1.
       -3    1    3    3    0  502  0.82757147022E+03 -0.92787472892E+03 -0.40047359120E+03  0.13062178832E+04  0.10100000352E+00 0. -1.
</event>
<event>
 5   0  0.3445959E-06  0.3074918E+04  0.7818609E-02  0.8222655E-01
       -2   -1    0    0    0  501  0.00000000000E+00  0.00000000000E+00  0.16566704786E+04  0.16566704786E+04  0.25500000920E-02 0. -1.
        2   -1    0    0  501    0  0.00000000000E+00  0.00000000000E+00 -0.14268259097E+04  0.14268259097E+04  0.25500000920E-02 0.  1.
    10030    2    1    2    0    0  0.00000000000E+00  0.00000000000E+00  0.22984456887E+03  0.30834963883E+04  0.30749181209E+04 0.  0.
        4    1    3    3  502    0 -0.77340344587E+03 -0.13247374766E+04  0.21863458889E+03  0.15494789345E+04  0.12699999809E+01 0. -1.
       -4    1    3    3    0  502  0.77340344587E+03  0.13247374766E+04  0.11209979983E+02  0.15340174538E+04  0.12699999809E+01 0.  1.
</event>
<event>
 5   0  0.1250276E-06  0.3087371E+04  0.7818609E-02  0.8219212E-01
        1   -1    0    0  501    0  0.00000000000E+00  0.00000000000E+00  0.21814355339E+04  0.21814355339E+04  0.50400001928E-02 0.  1.
       -1   -1    0    0    0  501  0.00000000000E+00  0.00000000000E+00 -0.10923840672E+04  0.10923840673E+04  0.50400001928E-02 0. -1.
    10030    2    1    2    0    0  0.00000000000E+00  0.00000000000E+00  0.10890514667E+04  0.32738196012E+04  0.30873713227E+04 0.  0.
        5    1    3    3  502    0 -0.81080901803E+03  0.12959453845E+04  0.31695486812E+03  0.15612072834E+04  0.46999998093E+01 0. -1.
       -5    1    3    3    0  502  0.81080901803E+03 -0.12959453845E+04  0.77209659855E+03  0.17126123177E+04  0.46999998093E+01 0.  1.
</event>
<event>
 5   0  0.3374790E-06  0.3125013E+04  0.7818609E-02  0.8208907E-01
       -2   -1    0    0    0  501  0.00000000000E+00  0.00000000000E+00  0.18276351013E+04  0.18276351013E+04  0.25500000920E-02 0.  1.
        2   -1    0    0  501    0  0.00000000000E+00  0.00000000000E+00 -0.13358395267E+04  0.13358395267E+04  0.25500000920E-02 0. -1.
    10030    2    1    2    0    0  0.00000000000E+00  0.00000000000E+00  0.49179557462E+03  0.31634746281E+04  0.31250134136E+04 0.  0.
        2    1    3    3  502    0 -0.88617115892E+03  0.12278156770E+03  0.15426999227E+04  0.17833389155E+04  0.25500000920E-02 0.  1.
       -2    1    3    3    0  502  0.88617115892E+03 -0.12278156770E+03 -0.10509043480E+04  0.13801357125E+04  0.25500000920E-02 0. -1.
</event>
<event>
 5   0  0.1235960E-06  0.3082692E+04  0.7818609E-02  0.8220504E-01
       -1   -1    0    0    0  501  0.00000000000E+00  0.00000000000E+00  0.18254307480E+04  0.18254307480E+04  0.50400001928E-02 0. -1.
        1   -1    0    0  501    0  0.00000000000E+00  0.00000000000E+00 -0.13014720670E+04  0.13014720670E+04  0.50400001928E-02 0.  1.
    10030    2    1    2    0    0  0.00000000000E+00  0.00000000000E+00  0.52395868102E+03  0.31269028150E+04  0.30826917645E+04 0.  0.
        4    1    3    3  502    0 -0.54757809690E+03  0.13565664486E+04  0.75435966679E+03  0.16459569926E+04  0.12699999809E+01 0. -1.
       -4    1    3    3    0  502  0.54757809690E+03 -0.13565664486E+04 -0.23040098577E+03  0.14809458224E+04  0.12699999809E+01 0.  1.
</event>
<event>
 5   0  0.1198763E-06  0.2720831E+04  0.7818609E-02  0.8328278E-01
        1   -1    0    0  501    0  0.00000000000E+00  0.00000000000E+00  0.15362273931E+04  0.15362273931E+04  0.50400001928E-02 0. -1.
       -1   -1    0    0    0  501  0.00000000000E+00  0.00000000000E+00 -0.12047242855E+04  0.12047242855E+04  0.50400001928E-02 0.  1.
    10030    2    1    2    0    0  0.00000000000E+00  0.00000000000E+00  0.33150310759E+03  0.27409516787E+04  0.27208310852E+04 0.  0.
        1    1    3    3  502    0 -0.17631245106E+03 -0.50259121982E+03 -0.10953229093E+04  0.12179557834E+04  0.50400001928E-02 0.  1.
       -1    1    3    3    0  502  0.17631245106E+03  0.50259121982E+03  0.14268260169E+04  0.15229958953E+04  0.50400001928E-02 0. -1.
</event>
<event>
 5   0  0.3374790E-06  0.3157064E+04  0.7818609E-02  0.8200249E-01
       -2   -1    0    0    0  501  0.00000000000E+00  0.00000000000E+00  0.11900206678E+04  0.11900206678E+04  0.25500000920E-02 0. -1.
        2   -1    0    0  501    0  0.00000000000E+00  0.00000000000E+00 -0.20938827193E+04  0.20938827193E+04  0.25500000920E-02 0.  1.
    10030    2    1    2    0    0  0.00000000000E+00  0.00000000000E+00 -0.90386205151E+03  0.32839033871E+04  0.31570642767E+04 0.  0.
        2    1    3    3  502    0  0.34567945809E+03 -0.11178740297E+04  0.65017836823E+03  0.13386069417E+04  0.25500000920E-02 0. -1.
       -2    1    3    3    0  502 -0.34567945809E+03  0.11178740297E+04 -0.15540404197E+04  0.19452964453E+04  0.25500000920E-02 0.  1.
</event>
<event>
 5   0  0.3445410E-06  0.3096482E+04  0.7818609E-02  0.8216704E-01
        2   -1    0    0  501    0  0.00000000000E+00  0.00000000000E+00  0.18233115517E+04  0.18233115517E+04  0.25500000920E-02 0. -1.
       -2   -1    0    0    0  501  0.00000000000E+00  0.00000000000E+00 -0.13146687760E+04  0.13146687760E+04  0.25500000920E-02 0.  1.
    10030    2    1    2    0    0  0.00000000000E+00  0.00000000000E+00  0.50864277571E+03  0.31379803278E+04  0.30964823694E+04 0.  0.
        1    1    3    3  502    0 -0.48456842764E+03 -0.25630796765E+03 -0.12130304548E+04  0.13311435759E+04  0.50400001928E-02 0.  1.
       -1    1    3    3    0  502  0.48456842764E+03  0.25630796765E+03  0.17216732305E+04  0.18068367519E+04  0.50400001928E-02 0. -1.
</event>
<event>
 5   0  0.1171915E-06  0.3196686E+04  0.7818609E-02  0.8189693E-01
        1   -1    0    0  501    0  0.00000000000E+00  0.00000000000E+00  0.24937703908E+04  0.24937703908E+04  0.50400001928E-02 0. -1.
       -1   -1    0    0    0  501  0.00000000000E+00  0.00000000000E+00 -0.10244328792E+04  0.10244328792E+04  0.50400001928E-02 0.  1.
    10030    2    1    2    0    0  0.00000000000E+00  0.00000000000E+00  0.14693375116E+04  0.35182032700E+04  0.31966860224E+04 0.  0.
        2    1    3    3  502    0 -0.55063218975E+03  0.14999553411E+04  0.77921904103E+03  0.17777075540E+04  0.25500000920E-02 0. -1.
       -2    1    3    3    0  502  0.55063218975E+03 -0.14999553411E+04  0.69011847062E+03  0.17404957160E+04  0.25500000920E-02 0.  1.
</event>
<event>
 5   0  0.1198763E-06  0.3090516E+04  0.7818609E-02  0.8218345E-01
       -1   -1    0    0    0  501  0.00000000000E+00  0.00000000000E+00  0.13795845497E+04  0.13795845497E+04  0.50400001928E-02 0. -1.
        1   -1    0    0  501    0  0.00000000000E+00  0.00000000000E+00 -0.17308274240E+04  0.17308274240E+04  0.50400001928E-02 0.  1.
    10030    2    1    2    0    0  0.00000000000E+00  0.00000000000E+00 -0.35124287421E+03  0.31104119737E+04  0.30905163144E+04 0.  0.
        1    1    3    3  502    0  0.91360519913E+03 -0.11879996781E+04 -0.55461581297E+03  0.15980038783E+04  0.50400001928E-02 0.  1.
       -1    1    3    3    0  502 -0.91360519913E+03  0.11879996781E+04  0.20337293875E+03  0.15124080954E+04  0.50400001928E-02 0. -1.
</event>
<event>
 5   0  0.1198763E-06  0.3219427E+04  0.7818609E-02  0.8183705E-01
        1   -1    0    0  501    0  0.00000000000E+00  0.00000000000E+00  0.16745061407E+04  0.16745061407E+04  0.50400001928E-02 0.  1.
       -1   -1    0    0    0  501  0.00000000000E+00  0.00000000000E+00 -0.15474274759E+04  0.15474274760E+04  0.50400001928E-02 0. -1.
    10030    2    1    2    0    0  0.00000000000E+00  0.00000000000E+00  0.12707866478E+03  0.32219336167E+04  0.32194265395E+04 0.  0.
        1    1    3    3  502    0 -0.60272312486E+03  0.12359376330E+04  0.90106606374E+03  0.16440003191E+04  0.50400001928E-02 0. -1.
       -1    1    3    3    0  502  0.60272312486E+03 -0.12359376330E+04 -0.77398739896E+03  0.15779332976E+04  0.50400001928E-02 0.  1.
</event>
<event>
 5   0  0.3445959E-06  0.3113577E+04  0.7818609E-02  0.8212022E-01
       -2   -1    0    0    0  501  0.00000000000E+00  0.00000000000E+00  0.20546514292E+04  0.20546514292E+04  0.25500000920E-02 0.  1.
        2   -1    0    0  501    0  0.00000000000E+00  0.00000000000E+00 -0.11795624531E+04  0.11795624531E+04  0.25500000920E-02 0. -1.
    10030    2    1    2    0    0  0.00000000000E+00  0.00000000000E+00  0.87508897609E+03  0.32342138823E+04  0.31135765159E+04 0.  0.
        4    1    3    3  502    0  0.15384773814E+04 -0.10368044345E+03  0.66015079466E+03  0.16773380613E+04  0.12699999809E+01 0. -1.
       -4    1    3    3    0  502 -0.15384773814E+04  0.10368044345E+03  0.21493818143E+03  0.15568758210E+04  0.12699999809E+01 0.  1.
</event>
<event>
 5   0  0.1211008E-06  0.2512178E+04  0.7818609E-02  0.8398660E-01
       -1   -1    0    0    0  501  0.00000000000E+00  0.00000000000E+00  0.83277639632E+03  0.83277639633E+03  0.50400001928E-02 0. -1.
        1   -1    0    0  501    0  0.00000000000E+00  0.00000000000E+00 -0.18945776632E+04  0.18945776633E+04  0.50400001928E-02 0.  1.
    10030    2    1    2    0    0  0.00000000000E+00  0.00000000000E+00 -0.10618012669E+04  0.27273540596E+04  0.25121779865E+04 0.  0.
        3    1    3    3  502    0  0.12269390831E+04  0.17463864497E+03 -0.75307891351E+03  0.14501744827E+04  0.10100000352E+00 0.  1.
       -3    1    3    3    0  502 -0.12269390831E+04 -0.17463864497E+03 -0.30872235342E+03  0.12771795769E+04  0.10100000352E+00 0. -1.
</event>
<event>
 5   0  0.1198763E-06  0.2950004E+04  0.7818609E-02  0.8258153E-01
       -1   -1    0    0    0  501  0.00000000000E+00  0.00000000000E+00  0.17892197310E+04  0.17892197310E+04  0.50400001928E-02 0.  1.
        1   -1    0    0  501    0  0.00000000000E+00  0.00000000000E+00 -0.12159660986E+04  0.12159660986E+04  0.50400001928E-02 0. -1.
    10030    2    1    2    0    0  0.00000000000E+00  0.00000000000E+00  0.57325363240E+03  0.30051858296E+04  0.29500037531E+04 0.  0.
        1    1    3    3  502    0  0.12291672608E+04  0.65594627268E+03 -0.20669702331E+03  0.14084890227E+04  0.50400001928E-02 0. -1.
       -1    1    3    3    0  502 -0.12291672608E+04 -0.65594627268E+03  0.77995065571E+03  0.15966968068E+04  0.50400001928E-02 0.  1.
</event>
<event>
 5   0  0.1198763E-06  0.2933181E+04  0.7818609E-02  0.8263073E-01
        1   -1    0    0  501    0  0.00000000000E+00  0.00000000000E+00  0.14653142670E+04  0.14653142670E+04  0.50400001928E-02 0. -1.
       -1   -1    0    0    0  501  0.00000000000E+00  0.00000000000E+00 -0.14678682984E+04  0.14678682984E+04  0.50400001928E-02 0.  1.
    10030    2    1    2    0    0  0.00000000000E+00  0.00000000000E+00 -0.25540313876E+01  0.29331825655E+04  0.29331814535E+04 0.  0.
        1    1    3    3  502    0  0.90242880535E+03  0.33536991216E+03  0.11050857463E+04  0.14656279314E+04  0.50400001928E-02 0. -1.
       -1    1    3    3    0  502 -0.90242880535E+03 -0.33536991216E+03 -0.11076397777E+04  0.14675546340E+04  0.50400001928E-02 0.  1.
</event>
<event>
 5   0  0.3445959E-06  0.3072648E+04  0.7818609E-02  0.8223285E-01
       -2   -1    0    0    0  501  0.00000000000E+00  0.00000000000E+00  0.20949497830E+04  0.20949497830E+04  0.25500000920E-02 0.  1.
        2   -1    0    0  501    0  0.00000000000E+00  0.00000000000E+00 -0.11266580909E+04  0.11266580909E+04  0.25500000920E-02 0. -1.
    10030    2    1    2    0    0  0.00000000000E+00  0.00000000000E+00  0.96829169202E+03  0.32216078739E+04  0.30726484492E+04 0.  0.
        4    1    3    3  502    0  0.18866221213E+03  0.10990899378E+03 -0.11103069613E+04  0.11315726130E+04  0.12699999809E+01 0. -1.
       -4    1    3    3    0  502 -0.18866221213E+03 -0.10990899378E+03  0.20785986534E+04  0.20900352609E+04  0.12699999809E+01 0.  1.
</event>
<event>
 5   0  0.3340899E-06  0.3128443E+04  0.7818609E-02  0.8207975E-01
        2   -1    0    0  501    0  0.00000000000E+00  0.00000000000E+00  0.13146300229E+04  0.13146300229E+04  0.25500000920E-02 0. -1.
       -2   -1    0    0    0  501  0.00000000000E+00  0.00000000000E+00 -0.18611998655E+04  0.18611998655E+04  0.25500000920E-02 0.  1.
    10030    2    1    2    0    0  0.00000000000E+00  0.00000000000E+00 -0.54656984262E+03  0.31758298884E+04  0.31284432050E+04 0.  0.
        3    1    3    3  502    0 -0.40500253745E+03  0.74884579288E+03 -0.16054085703E+04  0.18171774169E+04  0.10100000352E+00 0.  1.
       -3    1    3    3    0  502  0.40500253745E+03 -0.74884579288E+03  0.10588387276E+04  0.13586524715E+04  0.10100000352E+00 0. -1.
</event>
<event>
 5   0  0.3441897E-06  0.3097874E+04  0.7818609E-02  0.8216322E-01
        2   -1    0    0  501    0  0.00000000000E+00  0.00000000000E+00  0.17894440793E+04  0.17894440793E+04  0.25500000920E-02 0. -1.
       -2   -1    0    0    0  501  0.00000000000E+00  0.00000000000E+00 -0.13407547314E+04  0.13407547314E+04  0.25500000920E-02 0.  1.
    10030    2    1    2    0    0  0.00000000000E+00  0.00000000000E+00  0.44868934786E+03  0.31301988107E+04  0.30978738618E+04 0.  0.
        5    1    3    3  502    0  0.83126090956E+03 -0.83347332482E+02  0.15422713419E+04  0.17540138140E+04  0.46999998093E+01 0. -1.
       -5    1    3    3    0  502 -0.83126090956E+03  0.83347332482E+02 -0.10935819940E+04  0.13761849967E+04  0.46999998093E+01 0.  1.
</event>
<event>
 5   0  0.3340899E-06  0.3121275E+04  0.7818609E-02  0.8209923E-01
       -2   -1    0    0    0  501  0.00000000000E+00  0.00000000000E+00  0.13982229352E+04  0.13982229352E+04  0.25500000920E-02 0.  1.
        2   -1    0    0  501    0  0.00000000000E+00  0.00000000000E+00 -0.17419172886E+04  0.17419172886E+04  0.25500000920E-02 0. -1.
    10030    2    1    2    0    0  0.00000000000E+00  0.00000000000E+00 -0.34369435340E+03  0.31401402239E+04  0.31212745501E+04 0.  0.
        3    1    3    3  502    0 -0.10875305663E+04  0.10893745900E+04 -0.43055700638E+03  0.15983863976E+04  0.10100000352E+00 0. -1.
       -3    1    3    3    0  502  0.10875305663E+04 -0.10893745900E+04  0.86862652973E+02  0.15417538263E+04  0.10100000352E+00 0.  1.
</event>
<event>
 5   0  0.1250276E-06  0.3104311E+04  0.7818609E-02  0.8214556E-01
       -1   -1    0    0    0  501  0.00000000000E+00  0.00000000000E+00  0.10135776329E+04  0.10135776329E+04  0.50400001928E-02 0.  1.
        1   -1    0    0  501    0  0.00000000000E+00  0.00000000000E+00 -0.23769134367E+04  0.23769134367E+04  0.50400001928E-02 0. -1.
    10030    2    1    2    0    0  0.00000000000E+00  0.00000000000E+00 -0.13633358038E+04  0.33904910695E+04  0.31043107413E+04 0.  0.
        5    1    3    3  502    0  0.31445604436E+03  0.82265545377E+03  0.71424908681E+03  0.11339393491E+04  0.46999998093E+01 0.  1.
       -5    1    3    3    0  502 -0.31445604436E+03 -0.82265545377E+03 -0.20775848906E+04  0.22565517204E+04  0.46999998093E+01 0. -1.
</event>
<event>
 5   0  0.3441897E-06  0.3121741E+04  0.7818609E-02  0.8209797E-01
        2   -1    0    0  501    0  0.00000000000E+00  0.00000000000E+00  0.22119085135E+04  0.22119085135E+04  0.25500000920E-02 0. -1.
       -2   -1    0    0    0  501  0.00000000000E+00  0.00000000000E+00 -0.11014542473E+04  0.11014542473E+04  0.25500000920E-02 0.  1.
    10030    2    1    2    0    0  0.00000000000E+00  0.00000000000E+00  0.11104542662E+04  0.33133627607E+04  0.31217405573E+04 0.  0.
        5    1    3    3  502    0  0.36165570807E+03  0.38330531874E+03 -0.10041668855E+04  0.11340595410E+04  0.46999998093E+01 0.  1.
       -5    1    3    3    0  502 -0.36165570807E+03 -0.38330531874E+03  0.21146211517E+04  0.21793032198E+04  0.46999998093E+01 0. -1.
</event>
<event>
 5   0  0.3374790E-06  0.3132435E+04  0.7818609E-02  0.8206892E-01
        2   -1    0    0  501    0  0.00000000000E+00  0.00000000000E+00  0.11859322574E+04  0.11859322574E+04  0.25500000920E-02 0.  1.
       -2   -1    0    0    0  501  0.00000000000E+00  0.00000000000E+00 -0.20684461282E+04  0.20684461282E+04  0.25500000920E-02 0. -1.
    10030    2    1    2    0    0  0.00000000000E+00  0.00000000000E+00 -0.88251387082E+03  0.32543783857E+04  0.31324348269E+04 0.  0.
        2    1    3    3  502    0  0.14535505708E+03 -0.12180877439E+04 -0.14529048008E+04  0.19015252312E+04  0.25500000920E-02 0. -1.
       -2    1    3    3    0  502 -0.14535505708E+03  0.12180877439E+04  0.57039093000E+03  0.13528531545E+04  0.25500000920E-02 0.  1.
</event>
<event>
 5   0  0.3441897E-06  0.3117840E+04  0.7818609E-02  0.8210859E-01
       -2   -1    0    0    0  501  0.00000000000E+00  0.00000000000E+00  0.79165910269E+03  0.79165910269E+03  0.25500000920E-02 0. -1.
        2   -1    0    0  501    0  0.00000000000E+00  0.00000000000E+00 -0.30697947419E+04  0.30697947419E+04  0.25500000920E-02 0.  1.
    10030    2    1    2    0    0  0.00000000000E+00  0.00000000000E+00 -0.22781356393E+04  0.38614538446E+04  0.31178396051E+04 0.  0.
        5    1    3    3  502    0 -0.14685114464E+04  0.31073260253E+03 -0.61782391990E+03  0.16232095073E+04  0.46999998093E+01 0. -1.
       -5    1    3    3    0  502  0.14685114464E+04 -0.31073260253E+03 -0.16603117194E+04  0.22382443374E+04  0.46999998093E+01 0.  1.
</event>
<event>
 5   0  0.1198763E-06  0.3158176E+04  0.7818609E-02  0.8199951E-01
       -1   -1    0    0    0  501  0.00000000000E+00  0.00000000000E+00  0.18592111866E+04  0.18592111866E+04  0.50400001928E-02 0. -1.
        1   -1    0    0  501    0  0.00000000000E+00  0.00000000000E+00 -0.13411704726E+04  0.13411704726E+04  0.50400001928E-02 0.  1.
    10030    2    1    2    0    0  0.00000000000E+00  0.00000000000E+00  0.51804071403E+03  0.32003816593E+04  0.31581761483E+04 0.  0.
        1    1    3    3  502    0 -0.72473140052E+03 -0.12476688378E+04 -0.39111873376E+03  0.14949538440E+04  0.50400001928E-02 0.  1.
       -1    1    3    3    0  502  0.72473140052E+03  0.12476688378E+04  0.90915944780E+03  0.17054278153E+04  0.50400001928E-02 0. -1.
</event>
<event>
 5   0  0.3374790E-06  0.3094049E+04  0.7818609E-02  0.8217373E-01
       -2   -1    0    0    0  501  0.00000000000E+00  0.00000000000E+00  0.17699083774E+04  0.17699083774E+04  0.25500000920E-02 0.  1.
        2   -1    0    0  501    0  0.00000000000E+00  0.00000000000E+00 -0.13522085159E+04  0.13522085159E+04  0.25500000920E-02 0. -1.
    10030    2    1    2    0    0  0.00000000000E+00  0.00000000000E+00  0.41769986144E+03  0.31221168933E+04  0.30940492435E+04 0.  0.
        2    1    3    3  502    0 -0.65194580533E+03 -0.61218058369E+03  0.14826350475E+04  0.17314748292E+04  0.25500000920E-02 0.  1.
       -2    1    3    3    0  502  0.65194580533E+03  0.61218058369E+03 -0.10649351860E+04  0.13906420641E+04  0.25500000920E-02 0. -1.
</event>
<event>
 5   0  0.1250276E-06  0.3077538E+04  0.7818609E-02  0.8221930E-01
        1   -1    0    0  501    0  0.00000000000E+00  0.00000000000E+00  0.13663601559E+04  0.13663601559E+04  0.50400001928E-02 0.  1.
       -1   -1    0    0    0  501  0.00000000000E+00  0.00000000000E+00 -0.17329322614E+04  0.17329322614E+04  0.50400001928E-02 0. -1.
    10030    2    1    2    0    0  0.00000000000E+00  0.00000000000E+00 -0.36657210553E+03  0.30992924173E+04  0.30775377137E+04 0.  0.
        5    1    3    3  502    0  0.28020030316E+03 -0.86140931836E+03  0.10693915566E+04  0.14014844327E+04  0.46999998093E+01 0.  1.
       -5    1    3    3    0  502 -0.28020030316E+03  0.86140931836E+03 -0.14359636621E+04  0.16978079846E+04  0.46999998093E+01 0. -1.
</event>
<event>
 5   0  0.1211008E-06  0.3096250E+04  0.7818609E-02  0.8216768E-01
        1   -1    0    0  501    0  0.00000000000E+00  0.00000000000E+00  0.20267925043E+04  0.20267925043E+04  0.50400001928E-02 0.  1.
       -1   -1    0    0    0  501  0.00000000000E+00  0.00000000000E+00 -0.11825047335E+04  0.11825047335E+04  0.50400001928E-02 0. -1.
    10030    2    1    2    0    0  0.00000000000E+00  0.00000000000E+00  0.84428777075E+03  0.32092972378E+04  0.30962504616E+04 0.  0.
        3    1    3    3  502    0 -0.65593312212E+02 -0.15823258624E+02 -0.11809798760E+04  0.11829058863E+04  0.10100000352E+00 0. -1.
       -3    1    3    3    0  502  0.65593312212E+02  0.15823258624E+02  0.20252676468E+04  0.20263913515E+04  0.10100000352E+00 0.  1.
</event>
<event>
 5   0  0.3445959E-06  0.3117437E+04  0.7818609E-02  0.8210969E-01
       -2   -1    0    0    0  501  0.00000000000E+00  0.00000000000E+00  0.18590419752E+04  0.18590419752E+04  0.25500000920E-02 0.  1.
        2   -1    0    0  501    0  0.00000000000E+00  0.00000000000E+00 -0.13069117974E+04  0.13069117974E+04  0.25500000920E-02 0. -1.
    10030    2    1    2    0    0  0.00000000000E+00  0.00000000000E+00  0.55213017780E+03  0.31659537725E+04  0.31174373380E+04 0.  0.
        4    1    3    3  502    0 -0.48552339819E+03  0.14404598167E+04 -0.74186091654E+02  0.15218944257E+04  0.12699999809E+01 0. -1.
       -4    1    3    3    0  502  0.48552339819E+03 -0.14404598167E+04  0.62631626945E+03  0.16440593469E+04  0.12699999809E+01 0.  1.
</event>
<event>
 5   0  0.1250276E-06  0.3120577E+04  0.7818609E-02  0.8210113E-01
        1   -1    0    0  501    0  0.00000000000E+00  0.00000000000E+00  0.20245112686E+04  0.20245112687E+04  0.50400001928E-02 0. -1.
       -1   -1    0    0    0  501  0.00000000000E+00  0.00000000000E+00 -0.12025122577E+04  0.12025122578E+04  0.50400001928E-02 0.  1.
    10030    2    1    2    0    0  0.00000000000E+00  0.00000000000E+00  0.82199901090E+03  0.32270235264E+04  0.31205766240E+04 0.  0.
        5    1    3    3  502    0  0.13026604857E+04 -0.62165141685E+03  0.10237509818E+04  0.17695940177E+04  0.46999998093E+01 0.  1.
       -5    1    3    3    0  502 -0.13026604857E+04  0.62165141685E+03 -0.20175197089E+03  0.14574295087E+04  0.46999998093E+01 0. -1.
</event>
<event>
 5   0  0.1198763E-06  0.2946513E+04  0.7818609E-02  0.8259171E-01
        1   -1    0    0  501    0  0.00000000000E+00  0.00000000000E+00  0.11053817109E+04  0.11053817109E+04  0.50400001928E-02 0. -1.
       -1   -1    0    0    0  501  0.00000000000E+00  0.00000000000E+00 -0.19635612960E+04  0.19635612960E+04  0.50400001928E-02 0.  1.
    10030    2    1    2    0    0  0.00000000000E+00  0.00000000000E+00 -0.85817958508E+03  0.30689430069E+04  0.29465130204E+04 0.  0.
        1    1    3    3  502    0  0.64083660762E+03 -0.11153290037E+04 -0.11771628760E+04  0.17436578738E+04  0.50400001928E-02 0.  1.
       -1    1    3    3    0  502 -0.64083660762E+03  0.11153290037E+04  0.31898329092E+03  0.13252851331E+04  0.50400001928E-02 0. -1.
</event>
<event>
 5   0  0.1250276E-06  0.2913333E+04  0.7818609E-02  0.8268921E-01
        1   -1    0    0  501    0  0.00000000000E+00  0.00000000000E+00  0.20299124328E+04  0.20299124328E+04  0.50400001928E-02 0.  1.
       -1   -1    0    0    0  501  0.00000000000E+00  0.00000000000E+00 -0.10453050705E+04  0.10453050705E+04  0.50400001928E-02 0. -1.
    10030    2    1    2    0    0  0.00000000000E+00  0.00000000000E+00  0.98460736226E+03  0.30752175033E+04  0.29133333202E+04 0.  0.
        5    1    3    3  502    0 -0.91315252530E+03  0.11263596132E+04  0.34557552738E+03  0.14906300842E+04  0.46999998093E+01 0.  1.
       -5    1    3    3    0  502  0.91315252530E+03 -0.11263596132E+04  0.63903183488E+03  0.15845874191E+04  0.46999998093E+01 0. -1.
</event>
<event>
 5   0  0.3441897E-06  0.3101169E+04  0.7818609E-02  0.8215417E-01
       -2   -1    0    0    0  501  0.00000000000E+00  0.00000000000E+00  0.16139003393E+04  0.16139003393E+04  0.25500000920E-02 0.  1.
        2   -1    0    0  501    0  0.00000000000E+00  0.00000000000E+00 -0.14897526757E+04  0.14897526757E+04  0.25500000920E-02 0. -1.
    10030    2    1    2    0    0  0.00000000000E+00  0.00000000000E+00  0.12414766364E+03  0.31036530150E+04  0.31011690368E+04 0.  0.
        5    1    3    3  502    0  0.41469771823E+03  0.88878632800E+02  0.15547162903E+04  0.16115329479E+04  0.46999998093E+01 0.  1.
       -5    1    3    3    0  502 -0.41469771823E+03 -0.88878632800E+02 -0.14305686267E+04  0.14921200670E+04  0.46999998093E+01 0. -1.
</event>
<event>
 5   0  0.1198763E-06  0.3128309E+04  0.7818609E-02  0.8208011E-01
       -1   -1    0    0    0  501  0.00000000000E+00  0.00000000000E+00  0.19142099178E+04  0.19142099178E+04  0.50400001928E-02 0. -1.
        1   -1    0    0  501    0  0.00000000000E+00  0.00000000000E+00 -0.12781145080E+04  0.12781145080E+04  0.50400001928E-02 0.  1.
    10030    2    1    2    0    0  0.00000000000E+00  0.00000000000E+00  0.63609540979E+03  0.31923244258E+04  0.31283091071E+04 0.  0.
        1    1    3    3  502    0  0.40891043568E+03 -0.95716121494E+03  0.15095075265E+04  0.18335698264E+04  0.50400001928E-02 0. -1.
       -1    1    3    3    0  502 -0.40891043568E+03  0.95716121494E+03 -0.87341211669E+03  0.13587545994E+04  0.50400001928E-02 0.  1.
</event>
<event>
 5   0  0.1109562E-06  0.3132731E+04  0.7818609E-02  0.8206812E-01
       -3   -1    0    0    0  501  0.00000000000E+00  0.00000000000E+00  0.14965175755E+04  0.14965175789E+04  0.10100000352E+00 0. -1.
        3   -1    0    0  501    0  0.00000000000E+00  0.00000000000E+00 -0.16394734628E+04  0.16394734660E+04  0.10100000352E+00 0.  1.
    10030    2    1    2    0    0  0.00000000000E+00  0.00000000000E+00 -0.14295588737E+03  0.31359910448E+04  0.31327309887E+04 0.  0.
        4    1    3    3  502    0 -0.87293099151E+03  0.12129330547E+04 -0.54131073406E+03  0.15894131102E+04  0.12699999809E+01 0.  1.
       -4    1    3    3    0  502  0.87293099151E+03 -0.12129330547E+04  0.39835484669E+03  0.15465779346E+04  0.12699999809E+01 0. -1.
</event>
<event>
 5   0  0.3441897E-06  0.3112346E+04  0.7818609E-02  0.8212358E-01
        2   -1    0    0  501    0  0.00000000000E+00  0.00000000000E+00  0.19531553292E+04  0.19531553292E+04  0.25500000920E-02 0.  1.
       -2   -1    0    0    0  501  0.00000000000E+00  0.00000000000E+00 -0.12398781028E+04  0.12398781028E+04  0.25500000920E-02 0. -1.
    10030    2    1    2    0    0  0.00000000000E+00  0.00000000000E+00  0.71327722640E+03  0.31930334320E+04  0.31123460759E+04 0.  0.
        5    1    3    3  502    0  0.16027592018E+03 -0.13941476785E+04 -0.33334171601E+03  0.14423851461E+04  0.46999998093E+01 0. -1.
       -5    1    3    3    0  502 -0.16027592018E+03  0.13941476785E+04  0.10466189424E+04  0.17506482859E+04  0.46999998093E+01 0.  1.
</event>
<event>
 5   0  0.1250276E-06  0.2894551E+04  0.7818609E-02  0.8274501E-01
       -1   -1    0    0    0  501  0.00000000000E+00  0.00000000000E+00  0.15941397315E+04  0.15941397315E+04  0.50400001928E-02 0.  1.
        1   -1    0    0  501    0  0.00000000000E+00  0.00000000000E+00 -0.13139411028E+04  0.13139411029E+04  0.50400001928E-02 0. -1.
    10030    2    1    2    0    0  0.00000000000E+00  0.00000000000E+00  0.28019862868E+03  0.29080808344E+04  0.28945505468E+04 0.  0.
        5    1    3    3  502    0 -0.49553719604E+03 -0.13212667639E+04  0.46297461498E+03  0.14851500120E+04  0.46999998093E+01 0.  1.
       -5    1    3    3    0  502  0.49553719604E+03  0.13212667639E+04 -0.18277598630E+03  0.14229308224E+04  0.46999998093E+01 0. -1.
</event>
<event>
 5   0  0.3445959E-06  0.3094339E+04  0.7818609E-02  0.8217293E-01
        2   -1    0    0  501    0  0.00000000000E+00  0.00000000000E+00  0.15624244989E+04  0.15624244989E+04  0.25500000920E-02 0.  1.
       -2   -1    0    0    0  501  0.00000000000E+00  0.00000000000E+00 -0.15320633552E+04  0.15320633552E+04  0.25500000920E-02 0. -1.
    10030    2    1    2    0    0  0.00000000000E+00  0.00000000000E+00  0.30361143743E+02  0.30944878541E+04  0.30943389085E+04 0.  0.
        4    1    3    3  502    0 -0.56403017411E+03 -0.14234242829E+04 -0.20723737432E+03  0.15450617039E+04  0.12699999809E+01 0. -1.
       -4    1    3    3    0  502  0.56403017411E+03  0.14234242829E+04  0.23759851806E+03  0.15494261503E+04  0.12699999809E+01 0.  1.
</event>
<event>
 5   0  0.1235960E-06  0.3073646E+04  0.7818609E-02  0.8223008E-01
       -1   -1    0    0    0  501  0.00000000000E+00  0.00000000000E+00  0.15896363155E+04  0.15896363155E+04  0.50400001928E-02 0.  1.
        1   -1    0    0  501    0  0.00000000000E+00  0.00000000000E+00 -0.14857644087E+04  0.14857644088E+04  0.50400001928E-02 0. -1.
    10030    2    1    2    0    0  0.00000000000E+00  0.00000000000E+00  0.10387190671E+03  0.30754007242E+04  0.30736460827E+04 0.  0.
        4    1    3    3  502    0  0.30737388261E+03 -0.14618590731E+04 -0.30925875754E+03  0.15255009817E+04  0.12699999809E+01 0. -1.
       -4    1    3    3    0  502 -0.30737388261E+03  0.14618590731E+04  0.41313066426E+03  0.15498997425E+04  0.12699999809E+01 0.  1.
</event>
<event>
 5   0  0.1171915E-06  0.3110309E+04  0.7818609E-02  0.8212914E-01
       -1   -1    0    0    0  501  0.00000000000E+00  0.00000000000E+00  0.13124983674E+04  0.13124983674E+04  0.50400001928E-02 0. -1.
        1   -1    0    0  501    0  0.00000000000E+00  0.00000000000E+00 -0.18426733572E+04  0.18426733572E+04  0.50400001928E-02 0.  1.
    10030    2    1    2    0    0  0.00000000000E+00  0.00000000000E+00 -0.53017498978E+03  0.31551717247E+04  0.31103091635E+04 0.  0.
        2    1    3    3  502    0  0.22627479321E+03 -0.89628314917E+03  0.10035434998E+04  0.13644131785E+04  0.25500000920E-02 0. -1.
       -2    1    3    3    0  502 -0.22627479321E+03  0.89628314917E+03 -0.15337184896E+04  0.17907585462E+04  0.25500000920E-02 0.  1.
</event>
<event>
 5   0  0.1211008E-06  0.3082553E+04  0.7818609E-02  0.8220542E-01
        1   -1    0    0  501    0  0.00000000000E+00  0.00000000000E+00  0.23084366191E+04  0.23084366191E+04  0.50400001928E-02 0. -1.
       -1   -1    0    0    0  501  0.00000000000E+00  0.00000000000E+00 -0.10290661340E+04  0.10290661340E+04  0.50400001928E-02 0.  1.
    10030    2    1    2    0    0  0.00000000000E+00  0.00000000000E+00  0.12793704851E+04  0.33375027532E+04  0.30825534528E+04 0.  0.
        3    1    3    3  502    0  0.14104509487E+04 -0.46079075389E+03  0.10911026506E+04  0.18417939629E+04  0.10100000352E+00 0. -1.
       -3    1    3    3    0  502 -0.14104509487E+04  0.46079075389E+03  0.18826783451E+03  0.14957087902E+04  0.10100000352E+00 0.  1.
</event>
<event>
 5   0  0.3340899E-06  0.3046231E+04  0.7818609E-02  0.8230651E-01
        2   -1    0    0  501    0  0.00000000000E+00  0.00000000000E+00  0.16189230160E+04  0.16189230160E+04  0.25500000920E-02 0. -1.
       -2   -1    0    0    0  501  0.00000000000E+00  0.00000000000E+00 -0.14329782088E+04  0.14329782088E+04  0.25500000920E-02 0.  1.
    10030    2    1    2    0    0  0.00000000000E+00  0.00000000000E+00  0.18594480723E+03  0.30519012248E+04  0.30462313790E+04 0.  0.
        3    1    3    3  502    0  0.95925933681E+02  0.13046045749E+03  0.16102745632E+04  0.16183960871E+04  0.10100000352E+00 0. -1.
       -3    1    3    3    0  502 -0.95925933681E+02 -0.13046045749E+03 -0.14243297560E+04  0.14335051377E+04  0.10100000352E+00 0.  1.
</event>
<event>
 5   0  0.1171915E-06  0.3117853E+04  0.7818609E-02  0.8210855E-01
       -1   -1    0    0    0  501  0.00000000000E+00  0.00000000000E+00  0.19929714956E+04  0.19929714956E+04  0.50400001928E-02 0.  1.
        1   -1    0    0  501    0  0.00000000000E+00  0.00000000000E+00 -0.12194112405E+04  0.12194112405E+04  0.50400001928E-02 0. -1.
    10030    2    1    2    0    0  0.00000000000E+00  0.00000000000E+00  0.77356025510E+03  0.32123827361E+04  0.31178530073E+04 0.  0.
        2    1    3    3  502    0 -0.13452687814E+04 -0.72389701487E+03  0.70680462917E+03  0.16832551103E+04  0.25500000920E-02 0. -1.
       -2    1    3    3    0  502  0.13452687814E+04  0.72389701487E+03  0.66755625926E+02  0.15291276258E+04  0.25500000920E-02 0.  1.
</event>
<event>
 5   0  0.1171915E-06  0.2981688E+04  0.7818609E-02  0.8248979E-01
        1   -1    0    0  501    0  0.00000000000E+00  0.00000000000E+00  0.70481223344E+03  0.70481223345E+03  0.50400001928E-02 0. -1.
       -1   -1    0    0    0  501  0.00000000000E+00  0.00000000000E+00 -0.31534867096E+04  0.31534867096E+04  0.50400001928E-02 0.  1.
    10030    2    1    2    0    0  0.00000000000E+00  0.00000000000E+00 -0.24486744761E+04  0.38582989430E+04  0.29816881198E+04 0.  0.
        2    1    3    3  502    0 -0.59657477205E+03 -0.71205304332E+03  0.28454175357E+03  0.97153744379E+03  0.25500000920E-02 0. -1.
       -2    1    3    3    0  502  0.59657477205E+03  0.71205304332E+03 -0.27332162297E+04  0.28867614992E+04  0.25500000920E-02 0.  1.
</event>
<event>
 5   0  0.3441897E-06  0.3089962E+04  0.7818609E-02  0.8218498E-01
       -2   -1    0    0    0  501  0.00000000000E+00  0.00000000000E+00  0.13791893645E+04  0.13791893645E+04  0.25500000920E-02 0. -1.
        2   -1    0    0  501    0  0.00000000000E+00  0.00000000000E+00 -0.17307022220E+04  0.17307022220E+04  0.25500000920E-02 0.  1.
    10030    2    1    2    0    0  0.00000000000E+00  0.00000000000E+00 -0.35151285749E+03  0.31098915866E+04  0.30899618754E+04 0.  0.
        5    1    3    3  502    0  0.44036326758E+03 -0.14519223526E+04  0.11757782698E+03  0.15217900515E+04  0.46999998093E+01 0. -1.
       -5    1    3    3    0  502 -0.44036326758E+03  0.14519223526E+04 -0.46909068447E+03  0.15881015351E+04  0.46999998093E+01 0.  1.
</event>
<event>
 5   0  0.3445959E-06  0.3145414E+04  0.7818609E-02  0.8203384E-01
        2   -1    0    0  501    0  0.00000000000E+00  0.00000000000E+00  0.21438045296E+04  0.21438045296E+04  0.25500000920E-02 0.  1.
       -2   -1    0    0    0  501  0.00000000000E+00  0.00000000000E+00 -0.11537469792E+04  0.11537469792E+04  0.25500000920E-02 0. -1.
    10030    2    1    2    0    0  0.00000000000E+00  0.00000000000E+00  0.99005755045E+03  0.32975515088E+04  0.31454144401E+04 0.  0.
        4    1    3    3  502    0  0.15129589565E+04 -0.31592015825E+03  0.19017890049E+03  0.15572475646E+04  0.12699999809E+01 0.  1.
       -4    1    3    3    0  502 -0.15129589565E+04  0.31592015825E+03  0.79987864996E+03  0.17403039442E+04  0.12699999809E+01 0. -1.
</event>
<event>
 5   0  0.1171915E-06  0.3135124E+04  0.7818609E-02  0.8206164E-01
        1   -1    0    0  501    0  0.00000000000E+00  0.00000000000E+00  0.19663062680E+04  0.19663062680E+04  0.50400001928E-02 0.  1.
       -1   -1    0    0    0  501  0.00000000000E+00  0.00000000000E+00 -0.12496784382E+04  0.12496784383E+04  0.50400001928E-02 0. -1.
    10030    2    1    2    0    0  0.00000000000E+00  0.00000000000E+00  0.71662782977E+03  0.32159847063E+04  0.31351239504E+04 0.  0.
        2    1    3    3  502    0  0.22490165965E+03  0.67168194391E+03  0.17927778374E+04  0.19276383905E+04  0.25500000920E-02 0.  1.
       -2    1    3    3    0  502 -0.22490165965E+03 -0.67168194391E+03 -0.10761500077E+04  0.12883463157E+04  0.25500000920E-02 0. -1.
</event>
<event>
 5   0  0.1211008E-06  0.3048416E+04  0.7818609E-02  0.8230039E-01
        1   -1    0    0  501    0  0.00000000000E+00  0.00000000000E+00  0.94742096137E+03  0.94742096139E+03  0.50400001928E-02 0. -1.
       -1   -1    0    0    0  501  0.00000000000E+00  0.00000000000E+00 -0.24521410087E+04  0.24521410087E+04  0.50400001928E-02 0.  1.
    10030    2    1    2    0    0  0.00000000000E+00  0.00000000000E+00 -0.15047200473E+04  0.33995619700E+04  0.30484158456E+04 0.  0.
        3    1    3    3  502    0  0.43801966123E+03 -0.68217614369E+03 -0.21917689770E+04  0.23368946860E+04  0.10100000352E+00 0.  1.
       -3    1    3    3    0  502 -0.43801966123E+03  0.68217614369E+03  0.68704892970E+03  0.10626672841E+04  0.10100000352E+00 0. -1.
</event>
<event>
 5   0  0.1211008E-06  0.3118325E+04  0.7818609E-02  0.8210727E-01
        1   -1    0    0  501    0  0.00000000000E+00  0.00000000000E+00  0.14168783947E+04  0.14168783948E+04  0.50400001928E-02 0. -1.
       -1   -1    0    0    0  501  0.00000000000E+00  0.00000000000E+00 -0.17157353109E+04  0.17157353109E+04  0.50400001928E-02 0.  1.
    10030    2    1    2    0    0  0.00000000000E+00  0.00000000000E+00 -0.29885691614E+03  0.31326137056E+04  0.31183253795E+04 0.  0.
        3    1    3    3  502    0 -0.13097612489E+04  0.66767798144E+01 -0.99915831426E+03  0.16473725916E+04  0.10100000352E+00 0.  1.
       -3    1    3    3    0  502  0.13097612489E+04 -0.66767798144E+01  0.70030139812E+03  0.14852411140E+04  0.10100000352E+00 0. -1.
</event>
<event>
 5   0  0.3374790E-06  0.3254368E+04  0.7818609E-02  0.8174604E-01
        2   -1    0    0  501    0  0.00000000000E+00  0.00000000000E+00  0.23116783907E+04  0.23116783907E+04  0.25500000920E-02 0.  1.
       -2   -1    0    0    0  501  0.00000000000E+00  0.00000000000E+00 -0.11453703003E+04  0.11453703003E+04  0.25500000920E-02 0. -1.
    10030    2    1    2    0    0  0.00000000000E+00  0.00000000000E+00  0.11663080904E+04  0.34570486909E+04  0.32543680016E+04 0.  0.
        2    1    3    3  502    0  0.14218939766E+04 -0.78928465988E+03  0.64109472673E+03  0.17480718531E+04  0.25500000920E-02 0. -1.
       -2    1    3    3    0  502 -0.14218939766E+04  0.78928465988E+03  0.52521336369E+03  0.17089768379E+04  0.25500000920E-02 0.  1.
</event>
<event>
 5   0  0.1198763E-06  0.3098899E+04  0.7818609E-02  0.8216040E-01
       -1   -1    0    0    0  501  0.00000000000E+00  0.00000000000E+00  0.18015601036E+04  0.18015601037E+04  0.50400001928E-02 0. -1.
        1   -1    0    0  501    0  0.00000000000E+00  0.00000000000E+00 -0.13326192533E+04  0.13326192533E+04  0.50400001928E-02 0.  1.
    10030    2    1    2    0    0  0.00000000000E+00  0.00000000000E+00  0.46894085034E+03  0.31341793570E+04  0.30988989529E+04 0.  0.
        1    1    3    3  502    0 -0.39630101601E+03 -0.18649473557E+03 -0.12687070113E+04  0.13421819036E+04  0.50400001928E-02 0.  1.
       -1    1    3    3    0  502  0.39630101601E+03  0.18649473557E+03  0.17376478617E+04  0.17919974534E+04  0.50400001928E-02 0. -1.
</event>
<event>
 5   0  0.3441897E-06  0.3095924E+04  0.7818609E-02  0.8216857E-01
        2   -1    0    0  501    0  0.00000000000E+00  0.00000000000E+00  0.13727861992E+04  0.13727861992E+04  0.25500000920E-02 0. -1.
       -2   -1    0    0    0  501  0.00000000000E+00  0.00000000000E+00 -0.17454916703E+04  0.17454916703E+04  0.25500000920E-02 0.  1.
    10030    2    1    2    0    0  0.00000000000E+00  0.00000000000E+00 -0.37270547108E+03  0.31182778694E+04  0.30959243374E+04 0.  0.
        5    1    3    3  502    0 -0.42878369790E+03  0.11126788960E+04 -0.11805230613E+04  0.16779650096E+04  0.46999998093E+01 0. -1.
       -5    1    3    3    0  502  0.42878369790E+03 -0.11126788960E+04  0.80781759019E+03  0.14403128598E+04  0.46999998093E+01 0.  1.
</event>
<event>
 5   0  0.1211008E-06  0.3096689E+04  0.7818609E-02  0.8216647E-01
        1   -1    0    0  501    0  0.00000000000E+00  0.00000000000E+00  0.14125596331E+04  0.14125596331E+04  0.50400001928E-02 0.  1.
       -1   -1    0    0    0  501  0.00000000000E+00  0.00000000000E+00 -0.16971818976E+04  0.16971818976E+04  0.50400001928E-02 0. -1.
    10030    2    1    2    0    0  0.00000000000E+00  0.00000000000E+00 -0.28462226452E+03  0.31097415308E+04  0.30966889664E+04 0.  0.
        3    1    3    3  502    0  0.29069764415E+03 -0.27154838279E+03 -0.16449896191E+04  0.16924049461E+04  0.10100000352E+00 0. -1.
       -3    1    3    3    0  502 -0.29069764415E+03  0.27154838279E+03  0.13603673546E+04  0.14173365846E+04  0.10100000352E+00 0.  1.
</event>
<event>
 5   0  0.3374790E-06  0.2790924E+04  0.7818609E-02  0.8306092E-01
       -2   -1    0    0    0  501  0.00000000000E+00  0.00000000000E+00  0.90865276586E+03  0.90865276587E+03  0.25500000920E-02 0. -1.
        2   -1    0    0  501    0  0.00000000000E+00  0.00000000000E+00 -0.21430779268E+04  0.21430779268E+04  0.25500000920E-02 0.  1.
    10030    2    1    2    0    0  0.00000000000E+00  0.00000000000E+00 -0.12344251609E+04  0.30517306927E+04  0.27909236361E+04 0.  0.
        2    1    3    3  502    0  0.13429453356E+02 -0.61880977842E+03 -0.19847696994E+04  0.20790422439E+04  0.25500000920E-02 0.  1.
       -2    1    3    3    0  502 -0.13429453356E+02  0.61880977842E+03  0.75034453845E+03  0.97268844882E+03  0.25500000920E-02 0. -1.
</event>
<event>
 5   0  0.3441897E-06  0.2974164E+04  0.7818609E-02  0.8251147E-01
       -2   -1    0    0    0  501  0.00000000000E+00  0.00000000000E+00  0.17835914288E+04  0.17835914288E+04  0.25500000920E-02 0.  1.
        2   -1    0    0  501    0  0.00000000000E+00  0.00000000000E+00 -0.12398650409E+04  0.12398650409E+04  0.25500000920E-02 0. -1.
    10030    2    1    2    0    0  0.00000000000E+00  0.00000000000E+00  0.54372638791E+03  0.30234564696E+04  0.29741638554E+04 0.  0.
        5    1    3    3  502    0  0.13832446191E+04  0.18261144152E+03  0.79485840705E+03  0.16057816141E+04  0.46999998093E+01 0.  1.
       -5    1    3    3    0  502 -0.13832446191E+04 -0.18261144152E+03 -0.25113201915E+03  0.14176748555E+04  0.46999998093E+01 0. -1.
</event>
<event>
 5   0  0.1198763E-06  0.3098375E+04  0.7818609E-02  0.8216184E-01
       -1   -1    0    0    0  501  0.00000000000E+00  0.00000000000E+00  0.15744924406E+04  0.15744924406E+04  0.50400001928E-02 0.  1.
        1   -1    0    0  501    0  0.00000000000E+00  0.00000000000E+00 -0.15242896094E+04  0.15242896094E+04  0.50400001928E-02 0. -1.
    10030    2    1    2    0    0  0.00000000000E+00  0.00000000000E+00  0.50202831216E+02  0.30987820500E+04  0.30983753596E+04 0.  0.
        1    1    3    3  502    0 -0.13711153162E+04  0.17702779464E+03 -0.67405143938E+03  0.15380641707E+04  0.50400001928E-02 0. -1.
       -1    1    3    3    0  502  0.13711153162E+04 -0.17702779464E+03  0.72425427060E+03  0.15607178793E+04  0.50400001928E-02 0.  1.
</event>
<event>
 5   0  0.1235960E-06  0.3128176E+04  0.7818609E-02  0.8208048E-01
       -1   -1    0    0    0  501  0.00000000000E+00  0.00000000000E+00  0.10852819576E+04  0.10852819576E+04  0.50400001928E-02 0. -1.
        1   -1    0    0  501    0  0.00000000000E+00  0.00000000000E+00 -0.22541341416E+04  0.22541341416E+04  0.50400001928E-02 0.  1.
    10030    2    1    2    0    0  0.00000000000E+00  0.00000000000E+00 -0.11688521840E+04  0.33394160992E+04  0.31281758991E+04 0.  0.
        4    1    3    3  502    0 -0.10540553904E+04  0.10794427495E+04 -0.14409161168E+03  0.15155835249E+04  0.12699999809E+01 0.  1.
       -4    1    3    3    0  502  0.10540553904E+04 -0.10794427495E+04 -0.10247605723E+04  0.18238325743E+04  0.12699999809E+01 0. -1.
</event>
<event>
 5   0  0.3340899E-06  0.3116299E+04  0.7818609E-02  0.8211279E-01
        2   -1    0    0  501    0  0.00000000000E+00  0.00000000000E+00  0.21616266791E+04  0.21616266791E+04  0.25500000920E-02 0.  1.
       -2   -1    0    0    0  501  0.00000000000E+00  0.00000000000E+00 -0.11231493529E+04  0.11231493529E+04  0.25500000920E-02 0. -1.
    10030    2    1    2    0    0  0.00000000000E+00  0.00000000000E+00  0.10384773262E+04  0.32847760320E+04  0.31162988341E+04 0.  0.
        3    1    3    3  502    0  0.60357973060E+03  0.10850440032E+04  0.15115151253E+04  0.19560948250E+04  0.10100000352E+00 0. -1.
       -3    1    3    3    0  502 -0.60357973060E+03 -0.10850440032E+04 -0.47303779913E+03  0.13286812070E+04  0.10100000352E+00 0.  1.
</event>
<event>
 5   0  0.1250276E-06  0.3084492E+04  0.7818609E-02  0.8220007E-01
       -1   -1    0    0    0  501  0.00000000000E+00  0.00000000000E+00  0.13690455110E+04  0.13690455110E+04  0.50400001928E-02 0.  1.
        1   -1    0    0  501    0  0.00000000000E+00  0.00000000000E+00 -0.17373585821E+04  0.17373585822E+04  0.50400001928E-02 0. -1.
    10030    2    1    2    0    0  0.00000000000E+00  0.00000000000E+00 -0.36831307115E+03  0.31064040932E+04  0.30844921578E+04 0.  0.
        5    1    3    3  502    0 -0.55842660031E+03  0.30277313548E+03 -0.15994829895E+04  0.17210112618E+04  0.46999998093E+01 0. -1.
       -5    1    3    3    0  502  0.55842660031E+03 -0.30277313548E+03  0.12311699183E+04  0.13853928314E+04  0.46999998093E+01 0.  1.
</event>
<event>
 5   0  0.3445410E-06  0.3048794E+04  0.7818609E-02  0.8229933E-01
        2   -1    0    0  501    0  0.00000000000E+00  0.00000000000E+00  0.15040203393E+04  0.15040203393E+04  0.25500000920E-02 0. -1.
       -2   -1    0    0    0  501  0.00000000000E+00  0.00000000000E+00 -0.15450496137E+04  0.15450496137E+04  0.25500000920E-02 0.  1.
    10030    2    1    2    0    0  0.00000000000E+00  0.00000000000E+00 -0.41029274437E+02  0.30490699530E+04  0.30487938889E+04 0.  0.
        1    1    3    3  502    0  0.61254605788E+03  0.36838444715E+03  0.13260345042E+04  0.15064153744E+04  0.50400001928E-02 0. -1.
       -1    1    3    3    0  502 -0.61254605788E+03 -0.36838444715E+03 -0.13670637786E+04  0.15426545786E+04  0.50400001928E-02 0.  1.
</event>
<event>
 5   0  0.1198763E-06  0.3074756E+04  0.7818609E-02  0.8222700E-01
        1   -1    0    0  501    0  0.00000000000E+00  0.00000000000E+00  0.22383936249E+04  0.22383936249E+04  0.50400001928E-02 0. -1.
       -1   -1    0    0    0  501  0.00000000000E+00  0.00000000000E+00 -0.10559047380E+04  0.10559047380E+04  0.50400001928E-02 0.  1.
    10030    2    1    2    0    0  0.00000000000E+00  0.00000000000E+00  0.11824888869E+04  0.32942983630E+04  0.30747555572E+04 0.  0.
        1    1    3    3  502    0 -0.15145108586E+04 -0.80804992353E+02  0.86071389426E+03  0.17438752809E+04  0.50400001928E-02 0. -1.
       -1    1    3    3    0  502  0.15145108586E+04  0.80804992353E+02  0.32177499263E+03  0.15504230821E+04  0.50400001928E-02 0.  1.
</event>
<event>
 5   0  0.3374790E-06  0.3117019E+04  0.7818609E-02  0.8211083E-01
       -2   -1    0    0    0  501  0.00000000000E+00  0.00000000000E+00  0.22968846655E+04  0.22968846655E+04  0.25500000920E-02 0.  1.
        2   -1    0    0  501    0  0.00000000000E+00  0.00000000000E+00 -0.10574986270E+04  0.10574986270E+04  0.25500000920E-02 0. -1.
    10030    2    1    2    0    0  0.00000000000E+00  0.00000000000E+00  0.12393860384E+04  0.33543832925E+04  0.31170193328E+04 0.  0.
        2    1    3    3  502    0  0.14900334481E+04 -0.16754528948E+03  0.16225762086E+03  0.15081772562E+04  0.25500000920E-02 0.  1.
       -2    1    3    3    0  502 -0.14900334481E+04  0.16754528948E+03  0.10771284175E+04  0.18462060363E+04  0.25500000920E-02 0. -1.
</event>
<event>
 5   0  0.1211008E-06  0.3092358E+04  0.7818609E-02  0.8217838E-01
        1   -1    0    0  501    0  0.00000000000E+00  0.00000000000E+00  0.13336690442E+04  0.13336690442E+04  0.50400001928E-02 0.  1.
       -1   -1    0    0    0  501  0.00000000000E+00  0.00000000000E+00 -0.17925513303E+04  0.17925513303E+04  0.50400001928E-02 0. -1.
    10030    2    1    2    0    0  0.00000000000E+00  0.00000000000E+00 -0.45888228615E+03  0.31262203745E+04  0.30923584652E+04 0.  0.
        3    1    3    3  502    0 -0.14165568478E+04 -0.45772463273E+03 -0.65177768937E+03  0.16251028610E+04  0.10100000352E+00 0. -1.
       -3    1    3    3    0  502  0.14165568478E+04  0.45772463273E+03  0.19289540323E+03  0.15011175135E+04  0.10100000352E+00 0.  1.
</event>
<event>
 5   0  0.3445959E-06  0.3095809E+04  0.7818609E-02  0.8216889E-01
        2   -1    0    0  501    0  0.00000000000E+00  0.00000000000E+00  0.19834191323E+04  0.19834191323E+04  0.25500000920E-02 0.  1.
       -2   -1    0    0    0  501  0.00000000000E+00  0.00000000000E+00 -0.12080191377E+04  0.12080191377E+04  0.25500000920E-02 0. -1.
    10030    2    1    2    0    0  0.00000000000E+00  0.00000000000E+00  0.77539999460E+03  0.31914382700E+04  0.30958089540E+04 0.  0.
        4    1    3    3  502    0 -0.53138229833E+03 -0.97745750659E+03  0.14971484761E+04  0.18652735715E+04  0.12699999809E+01 0.  1.
       -4    1    3    3    0  502  0.53138229833E+03  0.97745750659E+03 -0.72174848146E+03  0.13261646985E+04  0.12699999809E+01 0. -1.
</event>
<event>
 5   0  0.3445410E-06  0.3107596E+04  0.7818609E-02  0.8213656E-01
       -2   -1    0    0    0  501  0.00000000000E+00  0.00000000000E+00  0.11415907253E+04  0.11415907253E+04  0.25500000920E-02 0. -1.
        2   -1    0    0  501    0  0.00000000000E+00  0.00000000000E+00 -0.21148455001E+04  0.21148455001E+04  0.25500000920E-02 0.  1.
    10030    2    1    2    0    0  0.00000000000E+00  0.00000000000E+00 -0.97325477486E+03  0.32564362254E+04  0.31075958607E+04 0.  0.
        1    1    3    3  502    0  0.38433815175E+03 -0.55901339620E+03  0.97820789652E+03  0.11904211359E+04  0.50400001928E-02 0. -1.
       -1    1    3    3    0  502 -0.38433815175E+03  0.55901339620E+03 -0.19514626714E+04  0.20660150895E+04  0.50400001928E-02 0.  1.
</event>
<event>
 5   0  0.1211008E-06  0.3037383E+04  0.7818609E-02  0.8233136E-01
       -1   -1    0    0    0  501  0.00000000000E+00  0.00000000000E+00  0.12076904209E+04  0.12076904209E+04  0.50400001928E-02 0.  1.
        1   -1    0    0  501    0  0.00000000000E+00  0.00000000000E+00 -0.19097809571E+04  0.19097809571E+04  0.50400001928E-02 0. -1.
    10030    2    1    2    0    0  0.00000000000E+00  0.00000000000E+00 -0.70209053617E+03  0.31174713781E+04  0.30373831948E+04 0.  0.
        3    1    3    3  502    0  0.49070467442E+03  0.13649162567E+04  0.11097596307E+03  0.14546831751E+04  0.10100000352E+00 0. -1.
       -3    1    3    3    0  502 -0.49070467442E+03 -0.13649162567E+04 -0.81306649924E+03  0.16627882029E+04  0.10100000352E+00 0.  1.
</event>
<event>
 5   0  0.1250276E-06  0.3083367E+04  0.7818609E-02  0.8220318E-01
        1   -1    0    0  501    0  0.00000000000E+00  0.00000000000E+00  0.16085142927E+04  0.16085142927E+04  0.50400001928E-02 0.  1.
       -1   -1    0    0    0  501  0.00000000000E+00  0.00000000000E+00 -0.14776294839E+04  0.14776294839E+04  0.50400001928E-02 0. -1.
    10030    2    1    2    0    0  0.00000000000E+00  0.00000000000E+00  0.13088480882E+03  0.30861437765E+04  0.30833670843E+04 0.  0.
        5    1    3    3  502    0 -0.42451234833E+02  0.15164775610E+03 -0.14695510444E+04  0.14779720943E+04  0.46999998093E+01 0. -1.
       -5    1    3    3    0  502  0.42451234833E+02 -0.15164775610E+03  0.16004358532E+04  0.16081716823E+04  0.46999998093E+01 0.  1.
</event>
<event>
 5   0  0.1211008E-06  0.3073633E+04  0.7818609E-02  0.8223011E-01
        1   -1    0    0  501    0  0.00000000000E+00  0.00000000000E+00  0.12654074644E+04  0.12654074644E+04  0.50400001928E-02 0.  1.
       -1   -1    0    0    0  501  0.00000000000E+00  0.00000000000E+00 -0.18664387478E+04  0.18664387478E+04  0.50400001928E-02 0. -1.
    10030    2    1    2    0    0  0.00000000000E+00  0.00000000000E+00 -0.60103128337E+03  0.31318462122E+04  0.30736333700E+04 0.  0.
        3    1    3    3  502    0 -0.58055744135E+03 -0.11424897731E+04 -0.11647995503E+04  0.17317874658E+04  0.10100000352E+00 0. -1.
       -3    1    3    3    0  502  0.58055744135E+03  0.11424897731E+04  0.56376826694E+03  0.14000587464E+04  0.10100000352E+00 0.  1.
</event>
<event>
 5   0  0.1109562E-06  0.3079880E+04  0.7818609E-02  0.8221282E-01
       -3   -1    0    0    0  501  0.00000000000E+00  0.00000000000E+00  0.18568123039E+04  0.18568123066E+04  0.10100000352E+00 0.  1.
        3   -1    0    0  501    0  0.00000000000E+00  0.00000000000E+00 -0.12771427912E+04  0.12771427952E+04  0.10100000352E+00 0. -1.
    10030    2    1    2    0    0  0.00000000000E+00  0.00000000000E+00  0.57966951266E+03  0.31339551018E+04  0.30798795165E+04 0.  0.
        4    1    3    3  502    0 -0.89490587211E+03 -0.94397014086E+03  0.11286113969E+04  0.17221212051E+04  0.12699999809E+01 0.  1.
       -4    1    3    3    0  502  0.89490587211E+03  0.94397014086E+03 -0.54894188429E+03  0.14118338967E+04  0.12699999809E+01 0. -1.
</event>
<event>
 5   0  0.3374790E-06  0.3091440E+04  0.7818609E-02  0.8218091E-01
        2   -1    0    0  501    0  0.00000000000E+00  0.00000000000E+00  0.83256530016E+03  0.83256530017E+03  0.25500000920E-02 0. -1.
       -2   -1    0    0    0  501  0.00000000000E+00  0.00000000000E+00 -0.28697461439E+04  0.28697461439E+04  0.25500000920E-02 0.  1.
    10030    2    1    2    0    0  0.00000000000E+00  0.00000000000E+00 -0.20371808438E+04  0.37023114441E+04  0.30914404796E+04 0.  0.
        2    1    3    3  502    0  0.10365019098E+04 -0.21696430352E+03 -0.23670704378E+04  0.25931510129E+04  0.25500000920E-02 0.  1.
       -2    1    3    3    0  502 -0.10365019098E+04  0.21696430352E+03  0.32988959404E+03  0.11091604312E+04  0.25500000920E-02 0. -1.
</event>
<event>
 5   0  0.1211008E-06  0.3107162E+04  0.7818609E-02  0.8213775E-01
       -1   -1    0    0    0  501  0.00000000000E+00  0.00000000000E+00  0.11056079519E+04  0.11056079520E+04  0.50400001928E-02 0.  1.
        1   -1    0    0  501    0  0.00000000000E+00  0.00000000000E+00 -0.21830651379E+04  0.21830651379E+04  0.50400001928E-02 0. -1.
    10030    2    1    2    0    0  0.00000000000E+00  0.00000000000E+00 -0.10774571859E+04  0.32886730898E+04  0.31071621625E+04 0.  0.
        3    1    3    3  502    0 -0.83712780396E+03 -0.11062127056E+04 -0.12789583892E+04  0.18868556070E+04  0.10100000352E+00 0. -1.
       -3    1    3    3    0  502  0.83712780396E+03  0.11062127056E+04  0.20150120324E+03  0.14018174829E+04  0.10100000352E+00 0.  1.
</event>
<event>
 5   0  0.3445410E-06  0.3057897E+04  0.7818609E-02  0.8227389E-01
        2   -1    0    0  501    0  0.00000000000E+00  0.00000000000E+00  0.22572763111E+04  0.22572763111E+04  0.25500000920E-02 0.  1.
       -2   -1    0    0    0  501  0.00000000000E+00  0.00000000000E+00 -0.10356215109E+04  0.10356215109E+04  0.25500000920E-02 0. -1.
    10030    2    1    2    0    0  0.00000000000E+00  0.00000000000E+00  0.12216548002E+04  0.32928978219E+04  0.30578972538E+04 0.  0.
        1    1    3    3  502    0  0.35281987585E+03 -0.84369218602E+03  0.19303033523E+04  0.21359703653E+04  0.50400001928E-02 0.  1.
       -1    1    3    3    0  502 -0.35281987585E+03  0.84369218602E+03 -0.70864855208E+03  0.11569274566E+04  0.50400001928E-02 0. -1.
</event>
<event>
 5   0  0.3445959E-06  0.3078261E+04  0.7818609E-02  0.8221729E-01
       -2   -1    0    0    0  501  0.00000000000E+00  0.00000000000E+00  0.18468546111E+04  0.18468546111E+04  0.25500000920E-02 0. -1.
        2   -1    0    0  501    0  0.00000000000E+00  0.00000000000E+00 -0.12826799435E+04  0.12826799435E+04  0.25500000920E-02 0.  1.
    10030    2    1    2    0    0  0.00000000000E+00  0.00000000000E+00  0.56417466769E+03  0.31295345546E+04  0.30782614367E+04 0.  0.
        4    1    3    3  502    0  0.64695464471E+03 -0.86760157169E+02 -0.11349889440E+04  0.13093048358E+04  0.12699999809E+01 0.  1.
       -4    1    3    3    0  502 -0.64695464471E+03  0.86760157169E+02  0.16991636117E+04  0.18202297188E+04  0.12699999809E+01 0. -1.
</event>
<event>
 5   0  0.1250276E-06  0.2872710E+04  0.7818609E-02  0.8281044E-01
       -1   -1    0    0    0  501  0.00000000000E+00  0.00000000000E+00  0.17828809053E+04  0.17828809053E+04  0.50400001928E-02 0. -1.
        1   -1    0    0  501    0  0.00000000000E+00  0.00000000000E+00 -0.11571805385E+04  0.11571805386E+04  0.50400001928E-02 0.  1.
    10030    2    1    2    0    0  0.00000000000E+00  0.00000000000E+00  0.62570036672E+03  0.29400614438E+04  0.28727095824E+04 0.  0.
        5    1    3    3  502    0  0.73223355006E+03  0.66364969464E+02  0.15756850788E+04  0.17387857368E+04  0.46999998093E+01 0. -1.
       -5    1    3    3    0  502 -0.73223355006E+03 -0.66364969464E+02 -0.94998471210E+03  0.12012757070E+04  0.46999998093E+01 0.  1.
</event>
<event>
 5   0  0.3340899E-06  0.3191474E+04  0.7818609E-02  0.8191073E-01
        2   -1    0    0  501    0  0.00000000000E+00  0.00000000000E+00  0.14954468671E+04  0.14954468671E+04  0.25500000920E-02 0.  1.
       -2   -1    0    0    0  501  0.00000000000E+00  0.00000000000E+00 -0.17027524835E+04  0.17027524835E+04  0.25500000920E-02 0. -1.
    10030    2    1    2    0    0  0.00000000000E+00  0.00000000000E+00 -0.20730561643E+03  0.31981993506E+04  0.31914735574E+04 0.  0.
        3    1    3    3  502    0  0.78749310230E+03  0.74903025019E+03  0.10672204838E+04  0.15232042782E+04  0.10100000352E+00 0.  1.
       -3    1    3    3    0  502 -0.78749310230E+03 -0.74903025019E+03 -0.12745261003E+04  0.16749950723E+04  0.10100000352E+00 0. -1.
</event>
<event>
 5   0  0.3340899E-06  0.3107586E+04  0.7818609E-02  0.8213659E-01
       -2   -1    0    0    0  501  0.00000000000E+00  0.00000000000E+00  0.24727669385E+04  0.24727669385E+04  0.25500000920E-02 0.  1.
        2   -1    0    0  501    0  0.00000000000E+00  0.00000000000E+00 -0.97634433002E+03  0.97634433002E+03  0.25500000920E-02 0. -1.
    10030    2    1    2    0    0  0.00000000000E+00  0.00000000000E+00  0.14964226085E+04  0.34491112685E+04  0.31075855450E+04 0.  0.
        3    1    3    3  502    0 -0.56254344270E+03 -0.11563609753E+04  0.17162114998E+04  0.21445297275E+04  0.10100000352E+00 0.  1.
       -3    1    3    3    0  502  0.56254344270E+03  0.11563609753E+04 -0.21978889130E+03  0.13045815410E+04  0.10100000352E+00 0. -1.
</event>
<event>
 5   0  0.1171915E-06  0.3153186E+04  0.7818609E-02  0.8201291E-01
       -1   -1    0    0    0  501  0.00000000000E+00  0.00000000000E+00  0.12473641182E+04  0.12473641182E+04  0.50400001928E-02 0. -1.
        1   -1    0    0  501    0  0.00000000000E+00  0.00000000000E+00 -0.19927187280E+04  0.19927187280E+04  0.50400001928E-02 0.  1.
    10030    2    1    2    0    0  0.00000000000E+00  0.00000000000E+00 -0.74535460986E+03  0.32400828462E+04  0.31531862228E+04 0.  0.
        2    1    3    3  502    0  0.47478373429E+03 -0.20133757658E+03  0.11582430628E+04  0.12678656895E+04  0.25500000920E-02 0. -1.
       -2    1    3    3    0  502 -0.47478373429E+03  0.20133757658E+03 -0.19035976726E+04  0.19722171567E+04  0.25500000920E-02 0.  1.
</event>
<event>
 5   0  0.1250276E-06  0.3065779E+04  0.7818609E-02  0.8225193E-01
        1   -1    0    0  501    0  0.00000000000E+00  0.00000000000E+00  0.17598088155E+04  0.17598088155E+04  0.50400001928E-02 0.  1.
       -1   -1    0    0    0  501  0.00000000000E+00  0.00000000000E+00 -0.13352300585E+04  0.13352300585E+04  0.50400001928E-02 0. -1.
    10030    2    1    2    0    0  0.00000000000E+00  0.00000000000E+00  0.42457875697E+03  0.30950388740E+04  0.30657786142E+04 0.  0.
        5    1    3    3  502    0 -0.11389569917E+03 -0.11569727229E+04  0.12209090855E+04  0.16858823200E+04  0.46999998093E+01 0.  1.
       -5    1    3    3    0  502  0.11389569917E+03  0.11569727229E+04 -0.79633032851E+03  0.14091565541E+04  0.46999998093E+01 0. -1.
</event>
<event>
 5   0  0.1198763E-06  0.3092223E+04  0.7818609E-02  0.8217876E-01
       -1   -1    0    0    0  501  0.00000000000E+00  0.00000000000E+00  0.16231432782E+04  0.16231432782E+04  0.50400001928E-02 0. -1.
        1   -1    0    0  501    0  0.00000000000E+00  0.00000000000E+00 -0.14727353085E+04  0.14727353085E+04  0.50400001928E-02 0.  1.
    10030    2    1    2    0    0  0.00000000000E+00  0.00000000000E+00  0.15040796963E+03  0.30958785867E+04  0.30922227711E+04 0.  0.
        1    1    3    3  502    0 -0.15081052544E+04  0.26347095675E+03 -0.14106531908E+03  0.15374322189E+04  0.50400001928E-02 0.  1.
       -1    1    3    3    0  502  0.15081052544E+04 -0.26347095675E+03  0.29147328871E+03  0.15584463678E+04  0.50400001928E-02 0. -1.
</event>
<event>
 5   0  0.3441897E-06  0.3192787E+04  0.7818609E-02  0.8190725E-01
        2   -1    0    0  501    0  0.00000000000E+00  0.00000000000E+00  0.19397961160E+04  0.19397961160E+04  0.25500000920E-02 0.  1.
       -2   -1    0    0    0  501  0.00000000000E+00  0.00000000000E+00 -0.13137831684E+04  0.13137831684E+04  0.25500000920E-02 0. -1.
    10030    2    1    2    0    0  0.00000000000E+00  0.00000000000E+00  0.62601294757E+03  0.32535792844E+04  0.31927865493E+04 0.  0.
        5    1    3    3  502    0  0.16817376412E+03  0.14227529049E+04 -0.40463343653E+03  0.14887103651E+04  0.46999998093E+01 0. -1.
       -5    1    3    3    0  502 -0.16817376412E+03 -0.14227529049E+04  0.10306463841E+04  0.17648689193E+04  0.46999998093E+01 0.  1.
</event>
<event>
 5   0  0.3340899E-06  0.3142411E+04  0.7818609E-02  0.8204194E-01
        2   -1    0    0  501    0  0.00000000000E+00  0.00000000000E+00  0.13251638475E+04  0.13251638475E+04  0.25500000920E-02 0.  1.
       -2   -1    0    0    0  501  0.00000000000E+00  0.00000000000E+00 -0.18629294655E+04  0.18629294655E+04  0.25500000920E-02 0. -1.
    10030    2    1    2    0    0  0.00000000000E+00  0.00000000000E+00 -0.53776561799E+03  0.31880933130E+04  0.31424110349E+04 0.  0.
        3    1    3    3  502    0  0.66168772074E+03  0.72696408093E+03 -0.15124173028E+04  0.18038052896E+04  0.10100000352E+00 0. -1.
       -3    1    3    3    0  502 -0.66168772074E+03 -0.72696408093E+03  0.97465168483E+03  0.13842880234E+04  0.10100000352E+00 0.  1.
</event>
<event>
 5   0  0.3445959E-06  0.3062711E+04  0.7818609E-02  0.8226047E-01
       -2   -1    0    0    0  501  0.00000000000E+00  0.00000000000E+00  0.16430212385E+04  0.16430212385E+04  0.25500000920E-02 0.  1.
        2   -1    0    0  501    0  0.00000000000E+00  0.00000000000E+00 -0.14272788188E+04  0.14272788188E+04  0.25500000920E-02 0. -1.
    10030    2    1    2    0    0  0.00000000000E+00  0.00000000000E+00  0.21574241975E+03  0.30703000573E+04  0.30627108336E+04 0.  0.
        4    1    3    3  502    0  0.11244395820E+04 -0.50859508986E+03 -0.80102554900E+03  0.14712840929E+04  0.12699999809E+01 0. -1.
       -4    1    3    3    0  502 -0.11244395820E+04  0.50859508986E+03  0.10167679688E+04  0.15990159643E+04  0.12699999809E+01 0.  1.
</event>
<event>
 5   0  0.3340899E-06  0.3101944E+04  0.7818609E-02  0.8215205E-01
        2   -1    0    0  501    0  0.00000000000E+00  0.00000000000E+00  0.21304271000E+04  0.21304271000E+04  0.25500000920E-02 0. -1.
       -2   -1    0    0    0  501  0.00000000000E+00  0.00000000000E+00 -0.11291228717E+04  0.11291228717E+04  0.25500000920E-02 0.  1.
    10030    2    1    2    0    0  0.00000000000E+00  0.00000000000E+00  0.10013042282E+04  0.32595499717E+04  0.31019438842E+04 0.  0.
        3    1    3    3  502    0  0.10124713160E+03  0.16798708582E+03 -0.11160380980E+04  0.11331423957E+04  0.10100000352E+00 0.  1.
       -3    1    3    3    0  502 -0.10124713160E+03 -0.16798708582E+03  0.21173423262E+04  0.21264075760E+04  0.10100000352E+00 0. -1.
</event>
<event>
 5   0  0.1250276E-06  0.2989709E+04  0.7818609E-02  0.8246676E-01
        1   -1    0    0  501    0  0.00000000000E+00  0.00000000000E+00  0.19213873290E+04  0.19213873290E+04  0.50400001928E-02 0. -1.
       -1   -1    0    0    0  501  0.00000000000E+00  0.00000000000E+00 -0.11630086824E+04  0.11630086824E+04  0.50400001928E-02 0.  1.
    10030    2    1    2    0    0  0.00000000000E+00  0.00000000000E+00  0.75837864655E+03  0.30843960114E+04  0.29897091135E+04 0.  0.
        5    1    3    3  502    0 -0.47282228816E+02  0.10256182133E+04 -0.74170096439E+03  0.12665980969E+04  0.46999998093E+01 0.  1.
       -5    1    3    3    0  502  0.47282228816E+02 -0.10256182133E+04  0.15000796109E+04  0.18177979144E+04  0.46999998093E+01 0. -1.
</event>
<event>
 5   0  0.1235960E-06  0.3042822E+04  0.7818609E-02  0.8231607E-01
       -1   -1    0    0    0  501  0.00000000000E+00  0.00000000000E+00  0.11355671148E+04  0.11355671148E+04  0.50400001928E-02 0.  1.
        1   -1    0    0  501    0  0.00000000000E+00  0.00000000000E+00 -0.20383575835E+04  0.20383575835E+04  0.50400001928E-02 0. -1.
    10030    2    1    2    0    0  0.00000000000E+00  0.00000000000E+00 -0.90279046874E+03  0.31739246983E+04  0.30428222689E+04 0.  0.
        4    1    3    3  502    0 -0.13820952425E+04 -0.43168132906E+03  0.35798641194E+02  0.14483850264E+04  0.12699999809E+01 0.  1.
       -4    1    3    3    0  502  0.13820952425E+04  0.43168132906E+03 -0.93858910994E+03  0.17255396719E+04  0.12699999809E+01 0. -1.
</event>
<event>
 5   0  0.1250276E-06  0.3242534E+04  0.7818609E-02  0.8177673E-01
       -1   -1    0    0    0  501  0.00000000000E+00  0.00000000000E+00  0.15908061070E+04  0.15908061070E+04  0.50400001928E-02 0.  1.
        1   -1    0    0  501    0  0.00000000000E+00  0.00000000000E+00 -0.16523115994E+04  0.16523115994E+04  0.50400001928E-02 0. -1.
    10030    2    1    2    0    0  0.00000000000E+00  0.00000000000E+00 -0.61505492333E+02  0.32431177064E+04  0.32425344303E+04 0.  0.
        5    1    3    3  502    0  0.12084444926E+04  0.37362617575E+03  0.98360456389E+03  0.16023216403E+04  0.46999998093E+01 0.  1.
       -5    1    3    3    0  502 -0.12084444926E+04 -0.37362617575E+03 -0.10451100562E+04  0.16407960661E+04  0.46999998093E+01 0. -1.
</event>
<event>
 5   0  0.1235960E-06  0.3078561E+04  0.7818609E-02  0.8221646E-01
       -1   -1    0    0    0  501  0.00000000000E+00  0.00000000000E+00  0.14165573798E+04  0.14165573798E+04  0.50400001928E-02 0.  1.
        1   -1    0    0  501    0  0.00000000000E+00  0.00000000000E+00 -0.16726358448E+04  0.16726358448E+04  0.50400001928E-02 0. -1.
    10030    2    1    2    0    0  0.00000000000E+00  0.00000000000E+00 -0.25607846509E+03  0.30891932246E+04  0.30785611247E+04 0.  0.
        4    1    3    3  502    0  0.11626668015E+04  0.10038026239E+04 -0.27848335022E+02  0.15362912946E+04  0.12699999809E+01 0. -1.
       -4    1    3    3    0  502 -0.11626668015E+04 -0.10038026239E+04 -0.22823013007E+03  0.15529019300E+04  0.12699999809E+01 0.  1.
</event>
<event>
 5   0  0.3340899E-06  0.3147974E+04  0.7818609E-02  0.8202694E-01
        2   -1    0    0  501    0  0.00000000000E+00  0.00000000000E+00  0.10460666616E+04  0.10460666616E+04  0.25500000920E-02 0.  1.
       -2   -1    0    0    0  501  0.00000000000E+00  0.00000000000E+00 -0.23683345897E+04  0.23683345897E+04  0.25500000920E-02 0. -1.
    10030    2    1    2    0    0  0.00000000000E+00  0.00000000000E+00 -0.13222679282E+04  0.34144012513E+04  0.31479744966E+04 0.  0.
        3    1    3    3  502    0  0.71476038856E+03  0.56079637707E+03  0.73297388537E+03  0.11673156028E+04  0.10100000352E+00 0.  1.
       -3    1    3    3    0  502 -0.71476038856E+03 -0.56079637707E+03 -0.20552418135E+04  0.22470856485E+04  0.10100000352E+00 0. -1.
</event>
<event>
 5   0  0.1211008E-06  0.3100115E+04  0.7818609E-02  0.8215706E-01
       -1   -1    0    0    0  501  0.00000000000E+00  0.00000000000E+00  0.25776743609E+04  0.25776743609E+04  0.50400001928E-02 0. -1.
        1   -1    0    0  501    0  0.00000000000E+00  0.00000000000E+00 -0.93211103703E+03  0.93211103704E+03  0.50400001928E-02 0.  1.
    10030    2    1    2    0    0  0.00000000000E+00  0.00000000000E+00  0.16455633239E+04  0.35097853980E+04  0.31001153022E+04 0.  0.
        3    1    3    3  502    0 -0.49903576169E+03 -0.94733866269E+03  0.20916911287E+04  0.23498210616E+04  0.10100000352E+00 0. -1.
       -3    1    3    3    0  502  0.49903576169E+03  0.94733866269E+03 -0.44612780482E+03  0.11599643364E+04  0.10100000352E+00 0.  1.
</event>
<event>
 5   0  0.3441897E-06  0.3084501E+04  0.7818609E-02  0.8220005E-01
       -2   -1    0    0    0  501  0.00000000000E+00  0.00000000000E+00  0.18524250350E+04  0.18524250350E+04  0.25500000920E-02 0.  1.
        2   -1    0    0  501    0  0.00000000000E+00  0.00000000000E+00 -0.12840119323E+04  0.12840119323E+04  0.25500000920E-02 0. -1.
    10030    2    1    2    0    0  0.00000000000E+00  0.00000000000E+00  0.56841310263E+03  0.31364369673E+04  0.30845005097E+04 0.  0.
        5    1    3    3  502    0 -0.15634293652E+03  0.12076100279E+04  0.12465825926E+04  0.17426288599E+04  0.46999998093E+01 0.  1.
       -5    1    3    3    0  502  0.15634293652E+03 -0.12076100279E+04 -0.67816948993E+03  0.13938081074E+04  0.46999998093E+01 0. -1.
</event>
<event>
 5   0  0.3340899E-06  0.3212451E+04  0.7818609E-02  0.8185537E-01
        2   -1    0    0  501    0  0.00000000000E+00  0.00000000000E+00  0.15019344028E+04  0.15019344028E+04  0.25500000920E-02 0.  1.
       -2   -1    0    0    0  501  0.00000000000E+00  0.00000000000E+00 -0.17177580810E+04  0.17177580810E+04  0.25500000920E-02 0. -1.
    10030    2    1    2    0    0  0.00000000000E+00  0.00000000000E+00 -0.21582367818E+03  0.32196924838E+04  0.32124507514E+04 0.  0.
        3    1    3    3  502    0 -0.60901961702E+03  0.13173838546E+04 -0.79761632713E+03  0.16560787813E+04  0.10100000352E+00 0.  1.
       -3    1    3    3    0  502  0.60901961702E+03 -0.13173838546E+04  0.58179264894E+03  0.15636137025E+04  0.10100000352E+00 0. -1.
</event>
<event>
 5   0  0.1211008E-06  0.3149100E+04  0.7818609E-02  0.8202391E-01
        1   -1    0    0  501    0  0.00000000000E+00  0.00000000000E+00  0.25272790414E+04  0.25272790414E+04  0.50400001928E-02 0. -1.
       -1   -1    0    0    0  501  0.00000000000E+00  0.00000000000E+00 -0.98097888509E+03  0.98097888511E+03  0.50400001928E-02 0.  1.
    10030    2    1    2    0    0  0.00000000000E+00  0.00000000000E+00  0.15463001563E+04  0.35082579265E+04  0.31490997929E+04 0.  0.
        3    1    3    3  502    0 -0.63728123752E+03 -0.59959061164E+03  0.22314812363E+04  0.23969031677E+04  0.10100000352E+00 0. -1.
       -3    1    3    3    0  502  0.63728123752E+03  0.59959061164E+03 -0.68518108001E+03  0.11113547588E+04  0.10100000352E+00 0.  1.
</event>
<event>
 5   0  0.3445959E-06  0.3087848E+04  0.7818609E-02  0.8219081E-01
        2   -1    0    0  501    0  0.00000000000E+00  0.00000000000E+00  0.22078498836E+04  0.22078498836E+04  0.25500000920E-02 0.  1.
       -2   -1    0    0    0  501  0.00000000000E+00  0.00000000000E+00 -0.10796484512E+04  0.10796484512E+04  0.25500000920E-02 0. -1.
    10030    2    1    2    0    0  0.00000000000E+00  0.00000000000E+00  0.11282014324E+04  0.32874983349E+04  0.30878482524E+04 0.  0.
        4    1    3    3  502    0  0.77975210641E+03  0.10174512956E+04 -0.35204835071E+03  0.13293457566E+04  0.12699999809E+01 0. -1.
       -4    1    3    3    0  502 -0.77975210641E+03 -0.10174512956E+04  0.14802497831E+04  0.19581525783E+04  0.12699999809E+01 0.  1.
</event>
<event>
 5   0  0.1109562E-06  0.3267732E+04  0.7818609E-02  0.8171155E-01
       -4   -1    0    0    0  501  0.00000000000E+00  0.00000000000E+00  0.17501257787E+04  0.17501262395E+04  0.12699999809E+01 0. -1.
        4   -1    0    0  501    0  0.00000000000E+00  0.00000000000E+00 -0.15253281407E+04  0.15253286694E+04  0.12699999809E+01 0.  1.
    10030    2    1    2    0    0  0.00000000000E+00  0.00000000000E+00  0.22479763805E+03  0.32754549089E+04  0.32677317641E+04 0.  0.
        5    1    3    3  502    0  0.13964921933E+04 -0.84580424912E+03  0.17515955537E+03  0.16420347845E+04  0.46999998093E+01 0.  1.
       -5    1    3    3    0  502 -0.13964921933E+04  0.84580424912E+03  0.49638082689E+02  0.16334201244E+04  0.46999998093E+01 0. -1.
</event>
<event>
 5   0  0.1171915E-06  0.3113444E+04  0.7818609E-02  0.8212058E-01
       -1   -1    0    0    0  501  0.00000000000E+00  0.00000000000E+00  0.12020201548E+04  0.12020201548E+04  0.50400001928E-02 0.  1.
        1   -1    0    0  501    0  0.00000000000E+00  0.00000000000E+00 -0.20160917343E+04  0.20160917344E+04  0.50400001928E-02 0. -1.
    10030    2    1    2    0    0  0.00000000000E+00  0.00000000000E+00 -0.81407157957E+03  0.32181118891E+04  0.31134436874E+04 0.  0.
        2    1    3    3  502    0 -0.12444049114E+04  0.44920529047E+03 -0.12550147062E+04  0.18235654333E+04  0.25500000920E-02 0. -1.
       -2    1    3    3    0  502  0.12444049114E+04 -0.44920529047E+03  0.44094312665E+03  0.13945464559E+04  0.25500000920E-02 0.  1.
</event>
<event>
 5   0  0.1235960E-06  0.2887608E+04  0.7818609E-02  0.8276574E-01
       -1   -1    0    0    0  501  0.00000000000E+00  0.00000000000E+00  0.17202390155E+04  0.17202390155E+04  0.50400001928E-02 0. -1.
        1   -1    0    0  501    0  0.00000000000E+00  0.00000000000E+00 -0.12117910388E+04  0.12117910388E+04  0.50400001928E-02 0.  1.
    10030    2    1    2    0    0  0.00000000000E+00  0.00000000000E+00  0.50844797662E+03  0.29320300543E+04  0.28876081615E+04 0.  0.
        4    1    3    3  502    0  0.34521504998E+02  0.83456121000E+03 -0.94155329445E+03  0.12586533942E+04  0.12699999809E+01 0.  1.
       -4    1    3    3    0  502 -0.34521504998E+02 -0.83456121000E+03  0.14500012711E+04  0.16733766601E+04  0.12699999809E+01 0. -1.
</event>
<event>
 5   0  0.1211008E-06  0.3007251E+04  0.7818609E-02  0.8241663E-01
        1   -1    0    0  501    0  0.00000000000E+00  0.00000000000E+00  0.16882003759E+04  0.16882003759E+04  0.50400001928E-02 0. -1.
       -1   -1    0    0    0  501  0.00000000000E+00  0.00000000000E+00 -0.13392302518E+04  0.13392302518E+04  0.50400001928E-02 0.  1.
    10030    2    1    2    0    0  0.00000000000E+00  0.00000000000E+00  0.34897012410E+03  0.30274306277E+04  0.30072505812E+04 0.  0.
        3    1    3    3  502    0 -0.11911105290E+04 -0.43614186853E+03  0.98732193195E+03  0.16074105354E+04  0.10100000352E+00 0. -1.
       -3    1    3    3    0  502  0.11911105290E+04  0.43614186853E+03 -0.63835180785E+03  0.14200200923E+04  0.10100000352E+00 0.  1.
</event>
<event>
 5   0  0.1250276E-06  0.3096109E+04  0.7818609E-02  0.8216806E-01
       -1   -1    0    0    0  501  0.00000000000E+00  0.00000000000E+00  0.12043028645E+04  0.12043028645E+04  0.50400001928E-02 0.  1.
        1   -1    0    0  501    0  0.00000000000E+00  0.00000000000E+00 -0.19899258730E+04  0.19899258730E+04  0.50400001928E-02 0. -1.
    10030    2    1    2    0    0  0.00000000000E+00  0.00000000000E+00 -0.78562300850E+03  0.31942287376E+04  0.30961094484E+04 0.  0.
        5    1    3    3  502    0  0.14677054997E+04  0.11807016579E+03  0.10019368591E+03  0.14758593640E+04  0.46999998093E+01 0. -1.
       -5    1    3    3    0  502 -0.14677054997E+04 -0.11807016579E+03 -0.88581669440E+03  0.17183693735E+04  0.46999998093E+01 0.  1.
</event>
<event>
 5   0  0.3340899E-06  0.3109762E+04  0.7818609E-02  0.8213064E-01
       -2   -1    0    0    0  501  0.00000000000E+00  0.00000000000E+00  0.12602704753E+04  0.12602704753E+04  0.25500000920E-02 0. -1.
        2   -1    0    0  501    0  0.00000000000E+00  0.00000000000E+00 -0.19183621137E+04  0.19183621137E+04  0.25500000920E-02 0.  1.
    10030    2    1    2    0    0  0.00000000000E+00  0.00000000000E+00 -0.65809163842E+03  0.31786325891E+04  0.31097621343E+04 0.  0.
        3    1    3    3  502    0 -0.10303610861E+04 -0.11630187318E+04 -0.38863428357E+03  0.16016532567E+04  0.10100000352E+00 0.  1.
       -3    1    3    3    0  502  0.10303610861E+04  0.11630187318E+04 -0.26945735485E+03  0.15769793323E+04  0.10100000352E+00 0. -1.
</event>
<event>
 5   0  0.1198763E-06  0.3130916E+04  0.7818609E-02  0.8207304E-01
       -1   -1    0    0    0  501  0.00000000000E+00  0.00000000000E+00  0.24898172090E+04  0.24898172090E+04  0.50400001928E-02 0.  1.
        1   -1    0    0  501    0  0.00000000000E+00  0.00000000000E+00 -0.98427248521E+03  0.98427248522E+03  0.50400001928E-02 0. -1.
    10030    2    1    2    0    0  0.00000000000E+00  0.00000000000E+00  0.15055447238E+04  0.34740896942E+04  0.31309158865E+04 0.  0.
        1    1    3    3  502    0  0.12903723333E+04 -0.76426212279E+03  0.12508631019E+04  0.19528993447E+04  0.50400001928E-02 0.  1.
       -1    1    3    3    0  502 -0.12903723333E+04  0.76426212279E+03  0.25468162190E+03  0.15211903495E+04  0.50400001928E-02 0. -1.
</event>
<event>
 5   0  0.3445410E-06  0.3091754E+04  0.7818609E-02  0.8218004E-01
        2   -1    0    0  501    0  0.00000000000E+00  0.00000000000E+00  0.20607934346E+04  0.20607934346E+04  0.25500000920E-02 0. -1.
       -2   -1    0    0    0  501  0.00000000000E+00  0.00000000000E+00 -0.11596195110E+04  0.11596195110E+04  0.25500000920E-02 0.  1.
    10030    2    1    2    0    0  0.00000000000E+00  0.00000000000E+00  0.90117392365E+03  0.32204129456E+04  0.30917543724E+04 0.  0.
        1    1    3    3  502    0  0.28501072637E+03  0.13540809833E+04 -0.26727278582E+03  0.14093264936E+04  0.50400001928E-02 0.  1.
       -1    1    3    3    0  502 -0.28501072637E+03 -0.13540809833E+04  0.11684467095E+04  0.18110864520E+04  0.50400001928E-02 0. -1.
</event>
<event>
 5   0  0.1211008E-06  0.3129775E+04  0.7818609E-02  0.8207614E-01
       -1   -1    0    0    0  501  0.00000000000E+00  0.00000000000E+00  0.16060110556E+04  0.16060110556E+04  0.50400001928E-02 0. -1.
        1   -1    0    0  501    0  0.00000000000E+00  0.00000000000E+00 -0.15248166815E+04  0.15248166815E+04  0.50400001928E-02 0.  1.
    10030    2    1    2    0    0  0.00000000000E+00  0.00000000000E+00  0.81194374109E+02  0.31308277372E+04  0.31297747193E+04 0.  0.
        3    1    3    3  502    0 -0.13139519934E+04  0.11668695185E+03 -0.80158080932E+03  0.15435729623E+04  0.10100000352E+00 0.  1.
       -3    1    3    3    0  502  0.13139519934E+04 -0.11668695185E+03  0.88277518342E+03  0.15872547749E+04  0.10100000352E+00 0. -1.
</event>
<event>
 5   0  0.1171915E-06  0.3104141E+04  0.7818609E-02  0.8214602E-01
       -1   -1    0    0    0  501  0.00000000000E+00  0.00000000000E+00  0.14157016670E+04  0.14157016671E+04  0.50400001928E-02 0. -1.
        1   -1    0    0  501    0  0.00000000000E+00  0.00000000000E+00 -0.17015756346E+04  0.17015756346E+04  0.50400001928E-02 0.  1.
    10030    2    1    2    0    0  0.00000000000E+00  0.00000000000E+00 -0.28587396752E+03  0.31172773016E+04  0.31041414030E+04 0.  0.
        2    1    3    3  502    0 -0.13596770355E+03  0.14336867129E+04 -0.72415960423E+03  0.16119404268E+04  0.25500000920E-02 0. -1.
       -2    1    3    3    0  502  0.13596770355E+03 -0.14336867129E+04  0.43828563671E+03  0.15053368748E+04  0.25500000920E-02 0.  1.
</event>
<event>
 5   0  0.1250276E-06  0.2993665E+04  0.7818609E-02  0.8245542E-01
        1   -1    0    0  501    0  0.00000000000E+00  0.00000000000E+00  0.13445663704E+04  0.13445663704E+04  0.50400001928E-02 0. -1.
       -1   -1    0    0    0  501  0.00000000000E+00  0.00000000000E+00 -0.16663420826E+04  0.16663420826E+04  0.50400001928E-02 0.  1.
    10030    2    1    2    0    0  0.00000000000E+00  0.00000000000E+00 -0.32177571215E+03  0.30109084530E+04  0.29936649952E+04 0.  0.
        5    1    3    3  502    0 -0.43350002756E+03  0.54988455242E+03 -0.14914555307E+04  0.16476519611E+04  0.46999998093E+01 0.  1.
       -5    1    3    3    0  502  0.43350002756E+03 -0.54988455242E+03  0.11696798185E+04  0.13632564919E+04  0.46999998093E+01 0. -1.
</event>
<event>
 5   0  0.3441897E-06  0.3055015E+04  0.7818609E-02  0.8228193E-01
        2   -1    0    0  501    0  0.00000000000E+00  0.00000000000E+00  0.15869913330E+04  0.15869913330E+04  0.25500000920E-02 0.  1.
       -2   -1    0    0    0  501  0.00000000000E+00  0.00000000000E+00 -0.14702537122E+04  0.14702537122E+04  0.25500000920E-02 0. -1.
    10030    2    1    2    0    0  0.00000000000E+00  0.00000000000E+00  0.11673762086E+03  0.30572450452E+04  0.30550154819E+04 0.  0.
        5    1    3    3  502    0 -0.15066143065E+03 -0.11100737840E+04 -0.98079893303E+03  0.14889430176E+04  0.46999998093E+01 0. -1.
       -5    1    3    3    0  502  0.15066143065E+03  0.11100737840E+04  0.10975365539E+04  0.15683020276E+04  0.46999998093E+01 0.  1.
</event>
<event>
 5   0  0.3441897E-06  0.2943153E+04  0.7818609E-02  0.8260153E-01
        2   -1    0    0  501    0  0.00000000000E+00  0.00000000000E+00  0.23659304943E+04  0.23659304943E+04  0.25500000920E-02 0. -1.
       -2   -1    0    0    0  501  0.00000000000E+00  0.00000000000E+00 -0.91530035489E+03  0.91530035489E+03  0.25500000920E-02 0.  1.
    10030    2    1    2    0    0  0.00000000000E+00  0.00000000000E+00  0.14506301395E+04  0.32812308492E+04  0.29431527457E+04 0.  0.
        5    1    3    3  502    0  0.85348789810E+03  0.92374028084E+03 -0.12650439673E+03  0.12640265626E+04  0.46999998093E+01 0. -1.
       -5    1    3    3    0  502 -0.85348789810E+03 -0.92374028084E+03  0.15771345362E+04  0.20172042866E+04  0.46999998093E+01 0.  1.
</event>
<event>
 5   0  0.3441897E-06  0.2808871E+04  0.7818609E-02  0.8300519E-01
       -2   -1    0    0    0  501  0.00000000000E+00  0.00000000000E+00  0.10505797861E+04  0.10505797861E+04  0.25500000920E-02 0.  1.
        2   -1    0    0  501    0  0.00000000000E+00  0.00000000000E+00 -0.18774773711E+04  0.18774773711E+04  0.25500000920E-02 0. -1.
    10030    2    1    2    0    0  0.00000000000E+00  0.00000000000E+00 -0.82689758496E+03  0.29280571572E+04  0.28088714993E+04 0.  0.
        5    1    3    3  502    0  0.10674143556E+04  0.89450982806E+03 -0.22437899074E+03  0.14106343468E+04  0.46999998093E+01 0.  1.
       -5    1    3    3    0  502 -0.10674143556E+04 -0.89450982806E+03 -0.60251859422E+03  0.15174228104E+04  0.46999998093E+01 0. -1.
</event>
<event>
 5   0  0.1235960E-06  0.3068912E+04  0.7818609E-02  0.8224322E-01
        1   -1    0    0  501    0  0.00000000000E+00  0.00000000000E+00  0.14975236867E+04  0.14975236867E+04  0.50400001928E-02 0.  1.
       -1   -1    0    0    0  501  0.00000000000E+00  0.00000000000E+00 -0.15722990250E+04  0.15722990250E+04  0.50400001928E-02 0. -1.
    10030    2    1    2    0    0  0.00000000000E+00  0.00000000000E+00 -0.74775338285E+02  0.30698227117E+04  0.30689118805E+04 0.  0.
        4    1    3    3  502    0 -0.37471690431E+03  0.14865075933E+04  0.29234172096E+02  0.15332885681E+04  0.12699999809E+01 0. -1.
       -4    1    3    3    0  502  0.37471690431E+03 -0.14865075933E+04 -0.10400951038E+03  0.15365341436E+04  0.12699999809E+01 0.  1.
</event>
<event>
 5   0  0.3374790E-06  0.3105786E+04  0.7818609E-02  0.8214152E-01
       -2   -1    0    0    0  501  0.00000000000E+00  0.00000000000E+00  0.13359179484E+04  0.13359179484E+04  0.25500000920E-02 0.  1.
        2   -1    0    0  501    0  0.00000000000E+00  0.00000000000E+00 -0.18051083843E+04  0.18051083843E+04  0.25500000920E-02 0. -1.
    10030    2    1    2    0    0  0.00000000000E+00  0.00000000000E+00 -0.46919043589E+03  0.31410263328E+04  0.31057860129E+04 0.  0.
        2    1    3    3  502    0  0.36871556347E+03 -0.65724630911E+03 -0.16077763872E+04  0.17756319407E+04  0.25500000920E-02 0. -1.
       -2    1    3    3    0  502 -0.36871556347E+03  0.65724630911E+03  0.11385859513E+04  0.13653943921E+04  0.25500000920E-02 0.  1.
</event>
<event>
 5   0  0.3340899E-06  0.3094300E+04  0.7818609E-02  0.8217304E-01
        2   -1    0    0  501    0  0.00000000000E+00  0.00000000000E+00  0.23421264675E+04  0.23421264675E+04  0.25500000920E-02 0.  1.
       -2   -1    0    0    0  501  0.00000000000E+00  0.00000000000E+00 -0.10220086577E+04  0.10220086577E+04  0.25500000920E-02 0. -1.
    10030    2    1    2    0    0  0.00000000000E+00  0.00000000000E+00  0.13201178098E+04  0.33641351252E+04  0.30943002616E+04 0.  0.
        3    1    3    3  502    0 -0.12237373054E+04  0.21010521029E+02 -0.36888581322E+03  0.12783001166E+04  0.10100000352E+00 0. -1.
       -3    1    3    3    0  502  0.12237373054E+04 -0.21010521029E+02  0.16890036230E+04  0.20858350087E+04  0.10100000352E+00 0.  1.
</event>
<event>
 5   0  0.1211008E-06  0.2522885E+04  0.7818609E-02  0.8394878E-01
        1   -1    0    0  501    0  0.00000000000E+00  0.00000000000E+00  0.55039415788E+03  0.55039415790E+03  0.50400001928E-02 0.  1.
       -1   -1    0    0    0  501  0.00000000000E+00  0.00000000000E+00 -0.28910856548E+04  0.28910856548E+04  0.50400001928E-02 0. -1.
    10030    2    1    2    0    0  0.00000000000E+00  0.00000000000E+00 -0.23406914969E+04  0.34414798127E+04  0.25228845827E+04 0.  0.
        3    1    3    3  502    0 -0.27820830767E+03  0.91594768653E+03 -0.49721452168E+02  0.95855738478E+03  0.10100000352E+00 0.  1.
       -3    1    3    3    0  502  0.27820830767E+03 -0.91594768653E+03 -0.22909700447E+04  0.24829224279E+04  0.10100000352E+00 0. -1.
</event>
<event>
 5   0  0.3340899E-06  0.3069702E+04  0.7818609E-02  0.8224102E-01
       -2   -1    0    0    0  501  0.00000000000E+00  0.00000000000E+00  0.17450601829E+04  0.17450601829E+04  0.25500000920E-02 0.  1.
        2   -1    0    0  501    0  0.00000000000E+00  0.00000000000E+00 -0.13499634108E+04  0.13499634108E+04  0.25500000920E-02 0. -1.
    10030    2    1    2    0    0  0.00000000000E+00  0.00000000000E+00  0.39509677203E+03  0.30950235937E+04  0.30697018725E+04 0.  0.
        3    1    3    3  502    0 -0.77936053247E+03 -0.29334463539E+03  0.14974911388E+04  0.17134566338E+04  0.10100000352E+00 0.  1.
       -3    1    3    3    0  502  0.77936053247E+03  0.29334463539E+03 -0.11023943668E+04  0.13815669599E+04  0.10100000352E+00 0. -1.
</event>
<event>
 5   0  0.1235960E-06  0.3078435E+04  0.7818609E-02  0.8221681E-01
        1   -1    0    0  501    0  0.00000000000E+00  0.00000000000E+00  0.16163593604E+04  0.16163593604E+04  0.50400001928E-02 0.  1.
       -1   -1    0    0    0  501  0.00000000000E+00  0.00000000000E+00 -0.14657568489E+04  0.14657568489E+04  0.50400001928E-02 0. -1.
    10030    2    1    2    0    0  0.00000000000E+00  0.00000000000E+00  0.15060251148E+03  0.30821162092E+04  0.30784345390E+04 0.  0.
        4    1    3    3  502    0 -0.24935506436E+03 -0.34497760824E+03  0.15562595007E+04  0.16134226801E+04  0.12699999809E+01 0.  1.
       -4    1    3    3    0  502  0.24935506436E+03  0.34497760824E+03 -0.14056569892E+04  0.14686935291E+04  0.12699999809E+01 0. -1.
</event>
<event>
 5   0  0.3441897E-06  0.3067912E+04  0.7818609E-02  0.8224600E-01
       -2   -1    0    0    0  501  0.00000000000E+00  0.00000000000E+00  0.14903693766E+04  0.14903693766E+04  0.25500000920E-02 0.  1.
        2   -1    0    0  501    0  0.00000000000E+00  0.00000000000E+00 -0.15788168539E+04  0.15788168539E+04  0.25500000920E-02 0. -1.
    10030    2    1    2    0    0  0.00000000000E+00  0.00000000000E+00 -0.88447477254E+02  0.30691862305E+04  0.30679115309E+04 0.  0.
        5    1    3    3  502    0  0.12311993762E+04 -0.89999822986E+03 -0.20906320035E+03  0.15393434411E+04  0.46999998093E+01 0.  1.
       -5    1    3    3    0  502 -0.12311993762E+04  0.89999822986E+03  0.12061572310E+03  0.15298427895E+04  0.46999998093E+01 0. -1.
</event>
<event>
 5   0  0.1211008E-06  0.3071477E+04  0.7818609E-02  0.8223610E-01
        1   -1    0    0  501    0  0.00000000000E+00  0.00000000000E+00  0.24223565083E+04  0.24223565083E+04  0.50400001928E-02 0. -1.
       -1   -1    0    0    0  501  0.00000000000E+00  0.00000000000E+00 -0.97363594442E+03  0.97363594443E+03  0.50400001928E-02 0.  1.
    10030    2    1    2    0    0  0.00000000000E+00  0.00000000000E+00  0.14487205638E+04  0.33959924527E+04  0.30714774078E+04 0.  0.
        3    1    3    3  502    0 -0.12951305715E+04 -0.14704442039E+03 -0.17354278995E+03  0.13149533714E+04  0.10100000352E+00 0.  1.
       -3    1    3    3    0  502  0.12951305715E+04  0.14704442039E+03  0.16222633538E+04  0.20810390813E+04  0.10100000352E+00 0. -1.
</event>
<event>
 5   0  0.3374790E-06  0.2985291E+04  0.7818609E-02  0.8247944E-01
        2   -1    0    0  501    0  0.00000000000E+00  0.00000000000E+00  0.22156257668E+04  0.22156257668E+04  0.25500000920E-02 0.  1.
       -2   -1    0    0    0  501  0.00000000000E+00  0.00000000000E+00 -0.10055805377E+04  0.10055805377E+04  0.25500000920E-02 0. -1.
    10030    2    1    2    0    0  0.00000000000E+00  0.00000000000E+00  0.12100452292E+04  0.32212063045E+04  0.29852907060E+04 0.  0.
        2    1    3    3  502    0 -0.12150544073E+04 -0.66956638756E+03  0.11992846543E+04  0.18338375179E+04  0.25500000920E-02 0.  1.
       -2    1    3    3    0  502  0.12150544073E+04  0.66956638756E+03  0.10760574893E+02  0.13873687866E+04  0.25500000920E-02 0. -1.
</event>
<event>
 5   0  0.1250276E-06  0.3080127E+04  0.7818609E-02  0.8221213E-01
       -1   -1    0    0    0  501  0.00000000000E+00  0.00000000000E+00  0.11634037787E+04  0.11634037787E+04  0.50400001928E-02 0. -1.
        1   -1    0    0  501    0  0.00000000000E+00  0.00000000000E+00 -0.20386688128E+04  0.20386688128E+04  0.50400001928E-02 0.  1.
    10030    2    1    2    0    0  0.00000000000E+00  0.00000000000E+00 -0.87526503407E+03  0.32020725915E+04  0.30801266210E+04 0.  0.
        5    1    3    3  502    0 -0.73408624111E+02 -0.11066874988E+03 -0.20326976602E+04  0.20370366383E+04  0.46999998093E+01 0.  1.
       -5    1    3    3    0  502  0.73408624111E+02  0.11066874988E+03  0.11574326261E+04  0.11650359532E+04  0.46999998093E+01 0. -1.
</event>
<event>
 5   0  0.1171915E-06  0.3095377E+04  0.7818609E-02  0.8217008E-01
        1   -1    0    0  501    0  0.00000000000E+00  0.00000000000E+00  0.17670674854E+04  0.17670674854E+04  0.50400001928E-02 0. -1.
       -1   -1    0    0    0  501  0.00000000000E+00  0.00000000000E+00 -0.13555448789E+04  0.13555448789E+04  0.50400001928E-02 0.  1.
    10030    2    1    2    0    0  0.00000000000E+00  0.00000000000E+00  0.41152260658E+03  0.31226123643E+04  0.30953767334E+04 0.  0.
        2    1    3    3  502    0 -0.13997947536E+04 -0.34690901068E+03 -0.36093592137E+03  0.14866223304E+04  0.25500000920E-02 0. -1.
       -2    1    3    3    0  502  0.13997947536E+04  0.34690901068E+03  0.77245852795E+03  0.16359900339E+04  0.25500000920E-02 0.  1.
</event>
<event>
 5   0  0.1250276E-06  0.3080284E+04  0.7818609E-02  0.8221170E-01
       -1   -1    0    0    0  501  0.00000000000E+00  0.00000000000E+00  0.20845248368E+04  0.20845248368E+04  0.50400001928E-02 0.  1.
        1   -1    0    0  501    0  0.00000000000E+00  0.00000000000E+00 -0.11379271065E+04  0.11379271065E+04  0.50400001928E-02 0. -1.
    10030    2    1    2    0    0  0.00000000000E+00  0.00000000000E+00  0.94659773036E+03  0.32224519433E+04  0.30802839583E+04 0.  0.
        5    1    3    3  502    0 -0.75778570722E+03  0.84958035324E+03 -0.61187584935E+03  0.12924550668E+04  0.46999998093E+01 0. -1.
       -5    1    3    3    0  502  0.75778570722E+03 -0.84958035324E+03  0.15584735797E+04  0.19299968765E+04  0.46999998093E+01 0.  1.
</event>
<event>
 5   0  0.3441897E-06  0.3070022E+04  0.7818609E-02  0.8224014E-01
       -2   -1    0    0    0  501  0.00000000000E+00  0.00000000000E+00  0.13556206824E+04  0.13556206824E+04  0.25500000920E-02 0. -1.
        2   -1    0    0  501    0  0.00000000000E+00  0.00000000000E+00 -0.17381398475E+04  0.17381398475E+04  0.25500000920E-02 0.  1.
    10030    2    1    2    0    0  0.00000000000E+00  0.00000000000E+00 -0.38251916513E+03  0.30937605299E+04  0.30700217107E+04 0.  0.
        5    1    3    3  502    0 -0.13093667333E+03 -0.13827213905E+04 -0.84989842357E+03  0.16283157791E+04  0.46999998093E+01 0.  1.
       -5    1    3    3    0  502  0.13093667333E+03  0.13827213905E+04  0.46737925843E+03  0.14654447507E+04  0.46999998093E+01 0. -1.
</event>
<event>
 5   0  0.1250276E-06  0.3028159E+04  0.7818609E-02  0.8235735E-01
       -1   -1    0    0    0  501  0.00000000000E+00  0.00000000000E+00  0.16794670554E+04  0.16794670554E+04  0.50400001928E-02 0.  1.
        1   -1    0    0  501    0  0.00000000000E+00  0.00000000000E+00 -0.13649786245E+04  0.13649786245E+04  0.50400001928E-02 0. -1.
    10030    2    1    2    0    0  0.00000000000E+00  0.00000000000E+00  0.31448843092E+03  0.30444456799E+04  0.30281589332E+04 0.  0.
        5    1    3    3  502    0 -0.65379047534E+03  0.71583410308E+03  0.13264928882E+04  0.16430051495E+04  0.46999998093E+01 0.  1.
       -5    1    3    3    0  502  0.65379047534E+03 -0.71583410308E+03 -0.10120044573E+04  0.14014405304E+04  0.46999998093E+01 0. -1.
</event>
<event>
 5   0  0.3445410E-06  0.3196407E+04  0.7818609E-02  0.8189767E-01
        2   -1    0    0  501    0  0.00000000000E+00  0.00000000000E+00  0.18481975158E+04  0.18481975158E+04  0.25500000920E-02 0.  1.
       -2   -1    0    0    0  501  0.00000000000E+00  0.00000000000E+00 -0.13820246664E+04  0.13820246664E+04  0.25500000920E-02 0. -1.
    10030    2    1    2    0    0  0.00000000000E+00  0.00000000000E+00  0.46617284944E+03  0.32302221822E+04  0.31964070799E+04 0.  0.
        1    1    3    3  502    0  0.13249644007E+03  0.14648200148E+04 -0.39882988320E+03  0.15239154367E+04  0.50400001928E-02 0. -1.
       -1    1    3    3    0  502 -0.13249644007E+03 -0.14648200148E+04  0.86500273264E+03  0.17063067455E+04  0.50400001928E-02 0.  1.
</event>
<event>
 5   0  0.3441897E-06  0.2582935E+04  0.7818609E-02  0.8374021E-01
       -2   -1    0    0    0  501  0.00000000000E+00  0.00000000000E+00  0.56585763783E+03  0.56585763784E+03  0.25500000920E-02 0. -1.
        2   -1    0    0  501    0  0.00000000000E+00  0.00000000000E+00 -0.29475405115E+04  0.29475405115E+04  0.25500000920E-02 0.  1.
    10030    2    1    2    0    0  0.00000000000E+00  0.00000000000E+00 -0.23816828737E+04  0.35133981493E+04  0.25829350060E+04 0.  0.
        5    1    3    3  502    0  0.15247865203E+03  0.11137191699E+04 -0.32599937137E+03  0.11704348802E+04  0.46999998093E+01 0. -1.
       -5    1    3    3    0  502 -0.15247865203E+03 -0.11137191699E+04 -0.20556835023E+04  0.23429632691E+04  0.46999998093E+01 0.  1.
</event>
<event>
 5   0  0.3441897E-06  0.3123653E+04  0.7818609E-02  0.8209276E-01
        2   -1    0    0  501    0  0.00000000000E+00  0.00000000000E+00  0.20110300405E+04  0.20110300405E+04  0.25500000920E-02 0. -1.
       -2   -1    0    0    0  501  0.00000000000E+00  0.00000000000E+00 -0.12129618252E+04  0.12129618252E+04  0.25500000920E-02 0.  1.
    10030    2    1    2    0    0  0.00000000000E+00  0.00000000000E+00  0.79806821533E+03  0.32239918657E+04  0.31236534177E+04 0.  0.
        5    1    3    3  502    0 -0.34776710662E+03 -0.14859168223E+04  0.56111909222E+02  0.15271088369E+04  0.46999998093E+01 0.  1.
       -5    1    3    3    0  502  0.34776710662E+03  0.14859168223E+04  0.74195630611E+03  0.16968830288E+04  0.46999998093E+01 0. -1.
</event>
<event>
 5   0  0.1250276E-06  0.3112759E+04  0.7818609E-02  0.8212245E-01
        1   -1    0    0  501    0  0.00000000000E+00  0.00000000000E+00  0.10514067713E+04  0.10514067713E+04  0.50400001928E-02 0.  1.
       -1   -1    0    0    0  501  0.00000000000E+00  0.00000000000E+00 -0.23038826598E+04  0.23038826598E+04  0.50400001928E-02 0. -1.
    10030    2    1    2    0    0  0.00000000000E+00  0.00000000000E+00 -0.12524758884E+04  0.33552894311E+04  0.31127594374E+04 0.  0.
        5    1    3    3  502    0  0.10419135209E+04 -0.11543368643E+04 -0.69624730549E+03  0.17037780906E+04  0.46999998093E+01 0. -1.
       -5    1    3    3    0  502 -0.10419135209E+04  0.11543368643E+04 -0.55622858296E+03  0.16515113405E+04  0.46999998093E+01 0.  1.
</event>
<event>
 5   0  0.1250276E-06  0.3065641E+04  0.7818609E-02  0.8225231E-01
       -1   -1    0    0    0  501  0.00000000000E+00  0.00000000000E+00  0.14083008126E+04  0.14083008126E+04  0.50400001928E-02 0.  1.
        1   -1    0    0  501    0  0.00000000000E+00  0.00000000000E+00 -0.16683503306E+04  0.16683503306E+04  0.50400001928E-02 0. -1.
    10030    2    1    2    0    0  0.00000000000E+00  0.00000000000E+00 -0.26004951803E+03  0.30766511432E+04  0.30656412878E+04 0.  0.
        5    1    3    3  502    0 -0.79947995240E+02 -0.19911728831E+03  0.13931471473E+04  0.14095816544E+04  0.46999998093E+01 0.  1.
       -5    1    3    3    0  502  0.79947995240E+02  0.19911728831E+03 -0.16531966653E+04  0.16670694888E+04  0.46999998093E+01 0. -1.
</event>
<event>
 5   0  0.3441897E-06  0.2936168E+04  0.7818609E-02  0.8262197E-01
        2   -1    0    0  501    0  0.00000000000E+00  0.00000000000E+00  0.22017324324E+04  0.22017324324E+04  0.25500000920E-02 0. -1.
       -2   -1    0    0    0  501  0.00000000000E+00  0.00000000000E+00 -0.97889783518E+03  0.97889783519E+03  0.25500000920E-02 0.  1.
    10030    2    1    2    0    0  0.00000000000E+00  0.00000000000E+00  0.12228345972E+04  0.31806302676E+04  0.29361683274E+04 0.  0.
        5    1    3    3  502    0 -0.11849494918E+04  0.19546407591E+03 -0.30323909175E+03  0.12386636105E+04  0.46999998093E+01 0.  1.
       -5    1    3    3    0  502  0.11849494918E+04 -0.19546407591E+03  0.15260736890E+04  0.19419666571E+04  0.46999998093E+01 0. -1.
</event>
<event>
 5   0  0.1235960E-06  0.3106299E+04  0.7818609E-02  0.8214011E-01
       -1   -1    0    0    0  501  0.00000000000E+00  0.00000000000E+00  0.12281473247E+04  0.12281473247E+04  0.50400001928E-02 0.  1.
        1   -1    0    0  501    0  0.00000000000E+00  0.00000000000E+00 -0.19641568688E+04  0.19641568688E+04  0.50400001928E-02 0. -1.
    10030    2    1    2    0    0  0.00000000000E+00  0.00000000000E+00 -0.73600954410E+03  0.31923041935E+04  0.31062994085E+04 0.  0.
        4    1    3    3  502    0 -0.16817455174E+03  0.89727778747E+03  0.92332103419E+03  0.12984272998E+04  0.12699999809E+01 0.  1.
       -4    1    3    3    0  502  0.16817455174E+03 -0.89727778747E+03 -0.16593305783E+04  0.18938768938E+04  0.12699999809E+01 0. -1.
</event>
<event>
 5   0  0.3445410E-06  0.3092192E+04  0.7818609E-02  0.8217884E-01
        2   -1    0    0  501    0  0.00000000000E+00  0.00000000000E+00  0.15920632282E+04  0.15920632282E+04  0.25500000920E-02 0.  1.
       -2   -1    0    0    0  501  0.00000000000E+00  0.00000000000E+00 -0.15014555435E+04  0.15014555435E+04  0.25500000920E-02 0. -1.
    10030    2    1    2    0    0  0.00000000000E+00  0.00000000000E+00  0.90607684693E+02  0.30935187717E+04  0.30921915591E+04 0.  0.
        1    1    3    3  502    0  0.89363134049E+03 -0.38372591124E+03 -0.11571228518E+04  0.15115408833E+04  0.50400001928E-02 0. -1.
       -1    1    3    3    0  502 -0.89363134049E+03  0.38372591124E+03  0.12477305365E+04  0.15819778884E+04  0.50400001928E-02 0.  1.
</event>
<event>
 5   0  0.1250276E-06  0.2763919E+04  0.7818609E-02  0.8314559E-01
       -1   -1    0    0    0  501  0.00000000000E+00  0.00000000000E+00  0.11307432917E+04  0.11307432917E+04  0.50400001928E-02 0. -1.
        1   -1    0    0  501    0  0.00000000000E+00  0.00000000000E+00 -0.16889875868E+04  0.16889875868E+04  0.50400001928E-02 0.  1.
    10030    2    1    2    0    0  0.00000000000E+00  0.00000000000E+00 -0.55824429510E+03  0.28197308784E+04  0.27639185107E+04 0.  0.
        5    1    3    3  502    0 -0.14548974490E+03 -0.13604978698E+04 -0.47712263053E+03  0.14490651518E+04  0.46999998093E+01 0. -1.
       -5    1    3    3    0  502  0.14548974490E+03  0.13604978698E+04 -0.81121664570E+02  0.13706657266E+04  0.46999998093E+01 0.  1.
</event>
<event>
 5   0  0.1198763E-06  0.3160618E+04  0.7818609E-02  0.8199296E-01
       -1   -1    0    0    0  501  0.00000000000E+00  0.00000000000E+00  0.14735254102E+04  0.14735254102E+04  0.50400001928E-02 0.  1.
        1   -1    0    0  501    0  0.00000000000E+00  0.00000000000E+00 -0.16948309816E+04  0.16948309816E+04  0.50400001928E-02 0. -1.
    10030    2    1    2    0    0  0.00000000000E+00  0.00000000000E+00 -0.22130557141E+03  0.31683563918E+04  0.31606179885E+04 0.  0.
        1    1    3    3  502    0  0.52304919706E+03  0.14795123019E+04  0.76457375661E+02  0.15711087946E+04  0.50400001928E-02 0. -1.
       -1    1    3    3    0  502 -0.52304919706E+03 -0.14795123019E+04 -0.29776294707E+03  0.15972475972E+04  0.50400001928E-02 0.  1.
</event>
<event>
 5   0  0.1198763E-06  0.3134792E+04  0.7818609E-02  0.8206254E-01
       -1   -1    0    0    0  501  0.00000000000E+00  0.00000000000E+00  0.20282999956E+04  0.20282999956E+04  0.50400001928E-02 0. -1.
        1   -1    0    0  501    0  0.00000000000E+00  0.00000000000E+00 -0.12112261853E+04  0.12112261853E+04  0.50400001928E-02 0.  1.
    10030    2    1    2    0    0  0.00000000000E+00  0.00000000000E+00  0.81707381024E+03  0.32395261809E+04  0.31347919014E+04 0.  0.
        1    1    3    3  502    0 -0.15552821035E+04 -0.17558920968E+03  0.49497396378E+03  0.16415642592E+04  0.50400001928E-02 0.  1.
       -1    1    3    3    0  502  0.15552821035E+04  0.17558920968E+03  0.32209984646E+03  0.15979619217E+04  0.50400001928E-02 0. -1.
</event>
<event>
 5   0  0.1235960E-06  0.3021253E+04  0.7818609E-02  0.8237688E-01
        1   -1    0    0  501    0  0.00000000000E+00  0.00000000000E+00  0.13864971073E+04  0.13864971074E+04  0.50400001928E-02 0. -1.
       -1   -1    0    0    0  501  0.00000000000E+00  0.00000000000E+00 -0.16458685206E+04  0.16458685206E+04  0.50400001928E-02 0.  1.
    10030    2    1    2    0    0  0.00000000000E+00  0.00000000000E+00 -0.25937141327E+03  0.30323656280E+04  0.30212526825E+04 0.  0.
        4    1    3    3  502    0  0.44041298135E+03 -0.14360397744E+04  0.31580443326E+02  0.15023890192E+04  0.12699999809E+01 0.  1.
       -4    1    3    3    0  502 -0.44041298135E+03  0.14360397744E+04 -0.29095185659E+03  0.15299766088E+04  0.12699999809E+01 0. -1.
</event>
<event>
 5   0  0.3445959E-06  0.3104411E+04  0.7818609E-02  0.8214528E-01
       -2   -1    0    0    0  501  0.00000000000E+00  0.00000000000E+00  0.16668166297E+04  0.16668166297E+04  0.25500000920E-02 0. -1.
        2   -1    0    0  501    0  0.00000000000E+00  0.00000000000E+00 -0.14454755189E+04  0.14454755189E+04  0.25500000920E-02 0.  1.
    10030    2    1    2    0    0  0.00000000000E+00  0.00000000000E+00  0.22134111081E+03  0.31122921486E+04  0.31044114629E+04 0.  0.
        4    1    3    3  502    0 -0.13240782124E+04 -0.52124421611E+03  0.73229488048E+03  0.16003549763E+04  0.12699999809E+01 0. -1.
       -4    1    3    3    0  502  0.13240782124E+04  0.52124421611E+03 -0.51095376967E+03  0.15119371723E+04  0.12699999809E+01 0.  1.
</event>
<event>
 5   0  0.3340899E-06  0.3083242E+04  0.7818609E-02  0.8220352E-01
        2   -1    0    0  501    0  0.00000000000E+00  0.00000000000E+00  0.14934366486E+04  0.14934366486E+04  0.25500000920E-02 0.  1.
       -2   -1    0    0    0  501  0.00000000000E+00  0.00000000000E+00 -0.15913602699E+04  0.15913602699E+04  0.25500000920E-02 0. -1.
    10030    2    1    2    0    0  0.00000000000E+00  0.00000000000E+00 -0.97923621323E+02  0.30847969185E+04  0.30832422857E+04 0.  0.
        3    1    3    3  502    0  0.10097749309E+04  0.90333657666E+03  0.68689075108E+03  0.15190395965E+04  0.10100000352E+00 0. -1.
       -3    1    3    3    0  502 -0.10097749309E+04 -0.90333657666E+03 -0.78481437240E+03  0.15657573219E+04  0.10100000352E+00 0.  1.
</event>
<event>
 5   0  0.1235960E-06  0.3115119E+04  0.7818609E-02  0.8211601E-01
       -1   -1    0    0    0  501  0.00000000000E+00  0.00000000000E+00  0.84305780386E+03  0.84305780388E+03  0.50400001928E-02 0. -1.
        1   -1    0    0  501    0  0.00000000000E+00  0.00000000000E+00 -0.28776108093E+04  0.28776108093E+04  0.50400001928E-02 0.  1.
    10030    2    1    2    0    0  0.00000000000E+00  0.00000000000E+00 -0.20345530054E+04  0.37206686132E+04  0.31151194194E+04 0.  0.
        4    1    3    3  502    0 -0.13496008031E+04 -0.11880541919E+03 -0.19350577315E+04  0.23621996302E+04  0.12699999809E+01 0.  1.
       -4    1    3    3    0  502  0.13496008031E+04  0.11880541919E+03 -0.99495273909E+02  0.13584689830E+04  0.12699999809E+01 0. -1.
</event>
<event>
 5   0  0.3441897E-06  0.3061268E+04  0.7818609E-02  0.8226449E-01
       -2   -1    0    0    0  501  0.00000000000E+00  0.00000000000E+00  0.13058164882E+04  0.13058164882E+04  0.25500000920E-02 0.  1.
        2   -1    0    0  501    0  0.00000000000E+00  0.00000000000E+00 -0.17941580315E+04  0.17941580315E+04  0.25500000920E-02 0. -1.
    10030    2    1    2    0    0  0.00000000000E+00  0.00000000000E+00 -0.48834154324E+03  0.30999745197E+04  0.30612684560E+04 0.  0.
        5    1    3    3  502    0 -0.12507352878E+03 -0.98876481793E+01  0.13005933294E+04  0.13066392967E+04  0.46999998093E+01 0.  1.
       -5    1    3    3    0  502  0.12507352878E+03  0.98876481793E+01 -0.17889348727E+04  0.17933352230E+04  0.46999998093E+01 0. -1.
</event>
<event>
 5   0  0.3340899E-06  0.3057737E+04  0.7818609E-02  0.8227433E-01
        2   -1    0    0  501    0  0.00000000000E+00  0.00000000000E+00  0.16741610871E+04  0.16741610871E+04  0.25500000920E-02 0. -1.
       -2   -1    0    0    0  501  0.00000000000E+00  0.00000000000E+00 -0.13961853640E+04  0.13961853640E+04  0.25500000920E-02 0.  1.
    10030    2    1    2    0    0  0.00000000000E+00  0.00000000000E+00  0.27797572309E+03  0.30703464512E+04  0.30577372071E+04 0.  0.
        3    1    3    3  502    0 -0.32030728368E+03 -0.12853021859E+04 -0.62760041368E+03  0.14657696799E+04  0.10100000352E+00 0.  1.
       -3    1    3    3    0  502  0.32030728368E+03  0.12853021859E+04  0.90557613677E+03  0.16045767712E+04  0.10100000352E+00 0. -1.
</event>
<event>
 5   0  0.3445959E-06  0.3080344E+04  0.7818609E-02  0.8221153E-01
        2   -1    0    0  501    0  0.00000000000E+00  0.00000000000E+00  0.19493647718E+04  0.19493647718E+04  0.25500000920E-02 0. -1.
       -2   -1    0    0    0  501  0.00000000000E+00  0.00000000000E+00 -0.12168734780E+04  0.12168734780E+04  0.25500000920E-02 0.  1.
    10030    2    1    2    0    0  0.00000000000E+00  0.00000000000E+00  0.73249129372E+03  0.31662382498E+04  0.30803443248E+04 0.  0.
        4    1    3    3  502    0 -0.15840279934E+02  0.11813547391E+04 -0.64937434830E+03  0.13481611889E+04  0.12699999809E+01 0.  1.
       -4    1    3    3    0  502  0.15840279934E+02 -0.11813547391E+04  0.13818656420E+04  0.18180770609E+04  0.12699999809E+01 0. -1.
</event>
<event>
 5   0  0.3374790E-06  0.3070176E+04  0.7818609E-02  0.8223971E-01
        2   -1    0    0  501    0  0.00000000000E+00  0.00000000000E+00  0.11778284031E+04  0.11778284031E+04  0.25500000920E-02 0. -1.
       -2   -1    0    0    0  501  0.00000000000E+00  0.00000000000E+00 -0.20007118326E+04  0.20007118326E+04  0.25500000920E-02 0.  1.
    10030    2    1    2    0    0  0.00000000000E+00  0.00000000000E+00 -0.82288342950E+03  0.31785402358E+04  0.30701760360E+04 0.  0.
        2    1    3    3  502    0  0.11430261665E+04  0.24377988567E+03  0.61895470493E+03  0.13225136584E+04  0.25500000920E-02 0. -1.
       -2    1    3    3    0  502 -0.11430261665E+04 -0.24377988567E+03 -0.14418381344E+04  0.18560265774E+04  0.25500000920E-02 0.  1.
</event>
<event>
 5   0  0.3374790E-06  0.3061451E+04  0.7818609E-02  0.8226398E-01
        2   -1    0    0  501    0  0.00000000000E+00  0.00000000000E+00  0.18850548736E+04  0.18850548736E+04  0.25500000920E-02 0.  1.
       -2   -1    0    0    0  501  0.00000000000E+00  0.00000000000E+00 -0.12429988194E+04  0.12429988194E+04  0.25500000920E-02 0. -1.
    10030    2    1    2    0    0  0.00000000000E+00  0.00000000000E+00  0.64205605421E+03  0.31280536931E+04  0.30614512784E+04 0.  0.
        2    1    3    3  502    0  0.10669671215E+04  0.86303412962E+03 -0.37186531173E+03  0.14218053866E+04  0.25500000920E-02 0. -1.
       -2    1    3    3    0  502 -0.10669671215E+04 -0.86303412962E+03  0.10139213659E+04  0.17062483065E+04  0.25500000920E-02 0.  1.
</event>
<event>
 5   0  0.3374790E-06  0.3033017E+04  0.7818609E-02  0.8234365E-01
        2   -1    0    0  501    0  0.00000000000E+00  0.00000000000E+00  0.18184152869E+04  0.18184152869E+04  0.25500000920E-02 0. -1.
       -2   -1    0    0    0  501  0.00000000000E+00  0.00000000000E+00 -0.12647261904E+04  0.12647261904E+04  0.25500000920E-02 0.  1.
    10030    2    1    2    0    0  0.00000000000E+00  0.00000000000E+00  0.55368909643E+03  0.30831414773E+04  0.30330166095E+04 0.  0.
        2    1    3    3  502    0  0.24510665023E+03  0.79341822073E+03 -0.10130660592E+04  0.13099208309E+04  0.25500000920E-02 0.  1.
       -2    1    3    3    0  502 -0.24510665023E+03 -0.79341822073E+03  0.15667551556E+04  0.17732206464E+04  0.25500000920E-02 0. -1.
</event>
<event>
 5   0  0.3340899E-06  0.3095032E+04  0.7818609E-02  0.8217103E-01
       -2   -1    0    0    0  501  0.00000000000E+00  0.00000000000E+00  0.11588640753E+04  0.11588640753E+04  0.25500000920E-02 0. -1.
        2   -1    0    0  501    0  0.00000000000E+00  0.00000000000E+00 -0.20665107567E+04  0.20665107567E+04  0.25500000920E-02 0.  1.
    10030    2    1    2    0    0  0.00000000000E+00  0.00000000000E+00 -0.90764668145E+03  0.32253748320E+04  0.30950315521E+04 0.  0.
        3    1    3    3  502    0 -0.47828977564E+03  0.91536330836E+03 -0.16548131563E+04  0.19506557072E+04  0.10100000352E+00 0.  1.
       -3    1    3    3    0  502  0.47828977564E+03 -0.91536330836E+03  0.74716647484E+03  0.12747191248E+04  0.10100000352E+00 0. -1.
</event>
<event>
 5   0  0.3445959E-06  0.3096171E+04  0.7818609E-02  0.8216790E-01
       -2   -1    0    0    0  501  0.00000000000E+00  0.00000000000E+00  0.12148656472E+04  0.12148656472E+04  0.25500000920E-02 0. -1.
        2   -1    0    0  501    0  0.00000000000E+00  0.00000000000E+00 -0.19727021382E+04  0.19727021382E+04  0.25500000920E-02 0.  1.
    10030    2    1    2    0    0  0.00000000000E+00  0.00000000000E+00 -0.75783649101E+03  0.31875677855E+04  0.30961705767E+04 0.  0.
        4    1    3    3  502    0  0.95387044223E+03 -0.56728600885E+03  0.73224004065E+03  0.13296087118E+04  0.12699999809E+01 0. -1.
       -4    1    3    3    0  502 -0.95387044223E+03  0.56728600885E+03 -0.14900765317E+04  0.18579590737E+04  0.12699999809E+01 0.  1.
</event>
<event>
 5   0  0.3445410E-06  0.3108327E+04  0.7818609E-02  0.8213456E-01
       -2   -1    0    0    0  501  0.00000000000E+00  0.00000000000E+00  0.14586228878E+04  0.14586228878E+04  0.25500000920E-02 0.  1.
        2   -1    0    0  501    0  0.00000000000E+00  0.00000000000E+00 -0.16559617372E+04  0.16559617372E+04  0.25500000920E-02 0. -1.
    10030    2    1    2    0    0  0.00000000000E+00  0.00000000000E+00 -0.19733884936E+03  0.31145846250E+04  0.31083266824E+04 0.  0.
        1    1    3    3  502    0  0.77730848880E+03  0.57849117708E+03  0.11189161483E+04  0.14801465724E+04  0.50400001928E-02 0.  1.
       -1    1    3    3    0  502 -0.77730848880E+03 -0.57849117708E+03 -0.13162549977E+04  0.16344380526E+04  0.50400001928E-02 0. -1.
</event>
<event>
 5   0  0.1198763E-06  0.3103511E+04  0.7818609E-02  0.8214775E-01
       -1   -1    0    0    0  501  0.00000000000E+00  0.00000000000E+00  0.14843562660E+04  0.14843562660E+04  0.50400001928E-02 0. -1.
        1   -1    0    0  501    0  0.00000000000E+00  0.00000000000E+00 -0.16222151234E+04  0.16222151234E+04  0.50400001928E-02 0.  1.
    10030    2    1    2    0    0  0.00000000000E+00  0.00000000000E+00 -0.13785885738E+03  0.31065713894E+04  0.31035110331E+04 0.  0.
        1    1    3    3  502    0  0.13705288419E+04 -0.72497524287E+03 -0.55679275630E+01  0.15504739312E+04  0.50400001928E-02 0. -1.
       -1    1    3    3    0  502 -0.13705288419E+04  0.72497524287E+03 -0.13229092982E+03  0.15560974582E+04  0.50400001928E-02 0.  1.
</event>
<event>
 5   0  0.1211008E-06  0.3065550E+04  0.7818609E-02  0.8225257E-01
        1   -1    0    0  501    0  0.00000000000E+00  0.00000000000E+00  0.24206924851E+04  0.24206924851E+04  0.50400001928E-02 0.  1.
       -1   -1    0    0    0  501  0.00000000000E+00  0.00000000000E+00 -0.97054810710E+03  0.97054810711E+03  0.50400001928E-02 0. -1.
    10030    2    1    2    0    0  0.00000000000E+00  0.00000000000E+00  0.14501443780E+04  0.33912405922E+04  0.30655495490E+04 0.  0.
        3    1    3    3  502    0  0.85735464046E+03  0.10890119279E+04  0.14491283038E+04  0.20052373450E+04  0.10100000352E+00 0.  1.
       -3    1    3    3    0  502 -0.85735464046E+03 -0.10890119279E+04  0.10160741447E+01  0.13860032472E+04  0.10100000352E+00 0. -1.
</event>
<event>
 5   0  0.1198763E-06  0.2979231E+04  0.7818609E-02  0.8249687E-01
        1   -1    0    0  501    0  0.00000000000E+00  0.00000000000E+00  0.19539056006E+04  0.19539056006E+04  0.50400001928E-02 0. -1.
       -1   -1    0    0    0  501  0.00000000000E+00  0.00000000000E+00 -0.11356506312E+04  0.11356506312E+04  0.50400001928E-02 0.  1.
    10030    2    1    2    0    0  0.00000000000E+00  0.00000000000E+00  0.81825496940E+03  0.30895562318E+04  0.29792308595E+04 0.  0.
        1    1    3    3  502    0  0.71742336777E+03  0.20102297197E+03 -0.92854168947E+03  0.11905024960E+04  0.50400001928E-02 0.  1.
       -1    1    3    3    0  502 -0.71742336777E+03 -0.20102297197E+03  0.17467966589E+04  0.18990537358E+04  0.50400001928E-02 0. -1.
</event>
<event>
 5   0  0.3445959E-06  0.3167049E+04  0.7818609E-02  0.8197574E-01
       -2   -1    0    0    0  501  0.00000000000E+00  0.00000000000E+00  0.13026267867E+04  0.13026267867E+04  0.25500000920E-02 0.  1.
        2   -1    0    0  501    0  0.00000000000E+00  0.00000000000E+00 -0.19249948248E+04  0.19249948248E+04  0.25500000920E-02 0. -1.
    10030    2    1    2    0    0  0.00000000000E+00  0.00000000000E+00 -0.62236803812E+03  0.32276216115E+04  0.31670489880E+04 0.  0.
        4    1    3    3  502    0 -0.14781513555E+04 -0.26922521530E+03 -0.82088408188E+03  0.17120940205E+04  0.12699999809E+01 0. -1.
       -4    1    3    3    0  502  0.14781513555E+04  0.26922521530E+03  0.19851604376E+03  0.15155275909E+04  0.12699999809E+01 0.  1.
</event>
<event>
 5   0  0.3374790E-06  0.3126976E+04  0.7818609E-02  0.8208373E-01
       -2   -1    0    0    0  501  0.00000000000E+00  0.00000000000E+00  0.16712074980E+04  0.16712074980E+04  0.25500000920E-02 0.  1.
        2   -1    0    0  501    0  0.00000000000E+00  0.00000000000E+00 -0.14627116953E+04  0.14627116954E+04  0.25500000920E-02 0. -1.
    10030    2    1    2    0    0  0.00000000000E+00  0.00000000000E+00  0.20849580262E+03  0.31339191933E+04  0.31269760169E+04 0.  0.
        2    1    3    3  502    0  0.13187080930E+04 -0.37427252176E+03  0.85786420500E+03  0.16170967656E+04  0.25500000920E-02 0.  1.
       -2    1    3    3    0  502 -0.13187080930E+04  0.37427252176E+03 -0.64936840238E+03  0.15168224277E+04  0.25500000920E-02 0. -1.
</event>
<event>
 5   0  0.3374790E-06  0.3086265E+04  0.7818609E-02  0.8219517E-01
        2   -1    0    0  501    0  0.00000000000E+00  0.00000000000E+00  0.21777802044E+04  0.21777802044E+04  0.25500000920E-02 0. -1.
       -2   -1    0    0    0  501  0.00000000000E+00  0.00000000000E+00 -0.10934337176E+04  0.10934337176E+04  0.25500000920E-02 0.  1.
    10030    2    1    2    0    0  0.00000000000E+00  0.00000000000E+00  0.10843464869E+04  0.32712139220E+04  0.30862652543E+04 0.  0.
        2    1    3    3  502    0  0.11228279020E+04 -0.10584727345E+04  0.52913667886E+03  0.16312855827E+04  0.25500000920E-02 0. -1.
       -2    1    3    3    0  502 -0.11228279020E+04  0.10584727345E+04  0.55520980799E+03  0.16399283393E+04  0.25500000920E-02 0.  1.
</event>
<event>
 5   0  0.3445410E-06  0.3061894E+04  0.7818609E-02  0.8226274E-01
       -2   -1    0    0    0  501  0.00000000000E+00  0.00000000000E+00  0.10901626624E+04  0.10901626624E+04  0.25500000920E-02 0.  1.
        2   -1    0    0  501    0  0.00000000000E+00  0.00000000000E+00 -0.21499528206E+04  0.21499528206E+04  0.25500000920E-02 0. -1.
    10030    2    1    2    0    0  0.00000000000E+00  0.00000000000E+00 -0.10597901582E+04  0.32401154830E+04  0.30618937218E+04 0.  0.
        1    1    3    3  502    0  0.92142937568E+03  0.56135131040E+03  0.61944123659E+03  0.12441281420E+04  0.50400001928E-02 0.  1.
       -1    1    3    3    0  502 -0.92142937568E+03 -0.56135131040E+03 -0.16792313948E+04  0.19959873410E+04  0.50400001928E-02 0. -1.
</event>
<event>
 5   0  0.3441897E-06  0.2931693E+04  0.7818609E-02  0.8263510E-01
        2   -1    0    0  501    0  0.00000000000E+00  0.00000000000E+00  0.15157085162E+04  0.15157085162E+04  0.25500000920E-02 0.  1.
       -2   -1    0    0    0  501  0.00000000000E+00  0.00000000000E+00 -0.14176250545E+04  0.14176250545E+04  0.25500000920E-02 0. -1.
    10030    2    1    2    0    0  0.00000000000E+00  0.00000000000E+00  0.98083461624E+02  0.29333335707E+04  0.29316932772E+04 0.  0.
        5    1    3    3  502    0 -0.59956568446E+03 -0.73434771140E+03  0.11676738369E+04  0.15040710923E+04  0.46999998093E+01 0.  1.
       -5    1    3    3    0  502  0.59956568446E+03  0.73434771140E+03 -0.10695903753E+04  0.14292624784E+04  0.46999998093E+01 0. -1.
</event>
<event>
 5   0  0.1171915E-06  0.3009222E+04  0.7818609E-02  0.8241102E-01
       -1   -1    0    0    0  501  0.00000000000E+00  0.00000000000E+00  0.15308650850E+04  0.15308650851E+04  0.50400001928E-02 0.  1.
        1   -1    0    0  501    0  0.00000000000E+00  0.00000000000E+00 -0.14788074634E+04  0.14788074634E+04  0.50400001928E-02 0. -1.
    10030    2    1    2    0    0  0.00000000000E+00  0.00000000000E+00  0.52057621657E+02  0.30096725484E+04  0.30092223003E+04 0.  0.
        2    1    3    3  502    0  0.18180155657E+03  0.14924948853E+04 -0.31092996037E+02  0.15038482513E+04  0.25500000920E-02 0.  1.
       -2    1    3    3    0  502 -0.18180155657E+03 -0.14924948853E+04  0.83150617694E+02  0.15058242971E+04  0.25500000920E-02 0. -1.
</event>
<event>
 5   0  0.1211008E-06  0.3089485E+04  0.7818609E-02  0.8218629E-01
       -1   -1    0    0    0  501  0.00000000000E+00  0.00000000000E+00  0.15328875415E+04  0.15328875415E+04  0.50400001928E-02 0.  1.
        1   -1    0    0  501    0  0.00000000000E+00  0.00000000000E+00 -0.15566895899E+04  0.15566895899E+04  0.50400001928E-02 0. -1.
    10030    2    1    2    0    0  0.00000000000E+00  0.00000000000E+00 -0.23802048373E+02  0.30895771314E+04  0.30894854448E+04 0.  0.
        3    1    3    3  502    0 -0.60196170869E+03  0.64139286377E+03  0.12579741952E+04  0.15350054692E+04  0.10100000352E+00 0.  1.
       -3    1    3    3    0  502  0.60196170869E+03 -0.64139286377E+03 -0.12817762435E+04  0.15545716623E+04  0.10100000352E+00 0. -1.
</event>
<event>
 5   0  0.1198763E-06  0.2862906E+04  0.7818609E-02  0.8284000E-01
        1   -1    0    0  501    0  0.00000000000E+00  0.00000000000E+00  0.15854453738E+04  0.15854453738E+04  0.50400001928E-02 0.  1.
       -1   -1    0    0    0  501  0.00000000000E+00  0.00000000000E+00 -0.12924179043E+04  0.12924179043E+04  0.50400001928E-02 0. -1.
    10030    2    1    2    0    0  0.00000000000E+00  0.00000000000E+00  0.29302746956E+03  0.28778632781E+04  0.28629062069E+04 0.  0.
        1    1    3    3  502    0 -0.49663695335E+03  0.25450878500E+03 -0.11785669260E+04  0.13040103466E+04  0.50400001928E-02 0. -1.
       -1    1    3    3    0  502  0.49663695335E+03 -0.25450878500E+03  0.14715943955E+04  0.15738529315E+04  0.50400001928E-02 0.  1.
</event>
<event>
 5   0  0.1171915E-06  0.3097292E+04  0.7818609E-02  0.8216481E-01
       -1   -1    0    0    0  501  0.00000000000E+00  0.00000000000E+00  0.17567404350E+04  0.17567404350E+04  0.50400001928E-02 0.  1.
        1   -1    0    0  501    0  0.00000000000E+00  0.00000000000E+00 -0.13652015820E+04  0.13652015820E+04  0.50400001928E-02 0. -1.
    10030    2    1    2    0    0  0.00000000000E+00  0.00000000000E+00  0.39153885298E+03  0.31219420171E+04  0.30972922504E+04 0.  0.
        2    1    3    3  502    0  0.14211146259E+04 -0.17173256891E+03  0.79144301735E+03  0.16356775064E+04  0.25500000920E-02 0.  1.
       -2    1    3    3    0  502 -0.14211146259E+04  0.17173256891E+03 -0.39990416437E+03  0.14862645107E+04  0.25500000920E-02 0. -1.
</event>
<event>
 5   0  0.3340899E-06  0.3077647E+04  0.7818609E-02  0.8221899E-01
        2   -1    0    0  501    0  0.00000000000E+00  0.00000000000E+00  0.20872832565E+04  0.20872832565E+04  0.25500000920E-02 0. -1.
       -2   -1    0    0    0  501  0.00000000000E+00  0.00000000000E+00 -0.11344784963E+04  0.11344784963E+04  0.25500000920E-02 0.  1.
    10030    2    1    2    0    0  0.00000000000E+00  0.00000000000E+00  0.95280476023E+03  0.32217617528E+04  0.30776471339E+04 0.  0.
        3    1    3    3  502    0 -0.99573678768E+03 -0.58875041651E+01  0.17045626978E+04  0.19740973669E+04  0.10100000352E+00 0. -1.
       -3    1    3    3    0  502  0.99573678768E+03  0.58875041651E+01 -0.75175793756E+03  0.12476643859E+04  0.10100000352E+00 0.  1.
</event>
<event>
 5   0  0.1171915E-06  0.3069223E+04  0.7818609E-02  0.8224236E-01
        1   -1    0    0  501    0  0.00000000000E+00  0.00000000000E+00  0.22876628387E+04  0.22876628388E+04  0.50400001928E-02 0. -1.
       -1   -1    0    0    0  501  0.00000000000E+00  0.00000000000E+00 -0.10294488966E+04  0.10294488966E+04  0.50400001928E-02 0.  1.
    10030    2    1    2    0    0  0.00000000000E+00  0.00000000000E+00  0.12582139422E+04  0.33171117353E+04  0.30692226932E+04 0.  0.
        2    1    3    3  502    0  0.10231270200E+04 -0.11109617218E+04  0.33509263499E+03  0.15470332642E+04  0.25500000920E-02 0. -1.
       -2    1    3    3    0  502 -0.10231270200E+04  0.11109617218E+04  0.92312130718E+03  0.17700784712E+04  0.25500000920E-02 0.  1.
</event>
<event>
 5   0  0.3441897E-06  0.3080368E+04  0.7818609E-02  0.8221146E-01
        2   -1    0    0  501    0  0.00000000000E+00  0.00000000000E+00  0.16363214636E+04  0.16363214636E+04  0.25500000920E-02 0.  1.
       -2   -1    0    0    0  501  0.00000000000E+00  0.00000000000E+00 -0.14496947460E+04  0.14496947460E+04  0.25500000920E-02 0. -1.
    10030    2    1    2    0    0  0.00000000000E+00  0.00000000000E+00  0.18662671756E+03  0.30860162096E+04  0.30803679187E+04 0.  0.
        5    1    3    3  502    0  0.14408370451E+04  0.73406339454E+02  0.63350950636E+03  0.15756764471E+04  0.46999998093E+01 0.  1.
       -5    1    3    3    0  502 -0.14408370451E+04 -0.73406339454E+02 -0.44688278880E+03  0.15103397625E+04  0.46999998093E+01 0. -1.
</event>
<event>
 5   0  0.3445410E-06  0.3077821E+04  0.7818609E-02  0.8221851E-01
       -2   -1    0    0    0  501  0.00000000000E+00  0.00000000000E+00  0.13191188264E+04  0.13191188264E+04  0.25500000920E-02 0.  1.
        2   -1    0    0  501    0  0.00000000000E+00  0.00000000000E+00 -0.17953243175E+04  0.17953243176E+04  0.25500000920E-02 0. -1.
    10030    2    1    2    0    0  0.00000000000E+00  0.00000000000E+00 -0.47620549118E+03  0.31144431439E+04  0.30778213767E+04 0.  0.
        1    1    3    3  502    0 -0.14169238573E+04  0.52267122414E+03  0.61028722171E+02  0.15114836853E+04  0.50400001928E-02 0.  1.
       -1    1    3    3    0  502  0.14169238573E+04 -0.52267122414E+03 -0.53723421335E+03  0.16029594586E+04  0.50400001928E-02 0. -1.
</event>
<event>
 5   0  0.1250276E-06  0.3108015E+04  0.7818609E-02  0.8213542E-01
       -1   -1    0    0    0  501  0.00000000000E+00  0.00000000000E+00  0.16679587278E+04  0.16679587278E+04  0.50400001928E-02 0. -1.
        1   -1    0    0  501    0  0.00000000000E+00  0.00000000000E+00 -0.14478412136E+04  0.14478412137E+04  0.50400001928E-02 0.  1.
    10030    2    1    2    0    0  0.00000000000E+00  0.00000000000E+00  0.22011751418E+03  0.31157999415E+04  0.31080150507E+04 0.  0.
        5    1    3    3  502    0  0.14403765448E+04 -0.18152582537E+03 -0.44565911459E+03  0.15186409558E+04  0.46999998093E+01 0.  1.
       -5    1    3    3    0  502 -0.14403765448E+04  0.18152582537E+03  0.66577662877E+03  0.15971589857E+04  0.46999998093E+01 0. -1.
</event>
<event>
 5   0  0.1211008E-06  0.3087421E+04  0.7818609E-02  0.8219199E-01
       -1   -1    0    0    0  501  0.00000000000E+00  0.00000000000E+00  0.91335081008E+03  0.91335081010E+03  0.50400001928E-02 0.  1.
        1   -1    0    0  501    0  0.00000000000E+00  0.00000000000E+00 -0.26091194508E+04  0.26091194508E+04  0.50400001928E-02 0. -1.
    10030    2    1    2    0    0  0.00000000000E+00  0.00000000000E+00 -0.16957686407E+04  0.35224702609E+04  0.30874205182E+04 0.  0.
        3    1    3    3  502    0 -0.15807609156E+03  0.31451858222E+03  0.86695049317E+03  0.93568860049E+03  0.10100000352E+00 0.  1.
       -3    1    3    3    0  502  0.15807609156E+03 -0.31451858222E+03 -0.25627191339E+04  0.25867816604E+04  0.10100000352E+00 0. -1.
</event>
<event>
 5   0  0.1198763E-06  0.3070043E+04  0.7818609E-02  0.8224008E-01
        1   -1    0    0  501    0  0.00000000000E+00  0.00000000000E+00  0.17460206936E+04  0.17460206936E+04  0.50400001928E-02 0.  1.
       -1   -1    0    0    0  501  0.00000000000E+00  0.00000000000E+00 -0.13495205912E+04  0.13495205912E+04  0.50400001928E-02 0. -1.
    10030    2    1    2    0    0  0.00000000000E+00  0.00000000000E+00  0.39650010240E+03  0.30955412848E+04  0.30700429174E+04 0.  0.
        1    1    3    3  502    0 -0.10326311819E+04 -0.10121605336E+04  0.71779143061E+03  0.16143173918E+04  0.50400001928E-02 0.  1.
       -1    1    3    3    0  502  0.10326311819E+04  0.10121605336E+04 -0.32129132821E+03  0.14812238930E+04  0.50400001928E-02 0. -1.
</event>
<event>
 5   0  0.1250276E-06  0.3176436E+04  0.7818609E-02  0.8195068E-01
       -1   -1    0    0    0  501  0.00000000000E+00  0.00000000000E+00  0.10572369999E+04  0.10572369999E+04  0.50400001928E-02 0.  1.
        1   -1    0    0  501    0  0.00000000000E+00  0.00000000000E+00 -0.23858762181E+04  0.23858762181E+04  0.50400001928E-02 0. -1.
    10030    2    1    2    0    0  0.00000000000E+00  0.00000000000E+00 -0.13286392182E+04  0.34431132181E+04  0.31764361257E+04 0.  0.
        5    1    3    3  502    0  0.14622524513E+04  0.38164151136E+03 -0.11937758361E+04  0.19258648217E+04  0.46999998093E+01 0. -1.
       -5    1    3    3    0  502 -0.14622524513E+04 -0.38164151136E+03 -0.13486338204E+03  0.15172483964E+04  0.46999998093E+01 0.  1.
</event>
<event>
 5   0  0.3374790E-06  0.3151848E+04  0.7818609E-02  0.8201651E-01
       -2   -1    0    0    0  501  0.00000000000E+00  0.00000000000E+00  0.16815196826E+04  0.16815196826E+04  0.25500000920E-02 0. -1.
        2   -1    0    0  501    0  0.00000000000E+00  0.00000000000E+00 -0.14769598014E+04  0.14769598014E+04  0.25500000920E-02 0.  1.
    10030    2    1    2    0    0  0.00000000000E+00  0.00000000000E+00  0.20455988115E+03  0.31584794840E+04  0.31518483317E+04 0.  0.
        2    1    3    3  502    0 -0.13283779310E+04 -0.46475846989E+02  0.95069511762E+03  0.16341876081E+04  0.25500000920E-02 0. -1.
       -2    1    3    3    0  502  0.13283779310E+04  0.46475846989E+02 -0.74613523647E+03  0.15242918759E+04  0.25500000920E-02 0.  1.
</event>
<event>
 5   0  0.1171915E-06  0.3083492E+04  0.7818609E-02  0.8220283E-01
       -1   -1    0    0    0  501  0.00000000000E+00  0.00000000000E+00  0.15399227573E+04  0.15399227573E+04  0.50400001928E-02 0. -1.
        1   -1    0    0  501    0  0.00000000000E+00  0.00000000000E+00 -0.15435715519E+04  0.15435715519E+04  0.50400001928E-02 0.  1.
    10030    2    1    2    0    0  0.00000000000E+00  0.00000000000E+00 -0.36487945437E+01  0.30834943092E+04  0.30834921503E+04 0.  0.
        2    1    3    3  502    0  0.79406045588E+03  0.10287287275E+04  0.82773399219E+03  0.15407655124E+04  0.25500000920E-02 0. -1.
       -2    1    3    3    0  502 -0.79406045588E+03 -0.10287287275E+04 -0.83138278673E+03  0.15427287968E+04  0.25500000920E-02 0.  1.
</event>
<event>
 5   0  0.3441897E-06  0.3095474E+04  0.7818609E-02  0.8216981E-01
       -2   -1    0    0    0  501  0.00000000000E+00  0.00000000000E+00  0.10663352187E+04  0.10663352187E+04  0.25500000920E-02 0. -1.
        2   -1    0    0  501    0  0.00000000000E+00  0.00000000000E+00 -0.22464700549E+04  0.22464700549E+04  0.25500000920E-02 0.  1.
    10030    2    1    2    0    0  0.00000000000E+00  0.00000000000E+00 -0.11801348361E+04  0.33128052736E+04  0.30954742043E+04 0.  0.
        5    1    3    3  502    0  0.14308752561E+02  0.14589628318E+04 -0.11427460911E+04  0.18532857318E+04  0.46999998093E+01 0. -1.
       -5    1    3    3    0  502 -0.14308752561E+02 -0.14589628318E+04 -0.37388745039E+02  0.14595195419E+04  0.46999998093E+01 0.  1.
</event>
<event>
 5   0  0.1198763E-06  0.3121823E+04  0.7818609E-02  0.8209774E-01
        1   -1    0    0  501    0  0.00000000000E+00  0.00000000000E+00  0.15733843454E+04  0.15733843455E+04  0.50400001928E-02 0.  1.
       -1   -1    0    0    0  501  0.00000000000E+00  0.00000000000E+00 -0.15485371806E+04  0.15485371806E+04  0.50400001928E-02 0. -1.
    10030    2    1    2    0    0  0.00000000000E+00  0.00000000000E+00  0.24847164865E+02  0.31219215260E+04  0.31218226460E+04 0.  0.
        1    1    3    3  502    0 -0.13561204017E+04 -0.77289905457E+03  0.94797150897E+01  0.15609373330E+04  0.50400001928E-02 0. -1.
       -1    1    3    3    0  502  0.13561204017E+04  0.77289905457E+03  0.15367449775E+02  0.15609841931E+04  0.50400001928E-02 0.  1.
</event>
<event>
 5   0  0.3340899E-06  0.3131952E+04  0.7818609E-02  0.8207023E-01
        2   -1    0    0  501    0  0.00000000000E+00  0.00000000000E+00  0.14237690893E+04  0.14237690893E+04  0.25500000920E-02 0.  1.
       -2   -1    0    0    0  501  0.00000000000E+00  0.00000000000E+00 -0.17223868953E+04  0.17223868953E+04  0.25500000920E-02 0. -1.
    10030    2    1    2    0    0  0.00000000000E+00  0.00000000000E+00 -0.29861780594E+03  0.31461559846E+04  0.31319522483E+04 0.  0.
        3    1    3    3  502    0 -0.14064447256E+03 -0.96636775750E+03  0.10804298700E+04  0.14563571762E+04  0.10100000352E+00 0.  1.
       -3    1    3    3    0  502  0.14064447256E+03  0.96636775750E+03 -0.13790476759E+04  0.16897988085E+04  0.10100000352E+00 0. -1.
</event>
<event>
 5   0  0.3441897E-06  0.3096895E+04  0.7818609E-02  0.8216590E-01
        2   -1    0    0  501    0  0.00000000000E+00  0.00000000000E+00  0.13123043784E+04  0.13123043784E+04  0.25500000920E-02 0. -1.
       -2   -1    0    0    0  501  0.00000000000E+00  0.00000000000E+00 -0.18270840043E+04  0.18270840043E+04  0.25500000920E-02 0.  1.
    10030    2    1    2    0    0  0.00000000000E+00  0.00000000000E+00 -0.51477962589E+03  0.31393883827E+04  0.30968954380E+04 0.  0.
        5    1    3    3  502    0 -0.51074510581E+03 -0.14557608341E+04 -0.12302651812E+03  0.15476620379E+04  0.46999998093E+01 0.  1.
       -5    1    3    3    0  502  0.51074510581E+03  0.14557608341E+04 -0.39175310777E+03  0.15917263448E+04  0.46999998093E+01 0. -1.
</event>
<event>
 5   0  0.3441897E-06  0.3107529E+04  0.7818609E-02  0.8213675E-01
        2   -1    0    0  501    0  0.00000000000E+00  0.00000000000E+00  0.18384217634E+04  0.18384217634E+04  0.25500000920E-02 0.  1.
       -2   -1    0    0    0  501  0.00000000000E+00  0.00000000000E+00 -0.13131825591E+04  0.13131825591E+04  0.25500000920E-02 0. -1.
    10030    2    1    2    0    0  0.00000000000E+00  0.00000000000E+00  0.52523920426E+03  0.31516043225E+04  0.31075285330E+04 0.  0.
        5    1    3    3  502    0 -0.92861679110E+03 -0.11342953273E+03 -0.99552645600E+03  0.13661224024E+04  0.46999998093E+01 0. -1.
       -5    1    3    3    0  502  0.92861679110E+03  0.11342953273E+03  0.15207656603E+04  0.17854819201E+04  0.46999998093E+01 0.  1.
</event>
<event>
 5   0  0.3340899E-06  0.3074712E+04  0.7818609E-02  0.8222712E-01
        2   -1    0    0  501    0  0.00000000000E+00  0.00000000000E+00  0.16743691352E+04  0.16743691352E+04  0.25500000920E-02 0.  1.
       -2   -1    0    0    0  501  0.00000000000E+00  0.00000000000E+00 -0.14115548316E+04  0.14115548316E+04  0.25500000920E-02 0. -1.
    10030    2    1    2    0    0  0.00000000000E+00  0.00000000000E+00  0.26281430362E+03  0.30859239668E+04  0.30747122420E+04 0.  0.
        3    1    3    3  502    0  0.13310924493E+04 -0.92678955836E+02 -0.63496567981E+03  0.14776934466E+04  0.10100000352E+00 0. -1.
       -3    1    3    3    0  502 -0.13310924493E+04  0.92678955836E+02  0.89777998343E+03  0.16082305202E+04  0.10100000352E+00 0.  1.
</event>
<event>
 5   0  0.1198763E-06  0.3083632E+04  0.7818609E-02  0.8220244E-01
        1   -1    0    0  501    0  0.00000000000E+00  0.00000000000E+00  0.27018394522E+04  0.27018394522E+04  0.50400001928E-02 0. -1.
       -1   -1    0    0    0  501  0.00000000000E+00  0.00000000000E+00 -0.87984383231E+03  0.87984383232E+03  0.50400001928E-02 0.  1.
    10030    2    1    2    0    0  0.00000000000E+00  0.00000000000E+00  0.18219956199E+04  0.35816832845E+04  0.30836321298E+04 0.  0.
        1    1    3    3  502    0  0.12764817929E+03 -0.92610937403E+03 -0.51308908456E+03  0.10664112898E+04  0.50400001928E-02 0.  1.
       -1    1    3    3    0  502 -0.12764817929E+03  0.92610937403E+03  0.23350847044E+04  0.25152719947E+04  0.50400001928E-02 0. -1.
</event>
<event>
 5   0  0.1235960E-06  0.3104961E+04  0.7818609E-02  0.8214378E-01
       -1   -1    0    0    0  501  0.00000000000E+00  0.00000000000E+00  0.13577844293E+04  0.13577844293E+04  0.50400001928E-02 0. -1.
        1   -1    0    0  501    0  0.00000000000E+00  0.00000000000E+00 -0.17750950636E+04  0.17750950636E+04  0.50400001928E-02 0.  1.
    10030    2    1    2    0    0  0.00000000000E+00  0.00000000000E+00 -0.41731063428E+03  0.31328794929E+04  0.31049614734E+04 0.  0.
        4    1    3    3  502    0 -0.13738834418E+04  0.19811957516E+03 -0.91016762184E+03  0.16598836677E+04  0.12699999809E+01 0.  1.
       -4    1    3    3    0  502  0.13738834418E+04 -0.19811957516E+03  0.49285698756E+03  0.14729958251E+04  0.12699999809E+01 0. -1.
</event>
<event>
 5   0  0.1250276E-06  0.3028467E+04  0.7818609E-02  0.8235648E-01
        1   -1    0    0  501    0  0.00000000000E+00  0.00000000000E+00  0.15720497784E+04  0.15720497785E+04  0.50400001928E-02 0. -1.
       -1   -1    0    0    0  501  0.00000000000E+00  0.00000000000E+00 -0.14585439093E+04  0.14585439093E+04  0.50400001928E-02 0.  1.
    10030    2    1    2    0    0  0.00000000000E+00  0.00000000000E+00  0.11350586914E+03  0.30305936878E+04  0.30284673546E+04 0.  0.
        5    1    3    3  502    0 -0.44290737282E+03 -0.14478787121E+04  0.75788214719E+02  0.15160097788E+04  0.46999998093E+01 0.  1.
       -5    1    3    3    0  502  0.44290737282E+03  0.14478787121E+04  0.37717654417E+02  0.15145839090E+04  0.46999998093E+01 0. -1.
</event>
<event>
 5   0  0.3374790E-06  0.3135255E+04  0.7818609E-02  0.8206129E-01
        2   -1    0    0  501    0  0.00000000000E+00  0.00000000000E+00  0.20954972352E+04  0.20954972352E+04  0.25500000920E-02 0.  1.
       -2   -1    0    0    0  501  0.00000000000E+00  0.00000000000E+00 -0.11727316569E+04  0.11727316569E+04  0.25500000920E-02 0. -1.
    10030    2    1    2    0    0  0.00000000000E+00  0.00000000000E+00  0.92276557833E+03  0.32682288921E+04  0.31352549782E+04 0.  0.
        2    1    3    3  502    0 -0.76262841696E+03  0.13662354560E+04  0.56166330853E+03  0.16624280723E+04  0.25500000920E-02 0.  1.
       -2    1    3    3    0  502  0.76262841696E+03 -0.13662354560E+04  0.36110226980E+03  0.16058008198E+04  0.25500000920E-02 0. -1.
</event>
<event>
 5   0  0.1211008E-06  0.3101666E+04  0.7818609E-02  0.8215281E-01
        1   -1    0    0  501    0  0.00000000000E+00  0.00000000000E+00  0.19749251999E+04  0.19749251999E+04  0.50400001928E-02 0.  1.
       -1   -1    0    0    0  501  0.00000000000E+00  0.00000000000E+00 -0.12178094077E+04  0.12178094077E+04  0.50400001928E-02 0. -1.
    10030    2    1    2    0    0  0.00000000000E+00  0.00000000000E+00  0.75711579223E+03  0.31927346076E+04  0.31016656737E+04 0.  0.
        3    1    3    3  502    0 -0.20263283250E+03 -0.11922473519E+04 -0.62080756307E+03  0.13593806875E+04  0.10100000352E+00 0. -1.
       -3    1    3    3    0  502  0.20263283250E+03  0.11922473519E+04  0.13779233553E+04  0.18333539201E+04  0.10100000352E+00 0.  1.
</event>
<event>
 5   0  0.1235960E-06  0.2895064E+04  0.7818609E-02  0.8274348E-01
        1   -1    0    0  501    0  0.00000000000E+00  0.00000000000E+00  0.18347102890E+04  0.18347102890E+04  0.50400001928E-02 0. -1.
       -1   -1    0    0    0  501  0.00000000000E+00  0.00000000000E+00 -0.11420595660E+04  0.11420595660E+04  0.50400001928E-02 0.  1.
    10030    2    1    2    0    0  0.00000000000E+00  0.00000000000E+00  0.69265072305E+03  0.29767698550E+04  0.28950636859E+04 0.  0.
        4    1    3    3  502    0  0.31445063666E+03  0.11778282773E+04 -0.45620757956E+03  0.13016472726E+04  0.12699999809E+01 0.  1.
       -4    1    3    3    0  502 -0.31445063666E+03 -0.11778282773E+04  0.11488583026E+04  0.16751225824E+04  0.12699999809E+01 0. -1.
</event>
<event>
 5   0  0.3445959E-06  0.3048151E+04  0.7818609E-02  0.8230113E-01
        2   -1    0    0  501    0  0.00000000000E+00  0.00000000000E+00  0.25256064275E+04  0.25256064275E+04  0.25500000920E-02 0.  1.
       -2   -1    0    0    0  501  0.00000000000E+00  0.00000000000E+00 -0.91970248309E+03  0.91970248310E+03  0.25500000920E-02 0. -1.
    10030    2    1    2    0    0  0.00000000000E+00  0.00000000000E+00  0.16059039444E+04  0.34453089106E+04  0.30481512447E+04 0.  0.
        4    1    3    3  502    0 -0.38326004484E+03  0.67945786081E+03 -0.67693721039E+03  0.10328585800E+04  0.12699999809E+01 0. -1.
       -4    1    3    3    0  502  0.38326004484E+03 -0.67945786081E+03  0.22828411548E+04  0.24124503305E+04  0.12699999809E+01 0.  1.
</event>
<event>
 5   0  0.1235960E-06  0.2587257E+04  0.7818609E-02  0.8372543E-01
       -1   -1    0    0    0  501  0.00000000000E+00  0.00000000000E+00  0.15453375620E+04  0.15453375620E+04  0.50400001928E-02 0. -1.
        1   -1    0    0  501    0  0.00000000000E+00  0.00000000000E+00 -0.10829182185E+04  0.10829182186E+04  0.50400001928E-02 0.  1.
    10030    2    1    2    0    0  0.00000000000E+00  0.00000000000E+00  0.46241934349E+03  0.26282557806E+04  0.25872566164E+04 0.  0.
        4    1    3    3  502    0 -0.69561677485E+03 -0.94073668527E+03  0.79186530849E+03  0.14127705009E+04  0.12699999809E+01 0. -1.
       -4    1    3    3    0  502  0.69561677485E+03  0.94073668527E+03 -0.32944596500E+03  0.12154852797E+04  0.12699999809E+01 0.  1.
</event>
<event>
 5   0  0.1235960E-06  0.3048835E+04  0.7818609E-02  0.8229922E-01
       -1   -1    0    0    0  501  0.00000000000E+00  0.00000000000E+00  0.12498186488E+04  0.12498186488E+04  0.50400001928E-02 0. -1.
        1   -1    0    0  501    0  0.00000000000E+00  0.00000000000E+00 -0.18593489465E+04  0.18593489465E+04  0.50400001928E-02 0.  1.
    10030    2    1    2    0    0  0.00000000000E+00  0.00000000000E+00 -0.60953029767E+03  0.31091675953E+04  0.30488351795E+04 0.  0.
        4    1    3    3  502    0  0.63992386580E+03 -0.31981528231E+03 -0.16775321559E+04  0.18237050518E+04  0.12699999809E+01 0.  1.
       -4    1    3    3    0  502 -0.63992386580E+03  0.31981528231E+03  0.10680018582E+04  0.12854625436E+04  0.12699999809E+01 0. -1.
</event>
<event>
 5   0  0.1198763E-06  0.3077787E+04  0.7818609E-02  0.8221860E-01
        1   -1    0    0  501    0  0.00000000000E+00  0.00000000000E+00  0.17645107209E+04  0.17645107209E+04  0.50400001928E-02 0.  1.
       -1   -1    0    0    0  501  0.00000000000E+00  0.00000000000E+00 -0.13421249910E+04  0.13421249910E+04  0.50400001928E-02 0. -1.
    10030    2    1    2    0    0  0.00000000000E+00  0.00000000000E+00  0.42238572986E+03  0.31066357119E+04  0.30777874751E+04 0.  0.
        1    1    3    3  502    0 -0.12319449328E+04 -0.74153756538E+03  0.76462728811E+03  0.16285641431E+04  0.50400001928E-02 0.  1.
       -1    1    3    3    0  502  0.12319449328E+04  0.74153756538E+03 -0.34224155825E+03  0.14780715688E+04  0.50400001928E-02 0. -1.
</event>
<event>
 5   0  0.3445410E-06  0.3094381E+04  0.7818609E-02  0.8217282E-01
        2   -1    0    0  501    0  0.00000000000E+00  0.00000000000E+00  0.27437639954E+04  0.27437639954E+04  0.25500000920E-02 0.  1.
       -2   -1    0    0    0  501  0.00000000000E+00  0.00000000000E+00 -0.87245032759E+03  0.87245032759E+03  0.25500000920E-02 0. -1.
    10030    2    1    2    0    0  0.00000000000E+00  0.00000000000E+00  0.18713136678E+04  0.36162143230E+04  0.30943805820E+04 0.  0.
        1    1    3    3  502    0  0.81482231300E+03 -0.12697954700E+04  0.13362152306E+04  0.20153875756E+04  0.50400001928E-02 0. -1.
       -1    1    3    3    0  502 -0.81482231300E+03  0.12697954700E+04  0.53509843723E+03  0.16008267474E+04  0.50400001928E-02 0.  1.
</event>
<event>
 5   0  0.1211008E-06  0.3117031E+04  0.7818609E-02  0.8211079E-01
       -1   -1    0    0    0  501  0.00000000000E+00  0.00000000000E+00  0.13699269233E+04  0.13699269233E+04  0.50400001928E-02 0. -1.
        1   -1    0    0  501    0  0.00000000000E+00  0.00000000000E+00 -0.17730654751E+04  0.17730654751E+04  0.50400001928E-02 0.  1.
    10030    2    1    2    0    0  0.00000000000E+00  0.00000000000E+00 -0.40313855180E+03  0.31429923984E+04  0.31170307224E+04 0.  0.
        3    1    3    3  502    0  0.10218980339E+04 -0.61771186102E+03  0.80833478409E+03  0.14419600093E+04  0.10100000352E+00 0. -1.
       -3    1    3    3    0  502 -0.10218980339E+04  0.61771186102E+03 -0.12114733359E+04  0.17010323891E+04  0.10100000352E+00 0.  1.
</event>
<event>
 5   0  0.3374790E-06  0.3099066E+04  0.7818609E-02  0.8215994E-01
       -2   -1    0    0    0  501  0.00000000000E+00  0.00000000000E+00  0.17249451576E+04  0.17249451576E+04  0.25500000920E-02 0. -1.
        2   -1    0    0  501    0  0.00000000000E+00  0.00000000000E+00 -0.13919589891E+04  0.13919589891E+04  0.25500000920E-02 0.  1.
    10030    2    1    2    0    0  0.00000000000E+00  0.00000000000E+00  0.33298616851E+03  0.31169041466E+04  0.30990662579E+04 0.  0.
        2    1    3    3  502    0 -0.88638902983E+03 -0.11137193243E+04 -0.44940136780E+03  0.14926546268E+04  0.25500000920E-02 0.  1.
       -2    1    3    3    0  502  0.88638902983E+03  0.11137193243E+04  0.78238753632E+03  0.16242495198E+04  0.25500000920E-02 0. -1.
</event>
<event>
 5   0  0.3340899E-06  0.3080288E+04  0.7818609E-02  0.8221169E-01
       -2   -1    0    0    0  501  0.00000000000E+00  0.00000000000E+00  0.12375339040E+04  0.12375339041E+04  0.25500000920E-02 0. -1.
        2   -1    0    0  501    0  0.00000000000E+00  0.00000000000E+00 -0.19167503050E+04  0.19167503050E+04  0.25500000920E-02 0.  1.
    10030    2    1    2    0    0  0.00000000000E+00  0.00000000000E+00 -0.67921640098E+03  0.31542842091E+04  0.30802879658E+04 0.  0.
        3    1    3    3  502    0 -0.14728471072E+04  0.38733213831E+03 -0.10444239256E+03  0.15265035244E+04  0.10100000352E+00 0. -1.
       -3    1    3    3    0  502  0.14728471072E+04 -0.38733213831E+03 -0.57477400842E+03  0.16277806847E+04  0.10100000352E+00 0.  1.
</event>
<event>
 5   0  0.1250276E-06  0.3197003E+04  0.7818609E-02  0.8189609E-01
        1   -1    0    0  501    0  0.00000000000E+00  0.00000000000E+00  0.22555719926E+04  0.22555719926E+04  0.50400001928E-02 0.  1.
       -1   -1    0    0    0  501  0.00000000000E+00  0.00000000000E+00 -0.11328421614E+04  0.11328421614E+04  0.50400001928E-02 0. -1.
    10030    2    1    2    0    0  0.00000000000E+00  0.00000000000E+00  0.11227298312E+04  0.33884141540E+04  0.31970030036E+04 0.  0.
        5    1    3    3  502    0  0.11270104254E+04 -0.10498886987E+04  0.10144725330E+04  0.18443414513E+04  0.46999998093E+01 0.  1.
       -5    1    3    3    0  502 -0.11270104254E+04  0.10498886987E+04  0.10825729818E+03  0.15440727027E+04  0.46999998093E+01 0. -1.
</event>
<event>
 5   0  0.3445959E-06  0.3114465E+04  0.7818609E-02  0.8211779E-01
        2   -1    0    0  501    0  0.00000000000E+00  0.00000000000E+00  0.15174184049E+04  0.15174184049E+04  0.25500000920E-02 0. -1.
       -2   -1    0    0    0  501  0.00000000000E+00  0.00000000000E+00 -0.15980911807E+04  0.15980911807E+04  0.25500000920E-02 0.  1.
    10030    2    1    2    0    0  0.00000000000E+00  0.00000000000E+00 -0.80672775844E+02  0.31155095856E+04  0.31144649430E+04 0.  0.
        4    1    3    3  502    0 -0.43001301043E+03 -0.94637423818E+03 -0.12002234568E+04  0.15877888231E+04  0.12699999809E+01 0.  1.
       -4    1    3    3    0  502  0.43001301043E+03  0.94637423818E+03  0.11195506809E+04  0.15277207624E+04  0.12699999809E+01 0. -1.
</event>
<event>
 5   0  0.3445959E-06  0.3011416E+04  0.7818609E-02  0.8240479E-01
       -2   -1    0    0    0  501  0.00000000000E+00  0.00000000000E+00  0.17872619126E+04  0.17872619126E+04  0.25500000920E-02 0.  1.
        2   -1    0    0  501    0  0.00000000000E+00  0.00000000000E+00 -0.12685081742E+04  0.12685081742E+04  0.25500000920E-02 0. -1.
    10030    2    1    2    0    0  0.00000000000E+00  0.00000000000E+00  0.51875373841E+03  0.30557700868E+04  0.30114158434E+04 0.  0.
        4    1    3    3  502    0  0.12490892708E+04  0.14021657290E+03  0.11006047344E+04  0.16706935949E+04  0.12699999809E+01 0.  1.
       -4    1    3    3    0  502 -0.12490892708E+04 -0.14021657290E+03 -0.58185099604E+03  0.13850764918E+04  0.12699999809E+01 0. -1.
</event>
<event>
 5   0  0.3374790E-06  0.3017413E+04  0.7818609E-02  0.8238776E-01
        2   -1    0    0  501    0  0.00000000000E+00  0.00000000000E+00  0.27594546051E+04  0.27594546051E+04  0.25500000920E-02 0.  1.
       -2   -1    0    0    0  501  0.00000000000E+00  0.00000000000E+00 -0.82487157163E+03  0.82487157164E+03  0.25500000920E-02 0. -1.
    10030    2    1    2    0    0  0.00000000000E+00  0.00000000000E+00  0.19345830335E+04  0.35843261768E+04  0.30174132345E+04 0.  0.
        2    1    3    3  502    0 -0.13356183501E+04 -0.36003750364E+03  0.16826799046E+04  0.21782825901E+04  0.25500000920E-02 0. -1.
       -2    1    3    3    0  502  0.13356183501E+04  0.36003750364E+03  0.25190312889E+03  0.14060435866E+04  0.25500000920E-02 0.  1.
</event>
<event>
 5   0  0.1250276E-06  0.3120968E+04  0.7818609E-02  0.8210007E-01
       -1   -1    0    0    0  501  0.00000000000E+00  0.00000000000E+00  0.19806169201E+04  0.19806169201E+04  0.50400001928E-02 0.  1.
        1   -1    0    0  501    0  0.00000000000E+00  0.00000000000E+00 -0.12294703522E+04  0.12294703522E+04  0.50400001928E-02 0. -1.
    10030    2    1    2    0    0  0.00000000000E+00  0.00000000000E+00  0.75114656792E+03  0.32100872723E+04  0.31209676591E+04 0.  0.
        5    1    3    3  502    0  0.28601544134E+03  0.54177974164E+03  0.18517407358E+04  0.19504604492E+04  0.46999998093E+01 0.  1.
       -5    1    3    3    0  502 -0.28601544134E+03 -0.54177974164E+03 -0.11005941679E+04  0.12596268231E+04  0.46999998093E+01 0. -1.
</event>
<event>
 5   0  0.3340899E-06  0.3121761E+04  0.7818609E-02  0.8209791E-01
       -2   -1    0    0    0  501  0.00000000000E+00  0.00000000000E+00  0.13159641954E+04  0.13159641954E+04  0.25500000920E-02 0.  1.
        2   -1    0    0  501    0  0.00000000000E+00  0.00000000000E+00 -0.18513784214E+04  0.18513784214E+04  0.25500000920E-02 0. -1.
    10030    2    1    2    0    0  0.00000000000E+00  0.00000000000E+00 -0.53541422599E+03  0.31673426168E+04  0.31217608587E+04 0.  0.
        3    1    3    3  502    0  0.56476829875E+03 -0.14548748673E+04 -0.29499958162E+03  0.15882848844E+04  0.10100000352E+00 0. -1.
       -3    1    3    3    0  502 -0.56476829875E+03  0.14548748673E+04 -0.24041464437E+03  0.15790577324E+04  0.10100000352E+00 0.  1.
</event>
<event>
 5   0  0.1109562E-06  0.3081526E+04  0.7818609E-02  0.8220826E-01
       -3   -1    0    0    0  501  0.00000000000E+00  0.00000000000E+00  0.23401081584E+04  0.23401081605E+04  0.10100000352E+00 0.  1.
        3   -1    0    0  501    0  0.00000000000E+00  0.00000000000E+00 -0.10144621229E+04  0.10144621280E+04  0.10100000352E+00 0. -1.
    10030    2    1    2    0    0  0.00000000000E+00  0.00000000000E+00  0.13256460354E+04  0.33545702885E+04  0.30815263116E+04 0.  0.
        5    1    3    3  502    0  0.31483973926E+03  0.99155508569E+02  0.23011573924E+04  0.23247157484E+04  0.46999998093E+01 0.  1.
       -5    1    3    3    0  502 -0.31483973926E+03 -0.99155508569E+02 -0.97551135694E+03  0.10298545401E+04  0.46999998093E+01 0. -1.
</event>
<event>
 5   0  0.1211008E-06  0.3091325E+04  0.7818609E-02  0.8218123E-01
        1   -1    0    0  501    0  0.00000000000E+00  0.00000000000E+00  0.24066125345E+04  0.24066125345E+04  0.50400001928E-02 0. -1.
       -1   -1    0    0    0  501  0.00000000000E+00  0.00000000000E+00 -0.99271196153E+03  0.99271196155E+03  0.50400001928E-02 0.  1.
    10030    2    1    2    0    0  0.00000000000E+00  0.00000000000E+00  0.14139005729E+04  0.33993244960E+04  0.30913253143E+04 0.  0.
        3    1    3    3  502    0 -0.15765824914E+03 -0.69714577758E+03  0.22139715249E+04  0.23264862523E+04  0.10100000352E+00 0. -1.
       -3    1    3    3    0  502  0.15765824914E+03  0.69714577758E+03 -0.80007095201E+03  0.10728382437E+04  0.10100000352E+00 0.  1.
</event>
<event>
 5   0  0.3445959E-06  0.3076475E+04  0.7818609E-02  0.8222224E-01
       -2   -1    0    0    0  501  0.00000000000E+00  0.00000000000E+00  0.93005233804E+03  0.93005233805E+03  0.25500000920E-02 0. -1.
        2   -1    0    0  501    0  0.00000000000E+00  0.00000000000E+00 -0.25441306489E+04  0.25441306489E+04  0.25500000920E-02 0.  1.
    10030    2    1    2    0    0  0.00000000000E+00  0.00000000000E+00 -0.16140783109E+04  0.34741829870E+04  0.30764750338E+04 0.  0.
        4    1    3    3  502    0  0.66184142114E+03  0.13605830604E+04 -0.11203037158E+04  0.18826317642E+04  0.12699999809E+01 0. -1.
       -4    1    3    3    0  502 -0.66184142114E+03 -0.13605830604E+04 -0.49377459505E+03  0.15915512228E+04  0.12699999809E+01 0.  1.
</event>
<event>
 5   0  0.1235960E-06  0.3131063E+04  0.7818609E-02  0.8207264E-01
        1   -1    0    0  501    0  0.00000000000E+00  0.00000000000E+00  0.17636189395E+04  0.17636189395E+04  0.50400001928E-02 0. -1.
       -1   -1    0    0    0  501  0.00000000000E+00  0.00000000000E+00 -0.13896928054E+04  0.13896928054E+04  0.50400001928E-02 0.  1.
    10030    2    1    2    0    0  0.00000000000E+00  0.00000000000E+00  0.37392613409E+03  0.31533117450E+04  0.31310627920E+04 0.  0.
        4    1    3    3  502    0  0.10447078782E+04  0.91731820629E+03 -0.53787314788E+03  0.14907033167E+04  0.12699999809E+01 0.  1.
       -4    1    3    3    0  502 -0.10447078782E+04 -0.91731820629E+03  0.91179928197E+03  0.16626084283E+04  0.12699999809E+01 0. -1.
</event>
<event>
 5   0  0.1211008E-06  0.3116503E+04  0.7818609E-02  0.8211223E-01
        1   -1    0    0  501    0  0.00000000000E+00  0.00000000000E+00  0.19893003159E+04  0.19893003159E+04  0.50400001928E-02 0.  1.
       -1   -1    0    0    0  501  0.00000000000E+00  0.00000000000E+00 -0.12206042442E+04  0.12206042442E+04  0.50400001928E-02 0. -1.
    10030    2    1    2    0    0  0.00000000000E+00  0.00000000000E+00  0.76869607166E+03  0.32099045601E+04  0.31165034308E+04 0.  0.
        3    1    3    3  502    0  0.14382844222E+04  0.56594467782E+03  0.18044277230E+03  0.15561218017E+04  0.10100000352E+00 0. -1.
       -3    1    3    3    0  502 -0.14382844222E+04 -0.56594467782E+03  0.58825329937E+03  0.16537827584E+04  0.10100000352E+00 0.  1.
</event>
<event>
 5   0  0.3374790E-06  0.3131710E+04  0.7818609E-02  0.8207089E-01
       -2   -1    0    0    0  501  0.00000000000E+00  0.00000000000E+00  0.29261511075E+04  0.29261511075E+04  0.25500000920E-02 0. -1.
        2   -1    0    0  501    0  0.00000000000E+00  0.00000000000E+00 -0.83792724858E+03  0.83792724859E+03  0.25500000920E-02 0.  1.
    10030    2    1    2    0    0  0.00000000000E+00  0.00000000000E+00  0.20882238589E+04  0.37640783561E+04  0.31317099141E+04 0.  0.
        2    1    3    3  502    0 -0.14132180486E+04 -0.67090899038E+03  0.11256093141E+04  0.19272520474E+04  0.25500000920E-02 0. -1.
       -2    1    3    3    0  502  0.14132180486E+04  0.67090899038E+03  0.96261454488E+03  0.18368263087E+04  0.25500000920E-02 0.  1.
</event>
<event>
 5   0  0.1211008E-06  0.3295626E+04  0.7818609E-02  0.8164009E-01
       -1   -1    0    0    0  501  0.00000000000E+00  0.00000000000E+00  0.18326614455E+04  0.18326614455E+04  0.50400001928E-02 0.  1.
        1   -1    0    0  501    0  0.00000000000E+00  0.00000000000E+00 -0.14816091801E+04  0.14816091801E+04  0.50400001928E-02 0. -1.
    10030    2    1    2    0    0  0.00000000000E+00  0.00000000000E+00  0.35105226544E+03  0.33142706257E+04  0.32956262056E+04 0.  0.
        3    1    3    3  502    0 -0.67095579409E+03 -0.90445572838E+03 -0.10342199245E+04  0.15289972873E+04  0.10100000352E+00 0. -1.
       -3    1    3    3    0  502  0.67095579409E+03  0.90445572838E+03  0.13852721899E+04  0.17852733383E+04  0.10100000352E+00 0.  1.
</event>
<event>
 5   0  0.3445959E-06  0.3242358E+04  0.7818609E-02  0.8177719E-01
        2   -1    0    0  501    0  0.00000000000E+00  0.00000000000E+00  0.13742623418E+04  0.13742623418E+04  0.25500000920E-02 0.  1.
       -2   -1    0    0    0  501  0.00000000000E+00  0.00000000000E+00 -0.19124591466E+04  0.19124591466E+04  0.25500000920E-02 0. -1.
    10030    2    1    2    0    0  0.00000000000E+00  0.00000000000E+00 -0.53819680479E+03  0.32867214883E+04  0.32423575283E+04 0.  0.
        4    1    3    3  502    0 -0.14591243226E+04  0.70319963330E+03 -0.33848539856E+03  0.16547227838E+04  0.12699999809E+01 0.  1.
       -4    1    3    3    0  502  0.14591243226E+04 -0.70319963330E+03 -0.19971140622E+03  0.16319987046E+04  0.12699999809E+01 0. -1.
</event>
<event>
 5   0  0.3445410E-06  0.3112006E+04  0.7818609E-02  0.8212451E-01
       -2   -1    0    0    0  501  0.00000000000E+00  0.00000000000E+00  0.15888912936E+04  0.15888912936E+04  0.25500000920E-02 0.  1.
        2   -1    0    0  501    0  0.00000000000E+00  0.00000000000E+00 -0.15237955113E+04  0.15237955113E+04  0.25500000920E-02 0. -1.
    10030    2    1    2    0    0  0.00000000000E+00  0.00000000000E+00  0.65095782342E+02  0.31126868049E+04  0.31120060547E+04 0.  0.
        1    1    3    3  502    0 -0.48825964861E+03 -0.14529022540E+04 -0.23550882453E+03  0.15507375183E+04  0.50400001928E-02 0.  1.
       -1    1    3    3    0  502  0.48825964861E+03  0.14529022540E+04  0.30060460687E+03  0.15619492866E+04  0.50400001928E-02 0. -1.
</event>
<event>
 5   0  0.3340899E-06  0.3110860E+04  0.7818609E-02  0.8212764E-01
        2   -1    0    0  501    0  0.00000000000E+00  0.00000000000E+00  0.13511252110E+04  0.13511252110E+04  0.25500000920E-02 0. -1.
       -2   -1    0    0    0  501  0.00000000000E+00  0.00000000000E+00 -0.17906284182E+04  0.17906284182E+04  0.25500000920E-02 0.  1.
    10030    2    1    2    0    0  0.00000000000E+00  0.00000000000E+00 -0.43950320715E+03  0.31417536292E+04  0.31108604594E+04 0.  0.
        3    1    3    3  502    0 -0.58824675361E+03  0.13662972200E+04  0.23925148040E+03  0.15066663922E+04  0.10100000352E+00 0. -1.
       -3    1    3    3    0  502  0.58824675361E+03 -0.13662972200E+04 -0.67875468755E+03  0.16350872370E+04  0.10100000352E+00 0.  1.
</event>
<event>
 5   0  0.3340899E-06  0.3125007E+04  0.7818609E-02  0.8208908E-01
        2   -1    0    0  501    0  0.00000000000E+00  0.00000000000E+00  0.21585819046E+04  0.21585819046E+04  0.25500000920E-02 0. -1.
       -2   -1    0    0    0  501  0.00000000000E+00  0.00000000000E+00 -0.11310286223E+04  0.11310286223E+04  0.25500000920E-02 0.  1.
    10030    2    1    2    0    0  0.00000000000E+00  0.00000000000E+00  0.10275532823E+04  0.32896105269E+04  0.31250074673E+04 0.  0.
        3    1    3    3  502    0  0.66936096461E+03 -0.61789517506E+03  0.18501237288E+04  0.20622309207E+04  0.10100000352E+00 0. -1.
       -3    1    3    3    0  502 -0.66936096461E+03  0.61789517506E+03 -0.82257044645E+03  0.12273796063E+04  0.10100000352E+00 0.  1.
</event>
<event>
 5   0  0.3441897E-06  0.3129681E+04  0.7818609E-02  0.8207639E-01
       -2   -1    0    0    0  501  0.00000000000E+00  0.00000000000E+00  0.18706335228E+04  0.18706335228E+04  0.25500000920E-02 0.  1.
        2   -1    0    0  501    0  0.00000000000E+00  0.00000000000E+00 -0.13090356210E+04  0.13090356211E+04  0.25500000920E-02 0. -1.
    10030    2    1    2    0    0  0.00000000000E+00  0.00000000000E+00  0.56159790172E+03  0.31796691438E+04  0.31296810798E+04 0.  0.
        5    1    3    3  502    0  0.73821477823E+03 -0.85407959832E+03  0.13817542302E+04  0.17842869337E+04  0.46999998093E+01 0.  1.
       -5    1    3    3    0  502 -0.73821477823E+03  0.85407959832E+03 -0.82015632852E+03  0.13953822101E+04  0.46999998093E+01 0. -1.
</event>
<event>
 5   0  0.1211008E-06  0.3107603E+04  0.7818609E-02  0.8213654E-01
       -1   -1    0    0    0  501  0.00000000000E+00  0.00000000000E+00  0.15210221757E+04  0.15210221757E+04  0.50400001928E-02 0.  1.
        1   -1    0    0  501    0  0.00000000000E+00  0.00000000000E+00 -0.15872874268E+04  0.15872874268E+04  0.50400001928E-02 0. -1.
    10030    2    1    2    0    0  0.00000000000E+00  0.00000000000E+00 -0.66265251108E+02  0.31083096025E+04  0.31076031763E+04 0.  0.
        3    1    3    3  502    0  0.29718631063E+03 -0.71511502586E+03 -0.13805060881E+04  0.15828791087E+04  0.10100000352E+00 0. -1.
       -3    1    3    3    0  502 -0.29718631063E+03  0.71511502586E+03  0.13142408370E+04  0.15254304937E+04  0.10100000352E+00 0.  1.
</event>
<event>
 5   0  0.1235960E-06  0.3042824E+04  0.7818609E-02  0.8231607E-01
        1   -1    0    0  501    0  0.00000000000E+00  0.00000000000E+00  0.15299420141E+04  0.15299420141E+04  0.50400001928E-02 0.  1.
       -1   -1    0    0    0  501  0.00000000000E+00  0.00000000000E+00 -0.15129291499E+04  0.15129291499E+04  0.50400001928E-02 0. -1.
    10030    2    1    2    0    0  0.00000000000E+00  0.00000000000E+00  0.17012864186E+02  0.30428711640E+04  0.30428236037E+04 0.  0.
        4    1    3    3  502    0  0.13603878124E+04 -0.12117942132E+02  0.68961208838E+03  0.15252436821E+04  0.12699999809E+01 0.  1.
       -4    1    3    3    0  502 -0.13603878124E+04  0.12117942132E+02 -0.67259922419E+03  0.15176274819E+04  0.12699999809E+01 0. -1.
</event>
<event>
 5   0  0.3445959E-06  0.3135775E+04  0.7818609E-02  0.8205988E-01
        2   -1    0    0  501    0  0.00000000000E+00  0.00000000000E+00  0.21048048049E+04  0.21048048049E+04  0.25500000920E-02 0. -1.
       -2   -1    0    0    0  501  0.00000000000E+00  0.00000000000E+00 -0.11679334688E+04  0.11679334688E+04  0.25500000920E-02 0.  1.
    10030    2    1    2    0    0  0.00000000000E+00  0.00000000000E+00  0.93687133607E+03  0.32727382738E+04  0.31357754875E+04 0.  0.
        4    1    3    3  502    0  0.86697878102E+02 -0.15280747012E+03  0.20944984929E+04  0.21018544656E+04  0.12699999809E+01 0. -1.
       -4    1    3    3    0  502 -0.86697878102E+02  0.15280747012E+03 -0.11576271568E+04  0.11708838081E+04  0.12699999809E+01 0.  1.
</event>
<event>
 5   0  0.1211008E-06  0.3106574E+04  0.7818609E-02  0.8213936E-01
       -1   -1    0    0    0  501  0.00000000000E+00  0.00000000000E+00  0.17637537114E+04  0.17637537114E+04  0.50400001928E-02 0.  1.
        1   -1    0    0  501    0  0.00000000000E+00  0.00000000000E+00 -0.13679346284E+04  0.13679346284E+04  0.50400001928E-02 0. -1.
    10030    2    1    2    0    0  0.00000000000E+00  0.00000000000E+00  0.39581908294E+03  0.31316883398E+04  0.31065735322E+04 0.  0.
        3    1    3    3  502    0  0.24603988761E+03  0.22209422685E+03 -0.13318691915E+04  0.13724929965E+04  0.10100000352E+00 0. -1.
       -3    1    3    3    0  502 -0.24603988761E+03 -0.22209422685E+03  0.17276882745E+04  0.17591953433E+04  0.10100000352E+00 0.  1.
</event>
<event>
 5   0  0.1171915E-06  0.3071846E+04  0.7818609E-02  0.8223507E-01
       -1   -1    0    0    0  501  0.00000000000E+00  0.00000000000E+00  0.88704605811E+03  0.88704605813E+03  0.50400001928E-02 0. -1.
        1   -1    0    0  501    0  0.00000000000E+00  0.00000000000E+00 -0.26594548121E+04  0.26594548121E+04  0.50400001928E-02 0.  1.
    10030    2    1    2    0    0  0.00000000000E+00  0.00000000000E+00 -0.17724087540E+04  0.35465008703E+04  0.30718456393E+04 0.  0.
        2    1    3    3  502    0 -0.26516621690E+02  0.12385499344E+04  0.16202532227E+03  0.12493843589E+04  0.25500000920E-02 0. -1.
       -2    1    3    3    0  502  0.26516621690E+02 -0.12385499344E+04 -0.19344340763E+04  0.22971165114E+04  0.25500000920E-02 0.  1.
</event>
<event>
 5   0  0.1250276E-06  0.3124412E+04  0.7818609E-02  0.8209070E-01
        1   -1    0    0  501    0  0.00000000000E+00  0.00000000000E+00  0.19818767933E+04  0.19818767933E+04  0.50400001928E-02 0.  1.
       -1   -1    0    0    0  501  0.00000000000E+00  0.00000000000E+00 -0.12314021545E+04  0.12314021545E+04  0.50400001928E-02 0. -1.
    10030    2    1    2    0    0  0.00000000000E+00  0.00000000000E+00  0.75047463882E+03  0.32132789478E+04  0.31244118507E+04 0.  0.
        5    1    3    3  502    0 -0.13828702689E+04  0.25029046721E+03 -0.32643641557E+03  0.14427606599E+04  0.46999998093E+01 0.  1.
       -5    1    3    3    0  502  0.13828702689E+04 -0.25029046721E+03  0.10769110544E+04  0.17705182878E+04  0.46999998093E+01 0. -1.
</event>
<event>
 5   0  0.1211008E-06  0.3093195E+04  0.7818609E-02  0.8217608E-01
       -1   -1    0    0    0  501  0.00000000000E+00  0.00000000000E+00  0.19369809122E+04  0.19369809122E+04  0.50400001928E-02 0.  1.
        1   -1    0    0  501    0  0.00000000000E+00  0.00000000000E+00 -0.12348928758E+04  0.12348928758E+04  0.50400001928E-02 0. -1.
    10030    2    1    2    0    0  0.00000000000E+00  0.00000000000E+00  0.70208803645E+03  0.31718737880E+04  0.30931950660E+04 0.  0.
        3    1    3    3  502    0  0.72513689583E+03 -0.49877450102E+03  0.16551489244E+04  0.18745979550E+04  0.10100000352E+00 0.  1.
       -3    1    3    3    0  502 -0.72513689583E+03  0.49877450102E+03 -0.95306088797E+03  0.12972758330E+04  0.10100000352E+00 0. -1.
</event>
<event>
 5   0  0.1250276E-06  0.3106359E+04  0.7818609E-02  0.8213995E-01
       -1   -1    0    0    0  501  0.00000000000E+00  0.00000000000E+00  0.11015385224E+04  0.11015385224E+04  0.50400001928E-02 0.  1.
        1   -1    0    0  501    0  0.00000000000E+00  0.00000000000E+00 -0.21899976505E+04  0.21899976505E+04  0.50400001928E-02 0. -1.
    10030    2    1    2    0    0  0.00000000000E+00  0.00000000000E+00 -0.10884591281E+04  0.32915361729E+04  0.31063591396E+04 0.  0.
        5    1    3    3  502    0  0.75495813823E+03 -0.21632067023E+03  0.87564619997E+03  0.11762375527E+04  0.46999998093E+01 0.  1.
       -5    1    3    3    0  502 -0.75495813823E+03  0.21632067023E+03 -0.19641053281E+04  0.21152986202E+04  0.46999998093E+01 0. -1.
</event>
<event>
 5   0  0.1171915E-06  0.3188940E+04  0.7818609E-02  0.8191744E-01
       -1   -1    0    0    0  501  0.00000000000E+00  0.00000000000E+00  0.23146139526E+04  0.23146139526E+04  0.50400001928E-02 0.  1.
        1   -1    0    0  501    0  0.00000000000E+00  0.00000000000E+00 -0.10983841410E+04  0.10983841410E+04  0.50400001928E-02 0. -1.
    10030    2    1    2    0    0  0.00000000000E+00  0.00000000000E+00  0.12162298117E+04  0.34129980936E+04  0.31889404247E+04 0.  0.
        2    1    3    3  502    0 -0.88409282079E+02  0.78897940438E+03 -0.87180105500E+03  0.11791275509E+04  0.25500000920E-02 0. -1.
       -2    1    3    3    0  502  0.88409282079E+02 -0.78897940438E+03  0.20880308667E+04  0.22338705428E+04  0.25500000920E-02 0.  1.
</event>
<event>
 5   0  0.1171915E-06  0.3110290E+04  0.7818609E-02  0.8212920E-01
       -1   -1    0    0    0  501  0.00000000000E+00  0.00000000000E+00  0.27977921430E+04  0.27977921430E+04  0.50400001928E-02 0. -1.
        1   -1    0    0  501    0  0.00000000000E+00  0.00000000000E+00 -0.86442303682E+03  0.86442303684E+03  0.50400001928E-02 0.  1.
    10030    2    1    2    0    0  0.00000000000E+00  0.00000000000E+00  0.19333691061E+04  0.36622151798E+04  0.31102900062E+04 0.  0.
        2    1    3    3  502    0  0.28065037506E+03  0.11126764593E+04  0.22025387759E+04  0.24835439588E+04  0.25500000920E-02 0. -1.
       -2    1    3    3    0  502 -0.28065037506E+03 -0.11126764593E+04 -0.26916966976E+03  0.11786712210E+04  0.25500000920E-02 0.  1.
</event>
<event>
 5   0  0.3441897E-06  0.3081444E+04  0.7818609E-02  0.8220849E-01
       -2   -1    0    0    0  501  0.00000000000E+00  0.00000000000E+00  0.14924858750E+04  0.14924858750E+04  0.25500000920E-02 0.  1.
        2   -1    0    0  501    0  0.00000000000E+00  0.00000000000E+00 -0.15905171605E+04  0.15905171605E+04  0.25500000920E-02 0. -1.
    10030    2    1    2    0    0  0.00000000000E+00  0.00000000000E+00 -0.98031285438E+02  0.30830030355E+04  0.30814440745E+04 0.  0.
        5    1    3    3  502    0 -0.10331390434E+04  0.18621423432E+03 -0.11773052388E+04  0.15773781219E+04  0.46999998093E+01 0. -1.
       -5    1    3    3    0  502  0.10331390434E+04 -0.18621423432E+03  0.10792739534E+04  0.15056249136E+04  0.46999998093E+01 0.  1.
</event>
<event>
 5   0  0.1211008E-06  0.3107446E+04  0.7818609E-02  0.8213697E-01
        1   -1    0    0  501    0  0.00000000000E+00  0.00000000000E+00  0.19644018566E+04  0.19644018566E+04  0.50400001928E-02 0. -1.
       -1   -1    0    0    0  501  0.00000000000E+00  0.00000000000E+00 -0.12289007073E+04  0.12289007073E+04  0.50400001928E-02 0.  1.
    10030    2    1    2    0    0  0.00000000000E+00  0.00000000000E+00  0.73550114932E+03  0.31933025639E+04  0.31074457878E+04 0.  0.
        3    1    3    3  502    0  0.88156045025E+03  0.52498688239E+02  0.16814089901E+04  0.18992211935E+04  0.10100000352E+00 0. -1.
       -3    1    3    3    0  502 -0.88156045025E+03 -0.52498688239E+02 -0.94590784080E+03  0.12940813704E+04  0.10100000352E+00 0.  1.
</event>
<event>
 5   0  0.3441897E-06  0.3099319E+04  0.7818609E-02  0.8215925E-01
        2   -1    0    0  501    0  0.00000000000E+00  0.00000000000E+00  0.17174781014E+04  0.17174781014E+04  0.25500000920E-02 0.  1.
       -2   -1    0    0    0  501  0.00000000000E+00  0.00000000000E+00 -0.13982385073E+04  0.13982385073E+04  0.25500000920E-02 0. -1.
    10030    2    1    2    0    0  0.00000000000E+00  0.00000000000E+00  0.31923959414E+03  0.31157166087E+04  0.30993186457E+04 0.  0.
        5    1    3    3  502    0 -0.52027343629E+03  0.12413932077E+04 -0.61234955760E+03  0.14787615140E+04  0.46999998093E+01 0. -1.
       -5    1    3    3    0  502  0.52027343629E+03 -0.12413932077E+04  0.93158915174E+03  0.16369550947E+04  0.46999998093E+01 0.  1.
</event>
<event>
 5   0  0.1211008E-06  0.3102205E+04  0.7818609E-02  0.8215133E-01
        1   -1    0    0  501    0  0.00000000000E+00  0.00000000000E+00  0.19686074404E+04  0.19686074404E+04  0.50400001928E-02 0.  1.
       -1   -1    0    0    0  501  0.00000000000E+00  0.00000000000E+00 -0.12221423162E+04  0.12221423162E+04  0.50400001928E-02 0. -1.
    10030    2    1    2    0    0  0.00000000000E+00  0.00000000000E+00  0.74646512426E+03  0.31907497566E+04  0.31022046721E+04 0.  0.
        3    1    3    3  502    0 -0.12290034858E+04 -0.81739091923E+03  0.86364462660E+03  0.17101051237E+04  0.10100000352E+00 0. -1.
       -3    1    3    3    0  502  0.12290034858E+04  0.81739091923E+03 -0.11717950233E+03  0.14806446329E+04  0.10100000352E+00 0.  1.
</event>
<event>
 5   0  0.3445959E-06  0.3216205E+04  0.7818609E-02  0.8184550E-01
        2   -1    0    0  501    0  0.00000000000E+00  0.00000000000E+00  0.18552357401E+04  0.18552357401E+04  0.25500000920E-02 0. -1.
       -2   -1    0    0    0  501  0.00000000000E+00  0.00000000000E+00 -0.13938898403E+04  0.13938898403E+04  0.25500000920E-02 0.  1.
    10030    2    1    2    0    0  0.00000000000E+00  0.00000000000E+00  0.46134589982E+03  0.32491255804E+04  0.32162053725E+04 0.  0.
        4    1    3    3  502    0  0.10801368110E+04 -0.74123297098E+03  0.11728881320E+04  0.17583486659E+04  0.12699999809E+01 0. -1.
       -4    1    3    3    0  502 -0.10801368110E+04  0.74123297098E+03 -0.71154223218E+03  0.14907769145E+04  0.12699999809E+01 0.  1.
</event>
<event>
 5   0  0.1235960E-06  0.3094609E+04  0.7818609E-02  0.8217219E-01
        1   -1    0    0  501    0  0.00000000000E+00  0.00000000000E+00  0.25640196306E+04  0.25640196306E+04  0.50400001928E-02 0. -1.
       -1   -1    0    0    0  501  0.00000000000E+00  0.00000000000E+00 -0.93374942397E+03  0.93374942399E+03  0.50400001928E-02 0.  1.
    10030    2    1    2    0    0  0.00000000000E+00  0.00000000000E+00  0.16302702066E+04  0.34977690546E+04  0.30946094120E+04 0.  0.
        4    1    3    3  502    0  0.20949246018E+03  0.12547292056E+04 -0.18048381016E+03  0.12848379232E+04  0.12699999809E+01 0.  1.
       -4    1    3    3    0  502 -0.20949246018E+03 -0.12547292056E+04  0.18107540168E+04  0.22129311314E+04  0.12699999809E+01 0. -1.
</event>
<event>
 5   0  0.3445959E-06  0.3081468E+04  0.7818609E-02  0.8220842E-01
       -2   -1    0    0    0  501  0.00000000000E+00  0.00000000000E+00  0.11464844878E+04  0.11464844878E+04  0.25500000920E-02 0.  1.
        2   -1    0    0  501    0  0.00000000000E+00  0.00000000000E+00 -0.20705565022E+04  0.20705565022E+04  0.25500000920E-02 0. -1.
    10030    2    1    2    0    0  0.00000000000E+00  0.00000000000E+00 -0.92407201438E+03  0.32170409900E+04  0.30814677742E+04 0.  0.
        4    1    3    3  502    0 -0.14490807770E+04  0.32470450638E+03 -0.33372617967E+02  0.14853900024E+04  0.12699999809E+01 0.  1.
       -4    1    3    3    0  502  0.14490807770E+04 -0.32470450638E+03 -0.89069939642E+03  0.17316509875E+04  0.12699999809E+01 0. -1.
</event>
<event>
 5   0  0.3374790E-06  0.3106971E+04  0.7818609E-02  0.8213827E-01
       -2   -1    0    0    0  501  0.00000000000E+00  0.00000000000E+00  0.93708818107E+03  0.93708818107E+03  0.25500000920E-02 0.  1.
        2   -1    0    0  501    0  0.00000000000E+00  0.00000000000E+00 -0.25753365571E+04  0.25753365571E+04  0.25500000920E-02 0. -1.
    10030    2    1    2    0    0  0.00000000000E+00  0.00000000000E+00 -0.16382483761E+04  0.35124247382E+04  0.31069711617E+04 0.  0.
        2    1    3    3  502    0 -0.24982934941E+03 -0.15121189643E+04 -0.53223821593E+03  0.16224043838E+04  0.25500000920E-02 0.  1.
       -2    1    3    3    0  502  0.24982934941E+03  0.15121189643E+04 -0.11060101601E+04  0.18900203545E+04  0.25500000920E-02 0. -1.
</event>
<event>
 5   0  0.1198763E-06  0.3102550E+04  0.7818609E-02  0.8215038E-01
       -1   -1    0    0    0  501  0.00000000000E+00  0.00000000000E+00  0.13175652795E+04  0.13175652795E+04  0.50400001928E-02 0. -1.
        1   -1    0    0  501    0  0.00000000000E+00  0.00000000000E+00 -0.18264406303E+04  0.18264406303E+04  0.50400001928E-02 0.  1.
    10030    2    1    2    0    0  0.00000000000E+00  0.00000000000E+00 -0.50887535082E+03  0.31440059098E+04  0.31025504086E+04 0.  0.
        1    1    3    3  502    0  0.22490713493E+03 -0.14453008239E+04  0.26916455428E+03  0.14872549372E+04  0.50400001928E-02 0. -1.
       -1    1    3    3    0  502 -0.22490713493E+03  0.14453008239E+04 -0.77803990510E+03  0.16567509725E+04  0.50400001928E-02 0.  1.
</event>
<event>
 5   0  0.1198763E-06  0.3059213E+04  0.7818609E-02  0.8227022E-01
       -1   -1    0    0    0  501  0.00000000000E+00  0.00000000000E+00  0.94808415449E+03  0.94808415451E+03  0.50400001928E-02 0.  1.
        1   -1    0    0  501    0  0.00000000000E+00  0.00000000000E+00 -0.24678142960E+04  0.24678142960E+04  0.50400001928E-02 0. -1.
    10030    2    1    2    0    0  0.00000000000E+00  0.00000000000E+00 -0.15197301415E+04  0.34158984505E+04  0.30592127290E+04 0.  0.
        1    1    3    3  502    0  0.12474558088E+04  0.54133421088E+03 -0.15418850299E+04  0.20558692002E+04  0.50400001928E-02 0.  1.
       -1    1    3    3    0  502 -0.12474558088E+04 -0.54133421088E+03  0.22154888335E+02  0.13600292504E+04  0.50400001928E-02 0. -1.
</event>
<event>
 5   0  0.3441897E-06  0.3212535E+04  0.7818609E-02  0.8185515E-01
       -2   -1    0    0    0  501  0.00000000000E+00  0.00000000000E+00  0.16198978409E+04  0.16198978409E+04  0.25500000920E-02 0.  1.
        2   -1    0    0  501    0  0.00000000000E+00  0.00000000000E+00 -0.15927514073E+04  0.15927514073E+04  0.25500000920E-02 0. -1.
    10030    2    1    2    0    0  0.00000000000E+00  0.00000000000E+00  0.27146433610E+02  0.32126492483E+04  0.32125345544E+04 0.  0.
        5    1    3    3  502    0 -0.66341377049E+03  0.26599661405E+03  0.14520961391E+04  0.16184799402E+04  0.46999998093E+01 0.  1.
       -5    1    3    3    0  502  0.66341377049E+03 -0.26599661405E+03 -0.14249497055E+04  0.15941693081E+04  0.46999998093E+01 0. -1.
</event>
<event>
 5   0  0.3340899E-06  0.3048737E+04  0.7818609E-02  0.8229949E-01
       -2   -1    0    0    0  501  0.00000000000E+00  0.00000000000E+00  0.98253295279E+03  0.98253295279E+03  0.25500000920E-02 0. -1.
        2   -1    0    0  501    0  0.00000000000E+00  0.00000000000E+00 -0.23650092357E+04  0.23650092357E+04  0.25500000920E-02 0.  1.
    10030    2    1    2    0    0  0.00000000000E+00  0.00000000000E+00 -0.13824762829E+04  0.33475421885E+04  0.30487371207E+04 0.  0.
        3    1    3    3  502    0 -0.11061410879E+04 -0.45080278905E+03 -0.17311222195E+04  0.21032250022E+04  0.10100000352E+00 0.  1.
       -3    1    3    3    0  502  0.11061410879E+04  0.45080278905E+03  0.34864593651E+03  0.12443171863E+04  0.10100000352E+00 0. -1.
</event>
<event>
 5   0  0.3441897E-06  0.3069229E+04  0.7818609E-02  0.8224234E-01
       -2   -1    0    0    0  501  0.00000000000E+00  0.00000000000E+00  0.13337761528E+04  0.13337761528E+04  0.25500000920E-02 0. -1.
        2   -1    0    0  501    0  0.00000000000E+00  0.00000000000E+00 -0.17656946691E+04  0.17656946691E+04  0.25500000920E-02 0.  1.
    10030    2    1    2    0    0  0.00000000000E+00  0.00000000000E+00 -0.43191851635E+03  0.30994708219E+04  0.30692288561E+04 0.  0.
        5    1    3    3  502    0 -0.91963879138E+01 -0.24711294699E+03 -0.17454352972E+04  0.17628714782E+04  0.46999998093E+01 0.  1.
       -5    1    3    3    0  502  0.91963879138E+01  0.24711294699E+03  0.13135167808E+04  0.13365993437E+04  0.46999998093E+01 0. -1.
</event>
<event>
 5   0  0.1171915E-06  0.3089096E+04  0.7818609E-02  0.8218737E-01
       -1   -1    0    0    0  501  0.00000000000E+00  0.00000000000E+00  0.16468980003E+04  0.16468980004E+04  0.50400001928E-02 0.  1.
        1   -1    0    0  501    0  0.00000000000E+00  0.00000000000E+00 -0.14485585153E+04  0.14485585153E+04  0.50400001928E-02 0. -1.
    10030    2    1    2    0    0  0.00000000000E+00  0.00000000000E+00  0.19833948501E+03  0.30954565157E+04  0.30890957397E+04 0.  0.
        2    1    3    3  502    0  0.94945204905E+03  0.20335083244E+03  0.13028164155E+04  0.16248511830E+04  0.25500000920E-02 0. -1.
       -2    1    3    3    0  502 -0.94945204905E+03 -0.20335083244E+03 -0.11044769305E+04  0.14706053327E+04  0.25500000920E-02 0.  1.
</event>
<event>
 5   0  0.3445959E-06  0.3146551E+04  0.7818609E-02  0.8203077E-01
        2   -1    0    0  501    0  0.00000000000E+00  0.00000000000E+00  0.13258156485E+04  0.13258156485E+04  0.25500000920E-02 0. -1.
       -2   -1    0    0    0  501  0.00000000000E+00  0.00000000000E+00 -0.18669225758E+04  0.18669225758E+04  0.25500000920E-02 0.  1.
    10030    2    1    2    0    0  0.00000000000E+00  0.00000000000E+00 -0.54110692728E+03  0.31927382243E+04  0.31465505974E+04 0.  0.
        4    1    3    3  502    0  0.89628808600E+03  0.98686968069E+03 -0.11182503298E+04  0.17400372159E+04  0.12699999809E+01 0.  1.
       -4    1    3    3    0  502 -0.89628808600E+03 -0.98686968069E+03  0.57714340254E+03  0.14527010084E+04  0.12699999809E+01 0. -1.
</event>
<event>
 5   0  0.1198763E-06  0.3077673E+04  0.7818609E-02  0.8221892E-01
        1   -1    0    0  501    0  0.00000000000E+00  0.00000000000E+00  0.14055880620E+04  0.14055880620E+04  0.50400001928E-02 0. -1.
       -1   -1    0    0    0  501  0.00000000000E+00  0.00000000000E+00 -0.16847165844E+04  0.16847165844E+04  0.50400001928E-02 0.  1.
    10030    2    1    2    0    0  0.00000000000E+00  0.00000000000E+00 -0.27912852242E+03  0.30903046465E+04  0.30776728345E+04 0.  0.
        1    1    3    3  502    0  0.12730524435E+04 -0.39863174794E+03  0.63068765533E+03  0.14755801276E+04  0.50400001928E-02 0. -1.
       -1    1    3    3    0  502 -0.12730524435E+04  0.39863174794E+03 -0.90981617776E+03  0.16147245188E+04  0.50400001928E-02 0.  1.
</event>
<event>
 5   0  0.3340899E-06  0.3104561E+04  0.7818609E-02  0.8214487E-01
       -2   -1    0    0    0  501  0.00000000000E+00  0.00000000000E+00  0.14029653765E+04  0.14029653765E+04  0.25500000920E-02 0.  1.
        2   -1    0    0  501    0  0.00000000000E+00  0.00000000000E+00 -0.17174871425E+04  0.17174871425E+04  0.25500000920E-02 0. -1.
    10030    2    1    2    0    0  0.00000000000E+00  0.00000000000E+00 -0.31452176607E+03  0.31204525190E+04  0.31045611577E+04 0.  0.
        3    1    3    3  502    0  0.89117047274E+03  0.47680182891E+03 -0.13414469422E+04  0.16795846822E+04  0.10100000352E+00 0. -1.
       -3    1    3    3    0  502 -0.89117047274E+03 -0.47680182891E+03  0.10269251762E+04  0.14408678368E+04  0.10100000352E+00 0.  1.
</event>
<event>
 5   0  0.1198763E-06  0.3093669E+04  0.7818609E-02  0.8217477E-01
       -1   -1    0    0    0  501  0.00000000000E+00  0.00000000000E+00  0.11335632965E+04  0.11335632965E+04  0.50400001928E-02 0.  1.
        1   -1    0    0  501    0  0.00000000000E+00  0.00000000000E+00 -0.21107754141E+04  0.21107754141E+04  0.50400001928E-02 0. -1.
    10030    2    1    2    0    0  0.00000000000E+00  0.00000000000E+00 -0.97721211758E+03  0.32443387107E+04  0.30936693661E+04 0.  0.
        1    1    3    3  502    0  0.72918363096E+03  0.10828683275E+04  0.38149155245E+03  0.13600913157E+04  0.50400001928E-02 0.  1.
       -1    1    3    3    0  502 -0.72918363096E+03 -0.10828683275E+04 -0.13587036700E+04  0.18842473950E+04  0.50400001928E-02 0. -1.
</event>
<event>
 5   0  0.3441897E-06  0.3112301E+04  0.7818609E-02  0.8212370E-01
       -2   -1    0    0    0  501  0.00000000000E+00  0.00000000000E+00  0.21727545468E+04  0.21727545468E+04  0.25500000920E-02 0.  1.
        2   -1    0    0  501    0  0.00000000000E+00  0.00000000000E+00 -0.11145322876E+04  0.11145322877E+04  0.25500000920E-02 0. -1.
    10030    2    1    2    0    0  0.00000000000E+00  0.00000000000E+00  0.10582222592E+04  0.32872868345E+04  0.31123014607E+04 0.  0.
        5    1    3    3  502    0  0.55125066154E+03 -0.95602965727E+03 -0.62971270927E+03  0.12706022917E+04  0.46999998093E+01 0. -1.
       -5    1    3    3    0  502 -0.55125066154E+03  0.95602965727E+03  0.16879349684E+04  0.20166845428E+04  0.46999998093E+01 0.  1.
</event>
<event>
 5   0  0.1235960E-06  0.3070104E+04  0.7818609E-02  0.8223991E-01
        1   -1    0    0  501    0  0.00000000000E+00  0.00000000000E+00  0.19934597526E+04  0.19934597526E+04  0.50400001928E-02 0.  1.
       -1   -1    0    0    0  501  0.00000000000E+00  0.00000000000E+00 -0.11820580271E+04  0.11820580271E+04  0.50400001928E-02 0. -1.
    10030    2    1    2    0    0  0.00000000000E+00  0.00000000000E+00  0.81140172552E+03  0.31755177798E+04  0.30701042995E+04 0.  0.
        4    1    3    3  502    0 -0.55459467570E+03  0.12425760022E+04 -0.32919657473E+03  0.13999794189E+04  0.12699999809E+01 0. -1.
       -4    1    3    3    0  502  0.55459467570E+03 -0.12425760022E+04  0.11405983002E+04  0.17755383609E+04  0.12699999809E+01 0.  1.
</event>
<event>
 5   0  0.3374790E-06  0.3102701E+04  0.7818609E-02  0.8214997E-01
        2   -1    0    0  501    0  0.00000000000E+00  0.00000000000E+00  0.25080623865E+04  0.25080623865E+04  0.25500000920E-02 0.  1.
       -2   -1    0    0    0  501  0.00000000000E+00  0.00000000000E+00 -0.95958062104E+03  0.95958062105E+03  0.25500000920E-02 0. -1.
    10030    2    1    2    0    0  0.00000000000E+00  0.00000000000E+00  0.15484817654E+04  0.34676430075E+04  0.31027007993E+04 0.  0.
        2    1    3    3  502    0  0.14485890262E+04 -0.12775632694E+02  0.13946107250E+04  0.20108486910E+04  0.25500000920E-02 0.  1.
       -2    1    3    3    0  502 -0.14485890262E+04  0.12775632694E+02  0.15387104043E+03  0.14567943166E+04  0.25500000920E-02 0. -1.
</event>
<event>
 5   0  0.3340899E-06  0.3096776E+04  0.7818609E-02  0.8216623E-01
        2   -1    0    0  501    0  0.00000000000E+00  0.00000000000E+00  0.12957900349E+04  0.12957900349E+04  0.25500000920E-02 0. -1.
       -2   -1    0    0    0  501  0.00000000000E+00  0.00000000000E+00 -0.18502273355E+04  0.18502273355E+04  0.25500000920E-02 0.  1.
    10030    2    1    2    0    0  0.00000000000E+00  0.00000000000E+00 -0.55443730062E+03  0.31460173704E+04  0.30967764812E+04 0.  0.
        3    1    3    3  502    0  0.83200659922E+03  0.11703283394E+04  0.31130510690E+03  0.14692904011E+04  0.10100000352E+00 0. -1.
       -3    1    3    3    0  502 -0.83200659922E+03 -0.11703283394E+04 -0.86574240753E+03  0.16767269693E+04  0.10100000352E+00 0.  1.
</event>
<event>
 5   0  0.1250276E-06  0.3045555E+04  0.7818609E-02  0.8230841E-01
       -1   -1    0    0    0  501  0.00000000000E+00  0.00000000000E+00  0.11214720949E+04  0.11214720949E+04  0.50400001928E-02 0.  1.
        1   -1    0    0  501    0  0.00000000000E+00  0.00000000000E+00 -0.20676856194E+04  0.20676856194E+04  0.50400001928E-02 0. -1.
    10030    2    1    2    0    0  0.00000000000E+00  0.00000000000E+00 -0.94621352448E+03  0.31891577143E+04  0.30455552684E+04 0.  0.
        5    1    3    3  502    0 -0.76880391387E+03 -0.48900539398E+03 -0.17507362388E+04  0.19736476892E+04  0.46999998093E+01 0. -1.
       -5    1    3    3    0  502  0.76880391387E+03  0.48900539398E+03  0.80452271433E+03  0.12155100251E+04  0.46999998093E+01 0.  1.
</event>
<event>
 5   0  0.1171915E-06  0.3110538E+04  0.7818609E-02  0.8212852E-01
       -1   -1    0    0    0  501  0.00000000000E+00  0.00000000000E+00  0.18618788232E+04  0.18618788232E+04  0.50400001928E-02 0. -1.
        1   -1    0    0  501    0  0.00000000000E+00  0.00000000000E+00 -0.12991511686E+04  0.12991511686E+04  0.50400001928E-02 0.  1.
    10030    2    1    2    0    0  0.00000000000E+00  0.00000000000E+00  0.56272765460E+03  0.31610299918E+04  0.31105382486E+04 0.  0.
        2    1    3    3  502    0  0.10968416320E+04  0.14244946681E+03  0.13925054816E+04  0.17783208183E+04  0.25500000920E-02 0. -1.
       -2    1    3    3    0  502 -0.10968416320E+04 -0.14244946681E+03 -0.82977782702E+03  0.13827091735E+04  0.25500000920E-02 0.  1.
</event>
<event>
 5   0  0.3445959E-06  0.3116299E+04  0.7818609E-02  0.8211279E-01
        2   -1    0    0  501    0  0.00000000000E+00  0.00000000000E+00  0.16554085991E+04  0.16554085991E+04  0.25500000920E-02 0. -1.
       -2   -1    0    0    0  501  0.00000000000E+00  0.00000000000E+00 -0.14666049250E+04  0.14666049250E+04  0.25500000920E-02 0.  1.
    10030    2    1    2    0    0  0.00000000000E+00  0.00000000000E+00  0.18880367410E+03  0.31220135242E+04  0.31162993466E+04 0.  0.
        4    1    3    3  502    0 -0.11675762336E+04 -0.10270001196E+04  0.19390810128E+03  0.15670244004E+04  0.12699999809E+01 0. -1.
       -4    1    3    3    0  502  0.11675762336E+04  0.10270001196E+04 -0.51044271804E+01  0.15549891238E+04  0.12699999809E+01 0.  1.
</event>
<event>
 5   0  0.3374790E-06  0.3129317E+04  0.7818609E-02  0.8207738E-01
        2   -1    0    0  501    0  0.00000000000E+00  0.00000000000E+00  0.13725927732E+04  0.13725927732E+04  0.25500000920E-02 0.  1.
       -2   -1    0    0    0  501  0.00000000000E+00  0.00000000000E+00 -0.17835996745E+04  0.17835996745E+04  0.25500000920E-02 0. -1.
    10030    2    1    2    0    0  0.00000000000E+00  0.00000000000E+00 -0.41100690129E+03  0.31561924476E+04  0.31293168733E+04 0.  0.
        2    1    3    3  502    0  0.15305470898E+04  0.63520234933E+02 -0.52690434036E+03  0.16199498135E+04  0.25500000920E-02 0.  1.
       -2    1    3    3    0  502 -0.15305470898E+04 -0.63520234933E+02  0.11589743907E+03  0.15362426341E+04  0.25500000920E-02 0. -1.
</event>
<event>
 5   0  0.1171915E-06  0.3126983E+04  0.7818609E-02  0.8208372E-01
       -1   -1    0    0    0  501  0.00000000000E+00  0.00000000000E+00  0.14442749684E+04  0.14442749684E+04  0.50400001928E-02 0.  1.
        1   -1    0    0  501    0  0.00000000000E+00  0.00000000000E+00 -0.16925482993E+04  0.16925482993E+04  0.50400001928E-02 0. -1.
    10030    2    1    2    0    0  0.00000000000E+00  0.00000000000E+00 -0.24827333093E+03  0.31368232677E+04  0.31269826616E+04 0.  0.
        2    1    3    3  502    0  0.10419589487E+04  0.83227627803E+03 -0.94288093845E+03  0.16332136168E+04  0.25500000920E-02 0.  1.
       -2    1    3    3    0  502 -0.10419589487E+04 -0.83227627803E+03  0.69460760752E+03  0.15036096509E+04  0.25500000920E-02 0. -1.
</event>
<event>
 5   0  0.3374790E-06  0.3028522E+04  0.7818609E-02  0.8235633E-01
       -2   -1    0    0    0  501  0.00000000000E+00  0.00000000000E+00  0.89359927926E+03  0.89359927927E+03  0.25500000920E-02 0.  1.
        2   -1    0    0  501    0  0.00000000000E+00  0.00000000000E+00 -0.25660123056E+04  0.25660123056E+04  0.25500000920E-02 0. -1.
    10030    2    1    2    0    0  0.00000000000E+00  0.00000000000E+00 -0.16724130263E+04  0.34596115848E+04  0.30285222448E+04 0.  0.
        2    1    3    3  502    0  0.12141056593E+04 -0.20612130053E+03 -0.18427969957E+04  0.22164023348E+04  0.25500000920E-02 0. -1.
       -2    1    3    3    0  502 -0.12141056593E+04  0.20612130053E+03  0.17038396936E+03  0.12432092500E+04  0.25500000920E-02 0.  1.
</event>
<event>
 5   0  0.3441897E-06  0.3117940E+04  0.7818609E-02  0.8210832E-01
        2   -1    0    0  501    0  0.00000000000E+00  0.00000000000E+00  0.18675697824E+04  0.18675697824E+04  0.25500000920E-02 0.  1.
       -2   -1    0    0    0  501  0.00000000000E+00  0.00000000000E+00 -0.13013635211E+04  0.13013635211E+04  0.25500000920E-02 0. -1.
    10030    2    1    2    0    0  0.00000000000E+00  0.00000000000E+00  0.56620626123E+03  0.31689333035E+04  0.31179398249E+04 0.  0.
        5    1    3    3  502    0  0.10682816883E+03 -0.19396836678E+02 -0.12975089361E+04  0.13020522356E+04  0.46999998093E+01 0. -1.
       -5    1    3    3    0  502 -0.10682816883E+03  0.19396836678E+02  0.18637151973E+04  0.18668810679E+04  0.46999998093E+01 0.  1.
</event>
<event>
 5   0  0.3445959E-06  0.3140313E+04  0.7818609E-02  0.8204761E-01
       -2   -1    0    0    0  501  0.00000000000E+00  0.00000000000E+00  0.11031451546E+04  0.11031451546E+04  0.25500000920E-02 0.  1.
        2   -1    0    0  501    0  0.00000000000E+00  0.00000000000E+00 -0.22348744979E+04  0.22348744979E+04  0.25500000920E-02 0. -1.
    10030    2    1    2    0    0  0.00000000000E+00  0.00000000000E+00 -0.11317293433E+04  0.33380196525E+04  0.31403127064E+04 0.  0.
        4    1    3    3  502    0  0.16865064018E+03 -0.15377926772E+04 -0.85136333176E+03  0.17658059044E+04  0.12699999809E+01 0. -1.
       -4    1    3    3    0  502 -0.16865064018E+03  0.15377926772E+04 -0.28036601149E+03  0.15722137481E+04  0.12699999809E+01 0.  1.
</event>
<event>
 5   0  0.3374790E-06  0.3055160E+04  0.7818609E-02  0.8228153E-01
        2   -1    0    0  501    0  0.00000000000E+00  0.00000000000E+00  0.13209399850E+04  0.13209399850E+04  0.25500000920E-02 0. -1.
       -2   -1    0    0    0  501  0.00000000000E+00  0.00000000000E+00 -0.17665454429E+04  0.17665454429E+04  0.25500000920E-02 0.  1.
    10030    2    1    2    0    0  0.00000000000E+00  0.00000000000E+00 -0.44560545791E+03  0.30874854279E+04  0.30551599047E+04 0.  0.
        2    1    3    3  502    0  0.44964067250E+03  0.51486367512E+03 -0.16033606155E+04  0.17429935748E+04  0.25500000920E-02 0.  1.
       -2    1    3    3    0  502 -0.44964067250E+03 -0.51486367512E+03  0.11577551576E+04  0.13444918532E+04  0.25500000920E-02 0. -1.
</event>
<event>
 5   0  0.3441897E-06  0.3091125E+04  0.7818609E-02  0.8218178E-01
        2   -1    0    0  501    0  0.00000000000E+00  0.00000000000E+00  0.22830607058E+04  0.22830607058E+04  0.25500000920E-02 0. -1.
       -2   -1    0    0    0  501  0.00000000000E+00  0.00000000000E+00 -0.10462987893E+04  0.10462987893E+04  0.25500000920E-02 0.  1.
    10030    2    1    2    0    0  0.00000000000E+00  0.00000000000E+00  0.12367619164E+04  0.33293594951E+04  0.30911251365E+04 0.  0.
        5    1    3    3  502    0  0.55446963673E+03 -0.12406378108E+04  0.14114170337E+04  0.19592699887E+04  0.46999998093E+01 0. -1.
       -5    1    3    3    0  502 -0.55446963673E+03  0.12406378108E+04 -0.17465511730E+03  0.13700895064E+04  0.46999998093E+01 0.  1.
</event>
<event>
 5   0  0.1198763E-06  0.3070742E+04  0.7818609E-02  0.8223814E-01
        1   -1    0    0  501    0  0.00000000000E+00  0.00000000000E+00  0.11655752441E+04  0.11655752441E+04  0.50400001928E-02 0.  1.
       -1   -1    0    0    0  501  0.00000000000E+00  0.00000000000E+00 -0.20224900474E+04  0.20224900474E+04  0.50400001928E-02 0. -1.
    10030    2    1    2    0    0  0.00000000000E+00  0.00000000000E+00 -0.85691480331E+03  0.31880652916E+04  0.30707421453E+04 0.  0.
        1    1    3    3  502    0 -0.26442024473E+03 -0.39091818232E+03  0.10884011506E+04  0.11863187412E+04  0.50400001928E-02 0.  1.
       -1    1    3    3    0  502  0.26442024473E+03  0.39091818232E+03 -0.19453159539E+04  0.20017465503E+04  0.50400001928E-02 0. -1.
</event>
<event>
 5   0  0.3340899E-06  0.3096432E+04  0.7818609E-02  0.8216718E-01
        2   -1    0    0  501    0  0.00000000000E+00  0.00000000000E+00  0.12029503833E+04  0.12029503833E+04  0.25500000920E-02 0. -1.
       -2   -1    0    0    0  501  0.00000000000E+00  0.00000000000E+00 -0.19925788585E+04  0.19925788585E+04  0.25500000920E-02 0.  1.
    10030    2    1    2    0    0  0.00000000000E+00  0.00000000000E+00 -0.78962847516E+03  0.31955292418E+04  0.30964324644E+04 0.  0.
        3    1    3    3  502    0 -0.83727071373E+02  0.53403356107E+03 -0.18920274583E+04  0.19677321922E+04  0.10100000352E+00 0.  1.
       -3    1    3    3    0  502  0.83727071373E+02 -0.53403356107E+03  0.11023989832E+04  0.12277970496E+04  0.10100000352E+00 0. -1.
</event>
<event>
 5   0  0.1198763E-06  0.3098107E+04  0.7818609E-02  0.8216258E-01
       -1   -1    0    0    0  501  0.00000000000E+00  0.00000000000E+00  0.13307616999E+04  0.13307616999E+04  0.50400001928E-02 0.  1.
        1   -1    0    0  501    0  0.00000000000E+00  0.00000000000E+00 -0.18031531453E+04  0.18031531453E+04  0.50400001928E-02 0. -1.
    10030    2    1    2    0    0  0.00000000000E+00  0.00000000000E+00 -0.47239144535E+03  0.31339148452E+04  0.30981072576E+04 0.  0.
        1    1    3    3  502    0 -0.14233909501E+04 -0.66334527588E+02  0.37838299751E+03  0.14743187441E+04  0.50400001928E-02 0.  1.
       -1    1    3    3    0  502  0.14233909501E+04  0.66334527588E+02 -0.85077444285E+03  0.16595961011E+04  0.50400001928E-02 0. -1.
</event>
<event>
 5   0  0.3374790E-06  0.2901382E+04  0.7818609E-02  0.8272466E-01
       -2   -1    0    0    0  501  0.00000000000E+00  0.00000000000E+00  0.83563588229E+03  0.83563588230E+03  0.25500000920E-02 0.  1.
        2   -1    0    0  501    0  0.00000000000E+00  0.00000000000E+00 -0.25184469244E+04  0.25184469244E+04  0.25500000920E-02 0. -1.
    10030    2    1    2    0    0  0.00000000000E+00  0.00000000000E+00 -0.16828110421E+04  0.33540828067E+04  0.29013821656E+04 0.  0.
        2    1    3    3  502    0  0.81848059719E+03  0.61407816959E+03  0.34739631978E+03  0.10805955253E+04  0.25500000920E-02 0.  1.
       -2    1    3    3    0  502 -0.81848059719E+03 -0.61407816959E+03 -0.20302073619E+04  0.22734872814E+04  0.25500000920E-02 0. -1.
</event>
<event>
 5   0  0.3441897E-06  0.3133857E+04  0.7818609E-02  0.8206507E-01
        2   -1    0    0  501    0  0.00000000000E+00  0.00000000000E+00  0.16193805020E+04  0.16193805020E+04  0.25500000920E-02 0. -1.
       -2   -1    0    0    0  501  0.00000000000E+00  0.00000000000E+00 -0.15161756907E+04  0.15161756907E+04  0.25500000920E-02 0.  1.
    10030    2    1    2    0    0  0.00000000000E+00  0.00000000000E+00  0.10320481128E+03  0.31355561928E+04  0.31338572726E+04 0.  0.
        5    1    3    3  502    0 -0.39308459747E+03  0.14982706142E+04  0.28818973921E+03  0.15755652160E+04  0.46999998093E+01 0.  1.
       -5    1    3    3    0  502  0.39308459747E+03 -0.14982706142E+04 -0.18498492793E+03  0.15599909768E+04  0.46999998093E+01 0. -1.
</event>
<event>
 5   0  0.1211008E-06  0.3075201E+04  0.7818609E-02  0.8222577E-01
       -1   -1    0    0    0  501  0.00000000000E+00  0.00000000000E+00  0.85048252167E+03  0.85048252169E+03  0.50400001928E-02 0. -1.
        1   -1    0    0  501    0  0.00000000000E+00  0.00000000000E+00 -0.27798512077E+04  0.27798512077E+04  0.50400001928E-02 0.  1.
    10030    2    1    2    0    0  0.00000000000E+00  0.00000000000E+00 -0.19293686860E+04  0.36303337294E+04  0.30752007187E+04 0.  0.
        3    1    3    3  502    0  0.31655165262E+03  0.56349033900E+03  0.68233617398E+03  0.93984518696E+03  0.10100000352E+00 0. -1.
       -3    1    3    3    0  502 -0.31655165262E+03 -0.56349033900E+03 -0.26117048600E+04  0.26904885424E+04  0.10100000352E+00 0.  1.
</event>
<event>
 5   0  0.1198763E-06  0.3285905E+04  0.7818609E-02  0.8166491E-01
        1   -1    0    0  501    0  0.00000000000E+00  0.00000000000E+00  0.95610192730E+03  0.95610192731E+03  0.50400001928E-02 0.  1.
       -1   -1    0    0    0  501  0.00000000000E+00  0.00000000000E+00 -0.28232269423E+04  0.28232269424E+04  0.50400001928E-02 0. -1.
    10030    2    1    2    0    0  0.00000000000E+00  0.00000000000E+00 -0.18671250150E+04  0.37793288697E+04  0.32859048804E+04 0.  0.
        1    1    3    3  502    0 -0.14646168462E+04 -0.70014940697E+03 -0.64263466553E+03  0.17459355692E+04  0.50400001928E-02 0.  1.
       -1    1    3    3    0  502  0.14646168462E+04  0.70014940697E+03 -0.12244903495E+04  0.20333933005E+04  0.50400001928E-02 0. -1.
</event>
<event>
 5   0  0.1250276E-06  0.3048346E+04  0.7818609E-02  0.8230059E-01
       -1   -1    0    0    0  501  0.00000000000E+00  0.00000000000E+00  0.16933664948E+04  0.16933664949E+04  0.50400001928E-02 0.  1.
        1   -1    0    0  501    0  0.00000000000E+00  0.00000000000E+00 -0.13718846551E+04  0.13718846551E+04  0.50400001928E-02 0. -1.
    10030    2    1    2    0    0  0.00000000000E+00  0.00000000000E+00  0.32148183971E+03  0.30652511500E+04  0.30483461154E+04 0.  0.
        5    1    3    3  502    0 -0.22420782346E+03 -0.63701490824E+03  0.15347094026E+04  0.16767266271E+04  0.46999998093E+01 0.  1.
       -5    1    3    3    0  502  0.22420782346E+03  0.63701490824E+03 -0.12132275629E+04  0.13885245229E+04  0.46999998093E+01 0. -1.
</event>
<event>
 5   0  0.1109562E-06  0.3108301E+04  0.7818609E-02  0.8213463E-01
       -3   -1    0    0    0  501  0.00000000000E+00  0.00000000000E+00  0.17079819821E+04  0.17079819851E+04  0.10100000352E+00 0.  1.
        3   -1    0    0  501    0  0.00000000000E+00  0.00000000000E+00 -0.14141743291E+04  0.14141743328E+04  0.10100000352E+00 0. -1.
    10030    2    1    2    0    0  0.00000000000E+00  0.00000000000E+00  0.29380765296E+03  0.31221563178E+04  0.31083013265E+04 0.  0.
        5    1    3    3  502    0  0.94920241822E+02 -0.10649369069E+04 -0.98606969620E+03  0.14544607261E+04  0.46999998093E+01 0. -1.
       -5    1    3    3    0  502 -0.94920241822E+02  0.10649369069E+04  0.12798773492E+04  0.16676955918E+04  0.46999998093E+01 0.  1.
</event>
<event>
 5   0  0.1211008E-06  0.3127223E+04  0.7818609E-02  0.8208306E-01
       -1   -1    0    0    0  501  0.00000000000E+00  0.00000000000E+00  0.11764219768E+04  0.11764219768E+04  0.50400001928E-02 0.  1.
        1   -1    0    0  501    0  0.00000000000E+00  0.00000000000E+00 -0.20782340537E+04  0.20782340537E+04  0.50400001928E-02 0. -1.
    10030    2    1    2    0    0  0.00000000000E+00  0.00000000000E+00 -0.90181207690E+03  0.32546560305E+04  0.31272225464E+04 0.  0.
        3    1    3    3  502    0 -0.77062114020E+03  0.12853296850E+04 -0.91512109409E+03  0.17559544322E+04  0.10100000352E+00 0. -1.
       -3    1    3    3    0  502  0.77062114020E+03 -0.12853296850E+04  0.13309017194E+02  0.14987015984E+04  0.10100000352E+00 0.  1.
</event>
<event>
 5   0  0.3441897E-06  0.3099684E+04  0.7818609E-02  0.8215825E-01
        2   -1    0    0  501    0  0.00000000000E+00  0.00000000000E+00  0.15936426267E+04  0.15936426267E+04  0.25500000920E-02 0.  1.
       -2   -1    0    0    0  501  0.00000000000E+00  0.00000000000E+00 -0.15072456325E+04  0.15072456325E+04  0.25500000920E-02 0. -1.
    10030    2    1    2    0    0  0.00000000000E+00  0.00000000000E+00  0.86396994187E+02  0.31008882592E+04  0.30996844283E+04 0.  0.
        5    1    3    3  502    0  0.99786833428E+03 -0.81372199566E+03 -0.81975120639E+03  0.15264006123E+04  0.46999998093E+01 0. -1.
       -5    1    3    3    0  502 -0.99786833428E+03  0.81372199566E+03  0.90614820057E+03  0.15744876469E+04  0.46999998093E+01 0.  1.
</event>
<event>
 5   0  0.1109562E-06  0.3117169E+04  0.7818609E-02  0.8211042E-01
        3   -1    0    0  501    0  0.00000000000E+00  0.00000000000E+00  0.23242539771E+04  0.23242539793E+04  0.10100000352E+00 0. -1.
       -3   -1    0    0    0  501  0.00000000000E+00  0.00000000000E+00 -0.10451464822E+04  0.10451464871E+04  0.10100000352E+00 0.  1.
    10030    2    1    2    0    0  0.00000000000E+00  0.00000000000E+00  0.12791074949E+04  0.33694004664E+04  0.31171691515E+04 0.  0.
        5    1    3    3  502    0 -0.97540967369E+03  0.52395006192E+03 -0.54611692456E+03  0.12345904115E+04  0.46999998093E+01 0.  1.
       -5    1    3    3    0  502  0.97540967369E+03 -0.52395006192E+03  0.18252244195E+04  0.21348100549E+04  0.46999998093E+01 0. -1.
</event>
<event>
 5   0  0.3441897E-06  0.3104781E+04  0.7818609E-02  0.8214427E-01
       -2   -1    0    0    0  501  0.00000000000E+00  0.00000000000E+00  0.32539249237E+04  0.32539249237E+04  0.25500000920E-02 0. -1.
        2   -1    0    0  501    0  0.00000000000E+00  0.00000000000E+00 -0.74061840078E+03  0.74061840078E+03  0.25500000920E-02 0.  1.
    10030    2    1    2    0    0  0.00000000000E+00  0.00000000000E+00  0.25133065229E+04  0.39945433245E+04  0.31047812633E+04 0.  0.
        5    1    3    3  502    0 -0.14863413404E+04 -0.37258839239E+03  0.15766516047E+04  0.21986098023E+04  0.46999998093E+01 0. -1.
       -5    1    3    3    0  502  0.14863413404E+04  0.37258839239E+03  0.93665491822E+03  0.17959335222E+04  0.46999998093E+01 0.  1.
</event>
<event>
 5   0  0.1198763E-06  0.3069494E+04  0.7818609E-02  0.8224160E-01
        1   -1    0    0  501    0  0.00000000000E+00  0.00000000000E+00  0.15668557149E+04  0.15668557149E+04  0.50400001928E-02 0.  1.
       -1   -1    0    0    0  501  0.00000000000E+00  0.00000000000E+00 -0.15032964863E+04  0.15032964863E+04  0.50400001928E-02 0. -1.
    10030    2    1    2    0    0  0.00000000000E+00  0.00000000000E+00  0.63559228641E+02  0.30701522012E+04  0.30694942194E+04 0.  0.
        1    1    3    3  502    0 -0.71222055470E+03 -0.12210030321E+03 -0.13224981057E+04  0.15070394296E+04  0.50400001928E-02 0. -1.
       -1    1    3    3    0  502  0.71222055470E+03  0.12210030321E+03  0.13860573344E+04  0.15631127716E+04  0.50400001928E-02 0.  1.
</event>
<event>
 5   0  0.1250276E-06  0.3086075E+04  0.7818609E-02  0.8219570E-01
        1   -1    0    0  501    0  0.00000000000E+00  0.00000000000E+00  0.18030601538E+04  0.18030601538E+04  0.50400001928E-02 0.  1.
       -1   -1    0    0    0  501  0.00000000000E+00  0.00000000000E+00 -0.13205129216E+04  0.13205129216E+04  0.50400001928E-02 0. -1.
    10030    2    1    2    0    0  0.00000000000E+00  0.00000000000E+00  0.48254723217E+03  0.31235730754E+04  0.30860746793E+04 0.  0.
        5    1    3    3  502    0  0.70420504018E+03 -0.10626169969E+04 -0.63870555124E+03  0.14258423797E+04  0.46999998093E+01 0. -1.
       -5    1    3    3    0  502 -0.70420504018E+03  0.10626169969E+04  0.11212527834E+04  0.16977306956E+04  0.46999998093E+01 0.  1.
</event>
<event>
 5   0  0.3340899E-06  0.3053878E+04  0.7818609E-02  0.8228511E-01
        2   -1    0    0  501    0  0.00000000000E+00  0.00000000000E+00  0.17593759621E+04  0.17593759621E+04  0.25500000920E-02 0.  1.
       -2   -1    0    0    0  501  0.00000000000E+00  0.00000000000E+00 -0.13252097872E+04  0.13252097872E+04  0.25500000920E-02 0. -1.
    10030    2    1    2    0    0  0.00000000000E+00  0.00000000000E+00  0.43416617492E+03  0.30845857492E+04  0.30538776951E+04 0.  0.
        3    1    3    3  502    0 -0.92216280905E+03 -0.63305031050E+03  0.12669604201E+04  0.16900667615E+04  0.10100000352E+00 0.  1.
       -3    1    3    3    0  502  0.92216280905E+03  0.63305031050E+03 -0.83279424522E+03  0.13945189877E+04  0.10100000352E+00 0. -1.
</event>
<event>
 5   0  0.3441897E-06  0.3097351E+04  0.7818609E-02  0.8216465E-01
       -2   -1    0    0    0  501  0.00000000000E+00  0.00000000000E+00  0.10131271740E+04  0.10131271740E+04  0.25500000920E-02 0. -1.
        2   -1    0    0  501    0  0.00000000000E+00  0.00000000000E+00 -0.23673202880E+04  0.23673202880E+04  0.25500000920E-02 0.  1.
    10030    2    1    2    0    0  0.00000000000E+00  0.00000000000E+00 -0.13541931140E+04  0.33804474620E+04  0.30973514578E+04 0.  0.
        5    1    3    3  502    0  0.14153798569E+04  0.58090102218E+03 -0.93909671669E+03  0.17951798991E+04  0.46999998093E+01 0. -1.
       -5    1    3    3    0  502 -0.14153798569E+04 -0.58090102218E+03 -0.41509639727E+03  0.15852675629E+04  0.46999998093E+01 0.  1.
</event>
<event>
 5   0  0.3445959E-06  0.3106817E+04  0.7818609E-02  0.8213869E-01
       -2   -1    0    0    0  501  0.00000000000E+00  0.00000000000E+00  0.17507374839E+04  0.17507374839E+04  0.25500000920E-02 0. -1.
        2   -1    0    0  501    0  0.00000000000E+00  0.00000000000E+00 -0.13783211887E+04  0.13783211887E+04  0.25500000920E-02 0.  1.
    10030    2    1    2    0    0  0.00000000000E+00  0.00000000000E+00  0.37241629515E+03  0.31290586726E+04  0.31068173876E+04 0.  0.
        4    1    3    3  502    0 -0.34831565595E+03  0.10692408944E+04 -0.89313401917E+03  0.14360675038E+04  0.12699999809E+01 0.  1.
       -4    1    3    3    0  502  0.34831565595E+03 -0.10692408944E+04  0.12655503143E+04  0.16929911688E+04  0.12699999809E+01 0. -1.
</event>
<event>
 5   0  0.1211008E-06  0.2537468E+04  0.7818609E-02  0.8389758E-01
        1   -1    0    0  501    0  0.00000000000E+00  0.00000000000E+00  0.17133185426E+04  0.17133185426E+04  0.50400001928E-02 0.  1.
       -1   -1    0    0    0  501  0.00000000000E+00  0.00000000000E+00 -0.93951324968E+03  0.93951324969E+03  0.50400001928E-02 0. -1.
    10030    2    1    2    0    0  0.00000000000E+00  0.00000000000E+00  0.77380529289E+03  0.26528317923E+04  0.25374676129E+04 0.  0.
        3    1    3    3  502    0 -0.68148564909E+03  0.36228351697E+03  0.14396667256E+04  0.16334969629E+04  0.10100000352E+00 0.  1.
       -3    1    3    3    0  502  0.68148564909E+03 -0.36228351697E+03 -0.66586143276E+03  0.10193348294E+04  0.10100000352E+00 0. -1.
</event>
<event>
 5   0  0.1235960E-06  0.3062295E+04  0.7818609E-02  0.8226162E-01
       -1   -1    0    0    0  501  0.00000000000E+00  0.00000000000E+00  0.10792260318E+04  0.10792260318E+04  0.50400001928E-02 0. -1.
        1   -1    0    0  501    0  0.00000000000E+00  0.00000000000E+00 -0.21723096940E+04  0.21723096940E+04  0.50400001928E-02 0.  1.
    10030    2    1    2    0    0  0.00000000000E+00  0.00000000000E+00 -0.10930836622E+04  0.32515357258E+04  0.30622953292E+04 0.  0.
        4    1    3    3  502    0  0.12391829188E+03  0.64094724660E+03 -0.20171372408E+04  0.21201446595E+04  0.12699999809E+01 0.  1.
       -4    1    3    3    0  502 -0.12391829188E+03 -0.64094724660E+03  0.92405357855E+03  0.11313910663E+04  0.12699999809E+01 0. -1.
</event>
<event>
 5   0  0.1235960E-06  0.3104849E+04  0.7818609E-02  0.8214408E-01
       -1   -1    0    0    0  501  0.00000000000E+00  0.00000000000E+00  0.17551502591E+04  0.17551502591E+04  0.50400001928E-02 0.  1.
        1   -1    0    0  501    0  0.00000000000E+00  0.00000000000E+00 -0.13731144894E+04  0.13731144894E+04  0.50400001928E-02 0. -1.
    10030    2    1    2    0    0  0.00000000000E+00  0.00000000000E+00  0.38203576974E+03  0.31282647485E+04  0.31048492729E+04 0.  0.
        4    1    3    3  502    0 -0.24511017294E+03  0.14215535198E+04  0.76904057612E+03  0.16347227371E+04  0.12699999809E+01 0.  1.
       -4    1    3    3    0  502  0.24511017294E+03 -0.14215535198E+04 -0.38700480638E+03  0.14935420114E+04  0.12699999809E+01 0. -1.
</event>
<event>
 5   0  0.1235960E-06  0.3070585E+04  0.7818609E-02  0.8223857E-01
        1   -1    0    0  501    0  0.00000000000E+00  0.00000000000E+00  0.15117250293E+04  0.15117250293E+04  0.50400001928E-02 0.  1.
       -1   -1    0    0    0  501  0.00000000000E+00  0.00000000000E+00 -0.15592276289E+04  0.15592276289E+04  0.50400001928E-02 0. -1.
    10030    2    1    2    0    0  0.00000000000E+00  0.00000000000E+00 -0.47502599551E+02  0.30709526582E+04  0.30705852426E+04 0.  0.
        4    1    3    3  502    0 -0.34058847034E+03 -0.51818769489E+03 -0.14284131540E+04  0.15572041436E+04  0.12699999809E+01 0. -1.
       -4    1    3    3    0  502  0.34058847034E+03  0.51818769489E+03  0.13809105545E+04  0.15137485146E+04  0.12699999809E+01 0.  1.
</event>
<event>
 5   0  0.1198763E-06  0.3057170E+04  0.7818609E-02  0.8227592E-01
       -1   -1    0    0    0  501  0.00000000000E+00  0.00000000000E+00  0.95148211927E+03  0.95148211929E+03  0.50400001928E-02 0.  1.
        1   -1    0    0  501    0  0.00000000000E+00  0.00000000000E+00 -0.24557180228E+04  0.24557180229E+04  0.50400001928E-02 0. -1.
    10030    2    1    2    0    0  0.00000000000E+00  0.00000000000E+00 -0.15042359036E+04  0.34072001421E+04  0.30571697949E+04 0.  0.
        1    1    3    3  502    0  0.63079503523E+03 -0.28786804525E+03  0.76613395144E+03  0.10333109985E+04  0.50400001928E-02 0.  1.
       -1    1    3    3    0  502 -0.63079503523E+03  0.28786804525E+03 -0.22703698550E+04  0.23738891437E+04  0.50400001928E-02 0. -1.
</event>
<event>
 5   0  0.1250276E-06  0.3122774E+04  0.7818609E-02  0.8209515E-01
        1   -1    0    0  501    0  0.00000000000E+00  0.00000000000E+00  0.16533266325E+04  0.16533266325E+04  0.50400001928E-02 0. -1.
       -1   -1    0    0    0  501  0.00000000000E+00  0.00000000000E+00 -0.14745599198E+04  0.14745599198E+04  0.50400001928E-02 0.  1.
    10030    2    1    2    0    0  0.00000000000E+00  0.00000000000E+00  0.17876671268E+03  0.31278865522E+04  0.31227738865E+04 0.  0.
        5    1    3    3  502    0 -0.63293457324E+03  0.46837011091E+01  0.15190530355E+04  0.16456525531E+04  0.46999998093E+01 0. -1.
       -5    1    3    3    0  502  0.63293457324E+03 -0.46837011091E+01 -0.13402863228E+04  0.14822339991E+04  0.46999998093E+01 0.  1.
</event>
<event>
 5   0  0.3445959E-06  0.3150589E+04  0.7818609E-02  0.8201990E-01
        2   -1    0    0  501    0  0.00000000000E+00  0.00000000000E+00  0.16067387851E+04  0.16067387851E+04  0.25500000920E-02 0.  1.
       -2   -1    0    0    0  501  0.00000000000E+00  0.00000000000E+00 -0.15444655911E+04  0.15444655911E+04  0.25500000920E-02 0. -1.
    10030    2    1    2    0    0  0.00000000000E+00  0.00000000000E+00  0.62273193964E+02  0.31512043762E+04  0.31505890036E+04 0.  0.
        4    1    3    3  502    0  0.67246249835E+02  0.24614279198E+03  0.15859313979E+04  0.16063275955E+04  0.12699999809E+01 0.  1.
       -4    1    3    3    0  502 -0.67246249835E+02 -0.24614279198E+03 -0.15236582040E+04  0.15448767807E+04  0.12699999809E+01 0. -1.
</event>
<event>
 5   0  0.1250276E-06  0.3036484E+04  0.7818609E-02  0.8233389E-01
        1   -1    0    0  501    0  0.00000000000E+00  0.00000000000E+00  0.22252664621E+04  0.22252664621E+04  0.50400001928E-02 0. -1.
       -1   -1    0    0    0  501  0.00000000000E+00  0.00000000000E+00 -0.10358571310E+04  0.10358571310E+04  0.50400001928E-02 0.  1.
    10030    2    1    2    0    0  0.00000000000E+00  0.00000000000E+00  0.11894093310E+04  0.32611235931E+04  0.30364835802E+04 0.  0.
        5    1    3    3  502    0  0.11576573948E+04  0.59759652656E+03 -0.24254809225E+03  0.13251958041E+04  0.46999998093E+01 0.  1.
       -5    1    3    3    0  502 -0.11576573948E+04 -0.59759652656E+03  0.14319574233E+04  0.19359277890E+04  0.46999998093E+01 0. -1.
</event>
<event>
 5   0  0.3445959E-06  0.3081360E+04  0.7818609E-02  0.8220872E-01
       -2   -1    0    0    0  501  0.00000000000E+00  0.00000000000E+00  0.12869904653E+04  0.12869904653E+04  0.25500000920E-02 0.  1.
        2   -1    0    0  501    0  0.00000000000E+00  0.00000000000E+00 -0.18443767071E+04  0.18443767071E+04  0.25500000920E-02 0. -1.
    10030    2    1    2    0    0  0.00000000000E+00  0.00000000000E+00 -0.55738624178E+03  0.31313671724E+04  0.30813602428E+04 0.  0.
        4    1    3    3  502    0 -0.12240695764E+04 -0.91569030125E+03 -0.47379468360E+03  0.16004118441E+04  0.12699999809E+01 0.  1.
       -4    1    3    3    0  502  0.12240695764E+04  0.91569030125E+03 -0.83591558179E+02  0.15309553283E+04  0.12699999809E+01 0. -1.
</event>
<event>
 5   0  0.1198763E-06  0.3115021E+04  0.7818609E-02  0.8211628E-01
        1   -1    0    0  501    0  0.00000000000E+00  0.00000000000E+00  0.15264949253E+04  0.15264949253E+04  0.50400001928E-02 0. -1.
       -1   -1    0    0    0  501  0.00000000000E+00  0.00000000000E+00 -0.15891562155E+04  0.15891562155E+04  0.50400001928E-02 0.  1.
    10030    2    1    2    0    0  0.00000000000E+00  0.00000000000E+00 -0.62661290181E+02  0.31156511408E+04  0.31150209620E+04 0.  0.
        1    1    3    3  502    0 -0.14254392269E+04  0.58775311545E+03  0.18895964731E+03  0.15533951405E+04  0.50400001928E-02 0. -1.
       -1    1    3    3    0  502  0.14254392269E+04 -0.58775311545E+03 -0.25162093749E+03  0.15622560003E+04  0.50400001928E-02 0.  1.
</event>
<event>
 5   0  0.3445410E-06  0.3078184E+04  0.7818609E-02  0.8221751E-01
       -2   -1    0    0    0  501  0.00000000000E+00  0.00000000000E+00  0.12650007911E+04  0.12650007911E+04  0.25500000920E-02 0. -1.
        2   -1    0    0  501    0  0.00000000000E+00  0.00000000000E+00 -0.18725709228E+04  0.18725709228E+04  0.25500000920E-02 0.  1.
    10030    2    1    2    0    0  0.00000000000E+00  0.00000000000E+00 -0.60757013166E+03  0.31375717140E+04  0.30781836845E+04 0.  0.
        1    1    3    3  502    0 -0.55518437576E+03 -0.91862563451E+03 -0.14281079569E+04  0.17865035920E+04  0.50400001928E-02 0.  1.
       -1    1    3    3    0  502  0.55518437576E+03  0.91862563451E+03  0.82053782528E+03  0.13510681220E+04  0.50400001928E-02 0. -1.
</event>
<event>
 5   0  0.1211008E-06  0.3051308E+04  0.7818609E-02  0.8229230E-01
        1   -1    0    0  501    0  0.00000000000E+00  0.00000000000E+00  0.14543584535E+04  0.14543584536E+04  0.50400001928E-02 0. -1.
       -1   -1    0    0    0  501  0.00000000000E+00  0.00000000000E+00 -0.16004442045E+04  0.16004442045E+04  0.50400001928E-02 0.  1.
    10030    2    1    2    0    0  0.00000000000E+00  0.00000000000E+00 -0.14608575091E+03  0.30548026580E+04  0.30513076267E+04 0.  0.
        3    1    3    3  502    0  0.71015128293E+03 -0.92760603886E+03 -0.10554169102E+04  0.15743800915E+04  0.10100000352E+00 0.  1.
       -3    1    3    3    0  502 -0.71015128293E+03  0.92760603886E+03  0.90933115930E+03  0.14804225665E+04  0.10100000352E+00 0. -1.
</event>
<event>
 5   0  0.3374790E-06  0.3084995E+04  0.7818609E-02  0.8219868E-01
        2   -1    0    0  501    0  0.00000000000E+00  0.00000000000E+00  0.28961211485E+04  0.28961211485E+04  0.25500000920E-02 0. -1.
       -2   -1    0    0    0  501  0.00000000000E+00  0.00000000000E+00 -0.82154663782E+03  0.82154663783E+03  0.25500000920E-02 0.  1.
    10030    2    1    2    0    0  0.00000000000E+00  0.00000000000E+00  0.20745745107E+04  0.37176677863E+04  0.30849950355E+04 0.  0.
        2    1    3    3  502    0 -0.10254897952E+03  0.13301432224E+04  0.19703507018E+04  0.23795123815E+04  0.25500000920E-02 0.  1.
       -2    1    3    3    0  502  0.10254897952E+03 -0.13301432224E+04  0.10422380884E+03  0.13381554049E+04  0.25500000920E-02 0. -1.
</event>
<event>
 5   0  0.1198763E-06  0.3077105E+04  0.7818609E-02  0.8222049E-01
        1   -1    0    0  501    0  0.00000000000E+00  0.00000000000E+00  0.17159755531E+04  0.17159755531E+04  0.50400001928E-02 0. -1.
       -1   -1    0    0    0  501  0.00000000000E+00  0.00000000000E+00 -0.13794741042E+04  0.13794741042E+04  0.50400001928E-02 0.  1.
    10030    2    1    2    0    0  0.00000000000E+00  0.00000000000E+00  0.33650144887E+03  0.30954496573E+04  0.30771050284E+04 0.  0.
        1    1    3    3  502    0  0.34858310786E+03  0.12749738685E+04 -0.62389236540E+03  0.14616122030E+04  0.50400001928E-02 0.  1.
       -1    1    3    3    0  502 -0.34858310786E+03 -0.12749738685E+04  0.96039381427E+03  0.16338374543E+04  0.50400001928E-02 0. -1.
</event>
<event>
 5   0  0.1211008E-06  0.3106070E+04  0.7818609E-02  0.8214074E-01
       -1   -1    0    0    0  501  0.00000000000E+00  0.00000000000E+00  0.20043235080E+04  0.20043235080E+04  0.50400001928E-02 0.  1.
        1   -1    0    0  501    0  0.00000000000E+00  0.00000000000E+00 -0.12033571646E+04  0.12033571646E+04  0.50400001928E-02 0. -1.
    10030    2    1    2    0    0  0.00000000000E+00  0.00000000000E+00  0.80096634341E+03  0.32076806727E+04  0.31060695766E+04 0.  0.
        3    1    3    3  502    0 -0.40150548821E+03 -0.10861888225E+04  0.14691818302E+04  0.18706972164E+04  0.10100000352E+00 0.  1.
       -3    1    3    3    0  502  0.40150548821E+03  0.10861888225E+04 -0.66821548677E+03  0.13369834562E+04  0.10100000352E+00 0. -1.
</event>
<event>
 5   0  0.1198763E-06  0.3126430E+04  0.7818609E-02  0.8208522E-01
        1   -1    0    0  501    0  0.00000000000E+00  0.00000000000E+00  0.19480654720E+04  0.19480654720E+04  0.50400001928E-02 0.  1.
       -1   -1    0    0    0  501  0.00000000000E+00  0.00000000000E+00 -0.12543937949E+04  0.12543937949E+04  0.50400001928E-02 0. -1.
    10030    2    1    2    0    0  0.00000000000E+00  0.00000000000E+00  0.69367167714E+03  0.32024592669E+04  0.31264300665E+04 0.  0.
        1    1    3    3  502    0  0.67004094788E+03  0.29045702337E+03  0.17625907620E+04  0.19078905494E+04  0.50400001928E-02 0.  1.
       -1    1    3    3    0  502 -0.67004094788E+03 -0.29045702337E+03 -0.10689190849E+04  0.12945687175E+04  0.50400001928E-02 0. -1.
</event>
<event>
 5   0  0.3441897E-06  0.3139094E+04  0.7818609E-02  0.8205090E-01
       -2   -1    0    0    0  501  0.00000000000E+00  0.00000000000E+00  0.18583396660E+04  0.18583396660E+04  0.25500000920E-02 0.  1.
        2   -1    0    0  501    0  0.00000000000E+00  0.00000000000E+00 -0.13256338610E+04  0.13256338610E+04  0.25500000920E-02 0. -1.
    10030    2    1    2    0    0  0.00000000000E+00  0.00000000000E+00  0.53270580499E+03  0.31839735270E+04  0.31390941283E+04 0.  0.
        5    1    3    3  502    0  0.11310577519E+04  0.74600676935E+02 -0.83480130675E+03  0.14077543148E+04  0.46999998093E+01 0. -1.
       -5    1    3    3    0  502 -0.11310577519E+04 -0.74600676935E+02  0.13675071117E+04  0.17762192122E+04  0.46999998093E+01 0.  1.
</event>
<event>
 5   0  0.3340899E-06  0.3132189E+04  0.7818609E-02  0.8206959E-01
        2   -1    0    0  501    0  0.00000000000E+00  0.00000000000E+00  0.15673591622E+04  0.15673591622E+04  0.25500000920E-02 0. -1.
       -2   -1    0    0    0  501  0.00000000000E+00  0.00000000000E+00 -0.15648313312E+04  0.15648313312E+04  0.25500000920E-02 0.  1.
    10030    2    1    2    0    0  0.00000000000E+00  0.00000000000E+00  0.25278310260E+01  0.31321904933E+04  0.31321894733E+04 0.  0.
        3    1    3    3  502    0  0.86201445724E+03  0.11948998498E+04 -0.52958288160E+03  0.15656668273E+04  0.10100000352E+00 0.  1.
       -3    1    3    3    0  502 -0.86201445724E+03 -0.11948998498E+04  0.53211071263E+03  0.15665236660E+04  0.10100000352E+00 0. -1.
</event>
<event>
 5   0  0.3445410E-06  0.2789024E+04  0.7818609E-02  0.8306684E-01
       -2   -1    0    0    0  501  0.00000000000E+00  0.00000000000E+00  0.11311340908E+04  0.11311340908E+04  0.25500000920E-02 0. -1.
        2   -1    0    0  501    0  0.00000000000E+00  0.00000000000E+00 -0.17192163010E+04  0.17192163010E+04  0.25500000920E-02 0.  1.
    10030    2    1    2    0    0  0.00000000000E+00  0.00000000000E+00 -0.58808221024E+03  0.28503503918E+04  0.27890243222E+04 0.  0.
        1    1    3    3  502    0 -0.12968994107E+04 -0.35563795128E+03  0.83178845816E+02  0.13473474512E+04  0.50400001928E-02 0. -1.
       -1    1    3    3    0  502  0.12968994107E+04  0.35563795128E+03 -0.67126105606E+03  0.15030029406E+04  0.50400001928E-02 0.  1.
</event>
<event>
 5   0  0.1171915E-06  0.3082706E+04  0.7818609E-02  0.8220500E-01
       -1   -1    0    0    0  501  0.00000000000E+00  0.00000000000E+00  0.15313433908E+04  0.15313433908E+04  0.50400001928E-02 0. -1.
        1   -1    0    0  501    0  0.00000000000E+00  0.00000000000E+00 -0.15514280480E+04  0.15514280481E+04  0.50400001928E-02 0.  1.
    10030    2    1    2    0    0  0.00000000000E+00  0.00000000000E+00 -0.20084657220E+02  0.30827714389E+04  0.30827060111E+04 0.  0.
        2    1    3    3  502    0 -0.10880633468E+04 -0.26865498502E+03  0.10481444556E+04  0.15344914948E+04  0.25500000920E-02 0. -1.
       -2    1    3    3    0  502  0.10880633468E+04  0.26865498502E+03 -0.10682291129E+04  0.15482799441E+04  0.25500000920E-02 0.  1.
</event>
<event>
 5   0  0.1198763E-06  0.3076361E+04  0.7818609E-02  0.8222255E-01
       -1   -1    0    0    0  501  0.00000000000E+00  0.00000000000E+00  0.13952716522E+04  0.13952716522E+04  0.50400001928E-02 0. -1.
        1   -1    0    0  501    0  0.00000000000E+00  0.00000000000E+00 -0.16957266478E+04  0.16957266478E+04  0.50400001928E-02 0.  1.
    10030    2    1    2    0    0  0.00000000000E+00  0.00000000000E+00 -0.30045499560E+03  0.30909982999E+04  0.30763610461E+04 0.  0.
        1    1    3    3  502    0 -0.93930894819E+03  0.12364795251E+03 -0.13677724706E+04  0.16638484449E+04  0.50400001928E-02 0.  1.
       -1    1    3    3    0  502  0.93930894819E+03 -0.12364795251E+03  0.10673174750E+04  0.14271498550E+04  0.50400001928E-02 0. -1.
</event>
<event>
 5   0  0.3441897E-06  0.3098812E+04  0.7818609E-02  0.8216064E-01
       -2   -1    0    0    0  501  0.00000000000E+00  0.00000000000E+00  0.11283635535E+04  0.11283635535E+04  0.25500000920E-02 0. -1.
        2   -1    0    0  501    0  0.00000000000E+00  0.00000000000E+00 -0.21275586269E+04  0.21275586269E+04  0.25500000920E-02 0.  1.
    10030    2    1    2    0    0  0.00000000000E+00  0.00000000000E+00 -0.99919507347E+03  0.32559221804E+04  0.30988124257E+04 0.  0.
        5    1    3    3  502    0 -0.94004900967E+03  0.10285602839E+04 -0.12114490078E+04  0.18464179339E+04  0.46999998093E+01 0.  1.
       -5    1    3    3    0  502  0.94004900967E+03 -0.10285602839E+04  0.21225393433E+03  0.14095042465E+04  0.46999998093E+01 0. -1.
</event>
<event>
 5   0  0.1250276E-06  0.3080395E+04  0.7818609E-02  0.8221139E-01
        1   -1    0    0  501    0  0.00000000000E+00  0.00000000000E+00  0.23546266733E+04  0.23546266733E+04  0.50400001928E-02 0.  1.
       -1   -1    0    0    0  501  0.00000000000E+00  0.00000000000E+00 -0.10074671816E+04  0.10074671816E+04  0.50400001928E-02 0. -1.
    10030    2    1    2    0    0  0.00000000000E+00  0.00000000000E+00  0.13471594917E+04  0.33620938549E+04  0.30803954930E+04 0.  0.
        5    1    3    3  502    0 -0.87091029229E+03 -0.90095837528E+03 -0.30384676551E+03  0.12894012867E+04  0.46999998093E+01 0. -1.
       -5    1    3    3    0  502  0.87091029229E+03  0.90095837528E+03  0.16510062572E+04  0.20726925682E+04  0.46999998093E+01 0.  1.
</event>
<event>
 5   0  0.1235960E-06  0.3272774E+04  0.7818609E-02  0.8169858E-01
        1   -1    0    0  501    0  0.00000000000E+00  0.00000000000E+00  0.12534223415E+04  0.12534223415E+04  0.50400001928E-02 0.  1.
       -1   -1    0    0    0  501  0.00000000000E+00  0.00000000000E+00 -0.21363607034E+04  0.21363607034E+04  0.50400001928E-02 0. -1.
    10030    2    1    2    0    0  0.00000000000E+00  0.00000000000E+00 -0.88293836190E+03  0.33897830450E+04  0.32727738909E+04 0.  0.
        4    1    3    3  502    0  0.60422979335E+03 -0.90968545779E+03 -0.17037021031E+04  0.20236659171E+04  0.12699999809E+01 0. -1.
       -4    1    3    3    0  502 -0.60422979335E+03  0.90968545779E+03  0.82076374116E+03  0.13661171278E+04  0.12699999809E+01 0.  1.
</event>
<event>
 5   0  0.3441897E-06  0.3112469E+04  0.7818609E-02  0.8212324E-01
        2   -1    0    0  501    0  0.00000000000E+00  0.00000000000E+00  0.17480502728E+04  0.17480502728E+04  0.25500000920E-02 0.  1.
       -2   -1    0    0    0  501  0.00000000000E+00  0.00000000000E+00 -0.13854673222E+04  0.13854673222E+04  0.25500000920E-02 0. -1.
    10030    2    1    2    0    0  0.00000000000E+00  0.00000000000E+00  0.36258295057E+03  0.31335175949E+04  0.31124694572E+04 0.  0.
        5    1    3    3  502    0  0.78004311128E+03 -0.78698818078E+03  0.12813963130E+04  0.16940532025E+04  0.46999998093E+01 0.  1.
       -5    1    3    3    0  502 -0.78004311128E+03  0.78698818078E+03 -0.91881336238E+03  0.14394643924E+04  0.46999998093E+01 0. -1.
</event>
<event>
 5   0  0.1109562E-06  0.3116275E+04  0.7818609E-02  0.8211286E-01
       -3   -1    0    0    0  501  0.00000000000E+00  0.00000000000E+00  0.17090111117E+04  0.17090111147E+04  0.10100000352E+00 0. -1.
        3   -1    0    0  501    0  0.00000000000E+00  0.00000000000E+00 -0.14205828941E+04  0.14205828977E+04  0.10100000352E+00 0.  1.
    10030    2    1    2    0    0  0.00000000000E+00  0.00000000000E+00  0.28842821753E+03  0.31295940124E+04  0.31162746743E+04 0.  0.
        1    1    3    3  502    0 -0.49468831366E+03  0.71175860338E+03  0.14445358646E+04  0.16846366674E+04  0.50400001928E-02 0. -1.
       -1    1    3    3    0  502  0.49468831366E+03 -0.71175860338E+03 -0.11561076471E+04  0.14449573450E+04  0.50400001928E-02 0.  1.
</event>
<event>
 5   0  0.3441897E-06  0.3074281E+04  0.7818609E-02  0.8222832E-01
       -2   -1    0    0    0  501  0.00000000000E+00  0.00000000000E+00  0.12103626020E+04  0.12103626020E+04  0.25500000920E-02 0. -1.
        2   -1    0    0  501    0  0.00000000000E+00  0.00000000000E+00 -0.19521435520E+04  0.19521435520E+04  0.25500000920E-02 0.  1.
    10030    2    1    2    0    0  0.00000000000E+00  0.00000000000E+00 -0.74178094999E+03  0.31625061541E+04  0.30742814115E+04 0.  0.
        5    1    3    3  502    0  0.49785016701E+03 -0.14328189636E+04 -0.11484084861E+03  0.15211954121E+04  0.46999998093E+01 0. -1.
       -5    1    3    3    0  502 -0.49785016701E+03  0.14328189636E+04 -0.62694010138E+03  0.16413107420E+04  0.46999998093E+01 0.  1.
</event>
<event>
 5   0  0.3445959E-06  0.3130435E+04  0.7818609E-02  0.8207435E-01
       -2   -1    0    0    0  501  0.00000000000E+00  0.00000000000E+00  0.15239415121E+04  0.15239415121E+04  0.25500000920E-02 0.  1.
        2   -1    0    0  501    0  0.00000000000E+00  0.00000000000E+00 -0.16076116317E+04  0.16076116317E+04  0.25500000920E-02 0. -1.
    10030    2    1    2    0    0  0.00000000000E+00  0.00000000000E+00 -0.83670119543E+02  0.31315531438E+04  0.31304351780E+04 0.  0.
        4    1    3    3  502    0 -0.37472693200E+03 -0.55000272490E+03  0.13753505212E+04  0.15279116271E+04  0.12699999809E+01 0.  1.
       -4    1    3    3    0  502  0.37472693200E+03  0.55000272490E+03 -0.14590206408E+04  0.16036415167E+04  0.12699999809E+01 0. -1.
</event>
<event>
 5   0  0.3445410E-06  0.3129038E+04  0.7818609E-02  0.8207814E-01
       -2   -1    0    0    0  501  0.00000000000E+00  0.00000000000E+00  0.17946627718E+04  0.17946627718E+04  0.25500000920E-02 0.  1.
        2   -1    0    0  501    0  0.00000000000E+00  0.00000000000E+00 -0.13638879832E+04  0.13638879832E+04  0.25500000920E-02 0. -1.
    10030    2    1    2    0    0  0.00000000000E+00  0.00000000000E+00  0.43077478859E+03  0.31585507549E+04  0.31290375442E+04 0.  0.
        1    1    3    3  502    0 -0.12763980509E+04 -0.89703332857E+03  0.33421864728E+03  0.15954820215E+04  0.50400001928E-02 0. -1.
       -1    1    3    3    0  502  0.12763980509E+04  0.89703332857E+03  0.96556141314E+02  0.15630687334E+04  0.50400001928E-02 0.  1.
</event>
<event>
 5   0  0.3445410E-06  0.3115955E+04  0.7818609E-02  0.8211373E-01
       -2   -1    0    0    0  501  0.00000000000E+00  0.00000000000E+00  0.25255183072E+04  0.25255183072E+04  0.25500000920E-02 0. -1.
        2   -1    0    0  501    0  0.00000000000E+00  0.00000000000E+00 -0.96110746630E+03  0.96110746630E+03  0.25500000920E-02 0.  1.
    10030    2    1    2    0    0  0.00000000000E+00  0.00000000000E+00  0.15644108409E+04  0.34866257735E+04  0.31159553921E+04 0.  0.
        1    1    3    3  502    0  0.11443790251E+03 -0.38105384056E+03  0.24677141711E+04  0.24995822237E+04  0.50400001928E-02 0. -1.
       -1    1    3    3    0  502 -0.11443790251E+03  0.38105384056E+03 -0.90330333016E+03  0.98704354982E+03  0.50400001928E-02 0.  1.
</event>
<event>
 5   0  0.1171915E-06  0.3143111E+04  0.7818609E-02  0.8204005E-01
        1   -1    0    0  501    0  0.00000000000E+00  0.00000000000E+00  0.21418246720E+04  0.21418246720E+04  0.50400001928E-02 0. -1.
       -1   -1    0    0    0  501  0.00000000000E+00  0.00000000000E+00 -0.11531223750E+04  0.11531223750E+04  0.50400001928E-02 0.  1.
    10030    2    1    2    0    0  0.00000000000E+00  0.00000000000E+00  0.98870229696E+03  0.32949470470E+04  0.31431105311E+04 0.  0.
        2    1    3    3  502    0 -0.30973779791E+03 -0.14407622559E+04 -0.77963974507E+02  0.14757410894E+04  0.25500000920E-02 0.  1.
       -2    1    3    3    0  502  0.30973779791E+03  0.14407622559E+04  0.10666662715E+04  0.18192059576E+04  0.25500000920E-02 0. -1.
</event>
<event>
 5   0  0.3445410E-06  0.3155215E+04  0.7818609E-02  0.8200746E-01
        2   -1    0    0  501    0  0.00000000000E+00  0.00000000000E+00  0.13454280463E+04  0.13454280463E+04  0.25500000920E-02 0.  1.
       -2   -1    0    0    0  501  0.00000000000E+00  0.00000000000E+00 -0.18498541913E+04  0.18498541914E+04  0.25500000920E-02 0. -1.
    10030    2    1    2    0    0  0.00000000000E+00  0.00000000000E+00 -0.50442614507E+03  0.31952822376E+04  0.31552151816E+04 0.  0.
        1    1    3    3  502    0 -0.95034482526E+02 -0.10595874479E+04 -0.14319477438E+04  0.17838810088E+04  0.50400001928E-02 0. -1.
       -1    1    3    3    0  502  0.95034482526E+02  0.10595874479E+04  0.92752159869E+03  0.14114012288E+04  0.50400001928E-02 0.  1.
</event>
<event>
 5   0  0.1250276E-06  0.3071098E+04  0.7818609E-02  0.8223715E-01
        1   -1    0    0  501    0  0.00000000000E+00  0.00000000000E+00  0.26954725384E+04  0.26954725384E+04  0.50400001928E-02 0.  1.
       -1   -1    0    0    0  501  0.00000000000E+00  0.00000000000E+00 -0.87476728155E+03  0.87476728157E+03  0.50400001928E-02 0. -1.
    10030    2    1    2    0    0  0.00000000000E+00  0.00000000000E+00  0.18207052569E+04  0.35702398200E+04  0.30710982954E+04 0.  0.
        5    1    3    3  502    0  0.10516728622E+04  0.99869736804E+03  0.32390691624E+03  0.14860518236E+04  0.46999998093E+01 0. -1.
       -5    1    3    3    0  502 -0.10516728622E+04 -0.99869736804E+03  0.14967983407E+04  0.20841879964E+04  0.46999998093E+01 0.  1.
</event>
<event>
 5   0  0.1211008E-06  0.3405024E+04  0.7818609E-02  0.8136674E-01
        1   -1    0    0  501    0  0.00000000000E+00  0.00000000000E+00  0.19353758292E+04  0.19353758292E+04  0.50400001928E-02 0. -1.
       -1   -1    0    0    0  501  0.00000000000E+00  0.00000000000E+00 -0.14976659390E+04  0.14976659390E+04  0.50400001928E-02 0.  1.
    10030    2    1    2    0    0  0.00000000000E+00  0.00000000000E+00  0.43770989021E+03  0.34330417682E+04  0.34050236173E+04 0.  0.
        3    1    3    3  502    0  0.72233811279E+03  0.59220946765E+03 -0.12162555129E+04  0.15335455277E+04  0.10100000352E+00 0.  1.
       -3    1    3    3    0  502 -0.72233811279E+03 -0.59220946765E+03  0.16539654031E+04  0.18994962405E+04  0.10100000352E+00 0. -1.
</event>
<event>
 5   0  0.3445959E-06  0.3104880E+04  0.7818609E-02  0.8214400E-01
       -2   -1    0    0    0  501  0.00000000000E+00  0.00000000000E+00  0.72540407764E+03  0.72540407764E+03  0.25500000920E-02 0. -1.
        2   -1    0    0  501    0  0.00000000000E+00  0.00000000000E+00 -0.33223834626E+04  0.33223834626E+04  0.25500000920E-02 0.  1.
    10030    2    1    2    0    0  0.00000000000E+00  0.00000000000E+00 -0.25969793849E+04  0.40477875402E+04  0.31048803592E+04 0.  0.
        4    1    3    3  502    0 -0.12182629828E+04  0.17950923042E+03 -0.25309246654E+04  0.28145993559E+04  0.12699999809E+01 0.  1.
       -4    1    3    3    0  502  0.12182629828E+04 -0.17950923042E+03 -0.66054719540E+02  0.12331881844E+04  0.12699999809E+01 0. -1.
</event>
<event>
 5   0  0.1198763E-06  0.3114652E+04  0.7818609E-02  0.8211728E-01
       -1   -1    0    0    0  501  0.00000000000E+00  0.00000000000E+00  0.15277936622E+04  0.15277936622E+04  0.50400001928E-02 0. -1.
        1   -1    0    0  501    0  0.00000000000E+00  0.00000000000E+00 -0.15874294423E+04  0.15874294423E+04  0.50400001928E-02 0.  1.
    10030    2    1    2    0    0  0.00000000000E+00  0.00000000000E+00 -0.59635780081E+02  0.31152231045E+04  0.31146522382E+04 0.  0.
        1    1    3    3  502    0 -0.98037195818E+03  0.19169978308E+03 -0.12247697470E+04  0.15804869239E+04  0.50400001928E-02 0.  1.
       -1    1    3    3    0  502  0.98037195818E+03 -0.19169978308E+03  0.11651339670E+04  0.15347361807E+04  0.50400001928E-02 0. -1.
</event>
<event>
 5   0  0.3340899E-06  0.3120176E+04  0.7818609E-02  0.8210223E-01
       -2   -1    0    0    0  501  0.00000000000E+00  0.00000000000E+00  0.15771251517E+04  0.15771251517E+04  0.25500000920E-02 0. -1.
        2   -1    0    0  501    0  0.00000000000E+00  0.00000000000E+00 -0.15432346304E+04  0.15432346304E+04  0.25500000920E-02 0.  1.
    10030    2    1    2    0    0  0.00000000000E+00  0.00000000000E+00  0.33890521388E+02  0.31203597821E+04  0.31201757326E+04 0.  0.
        3    1    3    3  502    0  0.31076088910E+02  0.10114714511E+04  0.12043795742E+04  0.15730767269E+04  0.10100000352E+00 0. -1.
       -3    1    3    3    0  502 -0.31076088910E+02 -0.10114714511E+04 -0.11704890529E+04  0.15472830552E+04  0.10100000352E+00 0.  1.
</event>
<event>
 5   0  0.3340899E-06  0.3077083E+04  0.7818609E-02  0.8222056E-01
       -2   -1    0    0    0  501  0.00000000000E+00  0.00000000000E+00  0.96860733602E+03  0.96860733602E+03  0.25500000920E-02 0. -1.
        2   -1    0    0  501    0  0.00000000000E+00  0.00000000000E+00 -0.24438277263E+04  0.24438277263E+04  0.25500000920E-02 0.  1.
    10030    2    1    2    0    0  0.00000000000E+00  0.00000000000E+00 -0.14752203903E+04  0.34124350623E+04  0.30770826857E+04 0.  0.
        3    1    3    3  502    0  0.15303041435E+04  0.14350182576E+03 -0.81352423461E+03  0.17390357202E+04  0.10100000352E+00 0. -1.
       -3    1    3    3    0  502 -0.15303041435E+04 -0.14350182576E+03 -0.66169615567E+03  0.16733993421E+04  0.10100000352E+00 0.  1.
</event>
<event>
 5   0  0.3340899E-06  0.3108111E+04  0.7818609E-02  0.8213515E-01
       -2   -1    0    0    0  501  0.00000000000E+00  0.00000000000E+00  0.31389168341E+04  0.31389168341E+04  0.25500000920E-02 0.  1.
        2   -1    0    0  501    0  0.00000000000E+00  0.00000000000E+00 -0.76940208948E+03  0.76940208948E+03  0.25500000920E-02 0. -1.
    10030    2    1    2    0    0  0.00000000000E+00  0.00000000000E+00  0.23695147447E+04  0.39083189236E+04  0.31081114336E+04 0.  0.
        3    1    3    3  502    0  0.72568142387E+03  0.28901762718E+03 -0.50461479107E+03  0.92993592002E+03  0.10100000352E+00 0. -1.
       -3    1    3    3    0  502 -0.72568142387E+03 -0.28901762718E+03  0.28741295357E+04  0.29783830036E+04  0.10100000352E+00 0.  1.
</event>
<event>
 5   0  0.1171915E-06  0.3110308E+04  0.7818609E-02  0.8212915E-01
       -1   -1    0    0    0  501  0.00000000000E+00  0.00000000000E+00  0.10630040825E+04  0.10630040825E+04  0.50400001928E-02 0. -1.
        1   -1    0    0  501    0  0.00000000000E+00  0.00000000000E+00 -0.22751590234E+04  0.22751590234E+04  0.50400001928E-02 0.  1.
    10030    2    1    2    0    0  0.00000000000E+00  0.00000000000E+00 -0.12121549410E+04  0.33381631059E+04  0.31103075927E+04 0.  0.
        2    1    3    3  502    0  0.10918976805E+04  0.10634823483E+04 -0.93734427612E+03  0.17893712699E+04  0.25500000920E-02 0. -1.
       -2    1    3    3    0  502 -0.10918976805E+04 -0.10634823483E+04 -0.27481066483E+03  0.15487918360E+04  0.25500000920E-02 0.  1.
</event>
<event>
 5   0  0.3441897E-06  0.3103955E+04  0.7818609E-02  0.8214653E-01
       -2   -1    0    0    0  501  0.00000000000E+00  0.00000000000E+00  0.15957312260E+04  0.15957312260E+04  0.25500000920E-02 0. -1.
        2   -1    0    0  501    0  0.00000000000E+00  0.00000000000E+00 -0.15094232551E+04  0.15094232551E+04  0.25500000920E-02 0.  1.
    10030    2    1    2    0    0  0.00000000000E+00  0.00000000000E+00  0.86307970883E+02  0.31051544811E+04  0.31039547815E+04 0.  0.
        5    1    3    3  502    0  0.27135094226E+03  0.90613822000E+03  0.12740335126E+04  0.15867896171E+04  0.46999998093E+01 0. -1.
       -5    1    3    3    0  502 -0.27135094226E+03 -0.90613822000E+03 -0.11877255418E+04  0.15183648640E+04  0.46999998093E+01 0.  1.
</event>
<event>
 5   0  0.3441897E-06  0.3069458E+04  0.7818609E-02  0.8224170E-01
       -2   -1    0    0    0  501  0.00000000000E+00  0.00000000000E+00  0.14025092850E+04  0.14025092850E+04  0.25500000920E-02 0. -1.
        2   -1    0    0  501    0  0.00000000000E+00  0.00000000000E+00 -0.16794139292E+04  0.16794139292E+04  0.25500000920E-02 0.  1.
    10030    2    1    2    0    0  0.00000000000E+00  0.00000000000E+00 -0.27690464417E+03  0.30819232143E+04  0.30694583425E+04 0.  0.
        5    1    3    3  502    0  0.11379951323E+04 -0.64178433296E+03 -0.94698730637E+03  0.16136068603E+04  0.46999998093E+01 0.  1.
       -5    1    3    3    0  502 -0.11379951323E+04  0.64178433296E+03  0.67008266220E+03  0.14683163540E+04  0.46999998093E+01 0. -1.
</event>
<event>
 5   0  0.3445959E-06  0.3106884E+04  0.7818609E-02  0.8213851E-01
       -2   -1    0    0    0  501  0.00000000000E+00  0.00000000000E+00  0.13043748128E+04  0.13043748128E+04  0.25500000920E-02 0.  1.
        2   -1    0    0  501    0  0.00000000000E+00  0.00000000000E+00 -0.18500674238E+04  0.18500674238E+04  0.25500000920E-02 0. -1.
    10030    2    1    2    0    0  0.00000000000E+00  0.00000000000E+00 -0.54569261102E+03  0.31544422367E+04  0.31068835509E+04 0.  0.
        4    1    3    3  502    0 -0.67369105674E+03 -0.70995790656E+03  0.95196973132E+03  0.13653379989E+04  0.12699999809E+01 0.  1.
       -4    1    3    3    0  502  0.67369105674E+03  0.70995790656E+03 -0.14976623423E+04  0.17891042378E+04  0.12699999809E+01 0. -1.
</event>
<event>
 5   0  0.3445959E-06  0.3101177E+04  0.7818609E-02  0.8215415E-01
        2   -1    0    0  501    0  0.00000000000E+00  0.00000000000E+00  0.17792601124E+04  0.17792601124E+04  0.25500000920E-02 0.  1.
       -2   -1    0    0    0  501  0.00000000000E+00  0.00000000000E+00 -0.13513060906E+04  0.13513060907E+04  0.25500000920E-02 0. -1.
    10030    2    1    2    0    0  0.00000000000E+00  0.00000000000E+00  0.42795402173E+03  0.31305662030E+04  0.31011772131E+04 0.  0.
        4    1    3    3  502    0  0.11697589411E+01  0.66157720941E+03 -0.12016814270E+04  0.13717600509E+04  0.12699999809E+01 0. -1.
       -4    1    3    3    0  502 -0.11697589411E+01 -0.66157720941E+03  0.16296354487E+04  0.17588061522E+04  0.12699999809E+01 0.  1.
</event>
<event>
 5   0  0.1235960E-06  0.3162198E+04  0.7818609E-02  0.8198873E-01
        1   -1    0    0  501    0  0.00000000000E+00  0.00000000000E+00  0.22274311087E+04  0.22274311087E+04  0.50400001928E-02 0. -1.
       -1   -1    0    0    0  501  0.00000000000E+00  0.00000000000E+00 -0.11223126493E+04  0.11223126493E+04  0.50400001928E-02 0.  1.
    10030    2    1    2    0    0  0.00000000000E+00  0.00000000000E+00  0.11051184593E+04  0.33497437580E+04  0.31621980386E+04 0.  0.
        4    1    3    3  502    0 -0.95382947491E+03 -0.48333939919E+02  0.18873493656E+04  0.21152342844E+04  0.12699999809E+01 0. -1.
       -4    1    3    3    0  502  0.95382947491E+03  0.48333939919E+02 -0.78223090627E+03  0.12345094737E+04  0.12699999809E+01 0.  1.
</event>
<event>
 5   0  0.3340899E-06  0.3093145E+04  0.7818609E-02  0.8217622E-01
       -2   -1    0    0    0  501  0.00000000000E+00  0.00000000000E+00  0.12152266513E+04  0.12152266513E+04  0.25500000920E-02 0. -1.
        2   -1    0    0  501    0  0.00000000000E+00  0.00000000000E+00 -0.19682640274E+04  0.19682640274E+04  0.25500000920E-02 0.  1.
    10030    2    1    2    0    0  0.00000000000E+00  0.00000000000E+00 -0.75303737611E+03  0.31834906787E+04  0.30931452620E+04 0.  0.
        3    1    3    3  502    0 -0.55113346492E+03  0.77018770546E+03  0.88187507164E+03  0.12940791514E+04  0.10100000352E+00 0. -1.
       -3    1    3    3    0  502  0.55113346492E+03 -0.77018770546E+03 -0.16349124478E+04  0.18894115274E+04  0.10100000352E+00 0.  1.
</event>
<event>
 5   0  0.1235960E-06  0.3100719E+04  0.7818609E-02  0.8215541E-01
       -1   -1    0    0    0  501  0.00000000000E+00  0.00000000000E+00  0.10457036883E+04  0.10457036883E+04  0.50400001928E-02 0. -1.
        1   -1    0    0  501    0  0.00000000000E+00  0.00000000000E+00 -0.22985614867E+04  0.22985614867E+04  0.50400001928E-02 0.  1.
    10030    2    1    2    0    0  0.00000000000E+00  0.00000000000E+00 -0.12528577984E+04  0.33442651750E+04  0.31007187712E+04 0.  0.
        4    1    3    3  502    0 -0.20048142715E+03  0.23244003847E+03  0.10126018589E+04  0.10581045844E+04  0.12699999809E+01 0. -1.
       -4    1    3    3    0  502  0.20048142715E+03 -0.23244003847E+03 -0.22654596573E+04  0.22861605906E+04  0.12699999809E+01 0.  1.
</event>
<event>
 5   0  0.3445410E-06  0.2650670E+04  0.7818609E-02  0.8351191E-01
        2   -1    0    0  501    0  0.00000000000E+00  0.00000000000E+00  0.96375423198E+03  0.96375423199E+03  0.25500000920E-02 0.  1.
       -2   -1    0    0    0  501  0.00000000000E+00  0.00000000000E+00 -0.18225730679E+04  0.18225730679E+04  0.25500000920E-02 0. -1.
    10030    2    1    2    0    0  0.00000000000E+00  0.00000000000E+00 -0.85881883591E+03  0.27863272999E+04  0.26506697322E+04 0.  0.
        1    1    3    3  502    0  0.87611917550E+03 -0.55245261197E+03 -0.12986037045E+04  0.16610720272E+04  0.50400001928E-02 0.  1.
       -1    1    3    3    0  502 -0.87611917550E+03  0.55245261197E+03  0.43978486855E+03  0.11252552727E+04  0.50400001928E-02 0. -1.
</event>
<event>
 5   0  0.3374790E-06  0.3091022E+04  0.7818609E-02  0.8218206E-01
       -2   -1    0    0    0  501  0.00000000000E+00  0.00000000000E+00  0.87890905418E+03  0.87890905418E+03  0.25500000920E-02 0.  1.
        2   -1    0    0  501    0  0.00000000000E+00  0.00000000000E+00 -0.27176919821E+04  0.27176919821E+04  0.25500000920E-02 0. -1.
    10030    2    1    2    0    0  0.00000000000E+00  0.00000000000E+00 -0.18387829279E+04  0.35966010363E+04  0.30910218955E+04 0.  0.
        2    1    3    3  502    0  0.10689031287E+04 -0.79609600866E+03 -0.18298615769E+04  0.22637835904E+04  0.25500000920E-02 0. -1.
       -2    1    3    3    0  502 -0.10689031287E+04  0.79609600866E+03 -0.89213510417E+01  0.13328174459E+04  0.25500000920E-02 0.  1.
</event>
<event>
 5   0  0.1235960E-06  0.3083644E+04  0.7818609E-02  0.8220241E-01
       -1   -1    0    0    0  501  0.00000000000E+00  0.00000000000E+00  0.14326385809E+04  0.14326385809E+04  0.50400001928E-02 0.  1.
        1   -1    0    0  501    0  0.00000000000E+00  0.00000000000E+00 -0.16593264502E+04  0.16593264502E+04  0.50400001928E-02 0. -1.
    10030    2    1    2    0    0  0.00000000000E+00  0.00000000000E+00 -0.22668786931E+03  0.30919650311E+04  0.30836440073E+04 0.  0.
        4    1    3    3  502    0 -0.15383065488E+04  0.40705797221E+02 -0.20935972201E+03  0.15530219271E+04  0.12699999809E+01 0. -1.
       -4    1    3    3    0  502  0.15383065488E+04 -0.40705797221E+02 -0.17328147301E+02  0.15389431040E+04  0.12699999809E+01 0.  1.
</event>
<event>
 5   0  0.1171915E-06  0.3099729E+04  0.7818609E-02  0.8215812E-01
       -1   -1    0    0    0  501  0.00000000000E+00  0.00000000000E+00  0.18437035560E+04  0.18437035560E+04  0.50400001928E-02 0.  1.
        1   -1    0    0  501    0  0.00000000000E+00  0.00000000000E+00 -0.13028561356E+04  0.13028561356E+04  0.50400001928E-02 0. -1.
    10030    2    1    2    0    0  0.00000000000E+00  0.00000000000E+00  0.54084742039E+03  0.31465596917E+04  0.30997293367E+04 0.  0.
        2    1    3    3  502    0  0.36315563767E+03 -0.14940459521E+03  0.17923669224E+04  0.18348795423E+04  0.25500000920E-02 0.  1.
       -2    1    3    3    0  502 -0.36315563767E+03  0.14940459521E+03 -0.12515195020E+04  0.13116801493E+04  0.25500000920E-02 0. -1.
</event>
<event>
 5   0  0.3445959E-06  0.2589051E+04  0.7818609E-02  0.8371930E-01
        2   -1    0    0  501    0  0.00000000000E+00  0.00000000000E+00  0.17688308059E+04  0.17688308059E+04  0.25500000920E-02 0. -1.
       -2   -1    0    0    0  501  0.00000000000E+00  0.00000000000E+00 -0.94740304213E+03  0.94740304214E+03  0.25500000920E-02 0.  1.
    10030    2    1    2    0    0  0.00000000000E+00  0.00000000000E+00  0.82142776380E+03  0.27162338481E+04  0.25890505492E+04 0.  0.
        4    1    3    3  502    0  0.12551993037E+04  0.27307332053E+03  0.57890033788E+03  0.14089789014E+04  0.12699999809E+01 0. -1.
       -4    1    3    3    0  502 -0.12551993037E+04 -0.27307332053E+03  0.24252742591E+03  0.13072549467E+04  0.12699999809E+01 0.  1.
</event>
<event>
 5   0  0.3445959E-06  0.3091792E+04  0.7818609E-02  0.8217994E-01
       -2   -1    0    0    0  501  0.00000000000E+00  0.00000000000E+00  0.14116574688E+04  0.14116574689E+04  0.25500000920E-02 0.  1.
        2   -1    0    0  501    0  0.00000000000E+00  0.00000000000E+00 -0.16928997865E+04  0.16928997865E+04  0.25500000920E-02 0. -1.
    10030    2    1    2    0    0  0.00000000000E+00  0.00000000000E+00 -0.28124231763E+03  0.31045572553E+04  0.30917921195E+04 0.  0.
        4    1    3    3  502    0 -0.12989853409E+04 -0.83246781284E+03 -0.43125279431E+02  0.15434464610E+04  0.12699999809E+01 0.  1.
       -4    1    3    3    0  502  0.12989853409E+04  0.83246781284E+03 -0.23811703820E+03  0.15611107943E+04  0.12699999809E+01 0. -1.
</event>
<event>
 5   0  0.1235960E-06  0.3018333E+04  0.7818609E-02  0.8238515E-01
        1   -1    0    0  501    0  0.00000000000E+00  0.00000000000E+00  0.22903259213E+04  0.22903259213E+04  0.50400001928E-02 0.  1.
       -1   -1    0    0    0  501  0.00000000000E+00  0.00000000000E+00 -0.99443624297E+03  0.99443624299E+03  0.50400001928E-02 0. -1.
    10030    2    1    2    0    0  0.00000000000E+00  0.00000000000E+00  0.12958896784E+04  0.32847621643E+04  0.30183327215E+04 0.  0.
        4    1    3    3  502    0  0.12204416688E+04 -0.42992894577E+03 -0.19731606847E+03  0.13089125292E+04  0.12699999809E+01 0. -1.
       -4    1    3    3    0  502 -0.12204416688E+04  0.42992894577E+03  0.14932057468E+04  0.19758496351E+04  0.12699999809E+01 0.  1.
</event>
<event>
 5   0  0.1171915E-06  0.3101119E+04  0.7818609E-02  0.8215431E-01
       -1   -1    0    0    0  501  0.00000000000E+00  0.00000000000E+00  0.11205267379E+04  0.11205267379E+04  0.50400001928E-02 0.  1.
        1   -1    0    0  501    0  0.00000000000E+00  0.00000000000E+00 -0.21456290922E+04  0.21456290922E+04  0.50400001928E-02 0. -1.
    10030    2    1    2    0    0  0.00000000000E+00  0.00000000000E+00 -0.10251023543E+04  0.32661558301E+04  0.31011190029E+04 0.  0.
        2    1    3    3  502    0 -0.14982386834E+03 -0.29484091023E+03  0.10829466894E+04  0.11323214588E+04  0.25500000920E-02 0.  1.
       -2    1    3    3    0  502  0.14982386834E+03  0.29484091023E+03 -0.21080490437E+04  0.21338343714E+04  0.25500000920E-02 0. -1.
</event>
<event>
 5   0  0.3441897E-06  0.2929778E+04  0.7818609E-02  0.8264072E-01
       -2   -1    0    0    0  501  0.00000000000E+00  0.00000000000E+00  0.19955066717E+04  0.19955066717E+04  0.25500000920E-02 0.  1.
        2   -1    0    0  501    0  0.00000000000E+00  0.00000000000E+00 -0.10753661359E+04  0.10753661359E+04  0.25500000920E-02 0. -1.
    10030    2    1    2    0    0  0.00000000000E+00  0.00000000000E+00  0.92014053585E+03  0.30708728076E+04  0.29297783524E+04 0.  0.
        5    1    3    3  502    0  0.13592243682E+03 -0.33100062430E+03  0.19489877509E+04  0.19815679815E+04  0.46999998093E+01 0.  1.
       -5    1    3    3    0  502 -0.13592243682E+03  0.33100062430E+03 -0.10288472151E+04  0.10893048261E+04  0.46999998093E+01 0. -1.
</event>
<event>
 5   0  0.3441897E-06  0.3100006E+04  0.7818609E-02  0.8215736E-01
       -2   -1    0    0    0  501  0.00000000000E+00  0.00000000000E+00  0.19525318958E+04  0.19525318958E+04  0.25500000920E-02 0. -1.
        2   -1    0    0  501    0  0.00000000000E+00  0.00000000000E+00 -0.12304585881E+04  0.12304585881E+04  0.25500000920E-02 0.  1.
    10030    2    1    2    0    0  0.00000000000E+00  0.00000000000E+00  0.72207330771E+03  0.31829904840E+04  0.31000062192E+04 0.  0.
        5    1    3    3  502    0 -0.29276032356E+03  0.40520329079E+03  0.18674819207E+04  0.19332379906E+04  0.46999998093E+01 0. -1.
       -5    1    3    3    0  502  0.29276032356E+03 -0.40520329079E+03 -0.11454086130E+04  0.12497524934E+04  0.46999998093E+01 0.  1.
</event>
<event>
 5   0  0.1250276E-06  0.3140643E+04  0.7818609E-02  0.8204672E-01
        1   -1    0    0  501    0  0.00000000000E+00  0.00000000000E+00  0.19371994571E+04  0.19371994571E+04  0.50400001928E-02 0.  1.
       -1   -1    0    0    0  501  0.00000000000E+00  0.00000000000E+00 -0.12729248369E+04  0.12729248369E+04  0.50400001928E-02 0. -1.
    10030    2    1    2    0    0  0.00000000000E+00  0.00000000000E+00  0.66427462015E+03  0.32101242940E+04  0.31406428024E+04 0.  0.
        5    1    3    3  502    0  0.72218734238E+03  0.41913325860E+03  0.16914691077E+04  0.18863502003E+04  0.46999998093E+01 0.  1.
       -5    1    3    3    0  502 -0.72218734238E+03 -0.41913325860E+03 -0.10271944875E+04  0.13237740937E+04  0.46999998093E+01 0. -1.
</event>
<event>
 5   0  0.3374790E-06  0.3101064E+04  0.7818609E-02  0.8215446E-01
        2   -1    0    0  501    0  0.00000000000E+00  0.00000000000E+00  0.17170410092E+04  0.17170410092E+04  0.25500000920E-02 0. -1.
       -2   -1    0    0    0  501  0.00000000000E+00  0.00000000000E+00 -0.14001701817E+04  0.14001701817E+04  0.25500000920E-02 0.  1.
    10030    2    1    2    0    0  0.00000000000E+00  0.00000000000E+00  0.31687082752E+03  0.31172111909E+04  0.31010640895E+04 0.  0.
        2    1    3    3  502    0  0.54120011376E+03  0.14412884130E+03 -0.12949419197E+04  0.14108668475E+04  0.25500000920E-02 0.  1.
       -2    1    3    3    0  502 -0.54120011376E+03 -0.14412884130E+03  0.16118127472E+04  0.17063443434E+04  0.25500000920E-02 0. -1.
</event>
<event>
 5   0  0.1235960E-06  0.3082275E+04  0.7818609E-02  0.8220619E-01
        1   -1    0    0  501    0  0.00000000000E+00  0.00000000000E+00  0.17126480731E+04  0.17126480731E+04  0.50400001928E-02 0.  1.
       -1   -1    0    0    0  501  0.00000000000E+00  0.00000000000E+00 -0.13868026687E+04  0.13868026687E+04  0.50400001928E-02 0. -1.
    10030    2    1    2    0    0  0.00000000000E+00  0.00000000000E+00  0.32584540437E+03  0.30994507418E+04  0.30822750808E+04 0.  0.
        4    1    3    3  502    0 -0.81991699884E+02 -0.69834490345E+03  0.15419489604E+04  0.16947024672E+04  0.12699999809E+01 0.  1.
       -4    1    3    3    0  502  0.81991699884E+02  0.69834490345E+03 -0.12161035561E+04  0.14047482746E+04  0.12699999809E+01 0. -1.
</event>
<event>
 5   0  0.3340899E-06  0.3130110E+04  0.7818609E-02  0.8207523E-01
       -2   -1    0    0    0  501  0.00000000000E+00  0.00000000000E+00  0.11720423729E+04  0.11720423729E+04  0.25500000920E-02 0.  1.
        2   -1    0    0  501    0  0.00000000000E+00  0.00000000000E+00 -0.20898535137E+04  0.20898535137E+04  0.25500000920E-02 0. -1.
    10030    2    1    2    0    0  0.00000000000E+00  0.00000000000E+00 -0.91781114082E+03  0.32618958867E+04  0.31301098200E+04 0.  0.
        3    1    3    3  502    0 -0.39152126879E+03  0.61224133046E+03  0.98555121189E+03  0.12245160481E+04  0.10100000352E+00 0.  1.
       -3    1    3    3    0  502  0.39152126879E+03 -0.61224133046E+03 -0.19033623527E+04  0.20373798386E+04  0.10100000352E+00 0. -1.
</event>
<event>
 5   0  0.1109562E-06  0.3061224E+04  0.7818609E-02  0.8226461E-01
        4   -1    0    0  501    0  0.00000000000E+00  0.00000000000E+00  0.16449925058E+04  0.16449929961E+04  0.12699999809E+01 0.  1.
       -4   -1    0    0    0  501  0.00000000000E+00  0.00000000000E+00 -0.14241835221E+04  0.14241840884E+04  0.12699999809E+01 0. -1.
    10030    2    1    2    0    0  0.00000000000E+00  0.00000000000E+00  0.22080898373E+03  0.30691770844E+04  0.30612238351E+04 0.  0.
        5    1    3    3  502    0 -0.94640186693E+03  0.11058829304E+04 -0.36421446277E+03  0.15004425395E+04  0.46999998093E+01 0. -1.
       -5    1    3    3    0  502  0.94640186693E+03 -0.11058829304E+04  0.58502344650E+03  0.15687345449E+04  0.46999998093E+01 0.  1.
</event>
<event>
 5   0  0.3374790E-06  0.3102519E+04  0.7818609E-02  0.8215047E-01
        2   -1    0    0  501    0  0.00000000000E+00  0.00000000000E+00  0.13612346538E+04  0.13612346538E+04  0.25500000920E-02 0. -1.
       -2   -1    0    0    0  501  0.00000000000E+00  0.00000000000E+00 -0.17678114967E+04  0.17678114967E+04  0.25500000920E-02 0.  1.
    10030    2    1    2    0    0  0.00000000000E+00  0.00000000000E+00 -0.40657684293E+03  0.31290461506E+04  0.31025191511E+04 0.  0.
        2    1    3    3  502    0 -0.98535316385E+03  0.11868408887E+04 -0.37891983326E+02  0.15430320654E+04  0.25500000920E-02 0. -1.
       -2    1    3    3    0  502  0.98535316385E+03 -0.11868408887E+04 -0.36868485961E+03  0.15860140851E+04  0.25500000920E-02 0.  1.
</event>
<event>
 5   0  0.1211008E-06  0.3075778E+04  0.7818609E-02  0.8222417E-01
        1   -1    0    0  501    0  0.00000000000E+00  0.00000000000E+00  0.18513818724E+04  0.18513818724E+04  0.50400001928E-02 0. -1.
       -1   -1    0    0    0  501  0.00000000000E+00  0.00000000000E+00 -0.12774799535E+04  0.12774799535E+04  0.50400001928E-02 0.  1.
    10030    2    1    2    0    0  0.00000000000E+00  0.00000000000E+00  0.57390191889E+03  0.31288618260E+04  0.30757784240E+04 0.  0.
        3    1    3    3  502    0 -0.12535199636E+04 -0.19028773846E+03 -0.59846229229E+03  0.14020266930E+04  0.10100000352E+00 0.  1.
       -3    1    3    3    0  502  0.12535199636E+04  0.19028773846E+03  0.11723642112E+04  0.17268351329E+04  0.10100000352E+00 0. -1.
</event>
<event>
 5   0  0.3374790E-06  0.3105493E+04  0.7818609E-02  0.8214232E-01
        2   -1    0    0  501    0  0.00000000000E+00  0.00000000000E+00  0.24356288878E+04  0.24356288878E+04  0.25500000920E-02 0.  1.
       -2   -1    0    0    0  501  0.00000000000E+00  0.00000000000E+00 -0.98989706081E+03  0.98989706081E+03  0.25500000920E-02 0. -1.
    10030    2    1    2    0    0  0.00000000000E+00  0.00000000000E+00  0.14457318270E+04  0.34255259486E+04  0.31054931185E+04 0.  0.
        2    1    3    3  502    0 -0.10170778057E+04 -0.11381060662E+04  0.10373604503E+04  0.18454943470E+04  0.25500000920E-02 0. -1.
       -2    1    3    3    0  502  0.10170778057E+04  0.11381060662E+04  0.40837137666E+03  0.15800316016E+04  0.25500000920E-02 0.  1.
</event>
<event>
 5   0  0.1250276E-06  0.3073633E+04  0.7818609E-02  0.8223012E-01
        1   -1    0    0  501    0  0.00000000000E+00  0.00000000000E+00  0.17034856198E+04  0.17034856198E+04  0.50400001928E-02 0.  1.
       -1   -1    0    0    0  501  0.00000000000E+00  0.00000000000E+00 -0.13864543243E+04  0.13864543243E+04  0.50400001928E-02 0. -1.
    10030    2    1    2    0    0  0.00000000000E+00  0.00000000000E+00  0.31703129552E+03  0.30899399442E+04  0.30736330321E+04 0.  0.
        5    1    3    3  502    0 -0.84204860890E+02  0.45843429063E+03 -0.13136752659E+04  0.13939215371E+04  0.46999998093E+01 0. -1.
       -5    1    3    3    0  502  0.84204860890E+02 -0.45843429063E+03  0.16307065614E+04  0.16960184070E+04  0.46999998093E+01 0.  1.
</event>
<event>
 5   0  0.1235960E-06  0.3093506E+04  0.7818609E-02  0.8217522E-01
        1   -1    0    0  501    0  0.00000000000E+00  0.00000000000E+00  0.23506312333E+04  0.23506312333E+04  0.50400001928E-02 0. -1.
       -1   -1    0    0    0  501  0.00000000000E+00  0.00000000000E+00 -0.10177880664E+04  0.10177880664E+04  0.50400001928E-02 0.  1.
    10030    2    1    2    0    0  0.00000000000E+00  0.00000000000E+00  0.13328431669E+04  0.33684192997E+04  0.30935057251E+04 0.  0.
        4    1    3    3  502    0  0.14952730239E+04 -0.39463364642E+03  0.69845862671E+03  0.16968863241E+04  0.12699999809E+01 0.  1.
       -4    1    3    3    0  502 -0.14952730239E+04  0.39463364642E+03  0.63438454015E+03  0.16715329756E+04  0.12699999809E+01 0. -1.
</event>
<event>
 5   0  0.3340899E-06  0.3119866E+04  0.7818609E-02  0.8210307E-01
       -2   -1    0    0    0  501  0.00000000000E+00  0.00000000000E+00  0.14131507783E+04  0.14131507783E+04  0.25500000920E-02 0.  1.
        2   -1    0    0  501    0  0.00000000000E+00  0.00000000000E+00 -0.17219613204E+04  0.17219613204E+04  0.25500000920E-02 0. -1.
    10030    2    1    2    0    0  0.00000000000E+00  0.00000000000E+00 -0.30881054213E+03  0.31351120987E+04  0.31198660100E+04 0.  0.
        3    1    3    3  502    0 -0.13069278037E+04  0.84076535245E+03 -0.29087876626E+03  0.15809987757E+04  0.10100000352E+00 0.  1.
       -3    1    3    3    0  502  0.13069278037E+04 -0.84076535245E+03 -0.17931775870E+02  0.15541133230E+04  0.10100000352E+00 0. -1.
</event>
<event>
 5   0  0.1211008E-06  0.3132857E+04  0.7818609E-02  0.8206778E-01
        1   -1    0    0  501    0  0.00000000000E+00  0.00000000000E+00  0.16256981699E+04  0.16256981699E+04  0.50400001928E-02 0. -1.
       -1   -1    0    0    0  501  0.00000000000E+00  0.00000000000E+00 -0.15093198402E+04  0.15093198402E+04  0.50400001928E-02 0.  1.
    10030    2    1    2    0    0  0.00000000000E+00  0.00000000000E+00  0.11637832970E+03  0.31350180101E+04  0.31328571637E+04 0.  0.
        3    1    3    3  502    0 -0.89234211017E+03  0.76864072325E+03 -0.97529395734E+03  0.15291439816E+04  0.10100000352E+00 0.  1.
       -3    1    3    3    0  502  0.89234211017E+03 -0.76864072325E+03  0.10916722870E+04  0.16058740285E+04  0.10100000352E+00 0. -1.
</event>
<event>
 5   0  0.1171915E-06  0.3030200E+04  0.7818609E-02  0.8235159E-01
       -1   -1    0    0    0  501  0.00000000000E+00  0.00000000000E+00  0.13740808421E+04  0.13740808421E+04  0.50400001928E-02 0.  1.
        1   -1    0    0  501    0  0.00000000000E+00  0.00000000000E+00 -0.16705917858E+04  0.16705917858E+04  0.50400001928E-02 0. -1.
    10030    2    1    2    0    0  0.00000000000E+00  0.00000000000E+00 -0.29651094376E+03  0.30446726279E+04  0.30302001042E+04 0.  0.
        2    1    3    3  502    0 -0.10135450234E+04 -0.43649509905E+03  0.89483892274E+03  0.14207526821E+04  0.25500000920E-02 0.  1.
       -2    1    3    3    0  502  0.10135450234E+04  0.43649509905E+03 -0.11913498665E+04  0.16239199458E+04  0.25500000920E-02 0. -1.
</event>
<event>
 5   0  0.1171915E-06  0.3001869E+04  0.7818609E-02  0.8243197E-01
        1   -1    0    0  501    0  0.00000000000E+00  0.00000000000E+00  0.23082080917E+04  0.23082080917E+04  0.50400001928E-02 0.  1.
       -1   -1    0    0    0  501  0.00000000000E+00  0.00000000000E+00 -0.97599734545E+03  0.97599734546E+03  0.50400001928E-02 0. -1.
    10030    2    1    2    0    0  0.00000000000E+00  0.00000000000E+00  0.13322107463E+04  0.32842054372E+04  0.30018693977E+04 0.  0.
        2    1    3    3  502    0  0.79414444293E+03  0.10259298131E+03 -0.72278853244E+03  0.10787094042E+04  0.25500000920E-02 0. -1.
       -2    1    3    3    0  502 -0.79414444293E+03 -0.10259298131E+03  0.20549992787E+04  0.22054960330E+04  0.25500000920E-02 0.  1.
</event>
<event>
 5   0  0.3445959E-06  0.3133304E+04  0.7818609E-02  0.8206657E-01
       -2   -1    0    0    0  501  0.00000000000E+00  0.00000000000E+00  0.14861103829E+04  0.14861103829E+04  0.25500000920E-02 0.  1.
        2   -1    0    0  501    0  0.00000000000E+00  0.00000000000E+00 -0.16515588669E+04  0.16515588669E+04  0.25500000920E-02 0. -1.
    10030    2    1    2    0    0  0.00000000000E+00  0.00000000000E+00 -0.16544848400E+03  0.31376692498E+04  0.31333041857E+04 0.  0.
        4    1    3    3  502    0  0.12349204010E+04 -0.86273457479E+03  0.34805853156E+03  0.15461195612E+04  0.12699999809E+01 0.  1.
       -4    1    3    3    0  502 -0.12349204010E+04  0.86273457479E+03 -0.51350701556E+03  0.15915496886E+04  0.12699999809E+01 0. -1.
</event>
<event>
 5   0  0.1198763E-06  0.3082884E+04  0.7818609E-02  0.8220451E-01
       -1   -1    0    0    0  501  0.00000000000E+00  0.00000000000E+00  0.12700393648E+04  0.12700393649E+04  0.50400001928E-02 0.  1.
        1   -1    0    0  501    0  0.00000000000E+00  0.00000000000E+00 -0.18708423786E+04  0.18708423786E+04  0.50400001928E-02 0. -1.
    10030    2    1    2    0    0  0.00000000000E+00  0.00000000000E+00 -0.60080301378E+03  0.31408817435E+04  0.30828840175E+04 0.  0.
        1    1    3    3  502    0  0.21694646689E+03  0.11500807152E+04 -0.13224145038E+04  0.17659364487E+04  0.50400001928E-02 0. -1.
       -1    1    3    3    0  502 -0.21694646689E+03 -0.11500807152E+04  0.72161149003E+03  0.13749452948E+04  0.50400001928E-02 0.  1.
</event>
<event>
 5   0  0.1198763E-06  0.2923997E+04  0.7818609E-02  0.8265773E-01
       -1   -1    0    0    0  501  0.00000000000E+00  0.00000000000E+00  0.14681293355E+04  0.14681293355E+04  0.50400001928E-02 0. -1.
        1   -1    0    0  501    0  0.00000000000E+00  0.00000000000E+00 -0.14558928583E+04  0.14558928584E+04  0.50400001928E-02 0.  1.
    10030    2    1    2    0    0  0.00000000000E+00  0.00000000000E+00  0.12236477159E+02  0.29240221939E+04  0.29239965901E+04 0.  0.
        1    1    3    3  502    0 -0.85068834042E+02 -0.51372900772E+03  0.13722505524E+04  0.14677281010E+04  0.50400001928E-02 0. -1.
       -1    1    3    3    0  502  0.85068834042E+02  0.51372900772E+03 -0.13600140753E+04  0.14562940928E+04  0.50400001928E-02 0.  1.
</event>
<event>
 5   0  0.3441897E-06  0.3147768E+04  0.7818609E-02  0.8202749E-01
       -2   -1    0    0    0  501  0.00000000000E+00  0.00000000000E+00  0.12097439807E+04  0.12097439807E+04  0.25500000920E-02 0. -1.
        2   -1    0    0  501    0  0.00000000000E+00  0.00000000000E+00 -0.20476323332E+04  0.20476323332E+04  0.25500000920E-02 0.  1.
    10030    2    1    2    0    0  0.00000000000E+00  0.00000000000E+00 -0.83788835253E+03  0.32573763140E+04  0.31477680282E+04 0.  0.
        5    1    3    3  502    0  0.14695427378E+04  0.36423283551E+03 -0.86387793747E+03  0.17431375728E+04  0.46999998093E+01 0. -1.
       -5    1    3    3    0  502 -0.14695427378E+04 -0.36423283551E+03  0.25989584946E+02  0.15142387412E+04  0.46999998093E+01 0.  1.
</event>
<event>
 5   0  0.3445410E-06  0.3380935E+04  0.7818609E-02  0.8142601E-01
       -2   -1    0    0    0  501  0.00000000000E+00  0.00000000000E+00  0.13309962190E+04  0.13309962190E+04  0.25500000920E-02 0.  1.
        2   -1    0    0  501    0  0.00000000000E+00  0.00000000000E+00 -0.21470237617E+04  0.21470237617E+04  0.25500000920E-02 0. -1.
    10030    2    1    2    0    0  0.00000000000E+00  0.00000000000E+00 -0.81602754274E+03  0.34780199807E+04  0.33809350831E+04 0.  0.
        1    1    3    3  502    0 -0.95836954453E+03 -0.10302403100E+04  0.55580704386E+03  0.15128743339E+04  0.50400001928E-02 0.  1.
       -1    1    3    3    0  502  0.95836954453E+03  0.10302403100E+04 -0.13718345866E+04  0.19651456468E+04  0.50400001928E-02 0. -1.
</event>
<event>
 5   0  0.3445410E-06  0.3078976E+04  0.7818609E-02  0.8221531E-01
        2   -1    0    0  501    0  0.00000000000E+00  0.00000000000E+00  0.18145655863E+04  0.18145655863E+04  0.25500000920E-02 0. -1.
       -2   -1    0    0    0  501  0.00000000000E+00  0.00000000000E+00 -0.13061107859E+04  0.13061107859E+04  0.25500000920E-02 0.  1.
    10030    2    1    2    0    0  0.00000000000E+00  0.00000000000E+00  0.50845480041E+03  0.31206763722E+04  0.30789762480E+04 0.  0.
        1    1    3    3  502    0 -0.40524186436E+03  0.99646338127E+03 -0.86198886730E+03  0.13784719969E+04  0.50400001928E-02 0.  1.
       -1    1    3    3    0  502  0.40524186436E+03 -0.99646338127E+03  0.13704436677E+04  0.17422043753E+04  0.50400001928E-02 0. -1.
</event>
<event>
 5   0  0.1211008E-06  0.3000016E+04  0.7818609E-02  0.8243726E-01
       -1   -1    0    0    0  501  0.00000000000E+00  0.00000000000E+00  0.94860742312E+03  0.94860742313E+03  0.50400001928E-02 0. -1.
        1   -1    0    0  501    0  0.00000000000E+00  0.00000000000E+00 -0.23719228864E+04  0.23719228864E+04  0.50400001928E-02 0.  1.
    10030    2    1    2    0    0  0.00000000000E+00  0.00000000000E+00 -0.14233154633E+04  0.33205303095E+04  0.30000157714E+04 0.  0.
        3    1    3    3  502    0  0.45791842867E+03 -0.13646219159E+04 -0.11788184577E+04  0.18605093999E+04  0.10100000352E+00 0.  1.
       -3    1    3    3    0  502 -0.45791842867E+03  0.13646219159E+04 -0.24449700556E+03  0.14600209096E+04  0.10100000352E+00 0. -1.
</event>
<event>
 5   0  0.3441897E-06  0.3121110E+04  0.7818609E-02  0.8209968E-01
        2   -1    0    0  501    0  0.00000000000E+00  0.00000000000E+00  0.14983658301E+04  0.14983658302E+04  0.25500000920E-02 0. -1.
       -2   -1    0    0    0  501  0.00000000000E+00  0.00000000000E+00 -0.16253251779E+04  0.16253251779E+04  0.25500000920E-02 0.  1.
    10030    2    1    2    0    0  0.00000000000E+00  0.00000000000E+00 -0.12695934778E+03  0.31236910081E+04  0.31211098728E+04 0.  0.
        5    1    3    3  502    0  0.50389644325E+03  0.13349084666E+04 -0.69599709138E+03  0.15875535522E+04  0.46999998093E+01 0.  1.
       -5    1    3    3    0  502 -0.50389644325E+03 -0.13349084666E+04  0.56903774359E+03  0.15361374559E+04  0.46999998093E+01 0. -1.
</event>
<event>
 5   0  0.3374790E-06  0.3076434E+04  0.7818609E-02  0.8222235E-01
       -2   -1    0    0    0  501  0.00000000000E+00  0.00000000000E+00  0.14809564119E+04  0.14809564119E+04  0.25500000920E-02 0. -1.
        2   -1    0    0  501    0  0.00000000000E+00  0.00000000000E+00 -0.15976910778E+04  0.15976910778E+04  0.25500000920E-02 0.  1.
    10030    2    1    2    0    0  0.00000000000E+00  0.00000000000E+00 -0.11673466585E+03  0.30786474897E+04  0.30764335493E+04 0.  0.
        2    1    3    3  502    0  0.66687152128E+03  0.81629232294E+03  0.10627335141E+04  0.14968143854E+04  0.25500000920E-02 0. -1.
       -2    1    3    3    0  502 -0.66687152128E+03 -0.81629232294E+03 -0.11794681799E+04  0.15818331043E+04  0.25500000920E-02 0.  1.
</event>
<event>
 5   0  0.1250276E-06  0.3110291E+04  0.7818609E-02  0.8212919E-01
       -1   -1    0    0    0  501  0.00000000000E+00  0.00000000000E+00  0.20282188356E+04  0.20282188356E+04  0.50400001928E-02 0. -1.
        1   -1    0    0  501    0  0.00000000000E+00  0.00000000000E+00 -0.11924142080E+04  0.11924142080E+04  0.50400001928E-02 0.  1.
    10030    2    1    2    0    0  0.00000000000E+00  0.00000000000E+00  0.83580462762E+03  0.32206330436E+04  0.31102906337E+04 0.  0.
        5    1    3    3  502    0 -0.75437275722E+03 -0.97776094805E+03 -0.56080662998E+03  0.13563262493E+04  0.46999998093E+01 0.  1.
       -5    1    3    3    0  502  0.75437275722E+03  0.97776094805E+03  0.13966112576E+04  0.18643067943E+04  0.46999998093E+01 0. -1.
</event>
<event>
 5   0  0.3445410E-06  0.3163837E+04  0.7818609E-02  0.8198433E-01
        2   -1    0    0  501    0  0.00000000000E+00  0.00000000000E+00  0.16578646423E+04  0.16578646423E+04  0.25500000920E-02 0. -1.
       -2   -1    0    0    0  501  0.00000000000E+00  0.00000000000E+00 -0.15094517123E+04  0.15094517123E+04  0.25500000920E-02 0.  1.
    10030    2    1    2    0    0  0.00000000000E+00  0.00000000000E+00  0.14841292998E+03  0.31673163546E+04  0.31638373049E+04 0.  0.
        1    1    3    3  502    0  0.15312535804E+04 -0.18598762896E+03 -0.27708921967E+03  0.15671972949E+04  0.50400001928E-02 0.  1.
       -1    1    3    3    0  502 -0.15312535804E+04  0.18598762896E+03  0.42550214965E+03  0.16001190596E+04  0.50400001928E-02 0. -1.
</event>
<event>
 5   0  0.3445959E-06  0.3245512E+04  0.7818609E-02  0.8176900E-01
       -2   -1    0    0    0  501  0.00000000000E+00  0.00000000000E+00  0.12713220938E+04  0.12713220938E+04  0.25500000920E-02 0.  1.
        2   -1    0    0  501    0  0.00000000000E+00  0.00000000000E+00 -0.20713368383E+04  0.20713368383E+04  0.25500000920E-02 0. -1.
    10030    2    1    2    0    0  0.00000000000E+00  0.00000000000E+00 -0.80001474450E+03  0.33426589320E+04  0.32455115382E+04 0.  0.
        4    1    3    3  502    0 -0.10942484576E+04 -0.69549657924E+03  0.60502951860E+03  0.14307891214E+04  0.12699999809E+01 0.  1.
       -4    1    3    3    0  502  0.10942484576E+04  0.69549657924E+03 -0.14050442631E+04  0.19118698106E+04  0.12699999809E+01 0. -1.
</event>
<event>
 5   0  0.3445410E-06  0.3113608E+04  0.7818609E-02  0.8212013E-01
       -2   -1    0    0    0  501  0.00000000000E+00  0.00000000000E+00  0.15122018254E+04  0.15122018254E+04  0.25500000920E-02 0. -1.
        2   -1    0    0  501    0  0.00000000000E+00  0.00000000000E+00 -0.16027220428E+04  0.16027220428E+04  0.25500000920E-02 0.  1.
    10030    2    1    2    0    0  0.00000000000E+00  0.00000000000E+00 -0.90520217359E+02  0.31149238682E+04  0.31136083240E+04 0.  0.
        1    1    3    3  502    0  0.22589069710E+03  0.12775964097E+04 -0.90606540797E+03  0.15824770825E+04  0.50400001928E-02 0.  1.
       -1    1    3    3    0  502 -0.22589069710E+03 -0.12775964097E+04  0.81554519061E+03  0.15324467857E+04  0.50400001928E-02 0. -1.
</event>
<event>
 5   0  0.3374790E-06  0.3086644E+04  0.7818609E-02  0.8219413E-01
        2   -1    0    0  501    0  0.00000000000E+00  0.00000000000E+00  0.14653353794E+04  0.14653353794E+04  0.25500000920E-02 0. -1.
       -2   -1    0    0    0  501  0.00000000000E+00  0.00000000000E+00 -0.16254591724E+04  0.16254591724E+04  0.25500000920E-02 0.  1.
    10030    2    1    2    0    0  0.00000000000E+00  0.00000000000E+00 -0.16012379303E+03  0.30907945519E+04  0.30866440243E+04 0.  0.
        2    1    3    3  502    0  0.17842392435E+03  0.15255812750E+04 -0.23062867700E+03  0.15531976404E+04  0.25500000920E-02 0. -1.
       -2    1    3    3    0  502 -0.17842392435E+03 -0.15255812750E+04  0.70504883976E+02  0.15375969115E+04  0.25500000920E-02 0.  1.
</event>
<event>
 5   0  0.1171915E-06  0.3053329E+04  0.7818609E-02  0.8228664E-01
        1   -1    0    0  501    0  0.00000000000E+00  0.00000000000E+00  0.98558519864E+03  0.98558519865E+03  0.50400001928E-02 0.  1.
       -1   -1    0    0    0  501  0.00000000000E+00  0.00000000000E+00 -0.23647932504E+04  0.23647932504E+04  0.50400001928E-02 0. -1.
    10030    2    1    2    0    0  0.00000000000E+00  0.00000000000E+00 -0.13792080518E+04  0.33503784491E+04  0.30533294781E+04 0.  0.
        2    1    3    3  502    0  0.35547709755E+03  0.95398003911E+03  0.55873204998E+03  0.11613024522E+04  0.25500000920E-02 0.  1.
       -2    1    3    3    0  502 -0.35547709755E+03 -0.95398003911E+03 -0.19379401018E+04  0.21890759969E+04  0.25500000920E-02 0. -1.
</event>
<event>
 5   0  0.1171915E-06  0.3084585E+04  0.7818609E-02  0.8219981E-01
       -1   -1    0    0    0  501  0.00000000000E+00  0.00000000000E+00  0.21486565192E+04  0.21486565192E+04  0.50400001928E-02 0. -1.
        1   -1    0    0  501    0  0.00000000000E+00  0.00000000000E+00 -0.11070483322E+04  0.11070483323E+04  0.50400001928E-02 0.  1.
    10030    2    1    2    0    0  0.00000000000E+00  0.00000000000E+00  0.10416081869E+04  0.32557048514E+04  0.30845852986E+04 0.  0.
        2    1    3    3  502    0 -0.85153437720E+03 -0.12191116132E+04  0.89060732694E+02  0.14897233754E+04  0.25500000920E-02 0.  1.
       -2    1    3    3    0  502  0.85153437720E+03  0.12191116132E+04  0.95254745421E+03  0.17659814760E+04  0.25500000920E-02 0. -1.
</event>
<event>
 5   0  0.3445410E-06  0.3089838E+04  0.7818609E-02  0.8218532E-01
       -2   -1    0    0    0  501  0.00000000000E+00  0.00000000000E+00  0.13951776809E+04  0.13951776809E+04  0.25500000920E-02 0.  1.
        2   -1    0    0  501    0  0.00000000000E+00  0.00000000000E+00 -0.17107319843E+04  0.17107319843E+04  0.25500000920E-02 0. -1.
    10030    2    1    2    0    0  0.00000000000E+00  0.00000000000E+00 -0.31555430339E+03  0.31059096653E+04  0.30898382369E+04 0.  0.
        1    1    3    3  502    0  0.13453512486E+04 -0.76685778692E+02  0.60174837731E+03  0.14757885351E+04  0.50400001928E-02 0.  1.
       -1    1    3    3    0  502 -0.13453512486E+04  0.76685778692E+02 -0.91730268070E+03  0.16301211301E+04  0.50400001928E-02 0. -1.
</event>
<event>
 5   0  0.1198763E-06  0.3096900E+04  0.7818609E-02  0.8216589E-01
       -1   -1    0    0    0  501  0.00000000000E+00  0.00000000000E+00  0.95754049458E+03  0.95754049459E+03  0.50400001928E-02 0.  1.
        1   -1    0    0  501    0  0.00000000000E+00  0.00000000000E+00 -0.25040173495E+04  0.25040173495E+04  0.50400001928E-02 0. -1.
    10030    2    1    2    0    0  0.00000000000E+00  0.00000000000E+00 -0.15464768549E+04  0.34615578441E+04  0.30969003932E+04 0.  0.
        1    1    3    3  502    0 -0.40488740373E+03  0.12565082546E+03 -0.24378878494E+04  0.24744735008E+04  0.50400001928E-02 0. -1.
       -1    1    3    3    0  502  0.40488740373E+03 -0.12565082546E+03  0.89141099451E+03  0.98708434331E+03  0.50400001928E-02 0.  1.
</event>
<event>
 5   0  0.1250276E-06  0.3070071E+04  0.7818609E-02  0.8224000E-01
        1   -1    0    0  501    0  0.00000000000E+00  0.00000000000E+00  0.21120469117E+04  0.21120469117E+04  0.50400001928E-02 0. -1.
       -1   -1    0    0    0  501  0.00000000000E+00  0.00000000000E+00 -0.11156633103E+04  0.11156633103E+04  0.50400001928E-02 0.  1.
    10030    2    1    2    0    0  0.00000000000E+00  0.00000000000E+00  0.99638360132E+03  0.32277102220E+04  0.30700705198E+04 0.  0.
        5    1    3    3  502    0 -0.14176886590E+04  0.45620731793E+03  0.88923773597E+03  0.17345697138E+04  0.46999998093E+01 0. -1.
       -5    1    3    3    0  502  0.14176886590E+04 -0.45620731793E+03  0.10714586535E+03  0.14931405082E+04  0.46999998093E+01 0.  1.
</event>
<event>
 5   0  0.3340899E-06  0.3069033E+04  0.7818609E-02  0.8224288E-01
       -2   -1    0    0    0  501  0.00000000000E+00  0.00000000000E+00  0.15564765166E+04  0.15564765166E+04  0.25500000920E-02 0. -1.
        2   -1    0    0  501    0  0.00000000000E+00  0.00000000000E+00 -0.15128661459E+04  0.15128661459E+04  0.25500000920E-02 0.  1.
    10030    2    1    2    0    0  0.00000000000E+00  0.00000000000E+00  0.43610370755E+02  0.30693426625E+04  0.30690328306E+04 0.  0.
        3    1    3    3  502    0  0.15323888933E+04  0.31506516479E+02  0.96191709098E+02  0.15357282428E+04  0.10100000352E+00 0.  1.
       -3    1    3    3    0  502 -0.15323888933E+04 -0.31506516479E+02 -0.52581338343E+02  0.15336144196E+04  0.10100000352E+00 0. -1.
</event>
<event>
 5   0  0.1235960E-06  0.2980797E+04  0.7818609E-02  0.8249236E-01
        1   -1    0    0  501    0  0.00000000000E+00  0.00000000000E+00  0.10583676129E+04  0.10583676129E+04  0.50400001928E-02 0.  1.
       -1   -1    0    0    0  501  0.00000000000E+00  0.00000000000E+00 -0.20987867790E+04  0.20987867790E+04  0.50400001928E-02 0. -1.
    10030    2    1    2    0    0  0.00000000000E+00  0.00000000000E+00 -0.10404191661E+04  0.31571543919E+04  0.29807971774E+04 0.  0.
        4    1    3    3  502    0 -0.93551529943E+03  0.27086368814E+03  0.67469049773E+03  0.11848058464E+04  0.12699999809E+01 0.  1.
       -4    1    3    3    0  502  0.93551529943E+03 -0.27086368814E+03 -0.17151096638E+04  0.19723485455E+04  0.12699999809E+01 0. -1.
</event>
<event>
 5   0  0.3374790E-06  0.3115368E+04  0.7818609E-02  0.8211533E-01
        2   -1    0    0  501    0  0.00000000000E+00  0.00000000000E+00  0.19749482445E+04  0.19749482445E+04  0.25500000920E-02 0. -1.
       -2   -1    0    0    0  501  0.00000000000E+00  0.00000000000E+00 -0.12285785535E+04  0.12285785535E+04  0.25500000920E-02 0.  1.
    10030    2    1    2    0    0  0.00000000000E+00  0.00000000000E+00  0.74636969092E+03  0.32035267980E+04  0.31153677520E+04 0.  0.
        2    1    3    3  502    0  0.30731034360E+03  0.12515734353E+04 -0.52650452191E+03  0.13921503952E+04  0.25500000920E-02 0.  1.
       -2    1    3    3    0  502 -0.30731034360E+03 -0.12515734353E+04  0.12728742128E+04  0.18113764029E+04  0.25500000920E-02 0. -1.
</event>
<event>
 5   0  0.1235960E-06  0.3022305E+04  0.7818609E-02  0.8237390E-01
       -1   -1    0    0    0  501  0.00000000000E+00  0.00000000000E+00  0.12933290480E+04  0.12933290480E+04  0.50400001928E-02 0. -1.
        1   -1    0    0  501    0  0.00000000000E+00  0.00000000000E+00 -0.17656619132E+04  0.17656619132E+04  0.50400001928E-02 0.  1.
    10030    2    1    2    0    0  0.00000000000E+00  0.00000000000E+00 -0.47233286528E+03  0.30589909612E+04  0.30223049755E+04 0.  0.
        4    1    3    3  502    0  0.66364642982E+03  0.60989271029E+03  0.99148049659E+03  0.13399368977E+04  0.12699999809E+01 0. -1.
       -4    1    3    3    0  502 -0.66364642982E+03 -0.60989271029E+03 -0.14638133619E+04  0.17190540635E+04  0.12699999809E+01 0.  1.
</event>
<event>
 5   0  0.1198763E-06  0.3087231E+04  0.7818609E-02  0.8219251E-01
        1   -1    0    0  501    0  0.00000000000E+00  0.00000000000E+00  0.17908960919E+04  0.17908960919E+04  0.50400001928E-02 0.  1.
       -1   -1    0    0    0  501  0.00000000000E+00  0.00000000000E+00 -0.13304787661E+04  0.13304787661E+04  0.50400001928E-02 0. -1.
    10030    2    1    2    0    0  0.00000000000E+00  0.00000000000E+00  0.46041732575E+03  0.31213748580E+04  0.30872312661E+04 0.  0.
        1    1    3    3  502    0 -0.50133257007E+03  0.11373724176E+04 -0.69522788444E+03  0.14241812291E+04  0.50400001928E-02 0. -1.
       -1    1    3    3    0  502  0.50133257007E+03 -0.11373724176E+04  0.11556452102E+04  0.16971936289E+04  0.50400001928E-02 0.  1.
</event>
<event>
 5   0  0.3441897E-06  0.3161740E+04  0.7818609E-02  0.8198995E-01
       -2   -1    0    0    0  501  0.00000000000E+00  0.00000000000E+00  0.10005721627E+04  0.10005721627E+04  0.25500000920E-02 0.  1.
        2   -1    0    0  501    0  0.00000000000E+00  0.00000000000E+00 -0.24977215516E+04  0.24977215516E+04  0.25500000920E-02 0. -1.
    10030    2    1    2    0    0  0.00000000000E+00  0.00000000000E+00 -0.14971493888E+04  0.34982937143E+04  0.31617404414E+04 0.  0.
        5    1    3    3  502    0  0.55781172930E+03  0.95212695916E+03  0.50392408548E+03  0.12131204580E+04  0.46999998093E+01 0.  1.
       -5    1    3    3    0  502 -0.55781172930E+03 -0.95212695916E+03 -0.20010734743E+04  0.22851732563E+04  0.46999998093E+01 0. -1.
</event>
<event>
 5   0  0.1211008E-06  0.3113513E+04  0.7818609E-02  0.8212039E-01
       -1   -1    0    0    0  501  0.00000000000E+00  0.00000000000E+00  0.19679920983E+04  0.19679920983E+04  0.50400001928E-02 0. -1.
        1   -1    0    0  501    0  0.00000000000E+00  0.00000000000E+00 -0.12314533948E+04  0.12314533948E+04  0.50400001928E-02 0.  1.
    10030    2    1    2    0    0  0.00000000000E+00  0.00000000000E+00  0.73653870351E+03  0.31994454932E+04  0.31135128396E+04 0.  0.
        3    1    3    3  502    0  0.35124860864E+03  0.44364193223E+03 -0.11220328203E+04  0.12566429123E+04  0.10100000352E+00 0.  1.
       -3    1    3    3    0  502 -0.35124860864E+03 -0.44364193223E+03  0.18585715238E+04  0.19428025809E+04  0.10100000352E+00 0. -1.
</event>
<event>
 5   0  0.1250276E-06  0.3069388E+04  0.7818609E-02  0.8224190E-01
        1   -1    0    0  501    0  0.00000000000E+00  0.00000000000E+00  0.13628016707E+04  0.13628016707E+04  0.50400001928E-02 0. -1.
       -1   -1    0    0    0  501  0.00000000000E+00  0.00000000000E+00 -0.17282676626E+04  0.17282676626E+04  0.50400001928E-02 0.  1.
    10030    2    1    2    0    0  0.00000000000E+00  0.00000000000E+00 -0.36546599197E+03  0.30910693333E+04  0.30693882505E+04 0.  0.
        5    1    3    3  502    0  0.10051567867E+04 -0.24981431973E+03  0.95774896127E+03  0.14106922141E+04  0.46999998093E+01 0. -1.
       -5    1    3    3    0  502 -0.10051567867E+04  0.24981431973E+03 -0.13232149532E+04  0.16803771192E+04  0.46999998093E+01 0.  1.
</event>
<event>
 5   0  0.3374790E-06  0.3087139E+04  0.7818609E-02  0.8219276E-01
       -2   -1    0    0    0  501  0.00000000000E+00  0.00000000000E+00  0.19772623243E+04  0.19772623243E+04  0.25500000920E-02 0.  1.
        2   -1    0    0  501    0  0.00000000000E+00  0.00000000000E+00 -0.12050026076E+04  0.12050026076E+04  0.25500000920E-02 0. -1.
    10030    2    1    2    0    0  0.00000000000E+00  0.00000000000E+00  0.77225971671E+03  0.31822649319E+04  0.30871386471E+04 0.  0.
        2    1    3    3  502    0  0.78404525722E+03 -0.91296214265E+03  0.13825484677E+04  0.18329394712E+04  0.25500000920E-02 0.  1.
       -2    1    3    3    0  502 -0.78404525722E+03  0.91296214265E+03 -0.61028875103E+03  0.13493254607E+04  0.25500000920E-02 0. -1.
</event>
<event>
 5   0  0.3445959E-06  0.2982480E+04  0.7818609E-02  0.8248752E-01
       -2   -1    0    0    0  501  0.00000000000E+00  0.00000000000E+00  0.10000400456E+04  0.10000400456E+04  0.25500000920E-02 0. -1.
        2   -1    0    0  501    0  0.00000000000E+00  0.00000000000E+00 -0.22237079351E+04  0.22237079351E+04  0.25500000920E-02 0.  1.
    10030    2    1    2    0    0  0.00000000000E+00  0.00000000000E+00 -0.12236678894E+04  0.32237479807E+04  0.29824801658E+04 0.  0.
        4    1    3    3  502    0 -0.89966055794E+03 -0.50866651200E+03  0.55014813429E+03  0.11708096867E+04  0.12699999809E+01 0. -1.
       -4    1    3    3    0  502  0.89966055794E+03  0.50866651200E+03 -0.17738160237E+04  0.20529382940E+04  0.12699999809E+01 0.  1.
</event>
<event>
 5   0  0.1211008E-06  0.3086997E+04  0.7818609E-02  0.8219316E-01
       -1   -1    0    0    0  501  0.00000000000E+00  0.00000000000E+00  0.11664047324E+04  0.11664047324E+04  0.50400001928E-02 0. -1.
        1   -1    0    0  501    0  0.00000000000E+00  0.00000000000E+00 -0.20425045654E+04  0.20425045654E+04  0.50400001928E-02 0.  1.
    10030    2    1    2    0    0  0.00000000000E+00  0.00000000000E+00 -0.87609983295E+03  0.32089092978E+04  0.30869965929E+04 0.  0.
        3    1    3    3  502    0 -0.63818794399E+03 -0.50862784037E+03 -0.17999042334E+04  0.19762695644E+04  0.10100000352E+00 0.  1.
       -3    1    3    3    0  502  0.63818794399E+03  0.50862784037E+03  0.92380440042E+03  0.12326397334E+04  0.10100000352E+00 0. -1.
</event>
<event>
 5   0  0.3374790E-06  0.3084671E+04  0.7818609E-02  0.8219957E-01
       -2   -1    0    0    0  501  0.00000000000E+00  0.00000000000E+00  0.98834524482E+03  0.98834524482E+03  0.25500000920E-02 0. -1.
        2   -1    0    0  501    0  0.00000000000E+00  0.00000000000E+00 -0.24068497012E+04  0.24068497012E+04  0.25500000920E-02 0.  1.
    10030    2    1    2    0    0  0.00000000000E+00  0.00000000000E+00 -0.14185044564E+04  0.33951949460E+04  0.30846707813E+04 0.  0.
        2    1    3    3  502    0  0.63643946442E+02 -0.14269526298E+04 -0.13496796706E+04  0.19651665509E+04  0.25500000920E-02 0.  1.
       -2    1    3    3    0  502 -0.63643946442E+02  0.14269526298E+04 -0.68824785791E+02  0.14300283951E+04  0.25500000920E-02 0. -1.
</event>
<event>
 5   0  0.3445959E-06  0.3077042E+04  0.7818609E-02  0.8222067E-01
        2   -1    0    0  501    0  0.00000000000E+00  0.00000000000E+00  0.16076468398E+04  0.16076468398E+04  0.25500000920E-02 0. -1.
       -2   -1    0    0    0  501  0.00000000000E+00  0.00000000000E+00 -0.14723674802E+04  0.14723674802E+04  0.25500000920E-02 0.  1.
    10030    2    1    2    0    0  0.00000000000E+00  0.00000000000E+00  0.13527935954E+03  0.30800143200E+04  0.30770420384E+04 0.  0.
        4    1    3    3  502    0 -0.15146573904E+04 -0.22722225895E+03 -0.78200573345E+02  0.15336016132E+04  0.12699999809E+01 0.  1.
       -4    1    3    3    0  502  0.15146573904E+04  0.22722225895E+03  0.21347993289E+03  0.15464127069E+04  0.12699999809E+01 0. -1.
</event>
<event>
 5   0  0.3340899E-06  0.3209397E+04  0.7818609E-02  0.8186340E-01
        2   -1    0    0  501    0  0.00000000000E+00  0.00000000000E+00  0.14913205828E+04  0.14913205828E+04  0.25500000920E-02 0. -1.
       -2   -1    0    0    0  501  0.00000000000E+00  0.00000000000E+00 -0.17266955759E+04  0.17266955759E+04  0.25500000920E-02 0.  1.
    10030    2    1    2    0    0  0.00000000000E+00  0.00000000000E+00 -0.23537499309E+03  0.32180161587E+04  0.32093966115E+04 0.  0.
        3    1    3    3  502    0 -0.47447637417E+03  0.12604423682E+04  0.75713143178E+03  0.15450212971E+04  0.10100000352E+00 0. -1.
       -3    1    3    3    0  502  0.47447637417E+03 -0.12604423682E+04 -0.99250642487E+03  0.16729948616E+04  0.10100000352E+00 0.  1.
</event>
<event>
 5   0  0.1250276E-06  0.2757662E+04  0.7818609E-02  0.8316535E-01
       -1   -1    0    0    0  501  0.00000000000E+00  0.00000000000E+00  0.94594685874E+03  0.94594685875E+03  0.50400001928E-02 0. -1.
        1   -1    0    0  501    0  0.00000000000E+00  0.00000000000E+00 -0.20098109119E+04  0.20098109119E+04  0.50400001928E-02 0.  1.
    10030    2    1    2    0    0  0.00000000000E+00  0.00000000000E+00 -0.10638640531E+04  0.29557577706E+04  0.27576615592E+04 0.  0.
        5    1    3    3  502    0 -0.64507560462E+03  0.96702105479E+02  0.77010619844E+03  0.10092370781E+04  0.46999998093E+01 0. -1.
       -5    1    3    3    0  502  0.64507560462E+03 -0.96702105479E+02 -0.18339702516E+04  0.19465206925E+04  0.46999998093E+01 0.  1.
</event>
<event>
 5   0  0.3374790E-06  0.3113259E+04  0.7818609E-02  0.8212108E-01
        2   -1    0    0  501    0  0.00000000000E+00  0.00000000000E+00  0.22335839480E+04  0.22335839480E+04  0.25500000920E-02 0.  1.
       -2   -1    0    0    0  501  0.00000000000E+00  0.00000000000E+00 -0.10848464681E+04  0.10848464681E+04  0.25500000920E-02 0. -1.
    10030    2    1    2    0    0  0.00000000000E+00  0.00000000000E+00  0.11487374799E+04  0.33184304161E+04  0.31132591650E+04 0.  0.
        2    1    3    3  502    0  0.47675297053E+03 -0.12567208072E+04  0.14112583117E+04  0.19489203689E+04  0.25500000920E-02 0. -1.
       -2    1    3    3    0  502 -0.47675297053E+03  0.12567208072E+04 -0.26252083171E+03  0.13695100472E+04  0.25500000920E-02 0.  1.
</event>
<event>
 5   0  0.1109562E-06  0.3082316E+04  0.7818609E-02  0.8220608E-01
        3   -1    0    0  501    0  0.00000000000E+00  0.00000000000E+00  0.13314107313E+04  0.13314107352E+04  0.10100000352E+00 0. -1.
       -3   -1    0    0    0  501  0.00000000000E+00  0.00000000000E+00 -0.17839488141E+04  0.17839488170E+04  0.10100000352E+00 0.  1.
    10030    2    1    2    0    0  0.00000000000E+00  0.00000000000E+00 -0.45253808283E+03  0.31153595522E+04  0.30823164054E+04 0.  0.
        3    1    3    3  502    0 -0.66703098392E+03 -0.14564332944E+03  0.11702180095E+04  0.13548256393E+04  0.10100000352E+00 0. -1.
       -3    1    3    3    0  502  0.66703098392E+03  0.14564332944E+03 -0.16227560923E+04  0.17605339129E+04  0.10100000352E+00 0.  1.
</event>
<event>
 5   0  0.1235960E-06  0.3048140E+04  0.7818609E-02  0.8230116E-01
       -1   -1    0    0    0  501  0.00000000000E+00  0.00000000000E+00  0.13404718029E+04  0.13404718029E+04  0.50400001928E-02 0. -1.
        1   -1    0    0  501    0  0.00000000000E+00  0.00000000000E+00 -0.17328145095E+04  0.17328145095E+04  0.50400001928E-02 0.  1.
    10030    2    1    2    0    0  0.00000000000E+00  0.00000000000E+00 -0.39234270663E+03  0.30732863124E+04  0.30481397538E+04 0.  0.
        4    1    3    3  502    0  0.20413859818E+03  0.14712654949E+04  0.14795458977E+03  0.14927112572E+04  0.12699999809E+01 0. -1.
       -4    1    3    3    0  502 -0.20413859818E+03 -0.14712654949E+04 -0.54029729640E+03  0.15805750552E+04  0.12699999809E+01 0.  1.
</event>
<event>
 5   0  0.3374790E-06  0.3091865E+04  0.7818609E-02  0.8217974E-01
       -2   -1    0    0    0  501  0.00000000000E+00  0.00000000000E+00  0.26190930748E+04  0.26190930748E+04  0.25500000920E-02 0.  1.
        2   -1    0    0  501    0  0.00000000000E+00  0.00000000000E+00 -0.91249418943E+03  0.91249418943E+03  0.25500000920E-02 0. -1.
    10030    2    1    2    0    0  0.00000000000E+00  0.00000000000E+00  0.17065988854E+04  0.35315872643E+04  0.30918649468E+04 0.  0.
        2    1    3    3  502    0 -0.11811233240E+04  0.53169508641E+03 -0.11061117409E+03  0.12999949243E+04  0.25500000920E-02 0. -1.
       -2    1    3    3    0  502  0.11811233240E+04 -0.53169508641E+03  0.18172100595E+04  0.22315923399E+04  0.25500000920E-02 0.  1.
</event>
<event>
 5   0  0.1250276E-06  0.3043953E+04  0.7818609E-02  0.8231290E-01
       -1   -1    0    0    0  501  0.00000000000E+00  0.00000000000E+00  0.17407565287E+04  0.17407565287E+04  0.50400001928E-02 0.  1.
        1   -1    0    0  501    0  0.00000000000E+00  0.00000000000E+00 -0.13306932550E+04  0.13306932550E+04  0.50400001928E-02 0. -1.
    10030    2    1    2    0    0  0.00000000000E+00  0.00000000000E+00  0.41006327366E+03  0.30714497837E+04  0.30439533317E+04 0.  0.
        5    1    3    3  502    0 -0.19086060156E+03 -0.10674771622E+04  0.12825994843E+04  0.16795888747E+04  0.46999998093E+01 0.  1.
       -5    1    3    3    0  502  0.19086060156E+03  0.10674771622E+04 -0.87253621063E+03  0.13918609090E+04  0.46999998093E+01 0. -1.
</event>
<event>
 5   0  0.1250276E-06  0.3125812E+04  0.7818609E-02  0.8208689E-01
       -1   -1    0    0    0  501  0.00000000000E+00  0.00000000000E+00  0.95559127809E+03  0.95559127810E+03  0.50400001928E-02 0.  1.
        1   -1    0    0  501    0  0.00000000000E+00  0.00000000000E+00 -0.25561929214E+04  0.25561929214E+04  0.50400001928E-02 0. -1.
    10030    2    1    2    0    0  0.00000000000E+00  0.00000000000E+00 -0.16006016433E+04  0.35117841995E+04  0.31258123173E+04 0.  0.
        5    1    3    3  502    0  0.40586912079E+03 -0.10292415356E+04  0.43990269665E+03  0.11906319139E+04  0.46999998093E+01 0.  1.
       -5    1    3    3    0  502 -0.40586912079E+03  0.10292415356E+04 -0.20405043400E+04  0.23211522856E+04  0.46999998093E+01 0. -1.
</event>
<event>
 5   0  0.1211008E-06  0.3013053E+04  0.7818609E-02  0.8240013E-01
       -1   -1    0    0    0  501  0.00000000000E+00  0.00000000000E+00  0.98515109454E+03  0.98515109455E+03  0.50400001928E-02 0. -1.
        1   -1    0    0  501    0  0.00000000000E+00  0.00000000000E+00 -0.23038309324E+04  0.23038309324E+04  0.50400001928E-02 0.  1.
    10030    2    1    2    0    0  0.00000000000E+00  0.00000000000E+00 -0.13186798378E+04  0.32889820269E+04  0.30130526479E+04 0.  0.
        3    1    3    3  502    0 -0.84771205574E+03  0.88710724653E+03  0.29480576872E+03  0.12619371806E+04  0.10100000352E+00 0. -1.
       -3    1    3    3    0  502  0.84771205574E+03 -0.88710724653E+03 -0.16134856066E+04  0.20270448463E+04  0.10100000352E+00 0.  1.
</event>
<event>
 5   0  0.1171915E-06  0.3019599E+04  0.7818609E-02  0.8238156E-01
       -1   -1    0    0    0  501  0.00000000000E+00  0.00000000000E+00  0.11705670429E+04  0.11705670429E+04  0.50400001928E-02 0.  1.
        1   -1    0    0  501    0  0.00000000000E+00  0.00000000000E+00 -0.19473416472E+04  0.19473416472E+04  0.50400001928E-02 0. -1.
    10030    2    1    2    0    0  0.00000000000E+00  0.00000000000E+00 -0.77677460435E+03  0.31179086901E+04  0.30195986180E+04 0.  0.
        2    1    3    3  502    0  0.11603367041E+04 -0.88950677479E+03  0.55990446518E+00  0.14620546785E+04  0.25500000920E-02 0.  1.
       -2    1    3    3    0  502 -0.11603367041E+04  0.88950677479E+03 -0.77733450881E+03  0.16558540117E+04  0.25500000920E-02 0. -1.
</event>
<event>
 5   0  0.3441897E-06  0.3115613E+04  0.7818609E-02  0.8211466E-01
       -2   -1    0    0    0  501  0.00000000000E+00  0.00000000000E+00  0.17443984251E+04  0.17443984251E+04  0.25500000920E-02 0. -1.
        2   -1    0    0  501    0  0.00000000000E+00  0.00000000000E+00 -0.13911734959E+04  0.13911734959E+04  0.25500000920E-02 0.  1.
    10030    2    1    2    0    0  0.00000000000E+00  0.00000000000E+00  0.35322492921E+03  0.31355719210E+04  0.31156128484E+04 0.  0.
        5    1    3    3  502    0  0.75408033066E+03  0.11543876088E+04  0.90616381802E+03  0.16499705608E+04  0.46999998093E+01 0. -1.
       -5    1    3    3    0  502 -0.75408033066E+03 -0.11543876088E+04 -0.55293888881E+03  0.14856013601E+04  0.46999998093E+01 0.  1.
</event>
<event>
 5   0  0.1235960E-06  0.3077574E+04  0.7818609E-02  0.8221920E-01
        1   -1    0    0  501    0  0.00000000000E+00  0.00000000000E+00  0.16653223164E+04  0.16653223164E+04  0.50400001928E-02 0.  1.
       -1   -1    0    0    0  501  0.00000000000E+00  0.00000000000E+00 -0.14218662984E+04  0.14218662984E+04  0.50400001928E-02 0. -1.
    10030    2    1    2    0    0  0.00000000000E+00  0.00000000000E+00  0.24345601800E+03  0.30871886147E+04  0.30775741600E+04 0.  0.
        4    1    3    3  502    0 -0.72389524946E+03 -0.92863848903E+03 -0.87205877215E+03  0.14652241776E+04  0.12699999809E+01 0. -1.
       -4    1    3    3    0  502  0.72389524946E+03  0.92863848903E+03  0.11155147901E+04  0.16219644372E+04  0.12699999809E+01 0.  1.
</event>
<event>
 5   0  0.1250276E-06  0.3077903E+04  0.7818609E-02  0.8221829E-01
        1   -1    0    0  501    0  0.00000000000E+00  0.00000000000E+00  0.15119834637E+04  0.15119834637E+04  0.50400001928E-02 0. -1.
       -1   -1    0    0    0  501  0.00000000000E+00  0.00000000000E+00 -0.15664001041E+04  0.15664001041E+04  0.50400001928E-02 0.  1.
    10030    2    1    2    0    0  0.00000000000E+00  0.00000000000E+00 -0.54416640453E+02  0.30783835678E+04  0.30779025683E+04 0.  0.
        5    1    3    3  502    0  0.71570103553E+03 -0.12026666725E+04  0.61298066263E+03  0.15278751520E+04  0.46999998093E+01 0. -1.
       -5    1    3    3    0  502 -0.71570103553E+03  0.12026666725E+04 -0.66739730309E+03  0.15505084158E+04  0.46999998093E+01 0.  1.
</event>
<event>
 5   0  0.3374790E-06  0.3032307E+04  0.7818609E-02  0.8234565E-01
        2   -1    0    0  501    0  0.00000000000E+00  0.00000000000E+00  0.24271716780E+04  0.24271716780E+04  0.25500000920E-02 0.  1.
       -2   -1    0    0    0  501  0.00000000000E+00  0.00000000000E+00 -0.94707813276E+03  0.94707813276E+03  0.25500000920E-02 0. -1.
    10030    2    1    2    0    0  0.00000000000E+00  0.00000000000E+00  0.14800935452E+04  0.33742498107E+04  0.30323068583E+04 0.  0.
        2    1    3    3  502    0 -0.32761978196E+02  0.66195710053E+03 -0.77734450233E+03  0.10215307266E+04  0.25500000920E-02 0. -1.
       -2    1    3    3    0  502  0.32761978196E+02 -0.66195710053E+03  0.22574380476E+04  0.23527190841E+04  0.25500000920E-02 0.  1.
</event>
<event>
 5   0  0.1171915E-06  0.3059920E+04  0.7818609E-02  0.8226824E-01
       -1   -1    0    0    0  501  0.00000000000E+00  0.00000000000E+00  0.16897875291E+04  0.16897875291E+04  0.50400001928E-02 0. -1.
        1   -1    0    0  501    0  0.00000000000E+00  0.00000000000E+00 -0.13852496422E+04  0.13852496422E+04  0.50400001928E-02 0.  1.
    10030    2    1    2    0    0  0.00000000000E+00  0.00000000000E+00  0.30453788686E+03  0.30750371713E+04  0.30599199794E+04 0.  0.
        2    1    3    3  502    0 -0.12521471148E+03 -0.15110016043E+04 -0.53616335532E+02  0.15171286312E+04  0.25500000920E-02 0.  1.
       -2    1    3    3    0  502  0.12521471148E+03  0.15110016043E+04  0.35815422240E+03  0.15579085401E+04  0.25500000920E-02 0. -1.
</event>
<event>
 5   0  0.3441897E-06  0.3089607E+04  0.7818609E-02  0.8218596E-01
       -2   -1    0    0    0  501  0.00000000000E+00  0.00000000000E+00  0.15272115688E+04  0.15272115688E+04  0.25500000920E-02 0.  1.
        2   -1    0    0  501    0  0.00000000000E+00  0.00000000000E+00 -0.15625981267E+04  0.15625981267E+04  0.25500000920E-02 0. -1.
    10030    2    1    2    0    0  0.00000000000E+00  0.00000000000E+00 -0.35386557946E+02  0.30898096955E+04  0.30896070536E+04 0.  0.
        5    1    3    3  502    0 -0.72981944582E+03  0.12213320403E+04  0.58409985148E+03  0.15380127121E+04  0.46999998093E+01 0. -1.
       -5    1    3    3    0  502  0.72981944582E+03 -0.12213320403E+04 -0.61948640942E+03  0.15517969834E+04  0.46999998093E+01 0.  1.
</event>
<event>
 5   0  0.1198763E-06  0.3084904E+04  0.7818609E-02  0.8219893E-01
       -1   -1    0    0    0  501  0.00000000000E+00  0.00000000000E+00  0.87286442618E+03  0.87286442620E+03  0.50400001928E-02 0.  1.
        1   -1    0    0  501    0  0.00000000000E+00  0.00000000000E+00 -0.27256899543E+04  0.27256899543E+04  0.50400001928E-02 0. -1.
    10030    2    1    2    0    0  0.00000000000E+00  0.00000000000E+00 -0.18528255281E+04  0.35985543805E+04  0.30849037573E+04 0.  0.
        1    1    3    3  502    0  0.12978997246E+03  0.14214051224E+04 -0.16085136298E+04  0.21504776344E+04  0.50400001928E-02 0. -1.
       -1    1    3    3    0  502 -0.12978997246E+03 -0.14214051224E+04 -0.24431189831E+03  0.14480767461E+04  0.50400001928E-02 0.  1.
</event>
<event>
 5   0  0.3340899E-06  0.3114877E+04  0.7818609E-02  0.8211667E-01
       -2   -1    0    0    0  501  0.00000000000E+00  0.00000000000E+00  0.13279059291E+04  0.13279059291E+04  0.25500000920E-02 0. -1.
        2   -1    0    0  501    0  0.00000000000E+00  0.00000000000E+00 -0.18266466034E+04  0.18266466034E+04  0.25500000920E-02 0.  1.
    10030    2    1    2    0    0  0.00000000000E+00  0.00000000000E+00 -0.49874067428E+03  0.31545525324E+04  0.31148771115E+04 0.  0.
        3    1    3    3  502    0 -0.30829667510E+03 -0.11487111328E+04  0.76893735972E+03  0.14162799087E+04  0.10100000352E+00 0. -1.
       -3    1    3    3    0  502  0.30829667510E+03  0.11487111328E+04 -0.12676780340E+04  0.17382726237E+04  0.10100000352E+00 0.  1.
</event>
<event>
 5   0  0.3441897E-06  0.3073260E+04  0.7818609E-02  0.8223115E-01
       -2   -1    0    0    0  501  0.00000000000E+00  0.00000000000E+00  0.12165808454E+04  0.12165808454E+04  0.25500000920E-02 0.  1.
        2   -1    0    0  501    0  0.00000000000E+00  0.00000000000E+00 -0.19408755999E+04  0.19408755999E+04  0.25500000920E-02 0. -1.
    10030    2    1    2    0    0  0.00000000000E+00  0.00000000000E+00 -0.72429475457E+03  0.31574564453E+04  0.30732602091E+04 0.  0.
        5    1    3    3  502    0  0.10170805051E+04  0.28958529981E+03 -0.15075434988E+04  0.18414727504E+04  0.46999998093E+01 0.  1.
       -5    1    3    3    0  502 -0.10170805051E+04 -0.28958529981E+03  0.78324874426E+03  0.13159836949E+04  0.46999998093E+01 0. -1.
</event>
<event>
 5   0  0.1198763E-06  0.3086434E+04  0.7818609E-02  0.8219471E-01
        1   -1    0    0  501    0  0.00000000000E+00  0.00000000000E+00  0.15822026638E+04  0.15822026639E+04  0.50400001928E-02 0. -1.
       -1   -1    0    0    0  501  0.00000000000E+00  0.00000000000E+00 -0.15051918384E+04  0.15051918384E+04  0.50400001928E-02 0.  1.
    10030    2    1    2    0    0  0.00000000000E+00  0.00000000000E+00  0.77010825440E+02  0.30873945023E+04  0.30864338881E+04 0.  0.
        1    1    3    3  502    0 -0.25119846127E+03  0.15059175459E+04 -0.18657620642E+03  0.15380828986E+04  0.50400001928E-02 0. -1.
       -1    1    3    3    0  502  0.25119846127E+03 -0.15059175459E+04  0.26358703186E+03  0.15493116037E+04  0.50400001928E-02 0.  1.
</event>
<event>
 5   0  0.3374790E-06  0.2548201E+04  0.7818609E-02  0.8386012E-01
        2   -1    0    0  501    0  0.00000000000E+00  0.00000000000E+00  0.10936547167E+04  0.10936547167E+04  0.25500000920E-02 0.  1.
       -2   -1    0    0    0  501  0.00000000000E+00  0.00000000000E+00 -0.14843187596E+04  0.14843187596E+04  0.25500000920E-02 0. -1.
    10030    2    1    2    0    0  0.00000000000E+00  0.00000000000E+00 -0.39066404292E+03  0.25779734763E+04  0.25482011008E+04 0.  0.
        2    1    3    3  502    0  0.22083180252E+03  0.12545239108E+04 -0.16789907238E+03  0.12848295709E+04  0.25500000920E-02 0. -1.
       -2    1    3    3    0  502 -0.22083180252E+03 -0.12545239108E+04 -0.22276497054E+03  0.12931439054E+04  0.25500000920E-02 0.  1.
</event>
<event>
 5   0  0.3441897E-06  0.3100609E+04  0.7818609E-02  0.8215571E-01
        2   -1    0    0  501    0  0.00000000000E+00  0.00000000000E+00  0.14108916158E+04  0.14108916158E+04  0.25500000920E-02 0. -1.
       -2   -1    0    0    0  501  0.00000000000E+00  0.00000000000E+00 -0.17034931946E+04  0.17034931946E+04  0.25500000920E-02 0.  1.
    10030    2    1    2    0    0  0.00000000000E+00  0.00000000000E+00 -0.29260157878E+03  0.31143848104E+04  0.31006091439E+04 0.  0.
        5    1    3    3  502    0 -0.54614447070E+03  0.44957307295E+03 -0.15319341964E+04  0.16873749444E+04  0.46999998093E+01 0.  1.
       -5    1    3    3    0  502  0.54614447070E+03 -0.44957307295E+03  0.12393326176E+04  0.14270098661E+04  0.46999998093E+01 0. -1.
</event>
<event>
 5   0  0.1171915E-06  0.3114308E+04  0.7818609E-02  0.8211822E-01
       -1   -1    0    0    0  501  0.00000000000E+00  0.00000000000E+00  0.10878596607E+04  0.10878596608E+04  0.50400001928E-02 0.  1.
        1   -1    0    0  501    0  0.00000000000E+00  0.00000000000E+00 -0.22288987282E+04  0.22288987282E+04  0.50400001928E-02 0. -1.
    10030    2    1    2    0    0  0.00000000000E+00  0.00000000000E+00 -0.11410390675E+04  0.33167583890E+04  0.31143082791E+04 0.  0.
        2    1    3    3  502    0  0.13718669821E+04 -0.73464401666E+03 -0.62893168215E+03  0.16784742800E+04  0.25500000920E-02 0.  1.
       -2    1    3    3    0  502 -0.13718669821E+04  0.73464401666E+03 -0.51210738531E+03  0.16382841090E+04  0.25500000920E-02 0. -1.
</event>
<event>
 5   0  0.3441897E-06  0.3102239E+04  0.7818609E-02  0.8215124E-01
        2   -1    0    0  501    0  0.00000000000E+00  0.00000000000E+00  0.17430126495E+04  0.17430126495E+04  0.25500000920E-02 0. -1.
       -2   -1    0    0    0  501  0.00000000000E+00  0.00000000000E+00 -0.13803523655E+04  0.13803523655E+04  0.25500000920E-02 0.  1.
    10030    2    1    2    0    0  0.00000000000E+00  0.00000000000E+00  0.36266028403E+03  0.31233650151E+04  0.31022389553E+04 0.  0.
        5    1    3    3  502    0 -0.87959830254E+03  0.17560233497E+03 -0.10927599669E+04  0.14137453056E+04  0.46999998093E+01 0.  1.
       -5    1    3    3    0  502  0.87959830254E+03 -0.17560233497E+03  0.14554202510E+04  0.17096197094E+04  0.46999998093E+01 0. -1.
</event>
<event>
 5   0  0.1235960E-06  0.3103523E+04  0.7818609E-02  0.8214772E-01
       -1   -1    0    0    0  501  0.00000000000E+00  0.00000000000E+00  0.18800761043E+04  0.18800761043E+04  0.50400001928E-02 0.  1.
        1   -1    0    0  501    0  0.00000000000E+00  0.00000000000E+00 -0.12807801318E+04  0.12807801318E+04  0.50400001928E-02 0. -1.
    10030    2    1    2    0    0  0.00000000000E+00  0.00000000000E+00  0.59929597246E+03  0.31608562361E+04  0.31035232370E+04 0.  0.
        4    1    3    3  502    0 -0.12733060829E+04 -0.60938301965E+03 -0.35669989334E+03  0.14559850522E+04  0.12699999809E+01 0. -1.
       -4    1    3    3    0  502  0.12733060829E+04  0.60938301965E+03  0.95599586580E+03  0.17048711839E+04  0.12699999809E+01 0.  1.
</event>
<event>
 5   0  0.1250276E-06  0.3046496E+04  0.7818609E-02  0.8230577E-01
       -1   -1    0    0    0  501  0.00000000000E+00  0.00000000000E+00  0.98502703256E+03  0.98502703258E+03  0.50400001928E-02 0.  1.
        1   -1    0    0  501    0  0.00000000000E+00  0.00000000000E+00 -0.23555542177E+04  0.23555542177E+04  0.50400001928E-02 0. -1.
    10030    2    1    2    0    0  0.00000000000E+00  0.00000000000E+00 -0.13705271852E+04  0.33405812503E+04  0.30464960733E+04 0.  0.
        5    1    3    3  502    0 -0.89267390384E+03  0.64305774656E+03 -0.18404656859E+04  0.21442308633E+04  0.46999998093E+01 0. -1.
       -5    1    3    3    0  502  0.89267390384E+03 -0.64305774656E+03  0.46993850077E+03  0.11963503870E+04  0.46999998093E+01 0.  1.
</event>
<event>
 5   0  0.1250276E-06  0.3084905E+04  0.7818609E-02  0.8219893E-01
        1   -1    0    0  501    0  0.00000000000E+00  0.00000000000E+00  0.16332348582E+04  0.16332348582E+04  0.50400001928E-02 0. -1.
       -1   -1    0    0    0  501  0.00000000000E+00  0.00000000000E+00 -0.14567161950E+04  0.14567161950E+04  0.50400001928E-02 0.  1.
    10030    2    1    2    0    0  0.00000000000E+00  0.00000000000E+00  0.17651866320E+03  0.30899510532E+04  0.30849049698E+04 0.  0.
        5    1    3    3  502    0  0.76924976603E+03 -0.39000038221E+03  0.13691364756E+04  0.16181477929E+04  0.46999998093E+01 0. -1.
       -5    1    3    3    0  502 -0.76924976603E+03  0.39000038221E+03 -0.11926178124E+04  0.14718032603E+04  0.46999998093E+01 0.  1.
</event>
<event>
 5   0  0.1109562E-06  0.3097711E+04  0.7818609E-02  0.8216366E-01
        3   -1    0    0  501    0  0.00000000000E+00  0.00000000000E+00  0.18341758418E+04  0.18341758446E+04  0.10100000352E+00 0.  1.
       -3   -1    0    0    0  501  0.00000000000E+00  0.00000000000E+00 -0.13079190942E+04  0.13079190981E+04  0.10100000352E+00 0. -1.
    10030    2    1    2    0    0  0.00000000000E+00  0.00000000000E+00  0.52625674757E+03  0.31420949427E+04  0.30977111654E+04 0.  0.
        5    1    3    3  502    0  0.12680499642E+04  0.70035844107E+03 -0.29288514387E+03  0.14779230207E+04  0.46999998093E+01 0. -1.
       -5    1    3    3    0  502 -0.12680499642E+04 -0.70035844107E+03  0.81914189144E+03  0.16641719220E+04  0.46999998093E+01 0.  1.
</event>
<event>
 5   0  0.3340899E-06  0.3094009E+04  0.7818609E-02  0.8217384E-01
        2   -1    0    0  501    0  0.00000000000E+00  0.00000000000E+00  0.18948828559E+04  0.18948828559E+04  0.25500000920E-02 0. -1.
       -2   -1    0    0    0  501  0.00000000000E+00  0.00000000000E+00 -0.12629925697E+04  0.12629925697E+04  0.25500000920E-02 0.  1.
    10030    2    1    2    0    0  0.00000000000E+00  0.00000000000E+00  0.63189028616E+03  0.31578754256E+04  0.30940090287E+04 0.  0.
        3    1    3    3  502    0 -0.35035061793E+03  0.30390847054E+03 -0.11903636926E+04  0.12775255946E+04  0.10100000352E+00 0.  1.
       -3    1    3    3    0  502  0.35035061793E+03 -0.30390847054E+03  0.18222539787E+04  0.18803498311E+04  0.10100000352E+00 0. -1.
</event>
<event>
 5   0  0.1250276E-06  0.2766214E+04  0.7818609E-02  0.8313835E-01
       -1   -1    0    0    0  501  0.00000000000E+00  0.00000000000E+00  0.99453492476E+03  0.99453492478E+03  0.50400001928E-02 0. -1.
        1   -1    0    0  501    0  0.00000000000E+00  0.00000000000E+00 -0.19234968660E+04  0.19234968660E+04  0.50400001928E-02 0.  1.
    10030    2    1    2    0    0  0.00000000000E+00  0.00000000000E+00 -0.92896194123E+03  0.29180317908E+04  0.27662138825E+04 0.  0.
        5    1    3    3  502    0  0.66682221287E+02  0.10691534506E+04  0.45842228942E+03  0.11652075802E+04  0.46999998093E+01 0. -1.
       -5    1    3    3    0  502 -0.66682221287E+02 -0.10691534506E+04 -0.13873842306E+04  0.17528242105E+04  0.46999998093E+01 0.  1.
</event>
<event>
 5   0  0.1250276E-06  0.3046370E+04  0.7818609E-02  0.8230612E-01
       -1   -1    0    0    0  501  0.00000000000E+00  0.00000000000E+00  0.12987656908E+04  0.12987656908E+04  0.50400001928E-02 0. -1.
        1   -1    0    0  501    0  0.00000000000E+00  0.00000000000E+00 -0.17863828008E+04  0.17863828008E+04  0.50400001928E-02 0.  1.
    10030    2    1    2    0    0  0.00000000000E+00  0.00000000000E+00 -0.48761711000E+03  0.30851484916E+04  0.30463700973E+04 0.  0.
        5    1    3    3  502    0  0.51513894075E+03  0.75233026202E+03 -0.14794635901E+04  0.17378732853E+04  0.46999998093E+01 0.  1.
       -5    1    3    3    0  502 -0.51513894075E+03 -0.75233026202E+03  0.99184648010E+03  0.13472752063E+04  0.46999998093E+01 0. -1.
</event>
<event>
 5   0  0.3340899E-06  0.2949116E+04  0.7818609E-02  0.8258412E-01
        2   -1    0    0  501    0  0.00000000000E+00  0.00000000000E+00  0.19166461691E+04  0.19166461691E+04  0.25500000920E-02 0. -1.
       -2   -1    0    0    0  501  0.00000000000E+00  0.00000000000E+00 -0.11344406631E+04  0.11344406631E+04  0.25500000920E-02 0.  1.
    10030    2    1    2    0    0  0.00000000000E+00  0.00000000000E+00  0.78220550607E+03  0.30510868322E+04  0.29491160377E+04 0.  0.
        3    1    3    3  502    0 -0.62169966361E+03 -0.58717794910E+03  0.16339015576E+04  0.18441590837E+04  0.10100000352E+00 0. -1.
       -3    1    3    3    0  502  0.62169966361E+03  0.58717794910E+03 -0.85169605157E+03  0.12069277485E+04  0.10100000352E+00 0.  1.
</event>
<event>
 5   0  0.3445410E-06  0.2946038E+04  0.7818609E-02  0.8259310E-01
       -2   -1    0    0    0  501  0.00000000000E+00  0.00000000000E+00  0.13510373297E+04  0.13510373297E+04  0.25500000920E-02 0.  1.
        2   -1    0    0  501    0  0.00000000000E+00  0.00000000000E+00 -0.16060144977E+04  0.16060144977E+04  0.25500000920E-02 0. -1.
    10030    2    1    2    0    0  0.00000000000E+00  0.00000000000E+00 -0.25497716798E+03  0.29570518275E+04  0.29460383830E+04 0.  0.
        1    1    3    3  502    0  0.42088251214E+03 -0.21845754774E+03  0.12723287873E+04  0.13578241169E+04  0.50400001928E-02 0.  1.
       -1    1    3    3    0  502 -0.42088251214E+03  0.21845754774E+03 -0.15273059553E+04  0.15992277106E+04  0.50400001928E-02 0. -1.
</event>
<event>
 5   0  0.3445959E-06  0.3124432E+04  0.7818609E-02  0.8209065E-01
        2   -1    0    0  501    0  0.00000000000E+00  0.00000000000E+00  0.17339297004E+04  0.17339297004E+04  0.25500000920E-02 0.  1.
       -2   -1    0    0    0  501  0.00000000000E+00  0.00000000000E+00 -0.14075074124E+04  0.14075074124E+04  0.25500000920E-02 0. -1.
    10030    2    1    2    0    0  0.00000000000E+00  0.00000000000E+00  0.32642228800E+03  0.31414371129E+04  0.31244320482E+04 0.  0.
        4    1    3    3  502    0 -0.71839471053E+03 -0.13556163171E+04  0.45931481865E+03  0.16014862705E+04  0.12699999809E+01 0.  1.
       -4    1    3    3    0  502  0.71839471053E+03  0.13556163171E+04 -0.13289253065E+03  0.15399508423E+04  0.12699999809E+01 0. -1.
</event>
<event>
 5   0  0.1171915E-06  0.2744165E+04  0.7818609E-02  0.8320816E-01
        1   -1    0    0  501    0  0.00000000000E+00  0.00000000000E+00  0.16221741343E+04  0.16221741343E+04  0.50400001928E-02 0. -1.
       -1   -1    0    0    0  501  0.00000000000E+00  0.00000000000E+00 -0.11605474036E+04  0.11605474037E+04  0.50400001928E-02 0.  1.
    10030    2    1    2    0    0  0.00000000000E+00  0.00000000000E+00  0.46162673064E+03  0.27827215380E+04  0.27441647034E+04 0.  0.
        2    1    3    3  502    0 -0.47173048862E+03  0.10960142124E+04  0.91770302673E+03  0.15053091553E+04  0.25500000920E-02 0. -1.
       -2    1    3    3    0  502  0.47173048862E+03 -0.10960142124E+04 -0.45607629609E+03  0.12774123827E+04  0.25500000920E-02 0.  1.
</event>
<event>
 5   0  0.3441897E-06  0.3039921E+04  0.7818609E-02  0.8232422E-01
       -2   -1    0    0    0  501  0.00000000000E+00  0.00000000000E+00  0.23511576329E+04  0.23511576329E+04  0.25500000920E-02 0.  1.
        2   -1    0    0  501    0  0.00000000000E+00  0.00000000000E+00 -0.98261391963E+03  0.98261391963E+03  0.25500000920E-02 0. -1.
    10030    2    1    2    0    0  0.00000000000E+00  0.00000000000E+00  0.13685437133E+04  0.33337715525E+04  0.30399211946E+04 0.  0.
        5    1    3    3  502    0 -0.98202454554E+03  0.40244281878E+03  0.18775336478E+04  0.21567306552E+04  0.46999998093E+01 0.  1.
       -5    1    3    3    0  502  0.98202454554E+03 -0.40244281878E+03 -0.50898993457E+03  0.11770408973E+04  0.46999998093E+01 0. -1.
</event>
<event>
 5   0  0.1235960E-06  0.3142692E+04  0.7818609E-02  0.8204118E-01
       -1   -1    0    0    0  501  0.00000000000E+00  0.00000000000E+00  0.16275257118E+04  0.16275257118E+04  0.50400001928E-02 0. -1.
        1   -1    0    0  501    0  0.00000000000E+00  0.00000000000E+00 -0.15171059632E+04  0.15171059632E+04  0.50400001928E-02 0.  1.
    10030    2    1    2    0    0  0.00000000000E+00  0.00000000000E+00  0.11041974857E+03  0.31446316750E+04  0.31426924525E+04 0.  0.
        4    1    3    3  502    0 -0.12327036867E+04  0.91791812939E+03  0.38251304213E+03  0.15838086727E+04  0.12699999809E+01 0. -1.
       -4    1    3    3    0  502  0.12327036867E+04 -0.91791812939E+03 -0.27209329356E+03  0.15608230024E+04  0.12699999809E+01 0.  1.
</event>
<event>
 5   0  0.3445410E-06  0.3093657E+04  0.7818609E-02  0.8217481E-01
       -2   -1    0    0    0  501  0.00000000000E+00  0.00000000000E+00  0.10678015085E+04  0.10678015085E+04  0.25500000920E-02 0. -1.
        2   -1    0    0  501    0  0.00000000000E+00  0.00000000000E+00 -0.22407521703E+04  0.22407521703E+04  0.25500000920E-02 0.  1.
    10030    2    1    2    0    0  0.00000000000E+00  0.00000000000E+00 -0.11729506618E+04  0.33085536789E+04  0.30936570901E+04 0.  0.
        1    1    3    3  502    0  0.72298994747E+03 -0.11307945488E+04 -0.14088280172E+04  0.19458178635E+04  0.50400001928E-02 0.  1.
       -1    1    3    3    0  502 -0.72298994747E+03  0.11307945488E+04  0.23587735543E+03  0.13627358154E+04  0.50400001928E-02 0. -1.
</event>
<event>
 5   0  0.3441897E-06  0.3114047E+04  0.7818609E-02  0.8211893E-01
        2   -1    0    0  501    0  0.00000000000E+00  0.00000000000E+00  0.16330825498E+04  0.16330825498E+04  0.25500000920E-02 0. -1.
       -2   -1    0    0    0  501  0.00000000000E+00  0.00000000000E+00 -0.14845070547E+04  0.14845070547E+04  0.25500000920E-02 0.  1.
    10030    2    1    2    0    0  0.00000000000E+00  0.00000000000E+00  0.14857549509E+03  0.31175896046E+04  0.31140472483E+04 0.  0.
        5    1    3    3  502    0 -0.13451413033E+04 -0.77994926266E+03  0.15546326068E+03  0.15626633974E+04  0.46999998093E+01 0.  1.
       -5    1    3    3    0  502  0.13451413033E+04  0.77994926266E+03 -0.68877655903E+01  0.15549262071E+04  0.46999998093E+01 0. -1.
</event>
<event>
 5   0  0.3374790E-06  0.3221899E+04  0.7818609E-02  0.8183058E-01
        2   -1    0    0  501    0  0.00000000000E+00  0.00000000000E+00  0.16321509536E+04  0.16321509536E+04  0.25500000920E-02 0.  1.
       -2   -1    0    0    0  501  0.00000000000E+00  0.00000000000E+00 -0.15900231923E+04  0.15900231923E+04  0.25500000920E-02 0. -1.
    10030    2    1    2    0    0  0.00000000000E+00  0.00000000000E+00  0.42127761317E+02  0.32221741460E+04  0.32218987381E+04 0.  0.
        2    1    3    3  502    0 -0.66280336698E+03  0.13201448463E+04 -0.62169406150E+03  0.16026834449E+04  0.25500000920E-02 0. -1.
       -2    1    3    3    0  502  0.66280336698E+03 -0.13201448463E+04  0.66382182281E+03  0.16194907011E+04  0.25500000920E-02 0.  1.
</event>
<event>
 5   0  0.1198763E-06  0.3088188E+04  0.7818609E-02  0.8218987E-01
        1   -1    0    0  501    0  0.00000000000E+00  0.00000000000E+00  0.19167538766E+04  0.19167538766E+04  0.50400001928E-02 0.  1.
       -1   -1    0    0    0  501  0.00000000000E+00  0.00000000000E+00 -0.12438875079E+04  0.12438875079E+04  0.50400001928E-02 0. -1.
    10030    2    1    2    0    0  0.00000000000E+00  0.00000000000E+00  0.67286636872E+03  0.31606413846E+04  0.30881879495E+04 0.  0.
        1    1    3    3  502    0  0.11948008351E+04 -0.99241596007E+02  0.13323134059E+04  0.17923328211E+04  0.50400001928E-02 0.  1.
       -1    1    3    3    0  502 -0.11948008351E+04  0.99241596007E+02 -0.65944703719E+03  0.13683085635E+04  0.50400001928E-02 0. -1.
</event>
<event>
 5   0  0.1235960E-06  0.3049024E+04  0.7818609E-02  0.8229869E-01
        1   -1    0    0  501    0  0.00000000000E+00  0.00000000000E+00  0.22221630902E+04  0.22221630902E+04  0.50400001928E-02 0.  1.
       -1   -1    0    0    0  501  0.00000000000E+00  0.00000000000E+00 -0.10458897055E+04  0.10458897056E+04  0.50400001928E-02 0. -1.
    10030    2    1    2    0    0  0.00000000000E+00  0.00000000000E+00  0.11762733847E+04  0.32680527958E+04  0.30490244342E+04 0.  0.
        4    1    3    3  502    0 -0.14883057748E+04  0.28561395977E+02  0.23546198495E+03  0.15070878514E+04  0.12699999809E+01 0. -1.
       -4    1    3    3    0  502  0.14883057748E+04 -0.28561395977E+02  0.94081139973E+03  0.17609649444E+04  0.12699999809E+01 0.  1.
</event>
<event>
 5   0  0.3374790E-06  0.3057822E+04  0.7818609E-02  0.8227410E-01
        2   -1    0    0  501    0  0.00000000000E+00  0.00000000000E+00  0.19569666751E+04  0.19569666751E+04  0.25500000920E-02 0. -1.
       -2   -1    0    0    0  501  0.00000000000E+00  0.00000000000E+00 -0.11944856558E+04  0.11944856558E+04  0.25500000920E-02 0.  1.
    10030    2    1    2    0    0  0.00000000000E+00  0.00000000000E+00  0.76248101933E+03  0.31514523309E+04  0.30578218537E+04 0.  0.
        2    1    3    3  502    0 -0.84919627418E+03  0.64667727390E+03 -0.74692022119E+03  0.13027722846E+04  0.25500000920E-02 0.  1.
       -2    1    3    3    0  502  0.84919627418E+03 -0.64667727390E+03  0.15094012405E+04  0.18486800463E+04  0.25500000920E-02 0. -1.
</event>
<event>
 5   0  0.3441897E-06  0.3090146E+04  0.7818609E-02  0.8218447E-01
        2   -1    0    0  501    0  0.00000000000E+00  0.00000000000E+00  0.19193470915E+04  0.19193470915E+04  0.25500000920E-02 0. -1.
       -2   -1    0    0    0  501  0.00000000000E+00  0.00000000000E+00 -0.12437827734E+04  0.12437827734E+04  0.25500000920E-02 0.  1.
    10030    2    1    2    0    0  0.00000000000E+00  0.00000000000E+00  0.67556431811E+03  0.31631298650E+04  0.30901461769E+04 0.  0.
        5    1    3    3  502    0  0.87901459183E+03 -0.84428636591E+03 -0.63424701870E+03  0.13739641520E+04  0.46999998093E+01 0.  1.
       -5    1    3    3    0  502 -0.87901459183E+03  0.84428636591E+03  0.13098113368E+04  0.17891657129E+04  0.46999998093E+01 0. -1.
</event>
<event>
 5   0  0.1198763E-06  0.2866741E+04  0.7818609E-02  0.8282842E-01
        1   -1    0    0  501    0  0.00000000000E+00  0.00000000000E+00  0.19630018057E+04  0.19630018057E+04  0.50400001928E-02 0. -1.
       -1   -1    0    0    0  501  0.00000000000E+00  0.00000000000E+00 -0.10466374921E+04  0.10466374921E+04  0.50400001928E-02 0.  1.
    10030    2    1    2    0    0  0.00000000000E+00  0.00000000000E+00  0.91636431356E+03  0.30096392978E+04  0.28667412070E+04 0.  0.
        1    1    3    3  502    0  0.45417834956E+03  0.13496419439E+04  0.62985679901E+03  0.15570905359E+04  0.50400001928E-02 0. -1.
       -1    1    3    3    0  502 -0.45417834956E+03 -0.13496419439E+04  0.28650751455E+03  0.14525487619E+04  0.50400001928E-02 0.  1.
</event>
<event>
 5   0  0.1171915E-06  0.3011210E+04  0.7818609E-02  0.8240537E-01
        1   -1    0    0  501    0  0.00000000000E+00  0.00000000000E+00  0.16701586531E+04  0.16701586531E+04  0.50400001928E-02 0. -1.
       -1   -1    0    0    0  501  0.00000000000E+00  0.00000000000E+00 -0.13572639686E+04  0.13572639686E+04  0.50400001928E-02 0.  1.
    10030    2    1    2    0    0  0.00000000000E+00  0.00000000000E+00  0.31289468455E+03  0.30274226217E+04  0.30112098311E+04 0.  0.
        2    1    3    3  502    0  0.14032934766E+04  0.54370346995E+03  0.11148388132E+03  0.15090641804E+04  0.25500000920E-02 0. -1.
       -2    1    3    3    0  502 -0.14032934766E+04 -0.54370346995E+03  0.20141080323E+03  0.15183584413E+04  0.25500000920E-02 0.  1.
</event>
<event>
 5   0  0.3445959E-06  0.3115153E+04  0.7818609E-02  0.8211592E-01
       -2   -1    0    0    0  501  0.00000000000E+00  0.00000000000E+00  0.17268648717E+04  0.17268648717E+04  0.25500000920E-02 0. -1.
        2   -1    0    0  501    0  0.00000000000E+00  0.00000000000E+00 -0.14048836959E+04  0.14048836959E+04  0.25500000920E-02 0.  1.
    10030    2    1    2    0    0  0.00000000000E+00  0.00000000000E+00  0.32198117582E+03  0.31317485675E+04  0.31151528394E+04 0.  0.
        4    1    3    3  502    0 -0.15380849563E+04  0.11700380545E+03  0.37812145246E+03  0.15881979313E+04  0.12699999809E+01 0. -1.
       -4    1    3    3    0  502  0.15380849563E+04 -0.11700380545E+03 -0.56140276637E+02  0.15435506363E+04  0.12699999809E+01 0.  1.
</event>
<event>
 5   0  0.1109562E-06  0.2966436E+04  0.7818609E-02  0.8253381E-01
        3   -1    0    0  501    0  0.00000000000E+00  0.00000000000E+00  0.12509943850E+04  0.12509943891E+04  0.10100000352E+00 0. -1.
       -3   -1    0    0    0  501  0.00000000000E+00  0.00000000000E+00 -0.17585490511E+04  0.17585490540E+04  0.10100000352E+00 0.  1.
    10030    2    1    2    0    0  0.00000000000E+00  0.00000000000E+00 -0.50755466606E+03  0.30095434431E+04  0.29664355710E+04 0.  0.
        4    1    3    3  502    0 -0.74316790655E+03  0.11076658341E+04 -0.91182561378E+03  0.16157505068E+04  0.12699999809E+01 0.  1.
       -4    1    3    3    0  502  0.74316790655E+03 -0.11076658341E+04  0.40427094772E+03  0.13937929363E+04  0.12699999809E+01 0. -1.
</event>
<event>
 5   0  0.3445959E-06  0.3067155E+04  0.7818609E-02  0.8224810E-01
       -2   -1    0    0    0  501  0.00000000000E+00  0.00000000000E+00  0.11670020889E+04  0.11670020889E+04  0.25500000920E-02 0. -1.
        2   -1    0    0  501    0  0.00000000000E+00  0.00000000000E+00 -0.20153003995E+04  0.20153003995E+04  0.25500000920E-02 0.  1.
    10030    2    1    2    0    0  0.00000000000E+00  0.00000000000E+00 -0.84829831059E+03  0.31823024883E+04  0.30671548874E+04 0.  0.
        4    1    3    3  502    0 -0.28044030399E+03 -0.57545344950E+03  0.10217486571E+04  0.12057219281E+04  0.12699999809E+01 0. -1.
       -4    1    3    3    0  502  0.28044030399E+03  0.57545344950E+03 -0.18700469677E+04  0.19765805602E+04  0.12699999809E+01 0.  1.
</event>
<event>
 5   0  0.3445959E-06  0.3110809E+04  0.7818609E-02  0.8212778E-01
        2   -1    0    0  501    0  0.00000000000E+00  0.00000000000E+00  0.14087155876E+04  0.14087155876E+04  0.25500000920E-02 0.  1.
       -2   -1    0    0    0  501  0.00000000000E+00  0.00000000000E+00 -0.17173676788E+04  0.17173676788E+04  0.25500000920E-02 0. -1.
    10030    2    1    2    0    0  0.00000000000E+00  0.00000000000E+00 -0.30865209128E+03  0.31260832664E+04  0.31108086529E+04 0.  0.
        4    1    3    3  502    0 -0.63103919776E+03  0.11437802779E+03 -0.15783189392E+04  0.17036387789E+04  0.12699999809E+01 0. -1.
       -4    1    3    3    0  502  0.63103919776E+03 -0.11437802779E+03  0.12696668479E+04  0.14224444875E+04  0.12699999809E+01 0.  1.
</event>
<event>
 5   0  0.3340899E-06  0.3174871E+04  0.7818609E-02  0.8195485E-01
        2   -1    0    0  501    0  0.00000000000E+00  0.00000000000E+00  0.17783814101E+04  0.17783814101E+04  0.25500000920E-02 0. -1.
       -2   -1    0    0    0  501  0.00000000000E+00  0.00000000000E+00 -0.14169919668E+04  0.14169919668E+04  0.25500000920E-02 0.  1.
    10030    2    1    2    0    0  0.00000000000E+00  0.00000000000E+00  0.36138944331E+03  0.31953733768E+04  0.31748714443E+04 0.  0.
        3    1    3    3  502    0 -0.11981374020E+04  0.86868406250E+02  0.12251207178E+04  0.17158088872E+04  0.10100000352E+00 0. -1.
       -3    1    3    3    0  502  0.11981374020E+04 -0.86868406250E+02 -0.86373127447E+03  0.14795644896E+04  0.10100000352E+00 0.  1.
</event>
<event>
 5   0  0.1171915E-06  0.3226196E+04  0.7818609E-02  0.8181933E-01
       -1   -1    0    0    0  501  0.00000000000E+00  0.00000000000E+00  0.15084677147E+04  0.15084677147E+04  0.50400001928E-02 0.  1.
        1   -1    0    0  501    0  0.00000000000E+00  0.00000000000E+00 -0.17249858427E+04  0.17249858427E+04  0.50400001928E-02 0. -1.
    10030    2    1    2    0    0  0.00000000000E+00  0.00000000000E+00 -0.21651812800E+03  0.32334535575E+04  0.32261961826E+04 0.  0.
        2    1    3    3  502    0 -0.49098523783E+03 -0.89473794265E+03  0.11437359147E+04  0.15328908416E+04  0.25500000920E-02 0.  1.
       -2    1    3    3    0  502  0.49098523783E+03  0.89473794265E+03 -0.13602540427E+04  0.17005627158E+04  0.25500000920E-02 0. -1.
</event>
<event>
 5   0  0.1198763E-06  0.3106938E+04  0.7818609E-02  0.8213836E-01
        1   -1    0    0  501    0  0.00000000000E+00  0.00000000000E+00  0.25938979835E+04  0.25938979835E+04  0.50400001928E-02 0.  1.
       -1   -1    0    0    0  501  0.00000000000E+00  0.00000000000E+00 -0.93036274912E+03  0.93036274913E+03  0.50400001928E-02 0. -1.
    10030    2    1    2    0    0  0.00000000000E+00  0.00000000000E+00  0.16635352344E+04  0.35242607327E+04  0.31069380804E+04 0.  0.
        1    1    3    3  502    0 -0.87249421714E+03 -0.37112088689E+02  0.22891112122E+04  0.24500313484E+04  0.50400001928E-02 0.  1.
       -1    1    3    3    0  502  0.87249421714E+03  0.37112088689E+02 -0.62557597780E+03  0.10742293843E+04  0.50400001928E-02 0. -1.
</event>
<event>
 5   0  0.1250276E-06  0.3113575E+04  0.7818609E-02  0.8212022E-01
        1   -1    0    0  501    0  0.00000000000E+00  0.00000000000E+00  0.19427109872E+04  0.19427109872E+04  0.50400001928E-02 0. -1.
       -1   -1    0    0    0  501  0.00000000000E+00  0.00000000000E+00 -0.12475287184E+04  0.12475287184E+04  0.50400001928E-02 0.  1.
    10030    2    1    2    0    0  0.00000000000E+00  0.00000000000E+00  0.69518226887E+03  0.31902397056E+04  0.31135752749E+04 0.  0.
        5    1    3    3  502    0 -0.11053753297E+04 -0.10787758389E+04  0.54720521228E+03  0.16386175772E+04  0.46999998093E+01 0. -1.
       -5    1    3    3    0  502  0.11053753297E+04  0.10787758389E+04  0.14797705659E+03  0.15516221284E+04  0.46999998093E+01 0.  1.
</event>
<event>
 5   0  0.3445410E-06  0.3089564E+04  0.7818609E-02  0.8218608E-01
       -2   -1    0    0    0  501  0.00000000000E+00  0.00000000000E+00  0.21003371748E+04  0.21003371748E+04  0.25500000920E-02 0.  1.
        2   -1    0    0  501    0  0.00000000000E+00  0.00000000000E+00 -0.11361753340E+04  0.11361753340E+04  0.25500000920E-02 0. -1.
    10030    2    1    2    0    0  0.00000000000E+00  0.00000000000E+00  0.96416184084E+03  0.32365125088E+04  0.30895639117E+04 0.  0.
        1    1    3    3  502    0  0.10885366440E+03 -0.73949225504E+03  0.18982888532E+04  0.20401466824E+04  0.50400001928E-02 0.  1.
       -1    1    3    3    0  502 -0.10885366440E+03  0.73949225504E+03 -0.93412701233E+03  0.11963658265E+04  0.50400001928E-02 0. -1.
</event>
<event>
 5   0  0.3441897E-06  0.3098593E+04  0.7818609E-02  0.8216124E-01
       -2   -1    0    0    0  501  0.00000000000E+00  0.00000000000E+00  0.13185974344E+04  0.13185974344E+04  0.25500000920E-02 0.  1.
        2   -1    0    0  501    0  0.00000000000E+00  0.00000000000E+00 -0.18203586771E+04  0.18203586771E+04  0.25500000920E-02 0. -1.
    10030    2    1    2    0    0  0.00000000000E+00  0.00000000000E+00 -0.50176124262E+03  0.31389561115E+04  0.30985934108E+04 0.  0.
        5    1    3    3  502    0  0.63682274506E+03  0.19233844697E+03 -0.16683068873E+04  0.17960532417E+04  0.46999998093E+01 0. -1.
       -5    1    3    3    0  502 -0.63682274506E+03 -0.19233844697E+03  0.11665456446E+04  0.13429028698E+04  0.46999998093E+01 0.  1.
</event>
<event>
 5   0  0.3445959E-06  0.3128248E+04  0.7818609E-02  0.8208028E-01
       -2   -1    0    0    0  501  0.00000000000E+00  0.00000000000E+00  0.19593916702E+04  0.19593916702E+04  0.25500000920E-02 0. -1.
        2   -1    0    0  501    0  0.00000000000E+00  0.00000000000E+00 -0.12485932490E+04  0.12485932490E+04  0.25500000920E-02 0.  1.
    10030    2    1    2    0    0  0.00000000000E+00  0.00000000000E+00  0.71079842123E+03  0.32079849191E+04  0.31282475679E+04 0.  0.
        4    1    3    3  502    0 -0.71870013158E+03 -0.37503792503E+03 -0.10163432248E+04  0.13000532635E+04  0.12699999809E+01 0.  1.
       -4    1    3    3    0  502  0.71870013158E+03  0.37503792503E+03  0.17271416460E+04  0.19079316557E+04  0.12699999809E+01 0. -1.
</event>
<event>
 5   0  0.1250276E-06  0.3115567E+04  0.7818609E-02  0.8211479E-01
        1   -1    0    0  501    0  0.00000000000E+00  0.00000000000E+00  0.94794578398E+03  0.94794578399E+03  0.50400001928E-02 0. -1.
       -1   -1    0    0    0  501  0.00000000000E+00  0.00000000000E+00 -0.25599448519E+04  0.25599448519E+04  0.50400001928E-02 0.  1.
    10030    2    1    2    0    0  0.00000000000E+00  0.00000000000E+00 -0.16119990680E+04  0.35078906359E+04  0.31155666770E+04 0.  0.
        5    1    3    3  502    0 -0.14672547555E+04  0.21558703696E+03 -0.13428568940E+04  0.20006501483E+04  0.46999998093E+01 0.  1.
       -5    1    3    3    0  502  0.14672547555E+04 -0.21558703696E+03 -0.26914217393E+03  0.15072404877E+04  0.46999998093E+01 0. -1.
</event>
<event>
 5   0  0.1198763E-06  0.2832468E+04  0.7818609E-02  0.8293259E-01
        1   -1    0    0  501    0  0.00000000000E+00  0.00000000000E+00  0.13105147378E+04  0.13105147378E+04  0.50400001928E-02 0. -1.
       -1   -1    0    0    0  501  0.00000000000E+00  0.00000000000E+00 -0.15304811712E+04  0.15304811712E+04  0.50400001928E-02 0.  1.
    10030    2    1    2    0    0  0.00000000000E+00  0.00000000000E+00 -0.21996643347E+03  0.28409959090E+04  0.28324675679E+04 0.  0.
        1    1    3    3  502    0 -0.10772606793E+04 -0.40084365733E+03  0.71988447983E+03  0.13562447689E+04  0.50400001928E-02 0. -1.
       -1    1    3    3    0  502  0.10772606793E+04  0.40084365733E+03 -0.93985091329E+03  0.14847511401E+04  0.50400001928E-02 0.  1.
</event>
<event>
 5   0  0.1171915E-06  0.3103399E+04  0.7818609E-02  0.8214806E-01
       -1   -1    0    0    0  501  0.00000000000E+00  0.00000000000E+00  0.27933082781E+04  0.27933082781E+04  0.50400001928E-02 0.  1.
        1   -1    0    0  501    0  0.00000000000E+00  0.00000000000E+00 -0.86197847223E+03  0.86197847225E+03  0.50400001928E-02 0. -1.
    10030    2    1    2    0    0  0.00000000000E+00  0.00000000000E+00  0.19313298059E+04  0.36552867504E+04  0.31033991700E+04 0.  0.
        2    1    3    3  502    0 -0.32982119857E+03 -0.87420594729E+03  0.24248256379E+04  0.25986145223E+04  0.25500000920E-02 0.  1.
       -2    1    3    3    0  502  0.32982119857E+03  0.87420594729E+03 -0.49349583203E+03  0.10566722281E+04  0.25500000920E-02 0. -1.
</event>
<event>
 5   0  0.1171915E-06  0.3080963E+04  0.7818609E-02  0.8220982E-01
       -1   -1    0    0    0  501  0.00000000000E+00  0.00000000000E+00  0.11561312822E+04  0.11561312822E+04  0.50400001928E-02 0.  1.
        1   -1    0    0  501    0  0.00000000000E+00  0.00000000000E+00 -0.20526074528E+04  0.20526074529E+04  0.50400001928E-02 0. -1.
    10030    2    1    2    0    0  0.00000000000E+00  0.00000000000E+00 -0.89647617062E+03  0.32087387351E+04  0.30809632821E+04 0.  0.
        2    1    3    3  502    0  0.12878238718E+04  0.81389143547E+03 -0.21034857764E+03  0.15379064073E+04  0.25500000920E-02 0. -1.
       -2    1    3    3    0  502 -0.12878238718E+04 -0.81389143547E+03 -0.68612759299E+03  0.16708323278E+04  0.25500000920E-02 0.  1.
</event>
<event>
 5   0  0.1250276E-06  0.3116823E+04  0.7818609E-02  0.8211136E-01
        1   -1    0    0  501    0  0.00000000000E+00  0.00000000000E+00  0.10278730134E+04  0.10278730134E+04  0.50400001928E-02 0. -1.
       -1   -1    0    0    0  501  0.00000000000E+00  0.00000000000E+00 -0.23627880162E+04  0.23627880162E+04  0.50400001928E-02 0.  1.
    10030    2    1    2    0    0  0.00000000000E+00  0.00000000000E+00 -0.13349150028E+04  0.33906610296E+04  0.31168227658E+04 0.  0.
        5    1    3    3  502    0  0.12074759015E+04 -0.53043341442E+03 -0.15706197713E+04  0.20509086317E+04  0.46999998093E+01 0.  1.
       -5    1    3    3    0  502 -0.12074759015E+04  0.53043341442E+03  0.23570476849E+03  0.13397523979E+04  0.46999998093E+01 0. -1.
</event>
<event>
 5   0  0.3445410E-06  0.3104419E+04  0.7818609E-02  0.8214526E-01
       -2   -1    0    0    0  501  0.00000000000E+00  0.00000000000E+00  0.12287482638E+04  0.12287482638E+04  0.25500000920E-02 0. -1.
        2   -1    0    0  501    0  0.00000000000E+00  0.00000000000E+00 -0.19608207619E+04  0.19608207619E+04  0.25500000920E-02 0.  1.
    10030    2    1    2    0    0  0.00000000000E+00  0.00000000000E+00 -0.73207249807E+03  0.31895690256E+04  0.31044194992E+04 0.  0.
        1    1    3    3  502    0 -0.17707025673E+03  0.36125303889E+03  0.11742491855E+04  0.12412569369E+04  0.50400001928E-02 0. -1.
       -1    1    3    3    0  502  0.17707025673E+03 -0.36125303889E+03 -0.19063216835E+04  0.19483120887E+04  0.50400001928E-02 0.  1.
</event>
<event>
 5   0  0.1235960E-06  0.2813043E+04  0.7818609E-02  0.8299231E-01
        1   -1    0    0  501    0  0.00000000000E+00  0.00000000000E+00  0.19534188653E+04  0.19534188653E+04  0.50400001928E-02 0.  1.
       -1   -1    0    0    0  501  0.00000000000E+00  0.00000000000E+00 -0.10127383443E+04  0.10127383443E+04  0.50400001928E-02 0. -1.
    10030    2    1    2    0    0  0.00000000000E+00  0.00000000000E+00  0.94068052106E+03  0.29661572096E+04  0.28130426142E+04 0.  0.
        4    1    3    3  502    0  0.89687532725E+03 -0.62443076744E+03  0.14039734542E+04  0.17791689659E+04  0.12699999809E+01 0.  1.
       -4    1    3    3    0  502 -0.89687532725E+03  0.62443076744E+03 -0.46329293318E+03  0.11869882437E+04  0.12699999809E+01 0. -1.
</event>
<event>
 5   0  0.1198763E-06  0.3102103E+04  0.7818609E-02  0.8215161E-01
        1   -1    0    0  501    0  0.00000000000E+00  0.00000000000E+00  0.21056570013E+04  0.21056570013E+04  0.50400001928E-02 0. -1.
       -1   -1    0    0    0  501  0.00000000000E+00  0.00000000000E+00 -0.11425229671E+04  0.11425229672E+04  0.50400001928E-02 0.  1.
    10030    2    1    2    0    0  0.00000000000E+00  0.00000000000E+00  0.96313403417E+03  0.32481799685E+04  0.31021034702E+04 0.  0.
        1    1    3    3  502    0  0.67841011031E+03 -0.26600157722E+03  0.19152632679E+04  0.20492024063E+04  0.50400001928E-02 0. -1.
       -1    1    3    3    0  502 -0.67841011031E+03  0.26600157722E+03 -0.95212923370E+03  0.11989775621E+04  0.50400001928E-02 0.  1.
</event>
<event>
 5   0  0.3445959E-06  0.3058795E+04  0.7818609E-02  0.8227138E-01
       -2   -1    0    0    0  501  0.00000000000E+00  0.00000000000E+00  0.14268831664E+04  0.14268831664E+04  0.25500000920E-02 0. -1.
        2   -1    0    0  501    0  0.00000000000E+00  0.00000000000E+00 -0.16392773196E+04  0.16392773196E+04  0.25500000920E-02 0.  1.
    10030    2    1    2    0    0  0.00000000000E+00  0.00000000000E+00 -0.21239415313E+03  0.30661604860E+04  0.30587953266E+04 0.  0.
        4    1    3    3  502    0 -0.83048854246E+03  0.11419817082E+04 -0.69516792072E+03  0.15738784870E+04  0.12699999809E+01 0.  1.
       -4    1    3    3    0  502  0.83048854246E+03 -0.11419817082E+04  0.48277376759E+03  0.14922819990E+04  0.12699999809E+01 0. -1.
</event>
<event>
 5   0  0.1250276E-06  0.3164914E+04  0.7818609E-02  0.8198145E-01
       -1   -1    0    0    0  501  0.00000000000E+00  0.00000000000E+00  0.14189222811E+04  0.14189222812E+04  0.50400001928E-02 0.  1.
        1   -1    0    0  501    0  0.00000000000E+00  0.00000000000E+00 -0.17648399108E+04  0.17648399108E+04  0.50400001928E-02 0. -1.
    10030    2    1    2    0    0  0.00000000000E+00  0.00000000000E+00 -0.34591762968E+03  0.31837621920E+04  0.31649143256E+04 0.  0.
        5    1    3    3  502    0 -0.84411859383E+01 -0.80464091540E+03  0.11977379346E+04  0.14429540902E+04  0.46999998093E+01 0.  1.
       -5    1    3    3    0  502  0.84411859383E+01  0.80464091540E+03 -0.15436555643E+04  0.17408081018E+04  0.46999998093E+01 0. -1.
</event>
<event>
 5   0  0.1250276E-06  0.3005193E+04  0.7818609E-02  0.8242250E-01
       -1   -1    0    0    0  501  0.00000000000E+00  0.00000000000E+00  0.13773022072E+04  0.13773022072E+04  0.50400001928E-02 0.  1.
        1   -1    0    0  501    0  0.00000000000E+00  0.00000000000E+00 -0.16392884462E+04  0.16392884462E+04  0.50400001928E-02 0. -1.
    10030    2    1    2    0    0  0.00000000000E+00  0.00000000000E+00 -0.26198623894E+03  0.30165906534E+04  0.30051925697E+04 0.  0.
        5    1    3    3  502    0 -0.11843814642E+02 -0.10185173264E+04  0.97784843902E+03  0.14119941500E+04  0.46999998093E+01 0.  1.
       -5    1    3    3    0  502  0.11843814642E+02  0.10185173264E+04 -0.12398346780E+04  0.16045965034E+04  0.46999998093E+01 0. -1.
</event>
<event>
 5   0  0.1171915E-06  0.3094147E+04  0.7818609E-02  0.8217346E-01
       -1   -1    0    0    0  501  0.00000000000E+00  0.00000000000E+00  0.11018570454E+04  0.11018570454E+04  0.50400001928E-02 0.  1.
        1   -1    0    0  501    0  0.00000000000E+00  0.00000000000E+00 -0.21721840084E+04  0.21721840084E+04  0.50400001928E-02 0. -1.
    10030    2    1    2    0    0  0.00000000000E+00  0.00000000000E+00 -0.10703269631E+04  0.32740410538E+04  0.30941468960E+04 0.  0.
        2    1    3    3  502    0 -0.67126129737E+03 -0.11074012868E+04  0.36051756748E+03  0.13442106442E+04  0.25500000920E-02 0.  1.
       -2    1    3    3    0  502  0.67126129737E+03  0.11074012868E+04 -0.14308445305E+04  0.19298304096E+04  0.25500000920E-02 0. -1.
</event>
<event>
 5   0  0.3445410E-06  0.3043735E+04  0.7818609E-02  0.8231351E-01
        2   -1    0    0  501    0  0.00000000000E+00  0.00000000000E+00  0.12261413656E+04  0.12261413656E+04  0.25500000920E-02 0. -1.
       -2   -1    0    0    0  501  0.00000000000E+00  0.00000000000E+00 -0.18889186942E+04  0.18889186943E+04  0.25500000920E-02 0.  1.
    10030    2    1    2    0    0  0.00000000000E+00  0.00000000000E+00 -0.66277732861E+03  0.31150600599E+04  0.30437354335E+04 0.  0.
        1    1    3    3  502    0  0.10414373866E+04 -0.10912354117E+04 -0.12493198024E+03  0.15136031692E+04  0.50400001928E-02 0.  1.
       -1    1    3    3    0  502 -0.10414373866E+04  0.10912354117E+04 -0.53784534837E+03  0.16014568907E+04  0.50400001928E-02 0. -1.
</event>
<event>
 5   0  0.1235960E-06  0.3083416E+04  0.7818609E-02  0.8220304E-01
        1   -1    0    0  501    0  0.00000000000E+00  0.00000000000E+00  0.23574138891E+04  0.23574138891E+04  0.50400001928E-02 0.  1.
       -1   -1    0    0    0  501  0.00000000000E+00  0.00000000000E+00 -0.10082502796E+04  0.10082502797E+04  0.50400001928E-02 0. -1.
    10030    2    1    2    0    0  0.00000000000E+00  0.00000000000E+00  0.13491636094E+04  0.33656641687E+04  0.30834157766E+04 0.  0.
        4    1    3    3  502    0  0.13415630768E+04  0.38126953940E+03  0.13917673849E+04  0.19703238356E+04  0.12699999809E+01 0.  1.
       -4    1    3    3    0  502 -0.13415630768E+04 -0.38126953940E+03 -0.42603775425E+02  0.13953403331E+04  0.12699999809E+01 0. -1.
</event>
<event>
 5   0  0.3445410E-06  0.3052055E+04  0.7818609E-02  0.8229021E-01
        2   -1    0    0  501    0  0.00000000000E+00  0.00000000000E+00  0.25438967016E+04  0.25438967016E+04  0.25500000920E-02 0.  1.
       -2   -1    0    0    0  501  0.00000000000E+00  0.00000000000E+00 -0.91543026206E+03  0.91543026207E+03  0.25500000920E-02 0. -1.
    10030    2    1    2    0    0  0.00000000000E+00  0.00000000000E+00  0.16284664395E+04  0.34593269636E+04  0.30520550612E+04 0.  0.
        1    1    3    3  502    0  0.91924552573E+03 -0.90068068741E+03  0.17437398486E+04  0.21672255759E+04  0.50400001928E-02 0. -1.
       -1    1    3    3    0  502 -0.91924552573E+03  0.90068068741E+03 -0.11527340912E+03  0.12921013877E+04  0.50400001928E-02 0.  1.
</event>
<event>
 5   0  0.3340899E-06  0.3146506E+04  0.7818609E-02  0.8203089E-01
       -2   -1    0    0    0  501  0.00000000000E+00  0.00000000000E+00  0.28418345141E+04  0.28418345141E+04  0.25500000920E-02 0.  1.
        2   -1    0    0  501    0  0.00000000000E+00  0.00000000000E+00 -0.87096055343E+03  0.87096055344E+03  0.25500000920E-02 0. -1.
    10030    2    1    2    0    0  0.00000000000E+00  0.00000000000E+00  0.19708739606E+04  0.37127950675E+04  0.31465064825E+04 0.  0.
        3    1    3    3  502    0  0.83643875401E+03  0.12240165078E+04  0.36409418323E+03  0.15265683034E+04  0.10100000352E+00 0.  1.
       -3    1    3    3    0  502 -0.83643875401E+03 -0.12240165078E+04  0.16067797774E+04  0.21862267641E+04  0.10100000352E+00 0. -1.
</event>
<event>
 5   0  0.3340899E-06  0.3014296E+04  0.7818609E-02  0.8239660E-01
        2   -1    0    0  501    0  0.00000000000E+00  0.00000000000E+00  0.15135067105E+04  0.15135067105E+04  0.25500000920E-02 0.  1.
       -2   -1    0    0    0  501  0.00000000000E+00  0.00000000000E+00 -0.15008159532E+04  0.15008159532E+04  0.25500000920E-02 0. -1.
    10030    2    1    2    0    0  0.00000000000E+00  0.00000000000E+00  0.12690757308E+02  0.30143226637E+04  0.30142959486E+04 0.  0.
        3    1    3    3  502    0  0.19793229497E+03  0.63549132317E+03  0.13585661453E+04  0.15128543871E+04  0.10100000352E+00 0.  1.
       -3    1    3    3    0  502 -0.19793229497E+03 -0.63549132317E+03 -0.13458753880E+04  0.15014682766E+04  0.10100000352E+00 0. -1.
</event>
<event>
 5   0  0.1198763E-06  0.3094757E+04  0.7818609E-02  0.8217178E-01
        1   -1    0    0  501    0  0.00000000000E+00  0.00000000000E+00  0.14182743500E+04  0.14182743500E+04  0.50400001928E-02 0.  1.
       -1   -1    0    0    0  501  0.00000000000E+00  0.00000000000E+00 -0.16882348559E+04  0.16882348559E+04  0.50400001928E-02 0. -1.
    10030    2    1    2    0    0  0.00000000000E+00  0.00000000000E+00 -0.26996050594E+03  0.31065092059E+04  0.30947569810E+04 0.  0.
        1    1    3    3  502    0  0.75401879522E+03  0.10687161903E+04 -0.96497056843E+03  0.16253820588E+04  0.50400001928E-02 0. -1.
       -1    1    3    3    0  502 -0.75401879522E+03 -0.10687161903E+04  0.69501006249E+03  0.14811271471E+04  0.50400001928E-02 0.  1.
</event>
<event>
 5   0  0.1250276E-06  0.3080450E+04  0.7818609E-02  0.8221124E-01
       -1   -1    0    0    0  501  0.00000000000E+00  0.00000000000E+00  0.11788016794E+04  0.11788016794E+04  0.50400001928E-02 0.  1.
        1   -1    0    0  501    0  0.00000000000E+00  0.00000000000E+00 -0.20124613002E+04  0.20124613002E+04  0.50400001928E-02 0. -1.
    10030    2    1    2    0    0  0.00000000000E+00  0.00000000000E+00 -0.83365962080E+03  0.31912629795E+04  0.30804498115E+04 0.  0.
        5    1    3    3  502    0 -0.91042075679E+03 -0.10609448797E+04 -0.10864569191E+04  0.17705594368E+04  0.46999998093E+01 0. -1.
       -5    1    3    3    0  502  0.91042075679E+03  0.10609448797E+04  0.25279729832E+03  0.14207035427E+04  0.46999998093E+01 0.  1.
</event>
<event>
 5   0  0.3340899E-06  0.3123610E+04  0.7818609E-02  0.8209288E-01
        2   -1    0    0  501    0  0.00000000000E+00  0.00000000000E+00  0.17930725747E+04  0.17930725747E+04  0.25500000920E-02 0. -1.
       -2   -1    0    0    0  501  0.00000000000E+00  0.00000000000E+00 -0.13603656080E+04  0.13603656080E+04  0.25500000920E-02 0.  1.
    10030    2    1    2    0    0  0.00000000000E+00  0.00000000000E+00  0.43270696672E+03  0.31534381827E+04  0.31236096191E+04 0.  0.
        3    1    3    3  502    0  0.11696970264E+04  0.54542073249E+03  0.11042746082E+04  0.16985574260E+04  0.10100000352E+00 0. -1.
       -3    1    3    3    0  502 -0.11696970264E+04 -0.54542073249E+03 -0.67156764146E+03  0.14548807567E+04  0.10100000352E+00 0.  1.
</event>
<event>
 5   0  0.1250276E-06  0.3099222E+04  0.7818609E-02  0.8215951E-01
        1   -1    0    0  501    0  0.00000000000E+00  0.00000000000E+00  0.15950336809E+04  0.15950336809E+04  0.50400001928E-02 0.  1.
       -1   -1    0    0    0  501  0.00000000000E+00  0.00000000000E+00 -0.15054823104E+04  0.15054823104E+04  0.50400001928E-02 0. -1.
    10030    2    1    2    0    0  0.00000000000E+00  0.00000000000E+00  0.89551370492E+02  0.31005159913E+04  0.30992224773E+04 0.  0.
        5    1    3    3  502    0  0.74342199306E+03 -0.13588790367E+04  0.90009651415E+02  0.15515644761E+04  0.46999998093E+01 0.  1.
       -5    1    3    3    0  502 -0.74342199306E+03  0.13588790367E+04 -0.45828092241E+00  0.15489515151E+04  0.46999998093E+01 0. -1.
</event>
<event>
 5   0  0.3374790E-06  0.2720467E+04  0.7818609E-02  0.8328395E-01
       -2   -1    0    0    0  501  0.00000000000E+00  0.00000000000E+00  0.18645420269E+04  0.18645420269E+04  0.25500000920E-02 0.  1.
        2   -1    0    0  501    0  0.00000000000E+00  0.00000000000E+00 -0.99232690023E+03  0.99232690024E+03  0.25500000920E-02 0. -1.
    10030    2    1    2    0    0  0.00000000000E+00  0.00000000000E+00  0.87221512668E+03  0.28568689272E+04  0.27204670260E+04 0.  0.
        2    1    3    3  502    0 -0.73080421633E+03 -0.87631274920E+03 -0.34144681630E+03  0.11910435615E+04  0.25500000920E-02 0. -1.
       -2    1    3    3    0  502  0.73080421633E+03  0.87631274920E+03  0.12136619430E+04  0.16658253657E+04  0.25500000920E-02 0.  1.
</event>
<event>
 5   0  0.1211008E-06  0.3106670E+04  0.7818609E-02  0.8213910E-01
        1   -1    0    0  501    0  0.00000000000E+00  0.00000000000E+00  0.15848135854E+04  0.15848135854E+04  0.50400001928E-02 0.  1.
       -1   -1    0    0    0  501  0.00000000000E+00  0.00000000000E+00 -0.15224818625E+04  0.15224818625E+04  0.50400001928E-02 0. -1.
    10030    2    1    2    0    0  0.00000000000E+00  0.00000000000E+00  0.62331722847E+02  0.31072954479E+04  0.31066702041E+04 0.  0.
        3    1    3    3  502    0  0.92292892421E+03  0.11440585501E+04 -0.47111262879E+03  0.15435721183E+04  0.10100000352E+00 0. -1.
       -3    1    3    3    0  502 -0.92292892421E+03 -0.11440585501E+04  0.53344435164E+03  0.15637233296E+04  0.10100000352E+00 0.  1.
</event>
<event>
 5   0  0.1198763E-06  0.3095857E+04  0.7818609E-02  0.8216876E-01
        1   -1    0    0  501    0  0.00000000000E+00  0.00000000000E+00  0.22338409626E+04  0.22338409626E+04  0.50400001928E-02 0. -1.
       -1   -1    0    0    0  501  0.00000000000E+00  0.00000000000E+00 -0.10726287347E+04  0.10726287347E+04  0.50400001928E-02 0.  1.
    10030    2    1    2    0    0  0.00000000000E+00  0.00000000000E+00  0.11612122280E+04  0.33064696973E+04  0.30958565892E+04 0.  0.
        1    1    3    3  502    0 -0.13770866159E+04 -0.49504217584E+03  0.11195624636E+04  0.18425130701E+04  0.50400001928E-02 0. -1.
       -1    1    3    3    0  502  0.13770866159E+04  0.49504217584E+03  0.41649764322E+02  0.14639566272E+04  0.50400001928E-02 0.  1.
</event>
<event>
 5   0  0.1235960E-06  0.3199087E+04  0.7818609E-02  0.8189058E-01
       -1   -1    0    0    0  501  0.00000000000E+00  0.00000000000E+00  0.12524061811E+04  0.12524061811E+04  0.50400001928E-02 0. -1.
        1   -1    0    0  501    0  0.00000000000E+00  0.00000000000E+00 -0.20428993326E+04  0.20428993326E+04  0.50400001928E-02 0.  1.
    10030    2    1    2    0    0  0.00000000000E+00  0.00000000000E+00 -0.79049315147E+03  0.32953055137E+04  0.31990872146E+04 0.  0.
        4    1    3    3  502    0  0.47775169305E+03 -0.13158828185E+03 -0.19618359138E+04  0.20234534642E+04  0.12699999809E+01 0.  1.
       -4    1    3    3    0  502 -0.47775169305E+03  0.13158828185E+03  0.11713427624E+04  0.12718520495E+04  0.12699999809E+01 0. -1.
</event>
<event>
 5   0  0.3445959E-06  0.2983033E+04  0.7818609E-02  0.8248593E-01
       -2   -1    0    0    0  501  0.00000000000E+00  0.00000000000E+00  0.11673457038E+04  0.11673457038E+04  0.25500000920E-02 0. -1.
        2   -1    0    0  501    0  0.00000000000E+00  0.00000000000E+00 -0.19057090438E+04  0.19057090438E+04  0.25500000920E-02 0.  1.
    10030    2    1    2    0    0  0.00000000000E+00  0.00000000000E+00 -0.73836334002E+03  0.30730547476E+04  0.29830328627E+04 0.  0.
        4    1    3    3  502    0  0.22377797041E+03  0.13473864819E+04 -0.98650909660E+03  0.16848527302E+04  0.12699999809E+01 0.  1.
       -4    1    3    3    0  502 -0.22377797041E+03 -0.13473864819E+04  0.24814575658E+03  0.13882020174E+04  0.12699999809E+01 0. -1.
</event>
<event>
 5   0  0.1211008E-06  0.3210179E+04  0.7818609E-02  0.8186134E-01
        1   -1    0    0  501    0  0.00000000000E+00  0.00000000000E+00  0.18298105393E+04  0.18298105393E+04  0.50400001928E-02 0. -1.
       -1   -1    0    0    0  501  0.00000000000E+00  0.00000000000E+00 -0.14079670875E+04  0.14079670875E+04  0.50400001928E-02 0.  1.
    10030    2    1    2    0    0  0.00000000000E+00  0.00000000000E+00  0.42184345175E+03  0.32377776268E+04  0.32101794440E+04 0.  0.
        3    1    3    3  502    0 -0.11010895379E+04  0.33604587156E+03 -0.91716965604E+03  0.14719120851E+04  0.10100000352E+00 0.  1.
       -3    1    3    3    0  502  0.11010895379E+04 -0.33604587156E+03  0.13390131078E+04  0.17658655417E+04  0.10100000352E+00 0. -1.
</event>
<event>
 5   0  0.1250276E-06  0.3095971E+04  0.7818609E-02  0.8216845E-01
       -1   -1    0    0    0  501  0.00000000000E+00  0.00000000000E+00  0.27024305384E+04  0.27024305384E+04  0.50400001928E-02 0.  1.
        1   -1    0    0  501    0  0.00000000000E+00  0.00000000000E+00 -0.88670515541E+03  0.88670515542E+03  0.50400001928E-02 0. -1.
    10030    2    1    2    0    0  0.00000000000E+00  0.00000000000E+00  0.18157253829E+04  0.35891356938E+04  0.30959709886E+04 0.  0.
        5    1    3    3  502    0  0.64135473668E+03  0.11845827191E+04  0.17920197498E+04  0.22418583787E+04  0.46999998093E+01 0.  1.
       -5    1    3    3    0  502 -0.64135473668E+03 -0.11845827191E+04  0.23705633174E+02  0.13472773151E+04  0.46999998093E+01 0. -1.
</event>
<event>
 5   0  0.1235960E-06  0.3140500E+04  0.7818609E-02  0.8204710E-01
        1   -1    0    0  501    0  0.00000000000E+00  0.00000000000E+00  0.12398631636E+04  0.12398631636E+04  0.50400001928E-02 0. -1.
       -1   -1    0    0    0  501  0.00000000000E+00  0.00000000000E+00 -0.19886755481E+04  0.19886755481E+04  0.50400001928E-02 0.  1.
    10030    2    1    2    0    0  0.00000000000E+00  0.00000000000E+00 -0.74881238449E+03  0.32285387118E+04  0.31405003146E+04 0.  0.
        4    1    3    3  502    0 -0.72288294458E+03 -0.11396784711E+04 -0.11995635732E+04  0.18056525547E+04  0.12699999809E+01 0.  1.
       -4    1    3    3    0  502  0.72288294458E+03  0.11396784711E+04  0.45075118871E+03  0.14228861571E+04  0.12699999809E+01 0. -1.
</event>
<event>
 5   0  0.3374790E-06  0.3112330E+04  0.7818609E-02  0.8212362E-01
        2   -1    0    0  501    0  0.00000000000E+00  0.00000000000E+00  0.22810240085E+04  0.22810240085E+04  0.25500000920E-02 0. -1.
       -2   -1    0    0    0  501  0.00000000000E+00  0.00000000000E+00 -0.10616500043E+04  0.10616500043E+04  0.25500000920E-02 0.  1.
    10030    2    1    2    0    0  0.00000000000E+00  0.00000000000E+00  0.12193740042E+04  0.33426740128E+04  0.31123297695E+04 0.  0.
        2    1    3    3  502    0  0.17745979019E+03  0.60519544065E+03  0.21376135493E+04  0.22287093092E+04  0.25500000920E-02 0. -1.
       -2    1    3    3    0  502 -0.17745979019E+03 -0.60519544065E+03 -0.91823954519E+03  0.11139647036E+04  0.25500000920E-02 0.  1.
</event>
<event>
 5   0  0.3445959E-06  0.3085957E+04  0.7818609E-02  0.8219603E-01
        2   -1    0    0  501    0  0.00000000000E+00  0.00000000000E+00  0.15564721763E+04  0.15564721763E+04  0.25500000920E-02 0.  1.
       -2   -1    0    0    0  501  0.00000000000E+00  0.00000000000E+00 -0.15296013942E+04  0.15296013942E+04  0.25500000920E-02 0. -1.
    10030    2    1    2    0    0  0.00000000000E+00  0.00000000000E+00  0.26870782162E+02  0.30860735705E+04  0.30859565848E+04 0.  0.
        4    1    3    3  502    0 -0.14967717989E+04 -0.96066849646E+02  0.37570005939E+03  0.15461910636E+04  0.12699999809E+01 0.  1.
       -4    1    3    3    0  502  0.14967717989E+04  0.96066849646E+02 -0.34882927722E+03  0.15398825069E+04  0.12699999809E+01 0. -1.
</event>
<event>
 5   0  0.3445959E-06  0.3112234E+04  0.7818609E-02  0.8212388E-01
        2   -1    0    0  501    0  0.00000000000E+00  0.00000000000E+00  0.12718483797E+04  0.12718483797E+04  0.25500000920E-02 0. -1.
       -2   -1    0    0    0  501  0.00000000000E+00  0.00000000000E+00 -0.19039222931E+04  0.19039222931E+04  0.25500000920E-02 0.  1.
    10030    2    1    2    0    0  0.00000000000E+00  0.00000000000E+00 -0.63207391344E+03  0.31757706727E+04  0.31122342350E+04 0.  0.
        4    1    3    3  502    0  0.88064054820E+03 -0.11391498421E+04 -0.91826231642E+03  0.17077463021E+04  0.12699999809E+01 0.  1.
       -4    1    3    3    0  502 -0.88064054820E+03  0.11391498421E+04  0.28618840298E+03  0.14680243706E+04  0.12699999809E+01 0. -1.
</event>
<event>
 5   0  0.1235960E-06  0.3081670E+04  0.7818609E-02  0.8220786E-01
       -1   -1    0    0    0  501  0.00000000000E+00  0.00000000000E+00  0.11094817229E+04  0.11094817229E+04  0.50400001928E-02 0.  1.
        1   -1    0    0  501    0  0.00000000000E+00  0.00000000000E+00 -0.21398933441E+04  0.21398933441E+04  0.50400001928E-02 0. -1.
    10030    2    1    2    0    0  0.00000000000E+00  0.00000000000E+00 -0.10304116212E+04  0.32493750671E+04  0.30816700371E+04 0.  0.
        4    1    3    3  502    0 -0.89074758230E+03  0.79630243736E+03  0.51069794278E+03  0.12993624701E+04  0.12699999809E+01 0.  1.
       -4    1    3    3    0  502  0.89074758230E+03 -0.79630243736E+03 -0.15411095640E+04  0.19500125969E+04  0.12699999809E+01 0. -1.
</event>
<event>
 5   0  0.3374790E-06  0.3115616E+04  0.7818609E-02  0.8211465E-01
       -2   -1    0    0    0  501  0.00000000000E+00  0.00000000000E+00  0.16261891110E+04  0.16261891110E+04  0.25500000920E-02 0.  1.
        2   -1    0    0  501    0  0.00000000000E+00  0.00000000000E+00 -0.14923018756E+04  0.14923018757E+04  0.25500000920E-02 0. -1.
    10030    2    1    2    0    0  0.00000000000E+00  0.00000000000E+00  0.13388723531E+03  0.31184909866E+04  0.31156155478E+04 0.  0.
        2    1    3    3  502    0  0.12808711856E+03  0.16172073218E+03 -0.14785685980E+04  0.14928914911E+04  0.25500000920E-02 0. -1.
       -2    1    3    3    0  502 -0.12808711856E+03 -0.16172073218E+03  0.16124558334E+04  0.16255994955E+04  0.25500000920E-02 0.  1.
</event>
<event>
 5   0  0.3445959E-06  0.2797824E+04  0.7818609E-02  0.8303944E-01
        2   -1    0    0  501    0  0.00000000000E+00  0.00000000000E+00  0.16251599741E+04  0.16251599741E+04  0.25500000920E-02 0.  1.
       -2   -1    0    0    0  501  0.00000000000E+00  0.00000000000E+00 -0.12041608927E+04  0.12041608927E+04  0.25500000920E-02 0. -1.
    10030    2    1    2    0    0  0.00000000000E+00  0.00000000000E+00  0.42099908145E+03  0.28293208668E+04  0.27978235007E+04 0.  0.
        4    1    3    3  502    0  0.47060722958E+03  0.73926769372E+03 -0.89217246292E+03  0.12505843450E+04  0.12699999809E+01 0.  1.
       -4    1    3    3    0  502 -0.47060722958E+03 -0.73926769372E+03  0.13131715444E+04  0.15787365218E+04  0.12699999809E+01 0. -1.
</event>
<event>
 5   0  0.3441897E-06  0.3055147E+04  0.7818609E-02  0.8228156E-01
       -2   -1    0    0    0  501  0.00000000000E+00  0.00000000000E+00  0.15983797050E+04  0.15983797050E+04  0.25500000920E-02 0. -1.
        2   -1    0    0  501    0  0.00000000000E+00  0.00000000000E+00 -0.14599039233E+04  0.14599039233E+04  0.25500000920E-02 0.  1.
    10030    2    1    2    0    0  0.00000000000E+00  0.00000000000E+00  0.13847578164E+03  0.30582836283E+04  0.30551470028E+04 0.  0.
        5    1    3    3  502    0  0.14412364437E+04 -0.47901859324E+03 -0.94751582720E+02  0.15217165478E+04  0.46999998093E+01 0. -1.
       -5    1    3    3    0  502 -0.14412364437E+04  0.47901859324E+03  0.23322736437E+03  0.15365670805E+04  0.46999998093E+01 0.  1.
</event>
<event>
 5   0  0.1171915E-06  0.3103538E+04  0.7818609E-02  0.8214768E-01
        1   -1    0    0  501    0  0.00000000000E+00  0.00000000000E+00  0.14718983427E+04  0.14718983427E+04  0.50400001928E-02 0. -1.
       -1   -1    0    0    0  501  0.00000000000E+00  0.00000000000E+00 -0.16359736373E+04  0.16359736373E+04  0.50400001928E-02 0.  1.
    10030    2    1    2    0    0  0.00000000000E+00  0.00000000000E+00 -0.16407529466E+03  0.31078719800E+04  0.31035379073E+04 0.  0.
        2    1    3    3  502    0  0.68748900337E+03 -0.43634458305E+03  0.12407723112E+04  0.14841002841E+04  0.25500000920E-02 0. -1.
       -2    1    3    3    0  502 -0.68748900337E+03  0.43634458305E+03 -0.14048476058E+04  0.16237716959E+04  0.25500000920E-02 0.  1.
</event>
<event>
 5   0  0.3441897E-06  0.3122363E+04  0.7818609E-02  0.8209627E-01
        2   -1    0    0  501    0  0.00000000000E+00  0.00000000000E+00  0.16477920191E+04  0.16477920191E+04  0.25500000920E-02 0.  1.
       -2   -1    0    0    0  501  0.00000000000E+00  0.00000000000E+00 -0.14791233547E+04  0.14791233547E+04  0.25500000920E-02 0. -1.
    10030    2    1    2    0    0  0.00000000000E+00  0.00000000000E+00  0.16866866439E+03  0.31269153737E+04  0.31223629892E+04 0.  0.
        5    1    3    3  502    0 -0.14252499831E+04  0.21526968004E+03  0.68486437720E+03  0.15958508247E+04  0.46999998093E+01 0.  1.
       -5    1    3    3    0  502  0.14252499831E+04 -0.21526968004E+03 -0.51619571281E+03  0.15310645491E+04  0.46999998093E+01 0. -1.
</event>
<event>
 5   0  0.1109562E-06  0.3153603E+04  0.7818609E-02  0.8201179E-01
        3   -1    0    0  501    0  0.00000000000E+00  0.00000000000E+00  0.12570444833E+04  0.12570444874E+04  0.10100000352E+00 0.  1.
       -3   -1    0    0    0  501  0.00000000000E+00  0.00000000000E+00 -0.19778962593E+04  0.19778962619E+04  0.10100000352E+00 0. -1.
    10030    2    1    2    0    0  0.00000000000E+00  0.00000000000E+00 -0.72085177602E+03  0.32349407493E+04  0.31536033942E+04 0.  0.
        2    1    3    3  502    0  0.31136668586E+03 -0.10414404756E+04  0.81129433786E+03  0.13563723604E+04  0.25500000920E-02 0.  1.
       -2    1    3    3    0  502 -0.31136668586E+03  0.10414404756E+04 -0.15321461139E+04  0.18785683889E+04  0.25500000920E-02 0. -1.
</event>
<event>
 5   0  0.1171915E-06  0.3060559E+04  0.7818609E-02  0.8226646E-01
        1   -1    0    0  501    0  0.00000000000E+00  0.00000000000E+00  0.21374264613E+04  0.21374264613E+04  0.50400001928E-02 0. -1.
       -1   -1    0    0    0  501  0.00000000000E+00  0.00000000000E+00 -0.10955958787E+04  0.10955958787E+04  0.50400001928E-02 0.  1.
    10030    2    1    2    0    0  0.00000000000E+00  0.00000000000E+00  0.10418305826E+04  0.32330223400E+04  0.30605591790E+04 0.  0.
        2    1    3    3  502    0  0.41277452065E+03 -0.14078758030E+04  0.98046835667E+03  0.17646006007E+04  0.25500000920E-02 0. -1.
       -2    1    3    3    0  502 -0.41277452065E+03  0.14078758030E+04  0.61362225896E+02  0.14684217393E+04  0.25500000920E-02 0.  1.
</event>
<event>
 5   0  0.3445410E-06  0.3099665E+04  0.7818609E-02  0.8215830E-01
       -2   -1    0    0    0  501  0.00000000000E+00  0.00000000000E+00  0.15048590865E+04  0.15048590865E+04  0.25500000920E-02 0.  1.
        2   -1    0    0  501    0  0.00000000000E+00  0.00000000000E+00 -0.15961500239E+04  0.15961500239E+04  0.25500000920E-02 0. -1.
    10030    2    1    2    0    0  0.00000000000E+00  0.00000000000E+00 -0.91290937401E+02  0.31010091104E+04  0.30996650573E+04 0.  0.
        1    1    3    3  502    0  0.44188275867E+03 -0.42193709770E+03  0.13792928778E+04  0.15085556435E+04  0.50400001928E-02 0.  1.
       -1    1    3    3    0  502 -0.44188275867E+03  0.42193709770E+03 -0.14705838152E+04  0.15924534669E+04  0.50400001928E-02 0. -1.
</event>
<event>
 5   0  0.1235960E-06  0.3096414E+04  0.7818609E-02  0.8216723E-01
       -1   -1    0    0    0  501  0.00000000000E+00  0.00000000000E+00  0.21099905467E+04  0.21099905467E+04  0.50400001928E-02 0. -1.
        1   -1    0    0  501    0  0.00000000000E+00  0.00000000000E+00 -0.11359979007E+04  0.11359979007E+04  0.50400001928E-02 0.  1.
    10030    2    1    2    0    0  0.00000000000E+00  0.00000000000E+00  0.97399264598E+03  0.32459884474E+04  0.30964139462E+04 0.  0.
        4    1    3    3  502    0 -0.13265491273E+04 -0.31877021813E+03  0.12541929596E+04  0.18531995662E+04  0.12699999809E+01 0. -1.
       -4    1    3    3    0  502  0.13265491273E+04  0.31877021813E+03 -0.28020031364E+03  0.13927888813E+04  0.12699999809E+01 0.  1.
</event>
<event>
 5   0  0.3340899E-06  0.2835730E+04  0.7818609E-02  0.8292261E-01
       -2   -1    0    0    0  501  0.00000000000E+00  0.00000000000E+00  0.14876132016E+04  0.14876132016E+04  0.25500000920E-02 0. -1.
        2   -1    0    0  501    0  0.00000000000E+00  0.00000000000E+00 -0.13513868040E+04  0.13513868040E+04  0.25500000920E-02 0.  1.
    10030    2    1    2    0    0  0.00000000000E+00  0.00000000000E+00  0.13622639761E+03  0.28390000056E+04  0.28357297827E+04 0.  0.
        3    1    3    3  502    0 -0.90455897407E+03  0.44213922292E+03  0.10675764533E+04  0.14674581847E+04  0.10100000352E+00 0. -1.
       -3    1    3    3    0  502  0.90455897407E+03 -0.44213922292E+03 -0.93135005571E+03  0.13715418209E+04  0.10100000352E+00 0.  1.
</event>
<event>
 5   0  0.1250276E-06  0.3198844E+04  0.7818609E-02  0.8189123E-01
       -1   -1    0    0    0  501  0.00000000000E+00  0.00000000000E+00  0.15601653605E+04  0.15601653605E+04  0.50400001928E-02 0.  1.
        1   -1    0    0  501    0  0.00000000000E+00  0.00000000000E+00 -0.16396664573E+04  0.16396664573E+04  0.50400001928E-02 0. -1.
    10030    2    1    2    0    0  0.00000000000E+00  0.00000000000E+00 -0.79501096732E+02  0.31998318178E+04  0.31988440472E+04 0.  0.
        5    1    3    3  502    0 -0.14012513115E+04  0.21071973100E+03  0.70224711606E+03  0.15814806812E+04  0.46999998093E+01 0.  1.
       -5    1    3    3    0  502  0.14012513115E+04 -0.21071973100E+03 -0.78174821279E+03  0.16183511366E+04  0.46999998093E+01 0. -1.
</event>
<event>
 5   0  0.1211008E-06  0.3086711E+04  0.7818609E-02  0.8219395E-01
       -1   -1    0    0    0  501  0.00000000000E+00  0.00000000000E+00  0.14978240871E+04  0.14978240871E+04  0.50400001928E-02 0.  1.
        1   -1    0    0  501    0  0.00000000000E+00  0.00000000000E+00 -0.15902706806E+04  0.15902706806E+04  0.50400001928E-02 0. -1.
    10030    2    1    2    0    0  0.00000000000E+00  0.00000000000E+00 -0.92446593468E+02  0.30880947678E+04  0.30867106962E+04 0.  0.
        3    1    3    3  502    0 -0.34401064951E+03 -0.13401966048E+04 -0.73025164183E+03  0.15645247640E+04  0.10100000352E+00 0. -1.
       -3    1    3    3    0  502  0.34401064951E+03  0.13401966048E+04  0.63780504836E+03  0.15235700038E+04  0.10100000352E+00 0.  1.
</event>
<event>
 5   0  0.1109562E-06  0.3095038E+04  0.7818609E-02  0.8217101E-01
       -3   -1    0    0    0  501  0.00000000000E+00  0.00000000000E+00  0.26646279087E+04  0.26646279106E+04  0.10100000352E+00 0.  1.
        3   -1    0    0  501    0  0.00000000000E+00  0.00000000000E+00 -0.89874268631E+03  0.89874269198E+03  0.10100000352E+00 0. -1.
    10030    2    1    2    0    0  0.00000000000E+00  0.00000000000E+00  0.17658852224E+04  0.35633706026E+04  0.30950378726E+04 0.  0.
        5    1    3    3  502    0 -0.27967572392E+03 -0.56131231492E+03 -0.74587748861E+03  0.97449748253E+03  0.46999998093E+01 0. -1.
       -5    1    3    3    0  502  0.27967572392E+03  0.56131231492E+03  0.25117627110E+04  0.25888731201E+04  0.46999998093E+01 0.  1.
</event>
<event>
 5   0  0.3374790E-06  0.3090441E+04  0.7818609E-02  0.8218366E-01
        2   -1    0    0  501    0  0.00000000000E+00  0.00000000000E+00  0.22506862414E+04  0.22506862414E+04  0.25500000920E-02 0. -1.
       -2   -1    0    0    0  501  0.00000000000E+00  0.00000000000E+00 -0.10608793063E+04  0.10608793063E+04  0.25500000920E-02 0.  1.
    10030    2    1    2    0    0  0.00000000000E+00  0.00000000000E+00  0.11898069350E+04  0.33115655477E+04  0.30904410420E+04 0.  0.
        2    1    3    3  502    0 -0.14676477028E+04 -0.39428265240E+03  0.89466569116E+03  0.17634838498E+04  0.25500000920E-02 0. -1.
       -2    1    3    3    0  502  0.14676477028E+04  0.39428265240E+03  0.29514124386E+03  0.15480816979E+04  0.25500000920E-02 0.  1.
</event>
<event>
 5   0  0.3441897E-06  0.3159137E+04  0.7818609E-02  0.8199693E-01
       -2   -1    0    0    0  501  0.00000000000E+00  0.00000000000E+00  0.16768356309E+04  0.16768356309E+04  0.25500000920E-02 0.  1.
        2   -1    0    0  501    0  0.00000000000E+00  0.00000000000E+00 -0.14879438024E+04  0.14879438024E+04  0.25500000920E-02 0. -1.
    10030    2    1    2    0    0  0.00000000000E+00  0.00000000000E+00  0.18889182846E+03  0.31647794333E+04  0.31591373409E+04 0.  0.
        5    1    3    3  502    0  0.12261650685E+04 -0.49882093788E+03 -0.76890063727E+03  0.15308603408E+04  0.46999998093E+01 0. -1.
       -5    1    3    3    0  502 -0.12261650685E+04  0.49882093788E+03  0.95779246574E+03  0.16339190924E+04  0.46999998093E+01 0.  1.
</event>
<event>
 5   0  0.1235960E-06  0.2934389E+04  0.7818609E-02  0.8262719E-01
        1   -1    0    0  501    0  0.00000000000E+00  0.00000000000E+00  0.22516659935E+04  0.22516659935E+04  0.50400001928E-02 0. -1.
       -1   -1    0    0    0  501  0.00000000000E+00  0.00000000000E+00 -0.95602945241E+03  0.95602945243E+03  0.50400001928E-02 0.  1.
    10030    2    1    2    0    0  0.00000000000E+00  0.00000000000E+00  0.12956365411E+04  0.32076954459E+04  0.29343885270E+04 0.  0.
        4    1    3    3  502    0 -0.70457725910E+03 -0.53335063609E+03 -0.63249259284E+03  0.10867108668E+04  0.12699999809E+01 0.  1.
       -4    1    3    3    0  502  0.70457725910E+03  0.53335063609E+03  0.19281291339E+04  0.21209845791E+04  0.12699999809E+01 0. -1.
</event>
<event>
 5   0  0.3445959E-06  0.3095784E+04  0.7818609E-02  0.8216896E-01
       -2   -1    0    0    0  501  0.00000000000E+00  0.00000000000E+00  0.15278524138E+04  0.15278524138E+04  0.25500000920E-02 0. -1.
        2   -1    0    0  501    0  0.00000000000E+00  0.00000000000E+00 -0.15681942221E+04  0.15681942221E+04  0.25500000920E-02 0.  1.
    10030    2    1    2    0    0  0.00000000000E+00  0.00000000000E+00 -0.40341808299E+02  0.30960466359E+04  0.30957837958E+04 0.  0.
        4    1    3    3  502    0  0.54298638798E+03 -0.13879394278E+04  0.39790482815E+03  0.15425757479E+04  0.12699999809E+01 0.  1.
       -4    1    3    3    0  502 -0.54298638798E+03  0.13879394278E+04 -0.43824663644E+03  0.15534708880E+04  0.12699999809E+01 0. -1.
</event>
<event>
 5   0  0.1250276E-06  0.3121450E+04  0.7818609E-02  0.8209876E-01
        1   -1    0    0  501    0  0.00000000000E+00  0.00000000000E+00  0.19634227961E+04  0.19634227961E+04  0.50400001928E-02 0. -1.
       -1   -1    0    0    0  501  0.00000000000E+00  0.00000000000E+00 -0.12406206298E+04  0.12406206298E+04  0.50400001928E-02 0.  1.
    10030    2    1    2    0    0  0.00000000000E+00  0.00000000000E+00  0.72280216631E+03  0.32040434259E+04  0.31214501923E+04 0.  0.
        5    1    3    3  502    0  0.15194296575E+04 -0.33103471309E+03  0.22526343563E+03  0.15713103356E+04  0.46999998093E+01 0. -1.
       -5    1    3    3    0  502 -0.15194296575E+04  0.33103471309E+03  0.49753873069E+03  0.16327330902E+04  0.46999998093E+01 0.  1.
</event>
<event>
 5   0  0.3374790E-06  0.3116462E+04  0.7818609E-02  0.8211235E-01
        2   -1    0    0  501    0  0.00000000000E+00  0.00000000000E+00  0.13095409826E+04  0.13095409826E+04  0.25500000920E-02 0. -1.
       -2   -1    0    0    0  501  0.00000000000E+00  0.00000000000E+00 -0.18541488419E+04  0.18541488419E+04  0.25500000920E-02 0.  1.
    10030    2    1    2    0    0  0.00000000000E+00  0.00000000000E+00 -0.54460785932E+03  0.31636898245E+04  0.31164620301E+04 0.  0.
        2    1    3    3  502    0 -0.32401923739E+02  0.55848824126E+03  0.12040825733E+04  0.13276949362E+04  0.25500000920E-02 0. -1.
       -2    1    3    3    0  502  0.32401923739E+02 -0.55848824126E+03 -0.17486904327E+04  0.18359948882E+04  0.25500000920E-02 0.  1.
</event>
<event>
 5   0  0.3340899E-06  0.2942480E+04  0.7818609E-02  0.8260350E-01
       -2   -1    0    0    0  501  0.00000000000E+00  0.00000000000E+00  0.10651533308E+04  0.10651533308E+04  0.25500000920E-02 0.  1.
        2   -1    0    0  501    0  0.00000000000E+00  0.00000000000E+00 -0.20321455536E+04  0.20321455536E+04  0.25500000920E-02 0. -1.
    10030    2    1    2    0    0  0.00000000000E+00  0.00000000000E+00 -0.96699222278E+03  0.30972988844E+04  0.29424796381E+04 0.  0.
        3    1    3    3  502    0  0.10788849432E+04  0.74945846681E+03  0.21382940808E+03  0.13309409229E+04  0.10100000352E+00 0. -1.
       -3    1    3    3    0  502 -0.10788849432E+04 -0.74945846681E+03 -0.11808216309E+04  0.17663579615E+04  0.10100000352E+00 0.  1.
</event>
<event>
 5   0  0.1171915E-06  0.3081048E+04  0.7818609E-02  0.8220958E-01
       -1   -1    0    0    0  501  0.00000000000E+00  0.00000000000E+00  0.85959726301E+03  0.85959726302E+03  0.50400001928E-02 0. -1.
        1   -1    0    0  501    0  0.00000000000E+00  0.00000000000E+00 -0.27608447824E+04  0.27608447824E+04  0.50400001928E-02 0.  1.
    10030    2    1    2    0    0  0.00000000000E+00  0.00000000000E+00 -0.19012475194E+04  0.36204420454E+04  0.30810482752E+04 0.  0.
        2    1    3    3  502    0 -0.12269046387E+04 -0.64275098728E+03 -0.15817912465E+03  0.13940747683E+04  0.25500000920E-02 0. -1.
       -2    1    3    3    0  502  0.12269046387E+04  0.64275098728E+03 -0.17430683947E+04  0.22263672771E+04  0.25500000920E-02 0.  1.
</event>
<event>
 5   0  0.1250276E-06  0.2496492E+04  0.7818609E-02  0.8404236E-01
        1   -1    0    0  501    0  0.00000000000E+00  0.00000000000E+00  0.15681698208E+04  0.15681698208E+04  0.50400001928E-02 0.  1.
       -1   -1    0    0    0  501  0.00000000000E+00  0.00000000000E+00 -0.99359015361E+03  0.99359015362E+03  0.50400001928E-02 0. -1.
    10030    2    1    2    0    0  0.00000000000E+00  0.00000000000E+00  0.57457966723E+03  0.25617599745E+04  0.24964920134E+04 0.  0.
        5    1    3    3  502    0  0.95655512033E+03 -0.83468862880E+02 -0.53114031956E+03  0.10973134823E+04  0.46999998093E+01 0. -1.
       -5    1    3    3    0  502 -0.95655512033E+03  0.83468862880E+02  0.11057199868E+04  0.14644464922E+04  0.46999998093E+01 0.  1.
</event>
<event>
 5   0  0.3340899E-06  0.3090153E+04  0.7818609E-02  0.8218446E-01
        2   -1    0    0  501    0  0.00000000000E+00  0.00000000000E+00  0.14239241276E+04  0.14239241276E+04  0.25500000920E-02 0.  1.
       -2   -1    0    0    0  501  0.00000000000E+00  0.00000000000E+00 -0.16765367265E+04  0.16765367265E+04  0.25500000920E-02 0. -1.
    10030    2    1    2    0    0  0.00000000000E+00  0.00000000000E+00 -0.25261259890E+03  0.31004608540E+04  0.30901528089E+04 0.  0.
        3    1    3    3  502    0  0.15610379758E+03 -0.34249094866E+03 -0.16298352142E+04  0.16727316823E+04  0.10100000352E+00 0. -1.
       -3    1    3    3    0  502 -0.15610379758E+03  0.34249094866E+03  0.13772226153E+04  0.14277291717E+04  0.10100000352E+00 0.  1.
</event>
<event>
 5   0  0.3340899E-06  0.3042166E+04  0.7818609E-02  0.8231792E-01
        2   -1    0    0  501    0  0.00000000000E+00  0.00000000000E+00  0.26901929880E+04  0.26901929881E+04  0.25500000920E-02 0.  1.
       -2   -1    0    0    0  501  0.00000000000E+00  0.00000000000E+00 -0.86004756573E+03  0.86004756573E+03  0.25500000920E-02 0. -1.
    10030    2    1    2    0    0  0.00000000000E+00  0.00000000000E+00  0.18301454223E+04  0.35502405538E+04  0.30421662878E+04 0.  0.
        3    1    3    3  502    0  0.11892846315E+03 -0.38961537398E+03  0.26253505763E+04  0.26567667902E+04  0.10100000352E+00 0.  1.
       -3    1    3    3    0  502 -0.11892846315E+03  0.38961537398E+03 -0.79520515399E+03  0.89347376354E+03  0.10100000352E+00 0. -1.
</event>
<event>
 5   0  0.3374790E-06  0.2944581E+04  0.7818609E-02  0.8259736E-01
        2   -1    0    0  501    0  0.00000000000E+00  0.00000000000E+00  0.12974750972E+04  0.12974750972E+04  0.25500000920E-02 0. -1.
       -2   -1    0    0    0  501  0.00000000000E+00  0.00000000000E+00 -0.16706597957E+04  0.16706597957E+04  0.25500000920E-02 0.  1.
    10030    2    1    2    0    0  0.00000000000E+00  0.00000000000E+00 -0.37318469854E+03  0.29681348929E+04  0.29445811116E+04 0.  0.
        2    1    3    3  502    0  0.14500749366E+04 -0.20713233334E+03 -0.33616512431E+03  0.15028732868E+04  0.25500000920E-02 0. -1.
       -2    1    3    3    0  502 -0.14500749366E+04  0.20713233334E+03 -0.37019574226E+02  0.14652616061E+04  0.25500000920E-02 0.  1.
</event>
<event>
 5   0  0.1198763E-06  0.2972233E+04  0.7818609E-02  0.8251705E-01
        1   -1    0    0  501    0  0.00000000000E+00  0.00000000000E+00  0.16960808540E+04  0.16960808540E+04  0.50400001928E-02 0. -1.
       -1   -1    0    0    0  501  0.00000000000E+00  0.00000000000E+00 -0.13021445864E+04  0.13021445864E+04  0.50400001928E-02 0.  1.
    10030    2    1    2    0    0  0.00000000000E+00  0.00000000000E+00  0.39393626756E+03  0.29982254404E+04  0.29722331686E+04 0.  0.
        1    1    3    3  502    0  0.12056155958E+04 -0.42860181903E+03 -0.56550834368E+03  0.13989310815E+04  0.50400001928E-02 0.  1.
       -1    1    3    3    0  502 -0.12056155958E+04  0.42860181903E+03  0.95944461124E+03  0.15992943588E+04  0.50400001928E-02 0. -1.
</event>
<event>
 5   0  0.3445959E-06  0.3104168E+04  0.7818609E-02  0.8214595E-01
       -2   -1    0    0    0  501  0.00000000000E+00  0.00000000000E+00  0.19788796440E+04  0.19788796440E+04  0.25500000920E-02 0.  1.
        2   -1    0    0  501    0  0.00000000000E+00  0.00000000000E+00 -0.12173374156E+04  0.12173374156E+04  0.25500000920E-02 0. -1.
    10030    2    1    2    0    0  0.00000000000E+00  0.00000000000E+00  0.76154222843E+03  0.31962170596E+04  0.31041676705E+04 0.  0.
        4    1    3    3  502    0  0.67313804258E+03  0.12537502403E+04  0.10187892551E+04  0.17501250380E+04  0.12699999809E+01 0.  1.
       -4    1    3    3    0  502 -0.67313804258E+03 -0.12537502403E+04 -0.25724702667E+03  0.14460920216E+04  0.12699999809E+01 0. -1.
</event>
<event>
 5   0  0.3340899E-06  0.3104434E+04  0.7818609E-02  0.8214522E-01
       -2   -1    0    0    0  501  0.00000000000E+00  0.00000000000E+00  0.21293064020E+04  0.21293064020E+04  0.25500000920E-02 0. -1.
        2   -1    0    0  501    0  0.00000000000E+00  0.00000000000E+00 -0.11315317983E+04  0.11315317983E+04  0.25500000920E-02 0.  1.
    10030    2    1    2    0    0  0.00000000000E+00  0.00000000000E+00  0.99777460372E+03  0.32608382004E+04  0.31044341850E+04 0.  0.
        3    1    3    3  502    0 -0.52372053030E+03 -0.14006077218E+04  0.93627061240E+03  0.17642527750E+04  0.10100000352E+00 0.  1.
       -3    1    3    3    0  502  0.52372053030E+03  0.14006077218E+04  0.61503991326E+02  0.14965854254E+04  0.10100000352E+00 0. -1.
</event>
<event>
 5   0  0.1171915E-06  0.2988554E+04  0.7818609E-02  0.8247007E-01
        1   -1    0    0  501    0  0.00000000000E+00  0.00000000000E+00  0.18218198305E+04  0.18218198305E+04  0.50400001928E-02 0. -1.
       -1   -1    0    0    0  501  0.00000000000E+00  0.00000000000E+00 -0.12256228379E+04  0.12256228379E+04  0.50400001928E-02 0.  1.
    10030    2    1    2    0    0  0.00000000000E+00  0.00000000000E+00  0.59619699261E+03  0.30474426684E+04  0.29885541593E+04 0.  0.
        2    1    3    3  502    0 -0.29892270505E+03 -0.63403050441E+03  0.16437666173E+04  0.17869857740E+04  0.25500000920E-02 0. -1.
       -2    1    3    3    0  502  0.29892270505E+03  0.63403050441E+03 -0.10475696247E+04  0.12604568945E+04  0.25500000920E-02 0.  1.
</event>
<event>
 5   0  0.1198763E-06  0.3089136E+04  0.7818609E-02  0.8218726E-01
        1   -1    0    0  501    0  0.00000000000E+00  0.00000000000E+00  0.10366259691E+04  0.10366259691E+04  0.50400001928E-02 0.  1.
       -1   -1    0    0    0  501  0.00000000000E+00  0.00000000000E+00 -0.23013999765E+04  0.23013999765E+04  0.50400001928E-02 0. -1.
    10030    2    1    2    0    0  0.00000000000E+00  0.00000000000E+00 -0.12647740074E+04  0.33380259456E+04  0.30891364366E+04 0.  0.
        1    1    3    3  502    0 -0.84155717562E+03  0.65128412950E+03  0.57732055672E+03  0.12106562363E+04  0.50400001928E-02 0.  1.
       -1    1    3    3    0  502  0.84155717562E+03 -0.65128412950E+03 -0.18420945641E+04  0.21273697094E+04  0.50400001928E-02 0. -1.
</event>
<event>
 5   0  0.3445410E-06  0.3083663E+04  0.7818609E-02  0.8220236E-01
       -2   -1    0    0    0  501  0.00000000000E+00  0.00000000000E+00  0.10323134134E+04  0.10323134134E+04  0.25500000920E-02 0. -1.
        2   -1    0    0  501    0  0.00000000000E+00  0.00000000000E+00 -0.23028323264E+04  0.23028323264E+04  0.25500000920E-02 0.  1.
    10030    2    1    2    0    0  0.00000000000E+00  0.00000000000E+00 -0.12705189130E+04  0.33351457397E+04  0.30836632107E+04 0.  0.
        1    1    3    3  502    0  0.11956063729E+04 -0.17143214671E+02 -0.16880259018E+04  0.20686227142E+04  0.50400001928E-02 0.  1.
       -1    1    3    3    0  502 -0.11956063729E+04  0.17143214671E+02  0.41750698873E+03  0.12665230256E+04  0.50400001928E-02 0. -1.
</event>
<event>
 5   0  0.1250276E-06  0.3079219E+04  0.7818609E-02  0.8221464E-01
       -1   -1    0    0    0  501  0.00000000000E+00  0.00000000000E+00  0.97456945378E+03  0.97456945379E+03  0.50400001928E-02 0. -1.
        1   -1    0    0  501    0  0.00000000000E+00  0.00000000000E+00 -0.24322507836E+04  0.24322507836E+04  0.50400001928E-02 0.  1.
    10030    2    1    2    0    0  0.00000000000E+00  0.00000000000E+00 -0.14576813298E+04  0.34068202373E+04  0.30792189384E+04 0.  0.
        5    1    3    3  502    0 -0.66485596787E+03 -0.10552063719E+04  0.26990709987E+03  0.12760744014E+04  0.46999998093E+01 0. -1.
       -5    1    3    3    0  502  0.66485596787E+03  0.10552063719E+04 -0.17275884296E+04  0.21307458360E+04  0.46999998093E+01 0.  1.
</event>
<event>
 5   0  0.1198763E-06  0.3027821E+04  0.7818609E-02  0.8235831E-01
        1   -1    0    0  501    0  0.00000000000E+00  0.00000000000E+00  0.79140039350E+03  0.79140039351E+03  0.50400001928E-02 0.  1.
       -1   -1    0    0    0  501  0.00000000000E+00  0.00000000000E+00 -0.28960366167E+04  0.28960366167E+04  0.50400001928E-02 0. -1.
    10030    2    1    2    0    0  0.00000000000E+00  0.00000000000E+00 -0.21046362232E+04  0.36874370103E+04  0.30278206804E+04 0.  0.
        1    1    3    3  502    0  0.97416143915E+03  0.74789416287E+03 -0.21303669576E+04  0.24590241077E+04  0.50400001928E-02 0. -1.
       -1    1    3    3    0  502 -0.97416143915E+03 -0.74789416287E+03  0.25730734341E+02  0.12284129025E+04  0.50400001928E-02 0.  1.
</event>
<event>
 5   0  0.3340899E-06  0.3085686E+04  0.7818609E-02  0.8219677E-01
        2   -1    0    0  501    0  0.00000000000E+00  0.00000000000E+00  0.24013334484E+04  0.24013334484E+04  0.25500000920E-02 0. -1.
       -2   -1    0    0    0  501  0.00000000000E+00  0.00000000000E+00 -0.99126775369E+03  0.99126775369E+03  0.25500000920E-02 0.  1.
    10030    2    1    2    0    0  0.00000000000E+00  0.00000000000E+00  0.14100656947E+04  0.33926012021E+04  0.30856859291E+04 0.  0.
        3    1    3    3  502    0 -0.21042528379E+02 -0.89892297472E+03  0.20834729468E+04  0.22692211952E+04  0.10100000352E+00 0. -1.
       -3    1    3    3    0  502  0.21042528379E+02  0.89892297472E+03 -0.67340725210E+03  0.11233800069E+04  0.10100000352E+00 0.  1.
</event>
<event>
 5   0  0.1198763E-06  0.3148305E+04  0.7818609E-02  0.8202605E-01
        1   -1    0    0  501    0  0.00000000000E+00  0.00000000000E+00  0.10506230189E+04  0.10506230189E+04  0.50400001928E-02 0.  1.
       -1   -1    0    0    0  501  0.00000000000E+00  0.00000000000E+00 -0.23585585891E+04  0.23585585892E+04  0.50400001928E-02 0. -1.
    10030    2    1    2    0    0  0.00000000000E+00  0.00000000000E+00 -0.13079355702E+04  0.34091816081E+04  0.31483049060E+04 0.  0.
        1    1    3    3  502    0  0.12491067046E+04 -0.66014731369E+03 -0.14056756075E+04  0.19929841818E+04  0.50400001928E-02 0. -1.
       -1    1    3    3    0  502 -0.12491067046E+04  0.66014731369E+03  0.97740037305E+02  0.14161974263E+04  0.50400001928E-02 0.  1.
</event>
<event>
 5   0  0.1198763E-06  0.3211712E+04  0.7818609E-02  0.8185731E-01
       -1   -1    0    0    0  501  0.00000000000E+00  0.00000000000E+00  0.17363275335E+04  0.17363275335E+04  0.50400001928E-02 0. -1.
        1   -1    0    0  501    0  0.00000000000E+00  0.00000000000E+00 -0.14851882352E+04  0.14851882352E+04  0.50400001928E-02 0.  1.
    10030    2    1    2    0    0  0.00000000000E+00  0.00000000000E+00  0.25113929826E+03  0.32215157687E+04  0.32117118334E+04 0.  0.
        1    1    3    3  502    0  0.54504082667E+03  0.30308207576E+03 -0.13587600443E+04  0.14950441817E+04  0.50400001928E-02 0.  1.
       -1    1    3    3    0  502 -0.54504082667E+03 -0.30308207576E+03  0.16098993425E+04  0.17264715869E+04  0.50400001928E-02 0. -1.
</event>
<event>
 5   0  0.1171915E-06  0.3067816E+04  0.7818609E-02  0.8224626E-01
        1   -1    0    0  501    0  0.00000000000E+00  0.00000000000E+00  0.13537552898E+04  0.13537552898E+04  0.50400001928E-02 0. -1.
       -1   -1    0    0    0  501  0.00000000000E+00  0.00000000000E+00 -0.17380347852E+04  0.17380347852E+04  0.50400001928E-02 0.  1.
    10030    2    1    2    0    0  0.00000000000E+00  0.00000000000E+00 -0.38427949539E+03  0.30917900750E+04  0.30678160207E+04 0.  0.
        2    1    3    3  502    0 -0.13492143118E+04 -0.70251639106E+03  0.67990071643E+01  0.15211688813E+04  0.25500000920E-02 0. -1.
       -2    1    3    3    0  502  0.13492143118E+04  0.70251639106E+03 -0.39107850255E+03  0.15706211937E+04  0.25500000920E-02 0.  1.
</event>
<event>
 5   0  0.3445410E-06  0.3141892E+04  0.7818609E-02  0.8204334E-01
        2   -1    0    0  501    0  0.00000000000E+00  0.00000000000E+00  0.13492729448E+04  0.13492729448E+04  0.25500000920E-02 0.  1.
       -2   -1    0    0    0  501  0.00000000000E+00  0.00000000000E+00 -0.18290379138E+04  0.18290379138E+04  0.25500000920E-02 0. -1.
    10030    2    1    2    0    0  0.00000000000E+00  0.00000000000E+00 -0.47976496896E+03  0.31783108586E+04  0.31418920237E+04 0.  0.
        1    1    3    3  502    0  0.58058277891E+03 -0.17312220850E+03 -0.17061051240E+04  0.18104812500E+04  0.50400001928E-02 0. -1.
       -1    1    3    3    0  502 -0.58058277891E+03  0.17312220850E+03  0.12263401551E+04  0.13678296086E+04  0.50400001928E-02 0.  1.
</event>
<event>
 5   0  0.1109562E-06  0.3037260E+04  0.7818609E-02  0.8233170E-01
        3   -1    0    0  501    0  0.00000000000E+00  0.00000000000E+00  0.12492909904E+04  0.12492909945E+04  0.10100000352E+00 0. -1.
       -3   -1    0    0    0  501  0.00000000000E+00  0.00000000000E+00 -0.18460368407E+04  0.18460368434E+04  0.10100000352E+00 0.  1.
    10030    2    1    2    0    0  0.00000000000E+00  0.00000000000E+00 -0.59674585029E+03  0.30953278379E+04  0.30372600834E+04 0.  0.
        5    1    3    3  502    0  0.42296756425E+03  0.10638040887E+04 -0.13152644336E+04  0.17437096432E+04  0.46999998093E+01 0.  1.
       -5    1    3    3    0  502 -0.42296756425E+03 -0.10638040887E+04  0.71851858336E+03  0.13516181946E+04  0.46999998093E+01 0. -1.
</event>
<event>
 5   0  0.3340899E-06  0.2821550E+04  0.7818609E-02  0.8296609E-01
        2   -1    0    0  501    0  0.00000000000E+00  0.00000000000E+00  0.19256755143E+04  0.19256755143E+04  0.25500000920E-02 0. -1.
       -2   -1    0    0    0  501  0.00000000000E+00  0.00000000000E+00 -0.10335520693E+04  0.10335520693E+04  0.25500000920E-02 0.  1.
    10030    2    1    2    0    0  0.00000000000E+00  0.00000000000E+00  0.89212344502E+03  0.29592275837E+04  0.28215498668E+04 0.  0.
        3    1    3    3  502    0  0.10827940574E+04 -0.65754815176E+03  0.10972218821E+04  0.16759201685E+04  0.10100000352E+00 0. -1.
       -3    1    3    3    0  502 -0.10827940574E+04  0.65754815176E+03 -0.20509843705E+03  0.12833074151E+04  0.10100000352E+00 0.  1.
</event>
<event>
 5   0  0.3374790E-06  0.3117665E+04  0.7818609E-02  0.8210907E-01
       -2   -1    0    0    0  501  0.00000000000E+00  0.00000000000E+00  0.12382963960E+04  0.12382963960E+04  0.25500000920E-02 0. -1.
        2   -1    0    0  501    0  0.00000000000E+00  0.00000000000E+00 -0.19623402428E+04  0.19623402428E+04  0.25500000920E-02 0.  1.
    10030    2    1    2    0    0  0.00000000000E+00  0.00000000000E+00 -0.72404384678E+03  0.32006366389E+04  0.31176650561E+04 0.  0.
        2    1    3    3  502    0 -0.13056280103E+04  0.85126599917E+03 -0.38800452922E+03  0.16061960706E+04  0.25500000920E-02 0. -1.
       -2    1    3    3    0  502  0.13056280103E+04 -0.85126599917E+03 -0.33603931756E+03  0.15944405682E+04  0.25500000920E-02 0.  1.
</event>
<event>
 5   0  0.3445959E-06  0.3075601E+04  0.7818609E-02  0.8222466E-01
        2   -1    0    0  501    0  0.00000000000E+00  0.00000000000E+00  0.20224560156E+04  0.20224560156E+04  0.25500000920E-02 0. -1.
       -2   -1    0    0    0  501  0.00000000000E+00  0.00000000000E+00 -0.11692863674E+04  0.11692863674E+04  0.25500000920E-02 0.  1.
    10030    2    1    2    0    0  0.00000000000E+00  0.00000000000E+00  0.85316964820E+03  0.31917423831E+04  0.30756009155E+04 0.  0.
        4    1    3    3  502    0  0.71118157435E+03  0.11768632652E+04  0.11410916437E+04  0.17868626497E+04  0.12699999809E+01 0. -1.
       -4    1    3    3    0  502 -0.71118157435E+03 -0.11768632652E+04 -0.28792199550E+03  0.14048797333E+04  0.12699999809E+01 0.  1.
</event>
<event>
 5   0  0.3340899E-06  0.3104343E+04  0.7818609E-02  0.8214547E-01
        2   -1    0    0  501    0  0.00000000000E+00  0.00000000000E+00  0.24240264154E+04  0.24240264154E+04  0.25500000920E-02 0. -1.
       -2   -1    0    0    0  501  0.00000000000E+00  0.00000000000E+00 -0.99389879228E+03  0.99389879229E+03  0.25500000920E-02 0.  1.
    10030    2    1    2    0    0  0.00000000000E+00  0.00000000000E+00  0.14301276231E+04  0.34179252077E+04  0.31043433616E+04 0.  0.
        3    1    3    3  502    0  0.82677408564E+03 -0.13036519356E+04  0.89318716914E+03  0.17834929456E+04  0.10100000352E+00 0. -1.
       -3    1    3    3    0  502 -0.82677408564E+03  0.13036519356E+04  0.53694045397E+03  0.16344322620E+04  0.10100000352E+00 0.  1.
</event>
<event>
 5   0  0.1198763E-06  0.3114212E+04  0.7818609E-02  0.8211848E-01
        1   -1    0    0  501    0  0.00000000000E+00  0.00000000000E+00  0.17870951562E+04  0.17870951562E+04  0.50400001928E-02 0.  1.
       -1   -1    0    0    0  501  0.00000000000E+00  0.00000000000E+00 -0.13567147793E+04  0.13567147793E+04  0.50400001928E-02 0. -1.
    10030    2    1    2    0    0  0.00000000000E+00  0.00000000000E+00  0.43038037694E+03  0.31438099355E+04  0.31142115602E+04 0.  0.
        1    1    3    3  502    0 -0.33618594030E+03  0.12638567836E+04 -0.63795947461E+03  0.14551107337E+04  0.50400001928E-02 0. -1.
       -1    1    3    3    0  502  0.33618594030E+03 -0.12638567836E+04  0.10683398515E+04  0.16886992019E+04  0.50400001928E-02 0.  1.
</event>
<event>
 5   0  0.1109562E-06  0.3122695E+04  0.7818609E-02  0.8209537E-01
       -3   -1    0    0    0  501  0.00000000000E+00  0.00000000000E+00  0.15167260413E+04  0.15167260446E+04  0.10100000352E+00 0. -1.
        3   -1    0    0  501    0  0.00000000000E+00  0.00000000000E+00 -0.16072816824E+04  0.16072816855E+04  0.10100000352E+00 0.  1.
    10030    2    1    2    0    0  0.00000000000E+00  0.00000000000E+00 -0.90555641111E+02  0.31240077302E+04  0.31226949858E+04 0.  0.
        3    1    3    3  502    0 -0.30089469415E+03  0.15167286035E+04 -0.26170810614E+03  0.15682775318E+04  0.10100000352E+00 0. -1.
       -3    1    3    3    0  502  0.30089469415E+03 -0.15167286035E+04  0.17115246503E+03  0.15557301984E+04  0.10100000352E+00 0.  1.
</event>
<event>
 5   0  0.3445959E-06  0.3049354E+04  0.7818609E-02  0.8229776E-01
       -2   -1    0    0    0  501  0.00000000000E+00  0.00000000000E+00  0.10972229278E+04  0.10972229278E+04  0.25500000920E-02 0.  1.
        2   -1    0    0  501    0  0.00000000000E+00  0.00000000000E+00 -0.21186579843E+04  0.21186579843E+04  0.25500000920E-02 0. -1.
    10030    2    1    2    0    0  0.00000000000E+00  0.00000000000E+00 -0.10214350565E+04  0.32158809122E+04  0.30493541065E+04 0.  0.
        4    1    3    3  502    0  0.22836043091E+03 -0.11605107750E+04 -0.15253957667E+04  0.19302247546E+04  0.12699999809E+01 0. -1.
       -4    1    3    3    0  502 -0.22836043091E+03  0.11605107750E+04  0.50396071022E+03  0.12856561576E+04  0.12699999809E+01 0.  1.
</event>
<event>
 5   0  0.3374790E-06  0.3119754E+04  0.7818609E-02  0.8210337E-01
       -2   -1    0    0    0  501  0.00000000000E+00  0.00000000000E+00  0.12808083719E+04  0.12808083719E+04  0.25500000920E-02 0. -1.
        2   -1    0    0  501    0  0.00000000000E+00  0.00000000000E+00 -0.18997508913E+04  0.18997508913E+04  0.25500000920E-02 0.  1.
    10030    2    1    2    0    0  0.00000000000E+00  0.00000000000E+00 -0.61894251934E+03  0.31805592632E+04  0.31197543789E+04 0.  0.
        2    1    3    3  502    0 -0.23165698350E+03  0.91454208996E+03 -0.15759246847E+04  0.18367337325E+04  0.25500000920E-02 0. -1.
       -2    1    3    3    0  502  0.23165698350E+03 -0.91454208996E+03  0.95698216532E+03  0.13438255307E+04  0.25500000920E-02 0.  1.
</event>
<event>
 5   0  0.1171915E-06  0.3034699E+04  0.7818609E-02  0.8233891E-01
        1   -1    0    0  501    0  0.00000000000E+00  0.00000000000E+00  0.24351992067E+04  0.24351992067E+04  0.50400001928E-02 0.  1.
       -1   -1    0    0    0  501  0.00000000000E+00  0.00000000000E+00 -0.94544636588E+03  0.94544636590E+03  0.50400001928E-02 0. -1.
    10030    2    1    2    0    0  0.00000000000E+00  0.00000000000E+00  0.14897528408E+04  0.33806455726E+04  0.30346994844E+04 0.  0.
        2    1    3    3  502    0 -0.39657808758E+03 -0.84433284201E+03 -0.58828416972E+03  0.11028374277E+04  0.25500000920E-02 0. -1.
       -2    1    3    3    0  502  0.39657808758E+03  0.84433284201E+03  0.20780370105E+04  0.22778081448E+04  0.25500000920E-02 0.  1.
</event>
<event>
 5   0  0.1171915E-06  0.3056716E+04  0.7818609E-02  0.8227718E-01
       -1   -1    0    0    0  501  0.00000000000E+00  0.00000000000E+00  0.12383888863E+04  0.12383888863E+04  0.50400001928E-02 0.  1.
        1   -1    0    0  501    0  0.00000000000E+00  0.00000000000E+00 -0.18862231893E+04  0.18862231893E+04  0.50400001928E-02 0. -1.
    10030    2    1    2    0    0  0.00000000000E+00  0.00000000000E+00 -0.64783430304E+03  0.31246120756E+04  0.30567157766E+04 0.  0.
        2    1    3    3  502    0 -0.36119720746E+03 -0.54780797545E+02  0.11930999485E+04  0.12477787647E+04  0.25500000920E-02 0.  1.
       -2    1    3    3    0  502  0.36119720746E+03  0.54780797545E+02 -0.18409342515E+04  0.18768333109E+04  0.25500000920E-02 0. -1.
</event>
<event>
 5   0  0.3445410E-06  0.3086015E+04  0.7818609E-02  0.8219587E-01
       -2   -1    0    0    0  501  0.00000000000E+00  0.00000000000E+00  0.17383465510E+04  0.17383465510E+04  0.25500000920E-02 0.  1.
        2   -1    0    0  501    0  0.00000000000E+00  0.00000000000E+00 -0.13696184395E+04  0.13696184395E+04  0.25500000920E-02 0. -1.
    10030    2    1    2    0    0  0.00000000000E+00  0.00000000000E+00  0.36872811151E+03  0.31079649905E+04  0.30860145757E+04 0.  0.
        1    1    3    3  502    0  0.10215190256E+02  0.96565276269E+03 -0.10276417326E+04  0.14101904619E+04  0.50400001928E-02 0. -1.
       -1    1    3    3    0  502 -0.10215190256E+02 -0.96565276269E+03  0.13963698441E+04  0.16977745286E+04  0.50400001928E-02 0.  1.
</event>
<event>
 5   0  0.1198763E-06  0.3108537E+04  0.7818609E-02  0.8213399E-01
        1   -1    0    0  501    0  0.00000000000E+00  0.00000000000E+00  0.14559169203E+04  0.14559169203E+04  0.50400001928E-02 0. -1.
       -1   -1    0    0    0  501  0.00000000000E+00  0.00000000000E+00 -0.16592645017E+04  0.16592645018E+04  0.50400001928E-02 0.  1.
    10030    2    1    2    0    0  0.00000000000E+00  0.00000000000E+00 -0.20334758142E+03  0.31151814221E+04  0.31085374461E+04 0.  0.
        1    1    3    3  502    0  0.40436941740E+03  0.14705258481E+04  0.19861707103E+03  0.15379888285E+04  0.50400001928E-02 0. -1.
       -1    1    3    3    0  502 -0.40436941740E+03 -0.14705258481E+04 -0.40196465246E+03  0.15771925936E+04  0.50400001928E-02 0.  1.
</event>
<event>
 5   0  0.1250276E-06  0.3106292E+04  0.7818609E-02  0.8214013E-01
        1   -1    0    0  501    0  0.00000000000E+00  0.00000000000E+00  0.16862067295E+04  0.16862067295E+04  0.50400001928E-02 0. -1.
       -1   -1    0    0    0  501  0.00000000000E+00  0.00000000000E+00 -0.14305848782E+04  0.14305848782E+04  0.50400001928E-02 0.  1.
    10030    2    1    2    0    0  0.00000000000E+00  0.00000000000E+00  0.25562185124E+03  0.31167916077E+04  0.31062915824E+04 0.  0.
        5    1    3    3  502    0  0.12544686576E+04  0.74615592387E+02  0.10435737407E+04  0.16335015586E+04  0.46999998093E+01 0.  1.
       -5    1    3    3    0  502 -0.12544686576E+04 -0.74615592387E+02 -0.78795188950E+03  0.14832900491E+04  0.46999998093E+01 0. -1.
</event>
<event>
 5   0  0.1198763E-06  0.3135152E+04  0.7818609E-02  0.8206156E-01
        1   -1    0    0  501    0  0.00000000000E+00  0.00000000000E+00  0.24524868958E+04  0.24524868958E+04  0.50400001928E-02 0. -1.
       -1   -1    0    0    0  501  0.00000000000E+00  0.00000000000E+00 -0.10019604712E+04  0.10019604713E+04  0.50400001928E-02 0.  1.
    10030    2    1    2    0    0  0.00000000000E+00  0.00000000000E+00  0.14505264246E+04  0.34544473671E+04  0.31351522616E+04 0.  0.
        1    1    3    3  502    0  0.63646991030E+03  0.14000494721E+04  0.10595823344E+04  0.18676046676E+04  0.50400001928E-02 0. -1.
       -1    1    3    3    0  502 -0.63646991030E+03 -0.14000494721E+04  0.39094409018E+03  0.15868426995E+04  0.50400001928E-02 0.  1.
</event>
<event>
 5   0  0.1211008E-06  0.3109344E+04  0.7818609E-02  0.8213178E-01
        1   -1    0    0  501    0  0.00000000000E+00  0.00000000000E+00  0.16470441394E+04  0.16470441394E+04  0.50400001928E-02 0.  1.
       -1   -1    0    0    0  501  0.00000000000E+00  0.00000000000E+00 -0.14674800175E+04  0.14674800175E+04  0.50400001928E-02 0. -1.
    10030    2    1    2    0    0  0.00000000000E+00  0.00000000000E+00  0.17956412184E+03  0.31145241569E+04  0.31093435722E+04 0.  0.
        3    1    3    3  502    0 -0.13945633463E+02 -0.87673059852E+03  0.13757252925E+04  0.16314015795E+04  0.10100000352E+00 0.  1.
       -3    1    3    3    0  502  0.13945633463E+02  0.87673059852E+03 -0.11961611707E+04  0.14831225774E+04  0.10100000352E+00 0. -1.
</event>
<event>
 5   0  0.3340899E-06  0.3095539E+04  0.7818609E-02  0.8216963E-01
        2   -1    0    0  501    0  0.00000000000E+00  0.00000000000E+00  0.19289092437E+04  0.19289092437E+04  0.25500000920E-02 0. -1.
       -2   -1    0    0    0  501  0.00000000000E+00  0.00000000000E+00 -0.12419405650E+04  0.12419405650E+04  0.25500000920E-02 0.  1.
    10030    2    1    2    0    0  0.00000000000E+00  0.00000000000E+00  0.68696867867E+03  0.31708498087E+04  0.30955391362E+04 0.  0.
        3    1    3    3  502    0 -0.18871340700E+03  0.15232203661E+04  0.54777975342E+03  0.16296857679E+04  0.10100000352E+00 0.  1.
       -3    1    3    3    0  502  0.18871340700E+03 -0.15232203661E+04  0.13918892525E+03  0.15411640408E+04  0.10100000352E+00 0. -1.
</event>
<event>
 5   0  0.3445410E-06  0.3118483E+04  0.7818609E-02  0.8210684E-01
       -2   -1    0    0    0  501  0.00000000000E+00  0.00000000000E+00  0.28456084152E+04  0.28456084152E+04  0.25500000920E-02 0.  1.
        2   -1    0    0  501    0  0.00000000000E+00  0.00000000000E+00 -0.85438123651E+03  0.85438123651E+03  0.25500000920E-02 0. -1.
    10030    2    1    2    0    0  0.00000000000E+00  0.00000000000E+00  0.19912271787E+04  0.36999896517E+04  0.31184832444E+04 0.  0.
        1    1    3    3  502    0 -0.30986314505E+03  0.14418323099E+04  0.39490434289E+03  0.15267105222E+04  0.50400001928E-02 0. -1.
       -1    1    3    3    0  502  0.30986314505E+03 -0.14418323099E+04  0.15963228358E+04  0.21732791295E+04  0.50400001928E-02 0.  1.
</event>
<event>
 5   0  0.3445959E-06  0.2649565E+04  0.7818609E-02  0.8351557E-01
        2   -1    0    0  501    0  0.00000000000E+00  0.00000000000E+00  0.13061338177E+04  0.13061338177E+04  0.25500000920E-02 0.  1.
       -2   -1    0    0    0  501  0.00000000000E+00  0.00000000000E+00 -0.13436976913E+04  0.13436976913E+04  0.25500000920E-02 0. -1.
    10030    2    1    2    0    0  0.00000000000E+00  0.00000000000E+00 -0.37563873623E+02  0.26498315090E+04  0.26495652439E+04 0.  0.
        4    1    3    3  502    0 -0.55256589667E+03  0.50971139553E+03  0.10721588386E+04  0.13094506348E+04  0.12699999809E+01 0.  1.
       -4    1    3    3    0  502  0.55256589667E+03 -0.50971139553E+03 -0.11097227123E+04  0.13403808742E+04  0.12699999809E+01 0. -1.
</event>
<event>
 5   0  0.1171915E-06  0.3074237E+04  0.7818609E-02  0.8222844E-01
       -1   -1    0    0    0  501  0.00000000000E+00  0.00000000000E+00  0.11544681533E+04  0.11544681533E+04  0.50400001928E-02 0. -1.
        1   -1    0    0  501    0  0.00000000000E+00  0.00000000000E+00 -0.20465993703E+04  0.20465993703E+04  0.50400001928E-02 0.  1.
    10030    2    1    2    0    0  0.00000000000E+00  0.00000000000E+00 -0.89213121703E+03  0.32010675236E+04  0.30742373335E+04 0.  0.
        2    1    3    3  502    0  0.12768330230E+03 -0.14769460811E+04 -0.86910395499E+03  0.17184337162E+04  0.25500000920E-02 0.  1.
       -2    1    3    3    0  502 -0.12768330230E+03  0.14769460811E+04 -0.23027262037E+02  0.14826338075E+04  0.25500000920E-02 0. -1.
</event>
<event>
 5   0  0.3441897E-06  0.3096980E+04  0.7818609E-02  0.8216567E-01
        2   -1    0    0  501    0  0.00000000000E+00  0.00000000000E+00  0.15058761806E+04  0.15058761806E+04  0.25500000920E-02 0. -1.
       -2   -1    0    0    0  501  0.00000000000E+00  0.00000000000E+00 -0.15923099429E+04  0.15923099429E+04  0.25500000920E-02 0.  1.
    10030    2    1    2    0    0  0.00000000000E+00  0.00000000000E+00 -0.86433762323E+02  0.30981861235E+04  0.30969802163E+04 0.  0.
        5    1    3    3  502    0 -0.92515252527E+03  0.10162652039E+04  0.67057153915E+03  0.15291796620E+04  0.46999998093E+01 0. -1.
       -5    1    3    3    0  502  0.92515252527E+03 -0.10162652039E+04 -0.75700530147E+03  0.15690064615E+04  0.46999998093E+01 0.  1.
</event>
<event>
 5   0  0.3441897E-06  0.3113657E+04  0.7818609E-02  0.8212000E-01
       -2   -1    0    0    0  501  0.00000000000E+00  0.00000000000E+00  0.15611726983E+04  0.15611726983E+04  0.25500000920E-02 0. -1.
        2   -1    0    0  501    0  0.00000000000E+00  0.00000000000E+00 -0.15524963559E+04  0.15524963559E+04  0.25500000920E-02 0.  1.
    10030    2    1    2    0    0  0.00000000000E+00  0.00000000000E+00  0.86763423904E+01  0.31136690543E+04  0.31136569658E+04 0.  0.
        5    1    3    3  502    0 -0.13208761526E+03  0.10882174251E+04 -0.11011201146E+04  0.15537541309E+04  0.46999998093E+01 0.  1.
       -5    1    3    3    0  502  0.13208761526E+03 -0.10882174251E+04  0.11097964570E+04  0.15599149234E+04  0.46999998093E+01 0. -1.
</event>
<event>
 5   0  0.3340899E-06  0.3126455E+04  0.7818609E-02  0.8208515E-01
        2   -1    0    0  501    0  0.00000000000E+00  0.00000000000E+00  0.21116042001E+04  0.21116042001E+04  0.25500000920E-02 0.  1.
       -2   -1    0    0    0  501  0.00000000000E+00  0.00000000000E+00 -0.11572625201E+04  0.11572625201E+04  0.25500000920E-02 0. -1.
    10030    2    1    2    0    0  0.00000000000E+00  0.00000000000E+00  0.95434168002E+03  0.32688667201E+04  0.31264551159E+04 0.  0.
        3    1    3    3  502    0 -0.47204220347E+03 -0.31843605230E+03 -0.10449779900E+04  0.11900438526E+04  0.10100000352E+00 0. -1.
       -3    1    3    3    0  502  0.47204220347E+03  0.31843605230E+03  0.19993196701E+04  0.20788228675E+04  0.10100000352E+00 0.  1.
</event>
<event>
 5   0  0.3441897E-06  0.3149042E+04  0.7818609E-02  0.8202406E-01
        2   -1    0    0  501    0  0.00000000000E+00  0.00000000000E+00  0.70234892876E+03  0.70234892876E+03  0.25500000920E-02 0.  1.
       -2   -1    0    0    0  501  0.00000000000E+00  0.00000000000E+00 -0.35297506492E+04  0.35297506492E+04  0.25500000920E-02 0. -1.
    10030    2    1    2    0    0  0.00000000000E+00  0.00000000000E+00 -0.28274017204E+04  0.42320995779E+04  0.31490421320E+04 0.  0.
        5    1    3    3  502    0 -0.98931342240E+03 -0.11673375778E+04 -0.91503779430E+03  0.17829005366E+04  0.46999998093E+01 0.  1.
       -5    1    3    3    0  502  0.98931342240E+03  0.11673375778E+04 -0.19123639261E+04  0.24491990414E+04  0.46999998093E+01 0. -1.
</event>
<event>
 5   0  0.3374790E-06  0.3050450E+04  0.7818609E-02  0.8229470E-01
        2   -1    0    0  501    0  0.00000000000E+00  0.00000000000E+00  0.11654420133E+04  0.11654420133E+04  0.25500000920E-02 0.  1.
       -2   -1    0    0    0  501  0.00000000000E+00  0.00000000000E+00 -0.19960762843E+04  0.19960762843E+04  0.25500000920E-02 0. -1.
    10030    2    1    2    0    0  0.00000000000E+00  0.00000000000E+00 -0.83063427106E+03  0.31615182976E+04  0.30504499100E+04 0.  0.
        2    1    3    3  502    0 -0.25301327035E+02  0.15241663117E+04 -0.46804243080E+03  0.15946118085E+04  0.25500000920E-02 0. -1.
       -2    1    3    3    0  502  0.25301327035E+02 -0.15241663117E+04 -0.36259184026E+03  0.15669064891E+04  0.25500000920E-02 0.  1.
</event>
<event>
 5   0  0.3441897E-06  0.3116918E+04  0.7818609E-02  0.8211110E-01
       -2   -1    0    0    0  501  0.00000000000E+00  0.00000000000E+00  0.98126383157E+03  0.98126383157E+03  0.25500000920E-02 0.  1.
        2   -1    0    0  501    0  0.00000000000E+00  0.00000000000E+00 -0.24751692281E+04  0.24751692281E+04  0.25500000920E-02 0. -1.
    10030    2    1    2    0    0  0.00000000000E+00  0.00000000000E+00 -0.14939053965E+04  0.34564330596E+04  0.31169177343E+04 0.  0.
        5    1    3    3  502    0 -0.69792065641E+03  0.19965615392E+03 -0.22762329257E+04  0.23891869421E+04  0.46999998093E+01 0. -1.
       -5    1    3    3    0  502  0.69792065641E+03 -0.19965615392E+03  0.78232752918E+03  0.10672461175E+04  0.46999998093E+01 0.  1.
</event>
<event>
 5   0  0.3374790E-06  0.3098022E+04  0.7818609E-02  0.8216281E-01
        2   -1    0    0  501    0  0.00000000000E+00  0.00000000000E+00  0.14222396266E+04  0.14222396266E+04  0.25500000920E-02 0. -1.
       -2   -1    0    0    0  501  0.00000000000E+00  0.00000000000E+00 -0.16870822527E+04  0.16870822527E+04  0.25500000920E-02 0.  1.
    10030    2    1    2    0    0  0.00000000000E+00  0.00000000000E+00 -0.26484262608E+03  0.31093218793E+04  0.30980221000E+04 0.  0.
        2    1    3    3  502    0 -0.12945791115E+04 -0.80157493880E+03 -0.41802518441E+03  0.15789878129E+04  0.25500000920E-02 0.  1.
       -2    1    3    3    0  502  0.12945791115E+04  0.80157493880E+03  0.15318255834E+03  0.15303340664E+04  0.25500000920E-02 0. -1.
</event>
<event>
 5   0  0.3445959E-06  0.3095666E+04  0.7818609E-02  0.8216928E-01
       -2   -1    0    0    0  501  0.00000000000E+00  0.00000000000E+00  0.20597402270E+04  0.20597402270E+04  0.25500000920E-02 0. -1.
        2   -1    0    0  501    0  0.00000000000E+00  0.00000000000E+00 -0.11631500789E+04  0.11631500789E+04  0.25500000920E-02 0.  1.
    10030    2    1    2    0    0  0.00000000000E+00  0.00000000000E+00  0.89659014810E+03  0.32228903060E+04  0.30956660076E+04 0.  0.
        4    1    3    3  502    0  0.78736273222E+03  0.82413106858E+02  0.18330148587E+04  0.19966664913E+04  0.12699999809E+01 0. -1.
       -4    1    3    3    0  502 -0.78736273222E+03 -0.82413106858E+02 -0.93642471057E+03  0.12262238147E+04  0.12699999809E+01 0.  1.
</event>
<event>
 5   0  0.3445410E-06  0.3244403E+04  0.7818609E-02  0.8177188E-01
        2   -1    0    0  501    0  0.00000000000E+00  0.00000000000E+00  0.19575771909E+04  0.19575771909E+04  0.25500000920E-02 0. -1.
       -2   -1    0    0    0  501  0.00000000000E+00  0.00000000000E+00 -0.13442827723E+04  0.13442827723E+04  0.25500000920E-02 0.  1.
    10030    2    1    2    0    0  0.00000000000E+00  0.00000000000E+00  0.61329441859E+03  0.33018599633E+04  0.32444027452E+04 0.  0.
        1    1    3    3  502    0 -0.12016923018E+04 -0.89494842514E+03  0.93938130208E+03  0.17684553437E+04  0.50400001928E-02 0. -1.
       -1    1    3    3    0  502  0.12016923018E+04  0.89494842514E+03 -0.32608688349E+03  0.15334046196E+04  0.50400001928E-02 0.  1.
</event>
<event>
 5   0  0.1198763E-06  0.3105571E+04  0.7818609E-02  0.8214211E-01
        1   -1    0    0  501    0  0.00000000000E+00  0.00000000000E+00  0.12946305450E+04  0.12946305450E+04  0.50400001928E-02 0.  1.
       -1   -1    0    0    0  501  0.00000000000E+00  0.00000000000E+00 -0.18624177442E+04  0.18624177442E+04  0.50400001928E-02 0. -1.
    10030    2    1    2    0    0  0.00000000000E+00  0.00000000000E+00 -0.56778719923E+03  0.31570482892E+04  0.31055710580E+04 0.  0.
        1    1    3    3  502    0  0.65760274325E+03 -0.13926648163E+04 -0.82657192742E+02  0.15423322826E+04  0.50400001928E-02 0. -1.
       -1    1    3    3    0  502 -0.65760274325E+03  0.13926648163E+04 -0.48513000649E+03  0.16147160065E+04  0.50400001928E-02 0.  1.
</event>
<event>
 5   0  0.1250276E-06  0.3112853E+04  0.7818609E-02  0.8212219E-01
        1   -1    0    0  501    0  0.00000000000E+00  0.00000000000E+00  0.20146733705E+04  0.20146733705E+04  0.50400001928E-02 0.  1.
       -1   -1    0    0    0  501  0.00000000000E+00  0.00000000000E+00 -0.12024102599E+04  0.12024102600E+04  0.50400001928E-02 0. -1.
    10030    2    1    2    0    0  0.00000000000E+00  0.00000000000E+00  0.81226311060E+03  0.32170836305E+04  0.31128533092E+04 0.  0.
        5    1    3    3  502    0  0.91954470785E+03  0.12535295953E+04  0.32918783120E+03  0.15891147329E+04  0.46999998093E+01 0.  1.
       -5    1    3    3    0  502 -0.91954470785E+03 -0.12535295953E+04  0.48307527940E+03  0.16279688976E+04  0.46999998093E+01 0. -1.
</event>
<event>
 5   0  0.1171915E-06  0.2547374E+04  0.7818609E-02  0.8386300E-01
        1   -1    0    0  501    0  0.00000000000E+00  0.00000000000E+00  0.12316363725E+04  0.12316363725E+04  0.50400001928E-02 0.  1.
       -1   -1    0    0    0  501  0.00000000000E+00  0.00000000000E+00 -0.13171738066E+04  0.13171738066E+04  0.50400001928E-02 0. -1.
    10030    2    1    2    0    0  0.00000000000E+00  0.00000000000E+00 -0.85537434131E+02  0.25488101791E+04  0.25473744673E+04 0.  0.
        2    1    3    3  502    0  0.65773807481E+03 -0.85946076240E+03  0.62916542542E+03  0.12518551473E+04  0.25500000920E-02 0.  1.
       -2    1    3    3    0  502 -0.65773807481E+03  0.85946076240E+03 -0.71470285955E+03  0.12969550318E+04  0.25500000920E-02 0. -1.
</event>
<event>
 5   0  0.1250276E-06  0.3087742E+04  0.7818609E-02  0.8219110E-01
        1   -1    0    0  501    0  0.00000000000E+00  0.00000000000E+00  0.13551268971E+04  0.13551268971E+04  0.50400001928E-02 0.  1.
       -1   -1    0    0    0  501  0.00000000000E+00  0.00000000000E+00 -0.17589041677E+04  0.17589041677E+04  0.50400001928E-02 0. -1.
    10030    2    1    2    0    0  0.00000000000E+00  0.00000000000E+00 -0.40377727063E+03  0.31140310648E+04  0.30877424420E+04 0.  0.
        5    1    3    3  502    0  0.31611026451E+03  0.85182611296E+03 -0.14607073968E+04  0.17202388250E+04  0.46999998093E+01 0. -1.
       -5    1    3    3    0  502 -0.31611026451E+03 -0.85182611296E+03  0.10569301262E+04  0.13937922398E+04  0.46999998093E+01 0.  1.
</event>
<event>
 5   0  0.3445410E-06  0.2628074E+04  0.7818609E-02  0.8358727E-01
       -2   -1    0    0    0  501  0.00000000000E+00  0.00000000000E+00  0.74832784800E+03  0.74832784800E+03  0.25500000920E-02 0. -1.
        2   -1    0    0  501    0  0.00000000000E+00  0.00000000000E+00 -0.23074012740E+04  0.23074012740E+04  0.25500000920E-02 0.  1.
    10030    2    1    2    0    0  0.00000000000E+00  0.00000000000E+00 -0.15590734260E+04  0.30557291220E+04  0.26280735377E+04 0.  0.
        1    1    3    3  502    0  0.12037026483E+04 -0.52377546646E+03 -0.84784945706E+03  0.15627186268E+04  0.50400001928E-02 0.  1.
       -1    1    3    3    0  502 -0.12037026483E+04  0.52377546646E+03 -0.71122396896E+03  0.14930104952E+04  0.50400001928E-02 0. -1.
</event>
<event>
 5   0  0.3445959E-06  0.3103706E+04  0.7818609E-02  0.8214722E-01
        2   -1    0    0  501    0  0.00000000000E+00  0.00000000000E+00  0.29622636499E+04  0.29622636500E+04  0.25500000920E-02 0. -1.
       -2   -1    0    0    0  501  0.00000000000E+00  0.00000000000E+00 -0.81297532249E+03  0.81297532250E+03  0.25500000920E-02 0.  1.
    10030    2    1    2    0    0  0.00000000000E+00  0.00000000000E+00  0.21492883275E+04  0.37752389724E+04  0.31037056859E+04 0.  0.
        4    1    3    3  502    0  0.17081209004E+03  0.14448696304E+04  0.17312791981E+04  0.22614496000E+04  0.12699999809E+01 0. -1.
       -4    1    3    3    0  502 -0.17081209004E+03 -0.14448696304E+04  0.41800912936E+03  0.15137893724E+04  0.12699999809E+01 0.  1.
</event>
<event>
 5   0  0.1235960E-06  0.3099078E+04  0.7818609E-02  0.8215991E-01
        1   -1    0    0  501    0  0.00000000000E+00  0.00000000000E+00  0.20891590618E+04  0.20891590618E+04  0.50400001928E-02 0. -1.
       -1   -1    0    0    0  501  0.00000000000E+00  0.00000000000E+00 -0.11492999216E+04  0.11492999216E+04  0.50400001928E-02 0.  1.
    10030    2    1    2    0    0  0.00000000000E+00  0.00000000000E+00  0.93985914016E+03  0.32384589834E+04  0.30990775053E+04 0.  0.
        4    1    3    3  502    0 -0.11369061450E+04 -0.68324406946E+03 -0.36715402923E+03  0.13762927505E+04  0.12699999809E+01 0.  1.
       -4    1    3    3    0  502  0.11369061450E+04  0.68324406946E+03  0.13070131694E+04  0.18621662329E+04  0.12699999809E+01 0. -1.
</event>
<event>
 5   0  0.1171915E-06  0.3104344E+04  0.7818609E-02  0.8214547E-01
       -1   -1    0    0    0  501  0.00000000000E+00  0.00000000000E+00  0.17867009996E+04  0.17867009996E+04  0.50400001928E-02 0. -1.
        1   -1    0    0  501    0  0.00000000000E+00  0.00000000000E+00 -0.13484279678E+04  0.13484279678E+04  0.50400001928E-02 0.  1.
    10030    2    1    2    0    0  0.00000000000E+00  0.00000000000E+00  0.43827303185E+03  0.31351289674E+04  0.31043437940E+04 0.  0.
        2    1    3    3  502    0 -0.66050573347E+02 -0.11602833720E+04 -0.81995815244E+03  0.14223050142E+04  0.25500000920E-02 0.  1.
       -2    1    3    3    0  502  0.66050573347E+02  0.11602833720E+04  0.12582311843E+04  0.17128239532E+04  0.25500000920E-02 0. -1.
</event>
<event>
 5   0  0.1171915E-06  0.3088645E+04  0.7818609E-02  0.8218861E-01
        1   -1    0    0  501    0  0.00000000000E+00  0.00000000000E+00  0.10580322867E+04  0.10580322867E+04  0.50400001928E-02 0.  1.
       -1   -1    0    0    0  501  0.00000000000E+00  0.00000000000E+00 -0.22541203107E+04  0.22541203107E+04  0.50400001928E-02 0. -1.
    10030    2    1    2    0    0  0.00000000000E+00  0.00000000000E+00 -0.11960880240E+04  0.33121525974E+04  0.30886450536E+04 0.  0.
        2    1    3    3  502    0  0.13841370802E+04  0.42292760678E+03 -0.11757576572E+04  0.18647008569E+04  0.25500000920E-02 0.  1.
       -2    1    3    3    0  502 -0.13841370802E+04 -0.42292760678E+03 -0.20330366774E+02  0.14474517405E+04  0.25500000920E-02 0. -1.
</event>
<event>
 5   0  0.3374790E-06  0.3060117E+04  0.7818609E-02  0.8226769E-01
       -2   -1    0    0    0  501  0.00000000000E+00  0.00000000000E+00  0.16351726304E+04  0.16351726304E+04  0.25500000920E-02 0.  1.
        2   -1    0    0  501    0  0.00000000000E+00  0.00000000000E+00 -0.14317013499E+04  0.14317013499E+04  0.25500000920E-02 0. -1.
    10030    2    1    2    0    0  0.00000000000E+00  0.00000000000E+00  0.20347128041E+03  0.30668739803E+04  0.30601169012E+04 0.  0.
        2    1    3    3  502    0  0.14590954864E+04 -0.40180794576E+03  0.32733177016E+03  0.15484041305E+04  0.25500000920E-02 0. -1.
       -2    1    3    3    0  502 -0.14590954864E+04  0.40180794576E+03 -0.12386048975E+03  0.15184698498E+04  0.25500000920E-02 0.  1.
</event>
<event>
 5   0  0.1198763E-06  0.3059770E+04  0.7818609E-02  0.8226866E-01
       -1   -1    0    0    0  501  0.00000000000E+00  0.00000000000E+00  0.84653953163E+03  0.84653953165E+03  0.50400001928E-02 0. -1.
        1   -1    0    0  501    0  0.00000000000E+00  0.00000000000E+00 -0.27648419486E+04  0.27648419486E+04  0.50400001928E-02 0.  1.
    10030    2    1    2    0    0  0.00000000000E+00  0.00000000000E+00 -0.19183024169E+04  0.36113814802E+04  0.30597699314E+04 0.  0.
        1    1    3    3  502    0  0.33127554394E+03  0.18010262660E+03  0.79083549185E+03  0.87612853927E+03  0.50400001928E-02 0. -1.
       -1    1    3    3    0  502 -0.33127554394E+03 -0.18010262660E+03 -0.27091379088E+04  0.27352529410E+04  0.50400001928E-02 0.  1.
</event>
<event>
 5   0  0.1235960E-06  0.3000451E+04  0.7818609E-02  0.8243602E-01
       -1   -1    0    0    0  501  0.00000000000E+00  0.00000000000E+00  0.18620342163E+04  0.18620342163E+04  0.50400001928E-02 0.  1.
        1   -1    0    0  501    0  0.00000000000E+00  0.00000000000E+00 -0.12087190524E+04  0.12087190524E+04  0.50400001928E-02 0. -1.
    10030    2    1    2    0    0  0.00000000000E+00  0.00000000000E+00  0.65331516384E+03  0.30707532687E+04  0.30004507885E+04 0.  0.
        4    1    3    3  502    0 -0.15601568566E+03 -0.14841876953E+04  0.48361531528E+03  0.15687700262E+04  0.12699999809E+01 0.  1.
       -4    1    3    3    0  502  0.15601568566E+03  0.14841876953E+04  0.16969984856E+03  0.15019832425E+04  0.12699999809E+01 0. -1.
</event>
<event>
 5   0  0.1211008E-06  0.3112528E+04  0.7818609E-02  0.8212308E-01
       -1   -1    0    0    0  501  0.00000000000E+00  0.00000000000E+00  0.12841229167E+04  0.12841229167E+04  0.50400001928E-02 0. -1.
        1   -1    0    0  501    0  0.00000000000E+00  0.00000000000E+00 -0.18860794470E+04  0.18860794470E+04  0.50400001928E-02 0.  1.
    10030    2    1    2    0    0  0.00000000000E+00  0.00000000000E+00 -0.60195653025E+03  0.31702023637E+04  0.31125281304E+04 0.  0.
        3    1    3    3  502    0  0.58868965843E+03  0.83304259152E+03  0.89614834423E+03  0.13577913456E+04  0.10100000352E+00 0. -1.
       -3    1    3    3    0  502 -0.58868965843E+03 -0.83304259152E+03 -0.14981048745E+04  0.18124110181E+04  0.10100000352E+00 0.  1.
</event>
<event>
 5   0  0.1235960E-06  0.3041793E+04  0.7818609E-02  0.8231896E-01
        1   -1    0    0  501    0  0.00000000000E+00  0.00000000000E+00  0.16569399619E+04  0.16569399619E+04  0.50400001928E-02 0.  1.
       -1   -1    0    0    0  501  0.00000000000E+00  0.00000000000E+00 -0.13960228210E+04  0.13960228210E+04  0.50400001928E-02 0. -1.
    10030    2    1    2    0    0  0.00000000000E+00  0.00000000000E+00  0.26091714084E+03  0.30529627829E+04  0.30417928923E+04 0.  0.
        4    1    3    3  502    0  0.22633125534E+02 -0.45981110158E+03  0.15853282939E+04  0.16508197721E+04  0.12699999809E+01 0.  1.
       -4    1    3    3    0  502 -0.22633125534E+02  0.45981110158E+03 -0.13244111531E+04  0.14021430108E+04  0.12699999809E+01 0. -1.
</event>
<event>
 5   0  0.3445959E-06  0.3112743E+04  0.7818609E-02  0.8212249E-01
       -2   -1    0    0    0  501  0.00000000000E+00  0.00000000000E+00  0.15070994908E+04  0.15070994908E+04  0.25500000920E-02 0. -1.
        2   -1    0    0  501    0  0.00000000000E+00  0.00000000000E+00 -0.16072544755E+04  0.16072544755E+04  0.25500000920E-02 0.  1.
    10030    2    1    2    0    0  0.00000000000E+00  0.00000000000E+00 -0.10015498469E+03  0.31143539663E+04  0.31127431000E+04 0.  0.
        4    1    3    3  502    0  0.46490455817E+03 -0.90213196405E+03  0.11304960529E+04  0.15192107383E+04  0.12699999809E+01 0. -1.
       -4    1    3    3    0  502 -0.46490455817E+03  0.90213196405E+03 -0.12306510376E+04  0.15951432281E+04  0.12699999809E+01 0.  1.
</event>
<event>
 5   0  0.3374790E-06  0.3017185E+04  0.7818609E-02  0.8238841E-01
        2   -1    0    0  501    0  0.00000000000E+00  0.00000000000E+00  0.17920916820E+04  0.17920916820E+04  0.25500000920E-02 0.  1.
       -2   -1    0    0    0  501  0.00000000000E+00  0.00000000000E+00 -0.12699413639E+04  0.12699413639E+04  0.25500000920E-02 0. -1.
    10030    2    1    2    0    0  0.00000000000E+00  0.00000000000E+00  0.52215031808E+03  0.30620330459E+04  0.30171850158E+04 0.  0.
        2    1    3    3  502    0  0.81697152429E+03  0.10316471506E+04 -0.48752945269E+03  0.14033614225E+04  0.25500000920E-02 0. -1.
       -2    1    3    3    0  502 -0.81697152429E+03 -0.10316471506E+04  0.10096797708E+04  0.16586716234E+04  0.25500000920E-02 0.  1.
</event>
<event>
 5   0  0.3441897E-06  0.2593781E+04  0.7818609E-02  0.8370317E-01
       -2   -1    0    0    0  501  0.00000000000E+00  0.00000000000E+00  0.97525793954E+03  0.97525793954E+03  0.25500000920E-02 0. -1.
        2   -1    0    0  501    0  0.00000000000E+00  0.00000000000E+00 -0.17245955914E+04  0.17245955914E+04  0.25500000920E-02 0.  1.
    10030    2    1    2    0    0  0.00000000000E+00  0.00000000000E+00 -0.74933765182E+03  0.26998535309E+04  0.25937814426E+04 0.  0.
        5    1    3    3  502    0 -0.35870122174E+03 -0.51497614641E+02  0.92147918571E+03  0.99018409929E+03  0.46999998093E+01 0. -1.
       -5    1    3    3    0  502  0.35870122174E+03  0.51497614641E+02 -0.16708168375E+04  0.17096694316E+04  0.46999998093E+01 0.  1.
</event>
<event>
 5   0  0.3340899E-06  0.3137759E+04  0.7818609E-02  0.8205451E-01
       -2   -1    0    0    0  501  0.00000000000E+00  0.00000000000E+00  0.12199392641E+04  0.12199392641E+04  0.25500000920E-02 0. -1.
        2   -1    0    0  501    0  0.00000000000E+00  0.00000000000E+00 -0.20176270240E+04  0.20176270240E+04  0.25500000920E-02 0.  1.
    10030    2    1    2    0    0  0.00000000000E+00  0.00000000000E+00 -0.79768775991E+03  0.32375662881E+04  0.31377587077E+04 0.  0.
        3    1    3    3  502    0  0.81802297823E+03  0.24854403347E+03  0.95846358498E+03  0.12843629485E+04  0.10100000352E+00 0. -1.
       -3    1    3    3    0  502 -0.81802297823E+03 -0.24854403347E+03 -0.17561513449E+04  0.19532033396E+04  0.10100000352E+00 0.  1.
</event>
<event>
 5   0  0.3445410E-06  0.3125772E+04  0.7818609E-02  0.8208700E-01
       -2   -1    0    0    0  501  0.00000000000E+00  0.00000000000E+00  0.11612187892E+04  0.11612187892E+04  0.25500000920E-02 0. -1.
        2   -1    0    0  501    0  0.00000000000E+00  0.00000000000E+00 -0.21034902785E+04  0.21034902785E+04  0.25500000920E-02 0.  1.
    10030    2    1    2    0    0  0.00000000000E+00  0.00000000000E+00 -0.94227148931E+03  0.32647090677E+04  0.31257718626E+04 0.  0.
        1    1    3    3  502    0  0.53341365601E+03  0.75519688785E+03  0.84493620188E+03  0.12525053505E+04  0.50400001928E-02 0. -1.
       -1    1    3    3    0  502 -0.53341365601E+03 -0.75519688785E+03 -0.17872076912E+04  0.20122037171E+04  0.50400001928E-02 0.  1.
</event>
<event>
 5   0  0.1211008E-06  0.3228394E+04  0.7818609E-02  0.8181358E-01
        1   -1    0    0  501    0  0.00000000000E+00  0.00000000000E+00  0.15835972332E+04  0.15835972332E+04  0.50400001928E-02 0.  1.
       -1   -1    0    0    0  501  0.00000000000E+00  0.00000000000E+00 -0.16453882797E+04  0.16453882797E+04  0.50400001928E-02 0. -1.
    10030    2    1    2    0    0  0.00000000000E+00  0.00000000000E+00 -0.61791046486E+02  0.32289855129E+04  0.32283942307E+04 0.  0.
        3    1    3    3  502    0 -0.22175195641E+03  0.79359111520E+03  0.13574046371E+04  0.15879257374E+04  0.10100000352E+00 0.  1.
       -3    1    3    3    0  502  0.22175195641E+03 -0.79359111520E+03 -0.14191956836E+04  0.16410597755E+04  0.10100000352E+00 0. -1.
</event>
<event>
 5   0  0.1211008E-06  0.3152324E+04  0.7818609E-02  0.8201523E-01
        1   -1    0    0  501    0  0.00000000000E+00  0.00000000000E+00  0.10131908036E+04  0.10131908036E+04  0.50400001928E-02 0. -1.
       -1   -1    0    0    0  501  0.00000000000E+00  0.00000000000E+00 -0.24519427925E+04  0.24519427925E+04  0.50400001928E-02 0.  1.
    10030    2    1    2    0    0  0.00000000000E+00  0.00000000000E+00 -0.14387519889E+04  0.34651335961E+04  0.31523235166E+04 0.  0.
        3    1    3    3  502    0 -0.29249683071E+02 -0.10348421116E+04 -0.20258126893E+04  0.22750100664E+04  0.10100000352E+00 0.  1.
       -3    1    3    3    0  502  0.29249683071E+02  0.10348421116E+04  0.58706070034E+03  0.11901235297E+04  0.10100000352E+00 0. -1.
</event>
<event>
 5   0  0.3441897E-06  0.3080320E+04  0.7818609E-02  0.8221160E-01
       -2   -1    0    0    0  501  0.00000000000E+00  0.00000000000E+00  0.19360226208E+04  0.19360226208E+04  0.25500000920E-02 0.  1.
        2   -1    0    0  501    0  0.00000000000E+00  0.00000000000E+00 -0.12252402621E+04  0.12252402621E+04  0.25500000920E-02 0. -1.
    10030    2    1    2    0    0  0.00000000000E+00  0.00000000000E+00  0.71078235863E+03  0.31612628829E+04  0.30803200245E+04 0.  0.
        5    1    3    3  502    0  0.14884045819E+04  0.37992896836E+03  0.24121786029E+03  0.15549605675E+04  0.46999998093E+01 0. -1.
       -5    1    3    3    0  502 -0.14884045819E+04 -0.37992896836E+03  0.46956449834E+03  0.16063023154E+04  0.46999998093E+01 0.  1.
</event>
<event>
 5   0  0.1235960E-06  0.3098517E+04  0.7818609E-02  0.8216145E-01
        1   -1    0    0  501    0  0.00000000000E+00  0.00000000000E+00  0.26077536903E+04  0.26077536903E+04  0.50400001928E-02 0. -1.
       -1   -1    0    0    0  501  0.00000000000E+00  0.00000000000E+00 -0.92040954964E+03  0.92040954965E+03  0.50400001928E-02 0.  1.
    10030    2    1    2    0    0  0.00000000000E+00  0.00000000000E+00  0.16873441407E+04  0.35281632400E+04  0.30985166772E+04 0.  0.
        4    1    3    3  502    0 -0.48993261758E+03  0.12218737195E+04 -0.86406712073E+02  0.13192714235E+04  0.12699999809E+01 0.  1.
       -4    1    3    3    0  502  0.48993261758E+03 -0.12218737195E+04  0.17737508528E+04  0.22088918164E+04  0.12699999809E+01 0. -1.
</event>
<event>
 5   0  0.3445410E-06  0.3125885E+04  0.7818609E-02  0.8208670E-01
        2   -1    0    0  501    0  0.00000000000E+00  0.00000000000E+00  0.11440334304E+04  0.11440334304E+04  0.25500000920E-02 0.  1.
       -2   -1    0    0    0  501  0.00000000000E+00  0.00000000000E+00 -0.21352428036E+04  0.21352428036E+04  0.25500000920E-02 0. -1.
    10030    2    1    2    0    0  0.00000000000E+00  0.00000000000E+00 -0.99120937318E+03  0.32792762340E+04  0.31258849303E+04 0.  0.
        1    1    3    3  502    0  0.82820913554E+03  0.78613789789E+03 -0.16151392648E+04  0.19780338752E+04  0.50400001928E-02 0. -1.
       -1    1    3    3    0  502 -0.82820913554E+03 -0.78613789789E+03  0.62392989160E+03  0.13012423588E+04  0.50400001928E-02 0.  1.
</event>
<event>
 5   0  0.3340899E-06  0.3133847E+04  0.7818609E-02  0.8206510E-01
       -2   -1    0    0    0  501  0.00000000000E+00  0.00000000000E+00  0.13141882986E+04  0.13141882986E+04  0.25500000920E-02 0.  1.
        2   -1    0    0  501    0  0.00000000000E+00  0.00000000000E+00 -0.18682632907E+04  0.18682632907E+04  0.25500000920E-02 0. -1.
    10030    2    1    2    0    0  0.00000000000E+00  0.00000000000E+00 -0.55407499204E+03  0.31824515893E+04  0.31338473194E+04 0.  0.
        3    1    3    3  502    0 -0.11917908249E+04  0.94540203024E+03  0.10442032066E+03  0.15248127697E+04  0.10100000352E+00 0. -1.
       -3    1    3    3    0  502  0.11917908249E+04 -0.94540203024E+03 -0.65849531270E+03  0.16576388196E+04  0.10100000352E+00 0.  1.
</event>
<event>
 5   0  0.1211008E-06  0.3109349E+04  0.7818609E-02  0.8213177E-01
       -1   -1    0    0    0  501  0.00000000000E+00  0.00000000000E+00  0.11441127940E+04  0.11441127940E+04  0.50400001928E-02 0. -1.
        1   -1    0    0  501    0  0.00000000000E+00  0.00000000000E+00 -0.21125654544E+04  0.21125654544E+04  0.50400001928E-02 0.  1.
    10030    2    1    2    0    0  0.00000000000E+00  0.00000000000E+00 -0.96845266040E+03  0.32566782483E+04  0.31093492338E+04 0.  0.
        3    1    3    3  502    0 -0.72837964274E+03 -0.11300032737E+04 -0.13019691384E+04  0.18715148811E+04  0.10100000352E+00 0.  1.
       -3    1    3    3    0  502  0.72837964274E+03  0.11300032737E+04  0.33351647804E+03  0.13851633672E+04  0.10100000352E+00 0. -1.
</event>
<event>
 5   0  0.3340899E-06  0.3100275E+04  0.7818609E-02  0.8215663E-01
        2   -1    0    0  501    0  0.00000000000E+00  0.00000000000E+00  0.22243816015E+04  0.22243816015E+04  0.25500000920E-02 0.  1.
       -2   -1    0    0    0  501  0.00000000000E+00  0.00000000000E+00 -0.10802668198E+04  0.10802668198E+04  0.25500000920E-02 0. -1.
    10030    2    1    2    0    0  0.00000000000E+00  0.00000000000E+00  0.11441147816E+04  0.33046484213E+04  0.31002745934E+04 0.  0.
        3    1    3    3  502    0  0.66345480124E+03  0.44752180064E+03  0.19871566479E+04  0.21422510564E+04  0.10100000352E+00 0.  1.
       -3    1    3    3    0  502 -0.66345480124E+03 -0.44752180064E+03 -0.84304186626E+03  0.11623973648E+04  0.10100000352E+00 0. -1.
</event>
<event>
 5   0  0.3445410E-06  0.3090068E+04  0.7818609E-02  0.8218469E-01
       -2   -1    0    0    0  501  0.00000000000E+00  0.00000000000E+00  0.10986797064E+04  0.10986797064E+04  0.25500000920E-02 0. -1.
        2   -1    0    0  501    0  0.00000000000E+00  0.00000000000E+00 -0.21727265084E+04  0.21727265084E+04  0.25500000920E-02 0.  1.
    10030    2    1    2    0    0  0.00000000000E+00  0.00000000000E+00 -0.10740468020E+04  0.32714062149E+04  0.30900682986E+04 0.  0.
        1    1    3    3  502    0  0.96836108207E+03 -0.56251547230E+03  0.58985803118E+03  0.12657327280E+04  0.50400001928E-02 0. -1.
       -1    1    3    3    0  502 -0.96836108207E+03  0.56251547230E+03 -0.16639048332E+04  0.20056734868E+04  0.50400001928E-02 0.  1.
</event>
<event>
 5   0  0.1171915E-06  0.3049280E+04  0.7818609E-02  0.8229797E-01
        1   -1    0    0  501    0  0.00000000000E+00  0.00000000000E+00  0.14644988641E+04  0.14644988641E+04  0.50400001928E-02 0.  1.
       -1   -1    0    0    0  501  0.00000000000E+00  0.00000000000E+00 -0.15872505130E+04  0.15872505130E+04  0.50400001928E-02 0. -1.
    10030    2    1    2    0    0  0.00000000000E+00  0.00000000000E+00 -0.12275164886E+03  0.30517493771E+04  0.30492796352E+04 0.  0.
        2    1    3    3  502    0 -0.97380441866E+03  0.76851280057E+03 -0.94844556922E+03  0.15615556244E+04  0.25500000920E-02 0. -1.
       -2    1    3    3    0  502  0.97380441866E+03 -0.76851280057E+03  0.82569392036E+03  0.14901937527E+04  0.25500000920E-02 0.  1.
</event>
<event>
 5   0  0.3445959E-06  0.3251346E+04  0.7818609E-02  0.8175387E-01
       -2   -1    0    0    0  501  0.00000000000E+00  0.00000000000E+00  0.20260417582E+04  0.20260417582E+04  0.25500000920E-02 0. -1.
        2   -1    0    0  501    0  0.00000000000E+00  0.00000000000E+00 -0.13044218265E+04  0.13044218265E+04  0.25500000920E-02 0.  1.
    10030    2    1    2    0    0  0.00000000000E+00  0.00000000000E+00  0.72161993174E+03  0.33304635847E+04  0.32513462386E+04 0.  0.
        4    1    3    3  502    0  0.38602224903E+03 -0.11487390647E+04 -0.74916178721E+03  0.14247314174E+04  0.12699999809E+01 0.  1.
       -4    1    3    3    0  502 -0.38602224903E+03  0.11487390647E+04  0.14707817190E+04  0.19057321672E+04  0.12699999809E+01 0. -1.
</event>
<event>
 5   0  0.3374790E-06  0.3027355E+04  0.7818609E-02  0.8235963E-01
        2   -1    0    0  501    0  0.00000000000E+00  0.00000000000E+00  0.15807750673E+04  0.15807750673E+04  0.25500000920E-02 0.  1.
       -2   -1    0    0    0  501  0.00000000000E+00  0.00000000000E+00 -0.14494275210E+04  0.14494275210E+04  0.25500000920E-02 0. -1.
    10030    2    1    2    0    0  0.00000000000E+00  0.00000000000E+00  0.13134754633E+03  0.30302025884E+04  0.30273545462E+04 0.  0.
        2    1    3    3  502    0 -0.10458728893E+04  0.10942425445E+04  0.67103587500E+02  0.15151632711E+04  0.25500000920E-02 0.  1.
       -2    1    3    3    0  502  0.10458728893E+04 -0.10942425445E+04  0.64243958831E+02  0.15150393173E+04  0.25500000920E-02 0. -1.
</event>
<event>
 5   0  0.1211008E-06  0.3111896E+04  0.7818609E-02  0.8212481E-01
        1   -1    0    0  501    0  0.00000000000E+00  0.00000000000E+00  0.14204918266E+04  0.14204918266E+04  0.50400001928E-02 0. -1.
       -1   -1    0    0    0  501  0.00000000000E+00  0.00000000000E+00 -0.17043208642E+04  0.17043208642E+04  0.50400001928E-02 0.  1.
    10030    2    1    2    0    0  0.00000000000E+00  0.00000000000E+00 -0.28382903754E+03  0.31248126908E+04  0.31118957936E+04 0.  0.
        3    1    3    3  502    0 -0.32393156619E+03 -0.66232335134E+03 -0.15177733541E+04  0.16873766165E+04  0.10100000352E+00 0.  1.
       -3    1    3    3    0  502  0.32393156619E+03  0.66232335134E+03  0.12339443165E+04  0.14374360743E+04  0.10100000352E+00 0. -1.
</event>
<event>
 5   0  0.1235960E-06  0.3126326E+04  0.7818609E-02  0.8208550E-01
       -1   -1    0    0    0  501  0.00000000000E+00  0.00000000000E+00  0.16160797297E+04  0.16160797297E+04  0.50400001928E-02 0.  1.
        1   -1    0    0  501    0  0.00000000000E+00  0.00000000000E+00 -0.15119788725E+04  0.15119788725E+04  0.50400001928E-02 0. -1.
    10030    2    1    2    0    0  0.00000000000E+00  0.00000000000E+00  0.10410085721E+03  0.31280586022E+04  0.31263258996E+04 0.  0.
        4    1    3    3  502    0  0.60172779672E+02  0.14385507696E+04 -0.55691462166E+03  0.15437631259E+04  0.12699999809E+01 0.  1.
       -4    1    3    3    0  502 -0.60172779672E+02 -0.14385507696E+04  0.66101547888E+03  0.15842954763E+04  0.12699999809E+01 0. -1.
</event>
<event>
 5   0  0.1250276E-06  0.3114357E+04  0.7818609E-02  0.8211809E-01
       -1   -1    0    0    0  501  0.00000000000E+00  0.00000000000E+00  0.15233729782E+04  0.15233729782E+04  0.50400001928E-02 0.  1.
        1   -1    0    0  501    0  0.00000000000E+00  0.00000000000E+00 -0.15917343725E+04  0.15917343725E+04  0.50400001928E-02 0. -1.
    10030    2    1    2    0    0  0.00000000000E+00  0.00000000000E+00 -0.68361394264E+02  0.31151073508E+04  0.31143571610E+04 0.  0.
        5    1    3    3  502    0  0.16011484542E+02  0.97536816566E+03  0.11798594278E+04  0.15309114232E+04  0.46999998093E+01 0.  1.
       -5    1    3    3    0  502 -0.16011484542E+02 -0.97536816566E+03 -0.12482208221E+04  0.15841959276E+04  0.46999998093E+01 0. -1.
</event>
<event>
 5   0  0.1235960E-06  0.3126442E+04  0.7818609E-02  0.8208518E-01
        1   -1    0    0  501    0  0.00000000000E+00  0.00000000000E+00  0.22610705108E+04  0.22610705108E+04  0.50400001928E-02 0. -1.
       -1   -1    0    0    0  501  0.00000000000E+00  0.00000000000E+00 -0.10807534892E+04  0.10807534892E+04  0.50400001928E-02 0.  1.
    10030    2    1    2    0    0  0.00000000000E+00  0.00000000000E+00  0.11803170216E+04  0.33418240000E+04  0.31264419674E+04 0.  0.
        4    1    3    3  502    0 -0.93668795104E+03 -0.44452502255E+03  0.18406559331E+04  0.21125819961E+04  0.12699999809E+01 0. -1.
       -4    1    3    3    0  502  0.93668795104E+03  0.44452502255E+03 -0.66033891150E+03  0.12292420039E+04  0.12699999809E+01 0.  1.
</event>
<event>
 5   0  0.1198763E-06  0.3079739E+04  0.7818609E-02  0.8221321E-01
       -1   -1    0    0    0  501  0.00000000000E+00  0.00000000000E+00  0.12089067794E+04  0.12089067794E+04  0.50400001928E-02 0.  1.
        1   -1    0    0  501    0  0.00000000000E+00  0.00000000000E+00 -0.19614395000E+04  0.19614395000E+04  0.50400001928E-02 0. -1.
    10030    2    1    2    0    0  0.00000000000E+00  0.00000000000E+00 -0.75253272058E+03  0.31703462794E+04  0.30797386311E+04 0.  0.
        1    1    3    3  502    0 -0.12149660682E+04  0.35598323452E+03  0.52606694833E+03  0.13709898046E+04  0.50400001928E-02 0.  1.
       -1    1    3    3    0  502  0.12149660682E+04 -0.35598323452E+03 -0.12785996689E+04  0.17993564748E+04  0.50400001928E-02 0. -1.
</event>
<event>
 5   0  0.3441897E-06  0.3119892E+04  0.7818609E-02  0.8210300E-01
       -2   -1    0    0    0  501  0.00000000000E+00  0.00000000000E+00  0.18997332268E+04  0.18997332268E+04  0.25500000920E-02 0.  1.
        2   -1    0    0  501    0  0.00000000000E+00  0.00000000000E+00 -0.12809332760E+04  0.12809332760E+04  0.25500000920E-02 0. -1.
    10030    2    1    2    0    0  0.00000000000E+00  0.00000000000E+00  0.61879995087E+03  0.31806665028E+04  0.31198919889E+04 0.  0.
        5    1    3    3  502    0  0.28703855994E+03 -0.65769981953E+02 -0.12523326290E+04  0.12864975434E+04  0.46999998093E+01 0. -1.
       -5    1    3    3    0  502 -0.28703855994E+03  0.65769981953E+02  0.18711325799E+04  0.18941689594E+04  0.46999998093E+01 0.  1.
</event>
<event>
 5   0  0.1235960E-06  0.3028905E+04  0.7818609E-02  0.8235525E-01
       -1   -1    0    0    0  501  0.00000000000E+00  0.00000000000E+00  0.11553755952E+04  0.11553755952E+04  0.50400001928E-02 0.  1.
        1   -1    0    0  501    0  0.00000000000E+00  0.00000000000E+00 -0.19851267135E+04  0.19851267135E+04  0.50400001928E-02 0. -1.
    10030    2    1    2    0    0  0.00000000000E+00  0.00000000000E+00 -0.82975111823E+03  0.31405023087E+04  0.30289053853E+04 0.  0.
        4    1    3    3  502    0  0.26958206286E+03  0.14899339753E+04 -0.38229149243E+03  0.15616421284E+04  0.12699999809E+01 0.  1.
       -4    1    3    3    0  502 -0.26958206286E+03 -0.14899339753E+04 -0.44745962580E+03  0.15788601803E+04  0.12699999809E+01 0. -1.
</event>
<event>
 5   0  0.1171915E-06  0.3117119E+04  0.7818609E-02  0.8211055E-01
        1   -1    0    0  501    0  0.00000000000E+00  0.00000000000E+00  0.12857955294E+04  0.12857955294E+04  0.50400001928E-02 0.  1.
       -1   -1    0    0    0  501  0.00000000000E+00  0.00000000000E+00 -0.18891867870E+04  0.18891867870E+04  0.50400001928E-02 0. -1.
    10030    2    1    2    0    0  0.00000000000E+00  0.00000000000E+00 -0.60339125754E+03  0.31749823164E+04  0.31171191347E+04 0.  0.
        2    1    3    3  502    0 -0.12925981741E+04 -0.85117044857E+03 -0.11441638848E+03  0.15518995722E+04  0.25500000920E-02 0. -1.
       -2    1    3    3    0  502  0.12925981741E+04  0.85117044857E+03 -0.48897486906E+03  0.16230827443E+04  0.25500000920E-02 0.  1.
</event>
<event>
 5   0  0.3340899E-06  0.3067707E+04  0.7818609E-02  0.8224657E-01
        2   -1    0    0  501    0  0.00000000000E+00  0.00000000000E+00  0.20803383755E+04  0.20803383755E+04  0.25500000920E-02 0. -1.
       -2   -1    0    0    0  501  0.00000000000E+00  0.00000000000E+00 -0.11309251793E+04  0.11309251793E+04  0.25500000920E-02 0.  1.
    10030    2    1    2    0    0  0.00000000000E+00  0.00000000000E+00  0.94941319621E+03  0.32112635547E+04  0.30677073199E+04 0.  0.
        3    1    3    3  502    0 -0.74058826333E+03 -0.65797922962E+03 -0.75111754422E+03  0.12432156763E+04  0.10100000352E+00 0.  1.
       -3    1    3    3    0  502  0.74058826333E+03  0.65797922962E+03  0.17005307404E+04  0.19680478784E+04  0.10100000352E+00 0. -1.
</event>
<event>
 5   0  0.3340899E-06  0.3090639E+04  0.7818609E-02  0.8218312E-01
        2   -1    0    0  501    0  0.00000000000E+00  0.00000000000E+00  0.11667202959E+04  0.11667202959E+04  0.25500000920E-02 0.  1.
       -2   -1    0    0    0  501  0.00000000000E+00  0.00000000000E+00 -0.20467739965E+04  0.20467739965E+04  0.25500000920E-02 0. -1.
    10030    2    1    2    0    0  0.00000000000E+00  0.00000000000E+00 -0.88005370060E+03  0.32134942925E+04  0.30906392627E+04 0.  0.
        3    1    3    3  502    0 -0.77084923150E+03  0.13188693890E+04 -0.19754470774E+03  0.15403405223E+04  0.10100000352E+00 0.  1.
       -3    1    3    3    0  502  0.77084923150E+03 -0.13188693890E+04 -0.68250899285E+03  0.16731537701E+04  0.10100000352E+00 0. -1.
</event>
<event>
 5   0  0.1250276E-06  0.3141152E+04  0.7818609E-02  0.8204534E-01
        1   -1    0    0  501    0  0.00000000000E+00  0.00000000000E+00  0.18061511285E+04  0.18061511285E+04  0.50400001928E-02 0. -1.
       -1   -1    0    0    0  501  0.00000000000E+00  0.00000000000E+00 -0.13657267406E+04  0.13657267407E+04  0.50400001928E-02 0.  1.
    10030    2    1    2    0    0  0.00000000000E+00  0.00000000000E+00  0.44042438787E+03  0.31718778692E+04  0.31411519504E+04 0.  0.
        5    1    3    3  502    0 -0.11583270720E+03  0.80084836839E+03  0.15794517334E+04  0.17746732639E+04  0.46999998093E+01 0. -1.
       -5    1    3    3    0  502  0.11583270720E+03 -0.80084836839E+03 -0.11390273456E+04  0.13972046053E+04  0.46999998093E+01 0.  1.
</event>
<event>
 5   0  0.3441897E-06  0.3079845E+04  0.7818609E-02  0.8221291E-01
       -2   -1    0    0    0  501  0.00000000000E+00  0.00000000000E+00  0.13012082782E+04  0.13012082782E+04  0.25500000920E-02 0. -1.
        2   -1    0    0  501    0  0.00000000000E+00  0.00000000000E+00 -0.18224296962E+04  0.18224296962E+04  0.25500000920E-02 0.  1.
    10030    2    1    2    0    0  0.00000000000E+00  0.00000000000E+00 -0.52122141800E+03  0.31236379745E+04  0.30798445462E+04 0.  0.
        5    1    3    3  502    0  0.14339674413E+04 -0.44818899065E+03 -0.60335461957E+03  0.16190104635E+04  0.46999998093E+01 0.  1.
       -5    1    3    3    0  502 -0.14339674413E+04  0.44818899065E+03  0.82133201569E+02  0.15046275110E+04  0.46999998093E+01 0. -1.
</event>
<event>
 5   0  0.3340899E-06  0.3098027E+04  0.7818609E-02  0.8216280E-01
        2   -1    0    0  501    0  0.00000000000E+00  0.00000000000E+00  0.23360884576E+04  0.23360884576E+04  0.25500000920E-02 0.  1.
       -2   -1    0    0    0  501  0.00000000000E+00  0.00000000000E+00 -0.10271195344E+04  0.10271195344E+04  0.25500000920E-02 0. -1.
    10030    2    1    2    0    0  0.00000000000E+00  0.00000000000E+00  0.13089689232E+04  0.33632079920E+04  0.30980265259E+04 0.  0.
        3    1    3    3  502    0 -0.39526908276E+03 -0.80071981586E+03  0.20285483520E+04  0.22163930829E+04  0.10100000352E+00 0.  1.
       -3    1    3    3    0  502  0.39526908276E+03  0.80071981586E+03 -0.71957942875E+03  0.11468149091E+04  0.10100000352E+00 0. -1.
</event>
<event>
 5   0  0.1211008E-06  0.3092393E+04  0.7818609E-02  0.8217829E-01
        1   -1    0    0  501    0  0.00000000000E+00  0.00000000000E+00  0.22547794434E+04  0.22547794434E+04  0.50400001928E-02 0.  1.
       -1   -1    0    0    0  501  0.00000000000E+00  0.00000000000E+00 -0.10602917051E+04  0.10602917051E+04  0.50400001928E-02 0. -1.
    10030    2    1    2    0    0  0.00000000000E+00  0.00000000000E+00  0.11944877383E+04  0.33150711485E+04  0.30923932096E+04 0.  0.
        3    1    3    3  502    0 -0.15290001763E+03  0.10340593598E+04 -0.62412446622E+03  0.12174516560E+04  0.10100000352E+00 0. -1.
       -3    1    3    3    0  502  0.15290001763E+03 -0.10340593598E+04  0.18186122045E+04  0.20976194926E+04  0.10100000352E+00 0.  1.
</event>
<event>
 5   0  0.1211008E-06  0.2908754E+04  0.7818609E-02  0.8270278E-01
        1   -1    0    0  501    0  0.00000000000E+00  0.00000000000E+00  0.17564705810E+04  0.17564705810E+04  0.50400001928E-02 0. -1.
       -1   -1    0    0    0  501  0.00000000000E+00  0.00000000000E+00 -0.12042404586E+04  0.12042404586E+04  0.50400001928E-02 0.  1.
    10030    2    1    2    0    0  0.00000000000E+00  0.00000000000E+00  0.55223012233E+03  0.29607110396E+04  0.29087543300E+04 0.  0.
        3    1    3    3  502    0  0.66185673446E+03 -0.46469181512E+03  0.15065164147E+04  0.17098492735E+04  0.10100000352E+00 0. -1.
       -3    1    3    3    0  502 -0.66185673446E+03  0.46469181512E+03 -0.95428629237E+03  0.12508617661E+04  0.10100000352E+00 0.  1.
</event>
<event>
 5   0  0.1235960E-06  0.3144660E+04  0.7818609E-02  0.8203587E-01
        1   -1    0    0  501    0  0.00000000000E+00  0.00000000000E+00  0.12571840614E+04  0.12571840614E+04  0.50400001928E-02 0. -1.
       -1   -1    0    0    0  501  0.00000000000E+00  0.00000000000E+00 -0.19664759190E+04  0.19664759190E+04  0.50400001928E-02 0.  1.
    10030    2    1    2    0    0  0.00000000000E+00  0.00000000000E+00 -0.70929185759E+03  0.32236599803E+04  0.31446603520E+04 0.  0.
        4    1    3    3  502    0  0.18823030287E+03  0.42044805282E+03  0.11864546575E+04  0.12727464317E+04  0.12699999809E+01 0. -1.
       -4    1    3    3    0  502 -0.18823030287E+03 -0.42044805282E+03 -0.18957465151E+04  0.19509135487E+04  0.12699999809E+01 0.  1.
</event>
<event>
 5   0  0.3445410E-06  0.3116192E+04  0.7818609E-02  0.8211308E-01
       -2   -1    0    0    0  501  0.00000000000E+00  0.00000000000E+00  0.15610536569E+04  0.15610536569E+04  0.25500000920E-02 0. -1.
        2   -1    0    0  501    0  0.00000000000E+00  0.00000000000E+00 -0.15551438457E+04  0.15551438457E+04  0.25500000920E-02 0.  1.
    10030    2    1    2    0    0  0.00000000000E+00  0.00000000000E+00  0.59098111824E+01  0.31161975026E+04  0.31161918987E+04 0.  0.
        1    1    3    3  502    0 -0.11503436285E+04  0.96744439429E+03 -0.40744060282E+03  0.15573204438E+04  0.50400001928E-02 0.  1.
       -1    1    3    3    0  502  0.11503436285E+04 -0.96744439429E+03  0.41335041401E+03  0.15588770588E+04  0.50400001928E-02 0. -1.
</event>
<event>
 5   0  0.1109562E-06  0.3105088E+04  0.7818609E-02  0.8214343E-01
        4   -1    0    0  501    0  0.00000000000E+00  0.00000000000E+00  0.13743408681E+04  0.13743414549E+04  0.12699999809E+01 0.  1.
       -4   -1    0    0    0  501  0.00000000000E+00  0.00000000000E+00 -0.17538523747E+04  0.17538528346E+04  0.12699999809E+01 0. -1.
    10030    2    1    2    0    0  0.00000000000E+00  0.00000000000E+00 -0.37951150663E+03  0.31281942895E+04  0.31050878456E+04 0.  0.
        4    1    3    3  502    0 -0.62401632913E+03 -0.77027163522E+03 -0.13935013038E+04  0.17101351607E+04  0.12699999809E+01 0. -1.
       -4    1    3    3    0  502  0.62401632913E+03  0.77027163522E+03  0.10139897972E+04  0.14180591288E+04  0.12699999809E+01 0.  1.
</event>
<event>
 5   0  0.3374790E-06  0.2980729E+04  0.7818609E-02  0.8249255E-01
       -2   -1    0    0    0  501  0.00000000000E+00  0.00000000000E+00  0.79314476056E+03  0.79314476056E+03  0.25500000920E-02 0. -1.
        2   -1    0    0  501    0  0.00000000000E+00  0.00000000000E+00 -0.28004796592E+04  0.28004796592E+04  0.25500000920E-02 0.  1.
    10030    2    1    2    0    0  0.00000000000E+00  0.00000000000E+00 -0.20073348986E+04  0.35936244198E+04  0.29807286148E+04 0.  0.
        2    1    3    3  502    0  0.12499908050E+04  0.29733839055E+03 -0.19141285934E+04  0.23053796657E+04  0.25500000920E-02 0. -1.
       -2    1    3    3    0  502 -0.12499908050E+04 -0.29733839055E+03 -0.93206305230E+02  0.12882447540E+04  0.25500000920E-02 0.  1.
</event>
<event>
 5   0  0.3340899E-06  0.3073944E+04  0.7818609E-02  0.8222925E-01
       -2   -1    0    0    0  501  0.00000000000E+00  0.00000000000E+00  0.82646032421E+03  0.82646032422E+03  0.25500000920E-02 0. -1.
        2   -1    0    0  501    0  0.00000000000E+00  0.00000000000E+00 -0.28583133986E+04  0.28583133986E+04  0.25500000920E-02 0.  1.
    10030    2    1    2    0    0  0.00000000000E+00  0.00000000000E+00 -0.20318530744E+04  0.36847737228E+04  0.30739437979E+04 0.  0.
        3    1    3    3  502    0  0.54407226547E+03 -0.57714891603E+03  0.56217564263E+03  0.97219183534E+03  0.10100000352E+00 0. -1.
       -3    1    3    3    0  502 -0.54407226547E+03  0.57714891603E+03 -0.25940287170E+04  0.27125818875E+04  0.10100000352E+00 0.  1.
</event>
<event>
 5   0  0.1171915E-06  0.3104162E+04  0.7818609E-02  0.8214597E-01
        1   -1    0    0  501    0  0.00000000000E+00  0.00000000000E+00  0.14416122665E+04  0.14416122665E+04  0.50400001928E-02 0.  1.
       -1   -1    0    0    0  501  0.00000000000E+00  0.00000000000E+00 -0.16710146315E+04  0.16710146315E+04  0.50400001928E-02 0. -1.
    10030    2    1    2    0    0  0.00000000000E+00  0.00000000000E+00 -0.22940236500E+03  0.31126268979E+04  0.31041618451E+04 0.  0.
        2    1    3    3  502    0 -0.14225151517E+04  0.44827157782E+03 -0.54535862664E+03  0.15880531465E+04  0.25500000920E-02 0. -1.
       -2    1    3    3    0  502  0.14225151517E+04 -0.44827157782E+03  0.31595626164E+03  0.15245737515E+04  0.25500000920E-02 0.  1.
</event>
<event>
 5   0  0.1198763E-06  0.3112041E+04  0.7818609E-02  0.8212441E-01
       -1   -1    0    0    0  501  0.00000000000E+00  0.00000000000E+00  0.17770810631E+04  0.17770810631E+04  0.50400001928E-02 0. -1.
        1   -1    0    0  501    0  0.00000000000E+00  0.00000000000E+00 -0.13624584031E+04  0.13624584031E+04  0.50400001928E-02 0.  1.
    10030    2    1    2    0    0  0.00000000000E+00  0.00000000000E+00  0.41462265995E+03  0.31395394662E+04  0.31120405058E+04 0.  0.
        1    1    3    3  502    0 -0.14233169249E+04  0.30281814619E+03 -0.34861984389E+03  0.14963507924E+04  0.50400001928E-02 0. -1.
       -1    1    3    3    0  502  0.14233169249E+04 -0.30281814619E+03  0.76324250384E+03  0.16431886739E+04  0.50400001928E-02 0.  1.
</event>
<event>
 5   0  0.3340899E-06  0.3062614E+04  0.7818609E-02  0.8226074E-01
        2   -1    0    0  501    0  0.00000000000E+00  0.00000000000E+00  0.15822200110E+04  0.15822200110E+04  0.25500000920E-02 0. -1.
       -2   -1    0    0    0  501  0.00000000000E+00  0.00000000000E+00 -0.14820321864E+04  0.14820321864E+04  0.25500000920E-02 0.  1.
    10030    2    1    2    0    0  0.00000000000E+00  0.00000000000E+00  0.10018782466E+03  0.30642521974E+04  0.30626139047E+04 0.  0.
        3    1    3    3  502    0  0.80185831576E+03  0.94210100297E+03  0.95300111310E+03  0.15616472682E+04  0.10100000352E+00 0. -1.
       -3    1    3    3    0  502 -0.80185831576E+03 -0.94210100297E+03 -0.85281328844E+03  0.15026049293E+04  0.10100000352E+00 0.  1.
</event>
<event>
 5   0  0.3441897E-06  0.3091095E+04  0.7818609E-02  0.8218186E-01
       -2   -1    0    0    0  501  0.00000000000E+00  0.00000000000E+00  0.20166818859E+04  0.20166818859E+04  0.25500000920E-02 0. -1.
        2   -1    0    0  501    0  0.00000000000E+00  0.00000000000E+00 -0.11844787037E+04  0.11844787037E+04  0.25500000920E-02 0.  1.
    10030    2    1    2    0    0  0.00000000000E+00  0.00000000000E+00  0.83220318217E+03  0.32011605896E+04  0.30910947873E+04 0.  0.
        5    1    3    3  502    0 -0.15254361157E+04  0.13352975269E+03  0.19909521419E+03  0.15441653190E+04  0.46999998093E+01 0. -1.
       -5    1    3    3    0  502  0.15254361157E+04 -0.13352975269E+03  0.63310796798E+03  0.16569952707E+04  0.46999998093E+01 0.  1.
</event>
<event>
 5   0  0.1211008E-06  0.3115556E+04  0.7818609E-02  0.8211482E-01
       -1   -1    0    0    0  501  0.00000000000E+00  0.00000000000E+00  0.12720906833E+04  0.12720906834E+04  0.50400001928E-02 0. -1.
        1   -1    0    0  501    0  0.00000000000E+00  0.00000000000E+00 -0.19076246421E+04  0.19076246421E+04  0.50400001928E-02 0.  1.
    10030    2    1    2    0    0  0.00000000000E+00  0.00000000000E+00 -0.63553395874E+03  0.31797153254E+04  0.31155555104E+04 0.  0.
        3    1    3    3  502    0 -0.10083957730E+04  0.82695803738E+03 -0.11873400253E+04  0.17636603915E+04  0.10100000352E+00 0.  1.
       -3    1    3    3    0  502  0.10083957730E+04 -0.82695803738E+03  0.55180606656E+03  0.14160549339E+04  0.10100000352E+00 0. -1.
</event>
<event>
 5   0  0.1235960E-06  0.3103835E+04  0.7818609E-02  0.8214686E-01
       -1   -1    0    0    0  501  0.00000000000E+00  0.00000000000E+00  0.15461323448E+04  0.15461323448E+04  0.50400001928E-02 0.  1.
        1   -1    0    0  501    0  0.00000000000E+00  0.00000000000E+00 -0.15577246089E+04  0.15577246089E+04  0.50400001928E-02 0. -1.
    10030    2    1    2    0    0  0.00000000000E+00  0.00000000000E+00 -0.11592264086E+02  0.31038569537E+04  0.31038353062E+04 0.  0.
        4    1    3    3  502    0 -0.44139939334E+03 -0.14794413657E+04  0.15189647083E+03  0.15513395276E+04  0.12699999809E+01 0. -1.
       -4    1    3    3    0  502  0.44139939334E+03  0.14794413657E+04 -0.16348873492E+03  0.15525174261E+04  0.12699999809E+01 0.  1.
</event>
<event>
 5   0  0.1171915E-06  0.2908649E+04  0.7818609E-02  0.8270309E-01
        1   -1    0    0  501    0  0.00000000000E+00  0.00000000000E+00  0.22111554401E+04  0.22111554402E+04  0.50400001928E-02 0. -1.
       -1   -1    0    0    0  501  0.00000000000E+00  0.00000000000E+00 -0.95654056119E+03  0.95654056120E+03  0.50400001928E-02 0.  1.
    10030    2    1    2    0    0  0.00000000000E+00  0.00000000000E+00  0.12546148790E+04  0.31676960014E+04  0.29086490786E+04 0.  0.
        2    1    3    3  502    0  0.32321051632E+03  0.11718855751E+04  0.14967021256E+04  0.19281851809E+04  0.25500000920E-02 0. -1.
       -2    1    3    3    0  502 -0.32321051632E+03 -0.11718855751E+04 -0.24208724661E+03  0.12395108205E+04  0.25500000920E-02 0.  1.
</event>
<event>
 5   0  0.3445959E-06  0.3205722E+04  0.7818609E-02  0.8187308E-01
       -2   -1    0    0    0  501  0.00000000000E+00  0.00000000000E+00  0.19326164367E+04  0.19326164367E+04  0.25500000920E-02 0. -1.
        2   -1    0    0  501    0  0.00000000000E+00  0.00000000000E+00 -0.13293703376E+04  0.13293703376E+04  0.25500000920E-02 0.  1.
    10030    2    1    2    0    0  0.00000000000E+00  0.00000000000E+00  0.60324609915E+03  0.32619867743E+04  0.32057217377E+04 0.  0.
        4    1    3    3  502    0 -0.48501093372E+03  0.33567921106E+03 -0.12149195922E+04  0.13505359555E+04  0.12699999809E+01 0.  1.
       -4    1    3    3    0  502  0.48501093372E+03 -0.33567921106E+03  0.18181656914E+04  0.19114508188E+04  0.12699999809E+01 0. -1.
</event>
<event>
 5   0  0.1250276E-06  0.3057513E+04  0.7818609E-02  0.8227496E-01
       -1   -1    0    0    0  501  0.00000000000E+00  0.00000000000E+00  0.96408318403E+03  0.96408318405E+03  0.50400001928E-02 0. -1.
        1   -1    0    0  501    0  0.00000000000E+00  0.00000000000E+00 -0.24241650333E+04  0.24241650333E+04  0.50400001928E-02 0.  1.
    10030    2    1    2    0    0  0.00000000000E+00  0.00000000000E+00 -0.14600818493E+04  0.33882482174E+04  0.30575132013E+04 0.  0.
        5    1    3    3  502    0  0.60181302694E+02 -0.65365938073E+03  0.79995083416E+03  0.10348119647E+04  0.46999998093E+01 0. -1.
       -5    1    3    3    0  502 -0.60181302694E+02  0.65365938073E+03 -0.22600326835E+04  0.23534362527E+04  0.46999998093E+01 0.  1.
</event>
<event>
 5   0  0.3441897E-06  0.3070164E+04  0.7818609E-02  0.8223974E-01
       -2   -1    0    0    0  501  0.00000000000E+00  0.00000000000E+00  0.14113505403E+04  0.14113505403E+04  0.25500000920E-02 0.  1.
        2   -1    0    0  501    0  0.00000000000E+00  0.00000000000E+00 -0.16696609681E+04  0.16696609681E+04  0.25500000920E-02 0. -1.
    10030    2    1    2    0    0  0.00000000000E+00  0.00000000000E+00 -0.25831042777E+03  0.30810115084E+04  0.30701641060E+04 0.  0.
        5    1    3    3  502    0 -0.88358506014E+03  0.12203910248E+04 -0.42409497322E+03  0.15652333526E+04  0.46999998093E+01 0. -1.
       -5    1    3    3    0  502  0.88358506014E+03 -0.12203910248E+04  0.16578454545E+03  0.15157781557E+04  0.46999998093E+01 0.  1.
</event>
<event>
 5   0  0.1171915E-06  0.3033347E+04  0.7818609E-02  0.8234272E-01
        1   -1    0    0  501    0  0.00000000000E+00  0.00000000000E+00  0.10753025670E+04  0.10753025671E+04  0.50400001928E-02 0.  1.
       -1   -1    0    0    0  501  0.00000000000E+00  0.00000000000E+00 -0.21392107395E+04  0.21392107395E+04  0.50400001928E-02 0. -1.
    10030    2    1    2    0    0  0.00000000000E+00  0.00000000000E+00 -0.10639081725E+04  0.32145133066E+04  0.30333471939E+04 0.  0.
        2    1    3    3  502    0  0.66393683262E+03 -0.55308860362E+03 -0.18528234636E+04  0.20444250801E+04  0.25500000920E-02 0. -1.
       -2    1    3    3    0  502 -0.66393683262E+03  0.55308860362E+03  0.78891529108E+03  0.11700882264E+04  0.25500000920E-02 0.  1.
</event>
<event>
 5   0  0.3445410E-06  0.3424043E+04  0.7818609E-02  0.8132031E-01
        2   -1    0    0  501    0  0.00000000000E+00  0.00000000000E+00  0.19540806873E+04  0.19540806873E+04  0.25500000920E-02 0.  1.
       -2   -1    0    0    0  501  0.00000000000E+00  0.00000000000E+00 -0.14999466853E+04  0.14999466853E+04  0.25500000920E-02 0. -1.
    10030    2    1    2    0    0  0.00000000000E+00  0.00000000000E+00  0.45413400194E+03  0.34540273726E+04  0.34240425521E+04 0.  0.
        1    1    3    3  502    0 -0.16784110704E+04  0.20598666012E+03  0.49684612604E+03  0.17624841272E+04  0.50400001928E-02 0.  1.
       -1    1    3    3    0  502  0.16784110704E+04 -0.20598666012E+03 -0.42712124108E+02  0.16915432454E+04  0.50400001928E-02 0. -1.
</event>
<event>
 5   0  0.1250276E-06  0.3104445E+04  0.7818609E-02  0.8214519E-01
        1   -1    0    0  501    0  0.00000000000E+00  0.00000000000E+00  0.14010268464E+04  0.14010268464E+04  0.50400001928E-02 0.  1.
       -1   -1    0    0    0  501  0.00000000000E+00  0.00000000000E+00 -0.17197350736E+04  0.17197350736E+04  0.50400001928E-02 0. -1.
    10030    2    1    2    0    0  0.00000000000E+00  0.00000000000E+00 -0.31870822717E+03  0.31207619200E+04  0.31044452045E+04 0.  0.
        5    1    3    3  502    0  0.89954668015E+02 -0.67561604001E+03  0.12425451144E+04  0.14172118145E+04  0.46999998093E+01 0.  1.
       -5    1    3    3    0  502 -0.89954668015E+02  0.67561604001E+03 -0.15612533415E+04  0.17035501056E+04  0.46999998093E+01 0. -1.
</event>
<event>
 5   0  0.1171915E-06  0.3094092E+04  0.7818609E-02  0.8217361E-01
        1   -1    0    0  501    0  0.00000000000E+00  0.00000000000E+00  0.91959911735E+03  0.91959911737E+03  0.50400001928E-02 0. -1.
       -1   -1    0    0    0  501  0.00000000000E+00  0.00000000000E+00 -0.26026032068E+04  0.26026032068E+04  0.50400001928E-02 0.  1.
    10030    2    1    2    0    0  0.00000000000E+00  0.00000000000E+00 -0.16830040895E+04  0.35222023242E+04  0.30940921847E+04 0.  0.
        2    1    3    3  502    0  0.13356642809E+04 -0.13337908738E+03 -0.17170529275E+04  0.21794631926E+04  0.25500000920E-02 0.  1.
       -2    1    3    3    0  502 -0.13356642809E+04  0.13337908738E+03  0.34048838033E+02  0.13427391316E+04  0.25500000920E-02 0. -1.
</event>
<event>
 5   0  0.3374790E-06  0.3012346E+04  0.7818609E-02  0.8240214E-01
       -2   -1    0    0    0  501  0.00000000000E+00  0.00000000000E+00  0.11769425238E+04  0.11769425238E+04  0.25500000920E-02 0.  1.
        2   -1    0    0  501    0  0.00000000000E+00  0.00000000000E+00 -0.19275005788E+04  0.19275005788E+04  0.25500000920E-02 0. -1.
    10030    2    1    2    0    0  0.00000000000E+00  0.00000000000E+00 -0.75055805502E+03  0.31044431027E+04  0.30123461925E+04 0.  0.
        2    1    3    3  502    0  0.20661996979E+03 -0.13154285803E+04  0.35016924727E+03  0.13768306589E+04  0.25500000920E-02 0.  1.
       -2    1    3    3    0  502 -0.20661996979E+03  0.13154285803E+04 -0.11007273023E+04  0.17276124437E+04  0.25500000920E-02 0. -1.
</event>
<event>
 5   0  0.3374790E-06  0.3059025E+04  0.7818609E-02  0.8227074E-01
       -2   -1    0    0    0  501  0.00000000000E+00  0.00000000000E+00  0.13650410355E+04  0.13650410355E+04  0.25500000920E-02 0.  1.
        2   -1    0    0  501    0  0.00000000000E+00  0.00000000000E+00 -0.17138009493E+04  0.17138009493E+04  0.25500000920E-02 0. -1.
    10030    2    1    2    0    0  0.00000000000E+00  0.00000000000E+00 -0.34875991373E+03  0.30788419848E+04  0.30590250882E+04 0.  0.
        2    1    3    3  502    0 -0.66713763428E+03 -0.13452484167E+04 -0.46719885877E+03  0.15725904423E+04  0.25500000920E-02 0.  1.
       -2    1    3    3    0  502  0.66713763428E+03  0.13452484167E+04  0.11843894504E+03  0.15062515425E+04  0.25500000920E-02 0. -1.
</event>
<event>
 5   0  0.3445959E-06  0.3096210E+04  0.7818609E-02  0.8216779E-01
        2   -1    0    0  501    0  0.00000000000E+00  0.00000000000E+00  0.32972730322E+04  0.32972730322E+04  0.25500000920E-02 0. -1.
       -2   -1    0    0    0  501  0.00000000000E+00  0.00000000000E+00 -0.72685204911E+03  0.72685204912E+03  0.25500000920E-02 0.  1.
    10030    2    1    2    0    0  0.00000000000E+00  0.00000000000E+00  0.25704209831E+04  0.40241250813E+04  0.30962103675E+04 0.  0.
        4    1    3    3  502    0  0.98012902764E+03  0.11907716368E+04  0.11106541038E+04  0.19005641671E+04  0.12699999809E+01 0.  1.
       -4    1    3    3    0  502 -0.98012902764E+03 -0.11907716368E+04  0.14597668792E+04  0.21235609142E+04  0.12699999809E+01 0. -1.
</event>
<event>
 5   0  0.3374790E-06  0.3090401E+04  0.7818609E-02  0.8218377E-01
        2   -1    0    0  501    0  0.00000000000E+00  0.00000000000E+00  0.28641683099E+04  0.28641683099E+04  0.25500000920E-02 0. -1.
       -2   -1    0    0    0  501  0.00000000000E+00  0.00000000000E+00 -0.83362593303E+03  0.83362593303E+03  0.25500000920E-02 0.  1.
    10030    2    1    2    0    0  0.00000000000E+00  0.00000000000E+00  0.20305423769E+04  0.36977942429E+04  0.30904012553E+04 0.  0.
        2    1    3    3  502    0 -0.99588105729E+03  0.11810490955E+04  0.97764316557E+03  0.18282347238E+04  0.25500000920E-02 0. -1.
       -2    1    3    3    0  502  0.99588105729E+03 -0.11810490955E+04  0.10528992113E+04  0.18695595191E+04  0.25500000920E-02 0.  1.
</event>
<event>
 5   0  0.3374790E-06  0.3091346E+04  0.7818609E-02  0.8218117E-01
        2   -1    0    0  501    0  0.00000000000E+00  0.00000000000E+00  0.21284301409E+04  0.21284301409E+04  0.25500000920E-02 0.  1.
       -2   -1    0    0    0  501  0.00000000000E+00  0.00000000000E+00 -0.11224730059E+04  0.11224730059E+04  0.25500000920E-02 0. -1.
    10030    2    1    2    0    0  0.00000000000E+00  0.00000000000E+00  0.10059571350E+04  0.32509031468E+04  0.30913462298E+04 0.  0.
        2    1    3    3  502    0  0.14394759375E+04  0.49561152013E+03  0.78394580446E+03  0.17123938734E+04  0.25500000920E-02 0.  1.
       -2    1    3    3    0  502 -0.14394759375E+04 -0.49561152013E+03  0.22201133049E+03  0.15385092734E+04  0.25500000920E-02 0. -1.
</event>
<event>
 5   0  0.3340899E-06  0.3123641E+04  0.7818609E-02  0.8209280E-01
       -2   -1    0    0    0  501  0.00000000000E+00  0.00000000000E+00  0.10256982089E+04  0.10256982089E+04  0.25500000920E-02 0.  1.
        2   -1    0    0  501    0  0.00000000000E+00  0.00000000000E+00 -0.23781691636E+04  0.23781691636E+04  0.25500000920E-02 0. -1.
    10030    2    1    2    0    0  0.00000000000E+00  0.00000000000E+00 -0.13524709547E+04  0.34038673725E+04  0.31236413696E+04 0.  0.
        3    1    3    3  502    0  0.64336808397E+03  0.13296098058E+04 -0.12326832516E+03  0.14822212444E+04  0.10100000352E+00 0.  1.
       -3    1    3    3    0  502 -0.64336808397E+03 -0.13296098058E+04 -0.12292026296E+04  0.19216461281E+04  0.10100000352E+00 0. -1.
</event>
<event>
 5   0  0.1235960E-06  0.3120531E+04  0.7818609E-02  0.8210126E-01
       -1   -1    0    0    0  501  0.00000000000E+00  0.00000000000E+00  0.15633301576E+04  0.15633301576E+04  0.50400001928E-02 0. -1.
        1   -1    0    0  501    0  0.00000000000E+00  0.00000000000E+00 -0.15572067718E+04  0.15572067719E+04  0.50400001928E-02 0.  1.
    10030    2    1    2    0    0  0.00000000000E+00  0.00000000000E+00  0.61233857128E+01  0.31205369294E+04  0.31205309215E+04 0.  0.
        4    1    3    3  502    0  0.12176453582E+04 -0.64908956635E+03 -0.72525915278E+03  0.15588392910E+04  0.12699999809E+01 0.  1.
       -4    1    3    3    0  502 -0.12176453582E+04  0.64908956635E+03  0.73138253850E+03  0.15616976385E+04  0.12699999809E+01 0. -1.
</event>
<event>
 5   0  0.1198763E-06  0.3107467E+04  0.7818609E-02  0.8213692E-01
       -1   -1    0    0    0  501  0.00000000000E+00  0.00000000000E+00  0.10321456913E+04  0.10321456913E+04  0.50400001928E-02 0. -1.
        1   -1    0    0  501    0  0.00000000000E+00  0.00000000000E+00 -0.23389025979E+04  0.23389025979E+04  0.50400001928E-02 0.  1.
    10030    2    1    2    0    0  0.00000000000E+00  0.00000000000E+00 -0.13067569066E+04  0.33710482892E+04  0.31074672894E+04 0.  0.
        1    1    3    3  502    0  0.11168974162E+04 -0.48134770701E+03 -0.17023135157E+04  0.20921344983E+04  0.50400001928E-02 0.  1.
       -1    1    3    3    0  502 -0.11168974162E+04  0.48134770701E+03  0.39555660902E+03  0.12789137908E+04  0.50400001928E-02 0. -1.
</event>
<event>
 5   0  0.1211008E-06  0.3099896E+04  0.7818609E-02  0.8215766E-01
       -1   -1    0    0    0  501  0.00000000000E+00  0.00000000000E+00  0.11534527680E+04  0.11534527680E+04  0.50400001928E-02 0.  1.
        1   -1    0    0  501    0  0.00000000000E+00  0.00000000000E+00 -0.20827375659E+04  0.20827375659E+04  0.50400001928E-02 0. -1.
    10030    2    1    2    0    0  0.00000000000E+00  0.00000000000E+00 -0.92928479787E+03  0.32361903339E+04  0.30998963921E+04 0.  0.
        3    1    3    3  502    0  0.91773895696E+03 -0.11748917435E+04 -0.90722049213E+03  0.17451832092E+04  0.10100000352E+00 0.  1.
       -3    1    3    3    0  502 -0.91773895696E+03  0.11748917435E+04 -0.22064305743E+02  0.14910071247E+04  0.10100000352E+00 0. -1.
</event>
<event>
 5   0  0.1171915E-06  0.3112149E+04  0.7818609E-02  0.8212412E-01
       -1   -1    0    0    0  501  0.00000000000E+00  0.00000000000E+00  0.15663875023E+04  0.15663875023E+04  0.50400001928E-02 0.  1.
        1   -1    0    0  501    0  0.00000000000E+00  0.00000000000E+00 -0.15458291284E+04  0.15458291284E+04  0.50400001928E-02 0. -1.
    10030    2    1    2    0    0  0.00000000000E+00  0.00000000000E+00  0.20558373831E+02  0.31122166307E+04  0.31121487287E+04 0.  0.
        2    1    3    3  502    0 -0.12149322091E+04  0.68556227335E+03  0.69972263303E+03  0.15606625729E+04  0.25500000920E-02 0.  1.
       -2    1    3    3    0  502  0.12149322091E+04 -0.68556227335E+03 -0.67916425920E+03  0.15515540578E+04  0.25500000920E-02 0. -1.
</event>
<event>
 5   0  0.1211008E-06  0.3115473E+04  0.7818609E-02  0.8211504E-01
       -1   -1    0    0    0  501  0.00000000000E+00  0.00000000000E+00  0.12594209996E+04  0.12594209997E+04  0.50400001928E-02 0. -1.
        1   -1    0    0  501    0  0.00000000000E+00  0.00000000000E+00 -0.19267137463E+04  0.19267137463E+04  0.50400001928E-02 0.  1.
    10030    2    1    2    0    0  0.00000000000E+00  0.00000000000E+00 -0.66729274660E+03  0.31861347459E+04  0.31154734808E+04 0.  0.
        3    1    3    3  502    0 -0.99894191685E+03  0.10308161554E+04 -0.95241204050E+03  0.17226594569E+04  0.10100000352E+00 0.  1.
       -3    1    3    3    0  502  0.99894191685E+03 -0.10308161554E+04  0.28511929390E+03  0.14634752890E+04  0.10100000352E+00 0. -1.
</event>
<event>
 5   0  0.3445959E-06  0.3107157E+04  0.7818609E-02  0.8213777E-01
        2   -1    0    0  501    0  0.00000000000E+00  0.00000000000E+00  0.25878185853E+04  0.25878185853E+04  0.25500000920E-02 0. -1.
       -2   -1    0    0    0  501  0.00000000000E+00  0.00000000000E+00 -0.93267965298E+03  0.93267965298E+03  0.25500000920E-02 0.  1.
    10030    2    1    2    0    0  0.00000000000E+00  0.00000000000E+00  0.16551389323E+04  0.35204982383E+04  0.31071567325E+04 0.  0.
        4    1    3    3  502    0 -0.11808582635E+04 -0.16738875894E+02 -0.31611510250E+03  0.12225533932E+04  0.12699999809E+01 0.  1.
       -4    1    3    3    0  502  0.11808582635E+04  0.16738875894E+02  0.19712540348E+04  0.22979448451E+04  0.12699999809E+01 0. -1.
</event>
<event>
 5   0  0.3445959E-06  0.3108651E+04  0.7818609E-02  0.8213368E-01
       -2   -1    0    0    0  501  0.00000000000E+00  0.00000000000E+00  0.13024326998E+04  0.13024326998E+04  0.25500000920E-02 0. -1.
        2   -1    0    0  501    0  0.00000000000E+00  0.00000000000E+00 -0.18549346024E+04  0.18549346024E+04  0.25500000920E-02 0.  1.
    10030    2    1    2    0    0  0.00000000000E+00  0.00000000000E+00 -0.55250190255E+03  0.31573673022E+04  0.31086508213E+04 0.  0.
        4    1    3    3  502    0  0.16041975721E+03  0.12413246172E+04 -0.12122704454E+04  0.17424759825E+04  0.12699999809E+01 0.  1.
       -4    1    3    3    0  502 -0.16041975721E+03 -0.12413246172E+04  0.65976854280E+03  0.14148913198E+04  0.12699999809E+01 0. -1.
</event>
<event>
 5   0  0.3374790E-06  0.3092822E+04  0.7818609E-02  0.8217710E-01
        2   -1    0    0  501    0  0.00000000000E+00  0.00000000000E+00  0.19834657793E+04  0.19834657793E+04  0.25500000920E-02 0. -1.
       -2   -1    0    0    0  501  0.00000000000E+00  0.00000000000E+00 -0.12056611843E+04  0.12056611843E+04  0.25500000920E-02 0.  1.
    10030    2    1    2    0    0  0.00000000000E+00  0.00000000000E+00  0.77780459503E+03  0.31891269636E+04  0.30928224653E+04 0.  0.
        2    1    3    3  502    0 -0.13340187359E+04 -0.33452943728E+03 -0.34012891581E+03  0.14167581344E+04  0.25500000920E-02 0.  1.
       -2    1    3    3    0  502  0.13340187359E+04  0.33452943728E+03  0.11179335108E+04  0.17723688292E+04  0.25500000920E-02 0. -1.
</event>
<event>
 5   0  0.1109562E-06  0.2702996E+04  0.7818609E-02  0.8334033E-01
       -3   -1    0    0    0  501  0.00000000000E+00  0.00000000000E+00  0.12806988249E+04  0.12806988289E+04  0.10100000352E+00 0.  1.
        3   -1    0    0  501    0  0.00000000000E+00  0.00000000000E+00 -0.14262114870E+04  0.14262114905E+04  0.10100000352E+00 0. -1.
    10030    2    1    2    0    0  0.00000000000E+00  0.00000000000E+00 -0.14551266207E+03  0.27069103194E+04  0.27029964008E+04 0.  0.
        3    1    3    3  502    0 -0.10434155456E+04 -0.42215497038E+03 -0.82191477234E+03  0.13937269184E+04  0.10100000352E+00 0. -1.
       -3    1    3    3    0  502  0.10434155456E+04  0.42215497038E+03  0.67640211027E+03  0.13131834011E+04  0.10100000352E+00 0.  1.
</event>
<event>
 5   0  0.1235960E-06  0.2912591E+04  0.7818609E-02  0.8269141E-01
       -1   -1    0    0    0  501  0.00000000000E+00  0.00000000000E+00  0.14383099483E+04  0.14383099483E+04  0.50400001928E-02 0.  1.
        1   -1    0    0  501    0  0.00000000000E+00  0.00000000000E+00 -0.14745056745E+04  0.14745056745E+04  0.50400001928E-02 0. -1.
    10030    2    1    2    0    0  0.00000000000E+00  0.00000000000E+00 -0.36195726194E+02  0.29128156229E+04  0.29125907234E+04 0.  0.
        4    1    3    3  502    0 -0.13012601454E+04 -0.50514547838E+03  0.39707832115E+03  0.14512486783E+04  0.12699999809E+01 0.  1.
       -4    1    3    3    0  502  0.13012601454E+04  0.50514547838E+03 -0.43327404734E+03  0.14615669445E+04  0.12699999809E+01 0. -1.
</event>
<event>
 5   0  0.1211008E-06  0.3095784E+04  0.7818609E-02  0.8216896E-01
        1   -1    0    0  501    0  0.00000000000E+00  0.00000000000E+00  0.19997733341E+04  0.19997733341E+04  0.50400001928E-02 0. -1.
       -1   -1    0    0    0  501  0.00000000000E+00  0.00000000000E+00 -0.11981203881E+04  0.11981203881E+04  0.50400001928E-02 0.  1.
    10030    2    1    2    0    0  0.00000000000E+00  0.00000000000E+00  0.80165294597E+03  0.31978937222E+04  0.30957837155E+04 0.  0.
        3    1    3    3  502    0  0.42489258667E+02 -0.12276199470E+04 -0.57210648783E+03  0.13550505212E+04  0.10100000352E+00 0.  1.
       -3    1    3    3    0  502 -0.42489258667E+02  0.12276199470E+04  0.13737594338E+04  0.18428432010E+04  0.10100000352E+00 0. -1.
</event>
<event>
 5   0  0.1235960E-06  0.3146856E+04  0.7818609E-02  0.8202995E-01
       -1   -1    0    0    0  501  0.00000000000E+00  0.00000000000E+00  0.14453917799E+04  0.14453917799E+04  0.50400001928E-02 0. -1.
        1   -1    0    0  501    0  0.00000000000E+00  0.00000000000E+00 -0.17128063101E+04  0.17128063101E+04  0.50400001928E-02 0.  1.
    10030    2    1    2    0    0  0.00000000000E+00  0.00000000000E+00 -0.26741453014E+03  0.31581980900E+04  0.31468563115E+04 0.  0.
        4    1    3    3  502    0  0.30358649355E+03  0.88878754513E+03  0.11332079379E+04  0.14718253642E+04  0.12699999809E+01 0. -1.
       -4    1    3    3    0  502 -0.30358649355E+03 -0.88878754513E+03 -0.14006224680E+04  0.16863727258E+04  0.12699999809E+01 0.  1.
</event>
<event>
 5   0  0.1235960E-06  0.3079872E+04  0.7818609E-02  0.8221284E-01
        1   -1    0    0  501    0  0.00000000000E+00  0.00000000000E+00  0.21286821912E+04  0.21286821912E+04  0.50400001928E-02 0. -1.
       -1   -1    0    0    0  501  0.00000000000E+00  0.00000000000E+00 -0.11140239979E+04  0.11140239980E+04  0.50400001928E-02 0.  1.
    10030    2    1    2    0    0  0.00000000000E+00  0.00000000000E+00  0.10146581933E+04  0.32427061892E+04  0.30798721045E+04 0.  0.
        4    1    3    3  502    0  0.39716188041E+03  0.58959216898E+03  0.19455843479E+04  0.20713900050E+04  0.12699999809E+01 0. -1.
       -4    1    3    3    0  502 -0.39716188041E+03 -0.58959216898E+03 -0.93092615467E+03  0.11713161842E+04  0.12699999809E+01 0.  1.
</event>
<event>
 5   0  0.3445410E-06  0.3094024E+04  0.7818609E-02  0.8217380E-01
       -2   -1    0    0    0  501  0.00000000000E+00  0.00000000000E+00  0.11672142229E+04  0.11672142229E+04  0.25500000920E-02 0. -1.
        2   -1    0    0  501    0  0.00000000000E+00  0.00000000000E+00 -0.20503914190E+04  0.20503914190E+04  0.25500000920E-02 0.  1.
    10030    2    1    2    0    0  0.00000000000E+00  0.00000000000E+00 -0.88317719609E+03  0.32176056418E+04  0.30940239344E+04 0.  0.
        1    1    3    3  502    0 -0.13970859635E+03  0.92825292158E+03  0.83719093180E+03  0.12577999184E+04  0.50400001928E-02 0. -1.
       -1    1    3    3    0  502  0.13970859635E+03 -0.92825292158E+03 -0.17203681279E+04  0.19598057235E+04  0.50400001928E-02 0.  1.
</event>
<event>
 5   0  0.3374790E-06  0.3027827E+04  0.7818609E-02  0.8235829E-01
        2   -1    0    0  501    0  0.00000000000E+00  0.00000000000E+00  0.18821070511E+04  0.18821070511E+04  0.25500000920E-02 0. -1.
       -2   -1    0    0    0  501  0.00000000000E+00  0.00000000000E+00 -0.12177492488E+04  0.12177492488E+04  0.25500000920E-02 0.  1.
    10030    2    1    2    0    0  0.00000000000E+00  0.00000000000E+00  0.66435780235E+03  0.30998562999E+04  0.30278272392E+04 0.  0.
        2    1    3    3  502    0  0.44650806353E+03  0.14426548015E+04  0.22329028340E+03  0.15265912608E+04  0.25500000920E-02 0. -1.
       -2    1    3    3    0  502 -0.44650806353E+03 -0.14426548015E+04  0.44106751895E+03  0.15732650391E+04  0.25500000920E-02 0.  1.
</event>
<event>
 5   0  0.3340899E-06  0.3066130E+04  0.7818609E-02  0.8225095E-01
       -2   -1    0    0    0  501  0.00000000000E+00  0.00000000000E+00  0.11913576599E+04  0.11913576599E+04  0.25500000920E-02 0.  1.
        2   -1    0    0  501    0  0.00000000000E+00  0.00000000000E+00 -0.19727815909E+04  0.19727815909E+04  0.25500000920E-02 0. -1.
    10030    2    1    2    0    0  0.00000000000E+00  0.00000000000E+00 -0.78142393094E+03  0.31641392508E+04  0.30661301079E+04 0.  0.
        3    1    3    3  502    0 -0.10759045048E+04  0.91734035883E+03  0.22085654229E+03  0.14310351009E+04  0.10100000352E+00 0.  1.
       -3    1    3    3    0  502  0.10759045048E+04 -0.91734035883E+03 -0.10022804732E+04  0.17331041500E+04  0.10100000352E+00 0. -1.
</event>
<event>
 5   0  0.3441897E-06  0.2984596E+04  0.7818609E-02  0.8248143E-01
        2   -1    0    0  501    0  0.00000000000E+00  0.00000000000E+00  0.15123949807E+04  0.15123949807E+04  0.25500000920E-02 0. -1.
       -2   -1    0    0    0  501  0.00000000000E+00  0.00000000000E+00 -0.14724683981E+04  0.14724683981E+04  0.25500000920E-02 0.  1.
    10030    2    1    2    0    0  0.00000000000E+00  0.00000000000E+00  0.39926582640E+02  0.29848633788E+04  0.29845963308E+04 0.  0.
        5    1    3    3  502    0  0.77794906479E+03 -0.82994534417E+03  0.98592636341E+03  0.15053527513E+04  0.46999998093E+01 0. -1.
       -5    1    3    3    0  502 -0.77794906479E+03  0.82994534417E+03 -0.94599978077E+03  0.14795106275E+04  0.46999998093E+01 0.  1.
</event>
<event>
 5   0  0.1250276E-06  0.3011143E+04  0.7818609E-02  0.8240556E-01
       -1   -1    0    0    0  501  0.00000000000E+00  0.00000000000E+00  0.11513800145E+04  0.11513800145E+04  0.50400001928E-02 0. -1.
        1   -1    0    0  501    0  0.00000000000E+00  0.00000000000E+00 -0.19687209976E+04  0.19687209976E+04  0.50400001928E-02 0.  1.
    10030    2    1    2    0    0  0.00000000000E+00  0.00000000000E+00 -0.81734098316E+03  0.31201010121E+04  0.30111433116E+04 0.  0.
        5    1    3    3  502    0  0.10465775516E+04  0.10612284236E+04 -0.18839021569E+03  0.15023459328E+04  0.46999998093E+01 0. -1.
       -5    1    3    3    0  502 -0.10465775516E+04 -0.10612284236E+04 -0.62895076747E+03  0.16177550792E+04  0.46999998093E+01 0.  1.
</event>
<event>
 5   0  0.1171915E-06  0.3096683E+04  0.7818609E-02  0.8216649E-01
       -1   -1    0    0    0  501  0.00000000000E+00  0.00000000000E+00  0.11843580468E+04  0.11843580468E+04  0.50400001928E-02 0.  1.
        1   -1    0    0  501    0  0.00000000000E+00  0.00000000000E+00 -0.20241868059E+04  0.20241868059E+04  0.50400001928E-02 0. -1.
    10030    2    1    2    0    0  0.00000000000E+00  0.00000000000E+00 -0.83982875905E+03  0.32085448527E+04  0.30966833431E+04 0.  0.
        2    1    3    3  502    0  0.10062394194E+04 -0.97348202048E+03  0.26516347494E+03  0.14249549754E+04  0.25500000920E-02 0.  1.
       -2    1    3    3    0  502 -0.10062394194E+04  0.97348202048E+03 -0.11049922340E+04  0.17835898773E+04  0.25500000920E-02 0. -1.
</event>
<event>
 5   0  0.1250276E-06  0.3107398E+04  0.7818609E-02  0.8213711E-01
       -1   -1    0    0    0  501  0.00000000000E+00  0.00000000000E+00  0.27400444902E+04  0.27400444902E+04  0.50400001928E-02 0. -1.
        1   -1    0    0  501    0  0.00000000000E+00  0.00000000000E+00 -0.88100037418E+03  0.88100037420E+03  0.50400001928E-02 0.  1.
    10030    2    1    2    0    0  0.00000000000E+00  0.00000000000E+00  0.18590441160E+04  0.36210448644E+04  0.31073977674E+04 0.  0.
        5    1    3    3  502    0 -0.13590707863E+03 -0.13228635617E+04  0.18657717846E+04  0.22911929598E+04  0.46999998093E+01 0. -1.
       -5    1    3    3    0  502  0.13590707863E+03  0.13228635617E+04 -0.67276685487E+01  0.13298519046E+04  0.46999998093E+01 0.  1.
</event>
<event>
 5   0  0.3374790E-06  0.3207074E+04  0.7818609E-02  0.8186951E-01
       -2   -1    0    0    0  501  0.00000000000E+00  0.00000000000E+00  0.14223937812E+04  0.14223937812E+04  0.25500000920E-02 0. -1.
        2   -1    0    0  501    0  0.00000000000E+00  0.00000000000E+00 -0.18077490173E+04  0.18077490173E+04  0.25500000920E-02 0.  1.
    10030    2    1    2    0    0  0.00000000000E+00  0.00000000000E+00 -0.38535523613E+03  0.32301427984E+04  0.32070740310E+04 0.  0.
        2    1    3    3  502    0 -0.38920381524E+03 -0.13473742170E+04 -0.97572349090E+03  0.17084885780E+04  0.25500000920E-02 0.  1.
       -2    1    3    3    0  502  0.38920381524E+03  0.13473742170E+04  0.59036825477E+03  0.15216542205E+04  0.25500000920E-02 0. -1.
</event>
<event>
 5   0  0.3445410E-06  0.3106396E+04  0.7818609E-02  0.8213985E-01
       -2   -1    0    0    0  501  0.00000000000E+00  0.00000000000E+00  0.83598394350E+03  0.83598394350E+03  0.25500000920E-02 0.  1.
        2   -1    0    0  501    0  0.00000000000E+00  0.00000000000E+00 -0.28857298991E+04  0.28857298991E+04  0.25500000920E-02 0. -1.
    10030    2    1    2    0    0  0.00000000000E+00  0.00000000000E+00 -0.20497459556E+04  0.37217138426E+04  0.31063958929E+04 0.  0.
        1    1    3    3  502    0  0.11315440951E+04 -0.10130713054E+04 -0.14144213254E+04  0.20754019357E+04  0.50400001928E-02 0.  1.
       -1    1    3    3    0  502 -0.11315440951E+04  0.10130713054E+04 -0.63532463016E+03  0.16463119069E+04  0.50400001928E-02 0. -1.
</event>
<event>
 5   0  0.3445410E-06  0.3100742E+04  0.7818609E-02  0.8215534E-01
       -2   -1    0    0    0  501  0.00000000000E+00  0.00000000000E+00  0.10627100727E+04  0.10627100727E+04  0.25500000920E-02 0. -1.
        2   -1    0    0  501    0  0.00000000000E+00  0.00000000000E+00 -0.22618122982E+04  0.22618122982E+04  0.25500000920E-02 0.  1.
    10030    2    1    2    0    0  0.00000000000E+00  0.00000000000E+00 -0.11991022255E+04  0.33245223709E+04  0.31007423059E+04 0.  0.
        1    1    3    3  502    0 -0.82145028020E+03  0.56345758136E+03 -0.18733076968E+04  0.21216848814E+04  0.50400001928E-02 0.  1.
       -1    1    3    3    0  502  0.82145028020E+03 -0.56345758136E+03  0.67420547128E+03  0.12028374896E+04  0.50400001928E-02 0. -1.
</event>
<event>
 5   0  0.3340899E-06  0.2947833E+04  0.7818609E-02  0.8258786E-01
        2   -1    0    0  501    0  0.00000000000E+00  0.00000000000E+00  0.19104756904E+04  0.19104756904E+04  0.25500000920E-02 0.  1.
       -2   -1    0    0    0  501  0.00000000000E+00  0.00000000000E+00 -0.11371143308E+04  0.11371143308E+04  0.25500000920E-02 0. -1.
    10030    2    1    2    0    0  0.00000000000E+00  0.00000000000E+00  0.77336135957E+03  0.30475900212E+04  0.29478326181E+04 0.  0.
        3    1    3    3  502    0 -0.61254062201E+02  0.11420324142E+04  0.13478965759E+04  0.17677147068E+04  0.10100000352E+00 0.  1.
       -3    1    3    3    0  502  0.61254062201E+02 -0.11420324142E+04 -0.57453521633E+03  0.12798753143E+04  0.10100000352E+00 0. -1.
</event>
<event>
 5   0  0.1235960E-06  0.2729739E+04  0.7818609E-02  0.8325420E-01
       -1   -1    0    0    0  501  0.00000000000E+00  0.00000000000E+00  0.16887099473E+04  0.16887099473E+04  0.50400001928E-02 0. -1.
        1   -1    0    0  501    0  0.00000000000E+00  0.00000000000E+00 -0.11031314447E+04  0.11031314447E+04  0.50400001928E-02 0.  1.
    10030    2    1    2    0    0  0.00000000000E+00  0.00000000000E+00  0.58557850259E+03  0.27918413920E+04  0.27297392138E+04 0.  0.
        4    1    3    3  502    0  0.67032747925E+03 -0.86499763245E+03 -0.54143118480E+03  0.12209460161E+04  0.12699999809E+01 0.  1.
       -4    1    3    3    0  502 -0.67032747925E+03  0.86499763245E+03  0.11270096874E+04  0.15708953759E+04  0.12699999809E+01 0. -1.
</event>
<event>
 5   0  0.3340899E-06  0.3117111E+04  0.7818609E-02  0.8211058E-01
       -2   -1    0    0    0  501  0.00000000000E+00  0.00000000000E+00  0.12623273205E+04  0.12623273205E+04  0.25500000920E-02 0.  1.
        2   -1    0    0  501    0  0.00000000000E+00  0.00000000000E+00 -0.19242984332E+04  0.19242984332E+04  0.25500000920E-02 0. -1.
    10030    2    1    2    0    0  0.00000000000E+00  0.00000000000E+00 -0.66197111267E+03  0.31866257538E+04  0.31171105114E+04 0.  0.
        3    1    3    3  502    0  0.10297505261E+04 -0.87139832998E+03 -0.11290180325E+04  0.17590915051E+04  0.10100000352E+00 0. -1.
       -3    1    3    3    0  502 -0.10297505261E+04  0.87139832998E+03  0.46704691983E+03  0.14275342486E+04  0.10100000352E+00 0.  1.
</event>
<event>
 5   0  0.1171915E-06  0.3012596E+04  0.7818609E-02  0.8240143E-01
       -1   -1    0    0    0  501  0.00000000000E+00  0.00000000000E+00  0.17301396504E+04  0.17301396504E+04  0.50400001928E-02 0. -1.
        1   -1    0    0  501    0  0.00000000000E+00  0.00000000000E+00 -0.13114164793E+04  0.13114164793E+04  0.50400001928E-02 0.  1.
    10030    2    1    2    0    0  0.00000000000E+00  0.00000000000E+00  0.41872317113E+03  0.30415561297E+04  0.30125959895E+04 0.  0.
        2    1    3    3  502    0  0.15015622146E+04 -0.11368937058E+03  0.17269036494E+03  0.15157296327E+04  0.25500000920E-02 0.  1.
       -2    1    3    3    0  502 -0.15015622146E+04  0.11368937058E+03  0.24603280619E+03  0.15258264970E+04  0.25500000920E-02 0. -1.
</event>
<event>
 5   0  0.3441897E-06  0.3084943E+04  0.7818609E-02  0.8219882E-01
        2   -1    0    0  501    0  0.00000000000E+00  0.00000000000E+00  0.12720360797E+04  0.12720360797E+04  0.25500000920E-02 0.  1.
       -2   -1    0    0    0  501  0.00000000000E+00  0.00000000000E+00 -0.18704012058E+04  0.18704012058E+04  0.25500000920E-02 0. -1.
    10030    2    1    2    0    0  0.00000000000E+00  0.00000000000E+00 -0.59836512618E+03  0.31424372855E+04  0.30849426687E+04 0.  0.
        5    1    3    3  502    0  0.27880358431E+03 -0.14748214750E+04  0.62922401010E+02  0.15022686645E+04  0.46999998093E+01 0.  1.
       -5    1    3    3    0  502 -0.27880358431E+03  0.14748214750E+04 -0.66128752719E+03  0.16401686210E+04  0.46999998093E+01 0. -1.
</event>
<event>
 5   0  0.3340899E-06  0.3058610E+04  0.7818609E-02  0.8227190E-01
       -2   -1    0    0    0  501  0.00000000000E+00  0.00000000000E+00  0.12414990538E+04  0.12414990538E+04  0.25500000920E-02 0.  1.
        2   -1    0    0  501    0  0.00000000000E+00  0.00000000000E+00 -0.18838304557E+04  0.18838304557E+04  0.25500000920E-02 0. -1.
    10030    2    1    2    0    0  0.00000000000E+00  0.00000000000E+00 -0.64233140187E+03  0.31253295094E+04  0.30586099641E+04 0.  0.
        3    1    3    3  502    0 -0.29635353056E+03  0.11168707757E+04 -0.13447904619E+04  0.17730445965E+04  0.10100000352E+00 0. -1.
       -3    1    3    3    0  502  0.29635353056E+03 -0.11168707757E+04  0.70245905999E+03  0.13522849130E+04  0.10100000352E+00 0.  1.
</event>
<event>
 5   0  0.1171915E-06  0.3128778E+04  0.7818609E-02  0.8207884E-01
        1   -1    0    0  501    0  0.00000000000E+00  0.00000000000E+00  0.84414501069E+03  0.84414501071E+03  0.50400001928E-02 0. -1.
       -1   -1    0    0    0  501  0.00000000000E+00  0.00000000000E+00 -0.28991623907E+04  0.28991623907E+04  0.50400001928E-02 0.  1.
    10030    2    1    2    0    0  0.00000000000E+00  0.00000000000E+00 -0.20550173800E+04  0.37433074014E+04  0.31287783350E+04 0.  0.
        2    1    3    3  502    0 -0.41926124297E+03 -0.84264149862E+03  0.46752208124E+03  0.10509051249E+04  0.25500000920E-02 0. -1.
       -2    1    3    3    0  502  0.41926124297E+03  0.84264149862E+03 -0.25225394613E+04  0.26924022765E+04  0.25500000920E-02 0.  1.
</event>
<event>
 5   0  0.1171915E-06  0.3039558E+04  0.7818609E-02  0.8232524E-01
       -1   -1    0    0    0  501  0.00000000000E+00  0.00000000000E+00  0.19173529196E+04  0.19173529196E+04  0.50400001928E-02 0. -1.
        1   -1    0    0  501    0  0.00000000000E+00  0.00000000000E+00 -0.12046441270E+04  0.12046441270E+04  0.50400001928E-02 0.  1.
    10030    2    1    2    0    0  0.00000000000E+00  0.00000000000E+00  0.71270879262E+03  0.31219970467E+04  0.30395578192E+04 0.  0.
        2    1    3    3  502    0  0.92820794450E+01  0.48844470413E+03  0.18345053615E+04  0.18984399667E+04  0.25500000920E-02 0. -1.
       -2    1    3    3    0  502 -0.92820794450E+01 -0.48844470413E+03 -0.11217965688E+04  0.12235570799E+04  0.25500000920E-02 0.  1.
</event>
<event>
 5   0  0.1109562E-06  0.3075232E+04  0.7818609E-02  0.8222568E-01
       -3   -1    0    0    0  501  0.00000000000E+00  0.00000000000E+00  0.28258479246E+04  0.28258479264E+04  0.10100000352E+00 0.  1.
        3   -1    0    0  501    0  0.00000000000E+00  0.00000000000E+00 -0.83665628223E+03  0.83665628833E+03  0.10100000352E+00 0. -1.
    10030    2    1    2    0    0  0.00000000000E+00  0.00000000000E+00  0.19891916423E+04  0.36625042147E+04  0.30752323055E+04 0.  0.
        2    1    3    3  502    0  0.75660118502E+02 -0.91205175939E+03 -0.47696134643E+03  0.10320150151E+04  0.25500000920E-02 0. -1.
       -2    1    3    3    0  502 -0.75660118502E+02  0.91205175939E+03  0.24661529888E+04  0.26304891996E+04  0.25500000920E-02 0.  1.
</event>
<event>
 5   0  0.3374790E-06  0.3040756E+04  0.7818609E-02  0.8232188E-01
        2   -1    0    0  501    0  0.00000000000E+00  0.00000000000E+00  0.24005106606E+04  0.24005106606E+04  0.25500000920E-02 0.  1.
       -2   -1    0    0    0  501  0.00000000000E+00  0.00000000000E+00 -0.96294069146E+03  0.96294069146E+03  0.25500000920E-02 0. -1.
    10030    2    1    2    0    0  0.00000000000E+00  0.00000000000E+00  0.14375699691E+04  0.33634513521E+04  0.30407560871E+04 0.  0.
        2    1    3    3  502    0 -0.14894620413E+04  0.16957268624E+03  0.43830619460E+03  0.15618464677E+04  0.25500000920E-02 0. -1.
       -2    1    3    3    0  502  0.14894620413E+04 -0.16957268624E+03  0.99926377453E+03  0.18016048844E+04  0.25500000920E-02 0.  1.
</event>
<event>
 5   0  0.3374790E-06  0.2936119E+04  0.7818609E-02  0.8262212E-01
       -2   -1    0    0    0  501  0.00000000000E+00  0.00000000000E+00  0.11213444548E+04  0.11213444548E+04  0.25500000920E-02 0.  1.
        2   -1    0    0  501    0  0.00000000000E+00  0.00000000000E+00 -0.19219770735E+04  0.19219770736E+04  0.25500000920E-02 0. -1.
    10030    2    1    2    0    0  0.00000000000E+00  0.00000000000E+00 -0.80063261871E+03  0.30433215284E+04  0.29361187536E+04 0.  0.
        2    1    3    3  502    0 -0.46659614140E+03  0.13480839196E+04 -0.75960799719E+03  0.16161827009E+04  0.25500000920E-02 0.  1.
       -2    1    3    3    0  502  0.46659614140E+03 -0.13480839196E+04 -0.41024621518E+02  0.14271388275E+04  0.25500000920E-02 0. -1.
</event>
<event>
 5   0  0.1211008E-06  0.3098253E+04  0.7818609E-02  0.8216218E-01
       -1   -1    0    0    0  501  0.00000000000E+00  0.00000000000E+00  0.12652321411E+04  0.12652321411E+04  0.50400001928E-02 0.  1.
        1   -1    0    0  501    0  0.00000000000E+00  0.00000000000E+00 -0.18967214797E+04  0.18967214797E+04  0.50400001928E-02 0. -1.
    10030    2    1    2    0    0  0.00000000000E+00  0.00000000000E+00 -0.63148933852E+03  0.31619536208E+04  0.30982530425E+04 0.  0.
        3    1    3    3  502    0  0.15320090058E+04 -0.14540366775E+03 -0.49716096681E+03  0.16172083531E+04  0.10100000352E+00 0. -1.
       -3    1    3    3    0  502 -0.15320090058E+04  0.14540366775E+03 -0.13432837171E+03  0.15447452677E+04  0.10100000352E+00 0.  1.
</event>
<event>
 5   0  0.3445959E-06  0.2995341E+04  0.7818609E-02  0.8245063E-01
        2   -1    0    0  501    0  0.00000000000E+00  0.00000000000E+00  0.18806736407E+04  0.18806736407E+04  0.25500000920E-02 0.  1.
       -2   -1    0    0    0  501  0.00000000000E+00  0.00000000000E+00 -0.11926665396E+04  0.11926665396E+04  0.25500000920E-02 0. -1.
    10030    2    1    2    0    0  0.00000000000E+00  0.00000000000E+00  0.68800710113E+03  0.30733401802E+04  0.29953407306E+04 0.  0.
        4    1    3    3  502    0 -0.11429105620E+04 -0.53960772252E+03  0.11684151593E+04  0.17212253322E+04  0.12699999809E+01 0.  1.
       -4    1    3    3    0  502  0.11429105620E+04  0.53960772252E+03 -0.48040805819E+03  0.13521148480E+04  0.12699999809E+01 0. -1.
</event>
<event>
 5   0  0.1198763E-06  0.3140599E+04  0.7818609E-02  0.8204683E-01
        1   -1    0    0  501    0  0.00000000000E+00  0.00000000000E+00  0.21248358757E+04  0.21248358757E+04  0.50400001928E-02 0. -1.
       -1   -1    0    0    0  501  0.00000000000E+00  0.00000000000E+00 -0.11604848762E+04  0.11604848762E+04  0.50400001928E-02 0.  1.
    10030    2    1    2    0    0  0.00000000000E+00  0.00000000000E+00  0.96435099956E+03  0.32853207519E+04  0.31405986042E+04 0.  0.
        1    1    3    3  502    0 -0.83710736979E+03  0.90758701762E+03  0.14971312885E+04  0.19405836849E+04  0.50400001928E-02 0. -1.
       -1    1    3    3    0  502  0.83710736979E+03 -0.90758701762E+03 -0.53278028892E+03  0.13447370670E+04  0.50400001928E-02 0.  1.
</event>
<event>
 5   0  0.3374790E-06  0.3091418E+04  0.7818609E-02  0.8218097E-01
       -2   -1    0    0    0  501  0.00000000000E+00  0.00000000000E+00  0.12988947993E+04  0.12988947993E+04  0.25500000920E-02 0. -1.
        2   -1    0    0  501    0  0.00000000000E+00  0.00000000000E+00 -0.18394230730E+04  0.18394230730E+04  0.25500000920E-02 0.  1.
    10030    2    1    2    0    0  0.00000000000E+00  0.00000000000E+00 -0.54052827366E+03  0.31383178723E+04  0.30914184855E+04 0.  0.
        2    1    3    3  502    0  0.11690857884E+04 -0.57660017251E+03  0.57299258624E+03  0.14239205889E+04  0.25500000920E-02 0. -1.
       -2    1    3    3    0  502 -0.11690857884E+04  0.57660017251E+03 -0.11135208599E+04  0.17143972833E+04  0.25500000920E-02 0.  1.
</event>
<event>
 5   0  0.1250276E-06  0.3025549E+04  0.7818609E-02  0.8236473E-01
       -1   -1    0    0    0  501  0.00000000000E+00  0.00000000000E+00  0.19202220451E+04  0.19202220451E+04  0.50400001928E-02 0. -1.
        1   -1    0    0  501    0  0.00000000000E+00  0.00000000000E+00 -0.11917824635E+04  0.11917824635E+04  0.50400001928E-02 0.  1.
    10030    2    1    2    0    0  0.00000000000E+00  0.00000000000E+00  0.72843958164E+03  0.31120045086E+04  0.30255491795E+04 0.  0.
        5    1    3    3  502    0 -0.11511076718E+04 -0.56333991916E+03 -0.46252947215E+03  0.13624816840E+04  0.46999998093E+01 0.  1.
       -5    1    3    3    0  502  0.11511076718E+04  0.56333991916E+03  0.11909690538E+04  0.17495228246E+04  0.46999998093E+01 0. -1.
</event>
<event>
 5   0  0.3445410E-06  0.3237437E+04  0.7818609E-02  0.8179000E-01
        2   -1    0    0  501    0  0.00000000000E+00  0.00000000000E+00  0.20729649342E+04  0.20729649342E+04  0.25500000920E-02 0. -1.
       -2   -1    0    0    0  501  0.00000000000E+00  0.00000000000E+00 -0.12640106651E+04  0.12640106651E+04  0.25500000920E-02 0.  1.
    10030    2    1    2    0    0  0.00000000000E+00  0.00000000000E+00  0.80895426908E+03  0.33369755993E+04  0.32374371254E+04 0.  0.
        1    1    3    3  502    0  0.73911647014E+03  0.14318027962E+04  0.24513638786E+03  0.16298601941E+04  0.50400001928E-02 0.  1.
       -1    1    3    3    0  502 -0.73911647014E+03 -0.14318027962E+04  0.56381788122E+03  0.17071154052E+04  0.50400001928E-02 0. -1.
</event>
<event>
 5   0  0.1109562E-06  0.3098222E+04  0.7818609E-02  0.8216226E-01
       -4   -1    0    0    0  501  0.00000000000E+00  0.00000000000E+00  0.11192245589E+04  0.11192252794E+04  0.12699999809E+01 0.  1.
        4   -1    0    0  501    0  0.00000000000E+00  0.00000000000E+00 -0.21441119272E+04  0.21441123033E+04  0.12699999809E+01 0. -1.
    10030    2    1    2    0    0  0.00000000000E+00  0.00000000000E+00 -0.10248873683E+04  0.32633375827E+04  0.30982217579E+04 0.  0.
        2    1    3    3  502    0  0.10650749118E+04  0.91292262534E+03 -0.12046846674E+04  0.18490747512E+04  0.25500000920E-02 0. -1.
       -2    1    3    3    0  502 -0.10650749118E+04 -0.91292262534E+03  0.17979729912E+03  0.14142628315E+04  0.25500000920E-02 0.  1.
</event>
<event>
 5   0  0.1198763E-06  0.3096222E+04  0.7818609E-02  0.8216776E-01
        1   -1    0    0  501    0  0.00000000000E+00  0.00000000000E+00  0.21050362424E+04  0.21050362424E+04  0.50400001928E-02 0. -1.
       -1   -1    0    0    0  501  0.00000000000E+00  0.00000000000E+00 -0.11385302318E+04  0.11385302318E+04  0.50400001928E-02 0.  1.
    10030    2    1    2    0    0  0.00000000000E+00  0.00000000000E+00  0.96650601056E+03  0.32435664742E+04  0.30962218273E+04 0.  0.
        1    1    3    3  502    0 -0.49989955226E+03  0.14309908765E+04  0.15361541180E+03  0.15235590391E+04  0.50400001928E-02 0.  1.
       -1    1    3    3    0  502  0.49989955226E+03 -0.14309908765E+04  0.81289059876E+03  0.17200074350E+04  0.50400001928E-02 0. -1.
</event>
<event>
 5   0  0.1235960E-06  0.3095294E+04  0.7818609E-02  0.8217031E-01
        1   -1    0    0  501    0  0.00000000000E+00  0.00000000000E+00  0.21095099516E+04  0.21095099516E+04  0.50400001928E-02 0.  1.
       -1   -1    0    0    0  501  0.00000000000E+00  0.00000000000E+00 -0.11354350556E+04  0.11354350556E+04  0.50400001928E-02 0. -1.
    10030    2    1    2    0    0  0.00000000000E+00  0.00000000000E+00  0.97407489604E+03  0.32449450073E+04  0.30952942020E+04 0.  0.
        4    1    3    3  502    0  0.22298888964E+03 -0.40619464513E+03  0.20350790795E+04  0.20871671249E+04  0.12699999809E+01 0.  1.
       -4    1    3    3    0  502 -0.22298888964E+03  0.40619464513E+03 -0.10610041835E+04  0.11577778823E+04  0.12699999809E+01 0. -1.
</event>
<event>
 5   0  0.1235960E-06  0.3090308E+04  0.7818609E-02  0.8218403E-01
        1   -1    0    0  501    0  0.00000000000E+00  0.00000000000E+00  0.15430804818E+04  0.15430804818E+04  0.50400001928E-02 0. -1.
       -1   -1    0    0    0  501  0.00000000000E+00  0.00000000000E+00 -0.15472305238E+04  0.15472305238E+04  0.50400001928E-02 0.  1.
    10030    2    1    2    0    0  0.00000000000E+00  0.00000000000E+00 -0.41500419980E+01  0.30903110056E+04  0.30903082190E+04 0.  0.
        4    1    3    3  502    0 -0.83609673416E+03 -0.12075643983E+04  0.47774838346E+03  0.15445111381E+04  0.12699999809E+01 0. -1.
       -4    1    3    3    0  502  0.83609673416E+03  0.12075643983E+04 -0.48189842545E+03  0.15457998675E+04  0.12699999809E+01 0.  1.
</event>
<event>
 5   0  0.3374790E-06  0.3080051E+04  0.7818609E-02  0.8221234E-01
        2   -1    0    0  501    0  0.00000000000E+00  0.00000000000E+00  0.24778050818E+04  0.24778050818E+04  0.25500000920E-02 0. -1.
       -2   -1    0    0    0  501  0.00000000000E+00  0.00000000000E+00 -0.95716911165E+03  0.95716911166E+03  0.25500000920E-02 0.  1.
    10030    2    1    2    0    0  0.00000000000E+00  0.00000000000E+00  0.15206359701E+04  0.34349741935E+04  0.30800509665E+04 0.  0.
        2    1    3    3  502    0  0.36287073303E+03 -0.94839499936E+03 -0.53092246903E+03  0.11458651368E+04  0.25500000920E-02 0.  1.
       -2    1    3    3    0  502 -0.36287073303E+03  0.94839499936E+03  0.20515584392E+04  0.22891090566E+04  0.25500000920E-02 0. -1.
</event>
<event>
 5   0  0.3374790E-06  0.3119499E+04  0.7818609E-02  0.8210407E-01
        2   -1    0    0  501    0  0.00000000000E+00  0.00000000000E+00  0.23868299342E+04  0.23868299342E+04  0.25500000920E-02 0.  1.
       -2   -1    0    0    0  501  0.00000000000E+00  0.00000000000E+00 -0.10192674829E+04  0.10192674829E+04  0.25500000920E-02 0. -1.
    10030    2    1    2    0    0  0.00000000000E+00  0.00000000000E+00  0.13675624513E+04  0.34060974171E+04  0.31194987668E+04 0.  0.
        2    1    3    3  502    0 -0.15766863536E+03  0.12525638550E+04 -0.31636668996E+03  0.13014851102E+04  0.25500000920E-02 0. -1.
       -2    1    3    3    0  502  0.15766863536E+03 -0.12525638550E+04  0.16839291413E+04  0.21046123069E+04  0.25500000920E-02 0.  1.
</event>
<event>
 5   0  0.3445959E-06  0.3093921E+04  0.7818609E-02  0.8217408E-01
        2   -1    0    0  501    0  0.00000000000E+00  0.00000000000E+00  0.20682566922E+04  0.20682566922E+04  0.25500000920E-02 0.  1.
       -2   -1    0    0    0  501  0.00000000000E+00  0.00000000000E+00 -0.11570552341E+04  0.11570552341E+04  0.25500000920E-02 0. -1.
    10030    2    1    2    0    0  0.00000000000E+00  0.00000000000E+00  0.91120145816E+03  0.32253119263E+04  0.30939212861E+04 0.  0.
        4    1    3    3  502    0 -0.95604231184E+03  0.72561300224E+03 -0.56183591620E+03  0.13252140735E+04  0.12699999809E+01 0. -1.
       -4    1    3    3    0  502  0.95604231184E+03 -0.72561300224E+03  0.14730373744E+04  0.19000978528E+04  0.12699999809E+01 0.  1.
</event>
<event>
 5   0  0.3441897E-06  0.3135257E+04  0.7818609E-02  0.8206128E-01
        2   -1    0    0  501    0  0.00000000000E+00  0.00000000000E+00  0.14244669075E+04  0.14244669075E+04  0.25500000920E-02 0.  1.
       -2   -1    0    0    0  501  0.00000000000E+00  0.00000000000E+00 -0.17251777707E+04  0.17251777707E+04  0.25500000920E-02 0. -1.
    10030    2    1    2    0    0  0.00000000000E+00  0.00000000000E+00 -0.30071086319E+03  0.31496446782E+04  0.31352567001E+04 0.  0.
        5    1    3    3  502    0  0.46785057048E+03  0.11766962657E+04 -0.10786839729E+04  0.16634540755E+04  0.46999998093E+01 0. -1.
       -5    1    3    3    0  502 -0.46785057048E+03 -0.11766962657E+04  0.77797310973E+03  0.14861906027E+04  0.46999998093E+01 0.  1.
</event>
<event>
 5   0  0.3374790E-06  0.3112068E+04  0.7818609E-02  0.8212434E-01
       -2   -1    0    0    0  501  0.00000000000E+00  0.00000000000E+00  0.27730937490E+04  0.27730937490E+04  0.25500000920E-02 0. -1.
        2   -1    0    0  501    0  0.00000000000E+00  0.00000000000E+00 -0.87311921455E+03  0.87311921456E+03  0.25500000920E-02 0.  1.
    10030    2    1    2    0    0  0.00000000000E+00  0.00000000000E+00  0.18999745344E+04  0.36462129636E+04  0.31120677602E+04 0.  0.
        2    1    3    3  502    0 -0.58114483359E+03  0.14390336263E+04  0.81797993302E+03  0.17543198871E+04  0.25500000920E-02 0.  1.
       -2    1    3    3    0  502  0.58114483359E+03 -0.14390336263E+04  0.10819946014E+04  0.18918930765E+04  0.25500000920E-02 0. -1.
</event>
<event>
 5   0  0.3445410E-06  0.3098659E+04  0.7818609E-02  0.8216106E-01
        2   -1    0    0  501    0  0.00000000000E+00  0.00000000000E+00  0.23371878070E+04  0.23371878070E+04  0.25500000920E-02 0. -1.
       -2   -1    0    0    0  501  0.00000000000E+00  0.00000000000E+00 -0.10270558056E+04  0.10270558056E+04  0.25500000920E-02 0.  1.
    10030    2    1    2    0    0  0.00000000000E+00  0.00000000000E+00  0.13101320014E+04  0.33642436126E+04  0.30986592623E+04 0.  0.
        1    1    3    3  502    0  0.82767766308E+03  0.25260155914E+03 -0.74021402239E+03  0.11387601418E+04  0.50400001928E-02 0.  1.
       -1    1    3    3    0  502 -0.82767766308E+03 -0.25260155914E+03  0.20503460238E+04  0.22254834708E+04  0.50400001928E-02 0. -1.
</event>
<event>
 5   0  0.3445959E-06  0.3181702E+04  0.7818609E-02  0.8193666E-01
        2   -1    0    0  501    0  0.00000000000E+00  0.00000000000E+00  0.24047748110E+04  0.24047748110E+04  0.25500000920E-02 0.  1.
       -2   -1    0    0    0  501  0.00000000000E+00  0.00000000000E+00 -0.10524092751E+04  0.10524092751E+04  0.25500000920E-02 0. -1.
    10030    2    1    2    0    0  0.00000000000E+00  0.00000000000E+00  0.13523655359E+04  0.34571840862E+04  0.31817022587E+04 0.  0.
        4    1    3    3  502    0  0.66999793346E+03 -0.73475931328E+03 -0.67312306453E+03  0.12007767287E+04  0.12699999809E+01 0. -1.
       -4    1    3    3    0  502 -0.66999793346E+03  0.73475931328E+03  0.20254886005E+04  0.22564073575E+04  0.12699999809E+01 0.  1.
</event>
<event>
 5   0  0.3445959E-06  0.3088337E+04  0.7818609E-02  0.8218946E-01
        2   -1    0    0  501    0  0.00000000000E+00  0.00000000000E+00  0.15139045273E+04  0.15139045273E+04  0.25500000920E-02 0. -1.
       -2   -1    0    0    0  501  0.00000000000E+00  0.00000000000E+00 -0.15750376285E+04  0.15750376285E+04  0.25500000920E-02 0.  1.
    10030    2    1    2    0    0  0.00000000000E+00  0.00000000000E+00 -0.61133101209E+02  0.30889421558E+04  0.30883371554E+04 0.  0.
        4    1    3    3  502    0 -0.41954733079E+02 -0.15402845185E+04  0.70539284504E+02  0.15424700973E+04  0.12699999809E+01 0. -1.
       -4    1    3    3    0  502  0.41954733079E+02  0.15402845185E+04 -0.13167238571E+03  0.15464720585E+04  0.12699999809E+01 0.  1.
</event>
<event>
 5   0  0.3441897E-06  0.2910775E+04  0.7818609E-02  0.8269679E-01
       -2   -1    0    0    0  501  0.00000000000E+00  0.00000000000E+00  0.16783703888E+04  0.16783703888E+04  0.25500000920E-02 0. -1.
        2   -1    0    0  501    0  0.00000000000E+00  0.00000000000E+00 -0.12620294985E+04  0.12620294985E+04  0.25500000920E-02 0.  1.
    10030    2    1    2    0    0  0.00000000000E+00  0.00000000000E+00  0.41634089034E+03  0.29403998873E+04  0.29107751133E+04 0.  0.
        5    1    3    3  502    0  0.38449607306E+02 -0.98144273943E+03 -0.87673522179E+03  0.13165845822E+04  0.46999998093E+01 0.  1.
       -5    1    3    3    0  502 -0.38449607306E+02  0.98144273943E+03  0.12930761121E+04  0.16238153050E+04  0.46999998093E+01 0. -1.
</event>
<event>
 5   0  0.1235960E-06  0.3110790E+04  0.7818609E-02  0.8212783E-01
        1   -1    0    0  501    0  0.00000000000E+00  0.00000000000E+00  0.13384820627E+04  0.13384820627E+04  0.50400001928E-02 0.  1.
       -1   -1    0    0    0  501  0.00000000000E+00  0.00000000000E+00 -0.18074609332E+04  0.18074609332E+04  0.50400001928E-02 0. -1.
    10030    2    1    2    0    0  0.00000000000E+00  0.00000000000E+00 -0.46897887045E+03  0.31459429959E+04  0.31107902778E+04 0.  0.
        4    1    3    3  502    0  0.59982739130E+03 -0.37135793404E+03 -0.16363547111E+04  0.17819534136E+04  0.12699999809E+01 0. -1.
       -4    1    3    3    0  502 -0.59982739130E+03  0.37135793404E+03  0.11673758407E+04  0.13639895824E+04  0.12699999809E+01 0.  1.
</event>
<event>
 5   0  0.3441897E-06  0.3209956E+04  0.7818609E-02  0.8186193E-01
       -2   -1    0    0    0  501  0.00000000000E+00  0.00000000000E+00  0.10663011427E+04  0.10663011427E+04  0.25500000920E-02 0.  1.
        2   -1    0    0  501    0  0.00000000000E+00  0.00000000000E+00 -0.24157853119E+04  0.24157853119E+04  0.25500000920E-02 0. -1.
    10030    2    1    2    0    0  0.00000000000E+00  0.00000000000E+00 -0.13494841692E+04  0.34820864546E+04  0.32099561608E+04 0.  0.
        5    1    3    3  502    0  0.20530434835E+03 -0.49974817706E+02 -0.24006236411E+04  0.24099093996E+04  0.46999998093E+01 0. -1.
       -5    1    3    3    0  502 -0.20530434835E+03  0.49974817706E+02  0.10511394720E+04  0.10721770550E+04  0.46999998093E+01 0.  1.
</event>
<event>
 5   0  0.3340899E-06  0.3097797E+04  0.7818609E-02  0.8216343E-01
        2   -1    0    0  501    0  0.00000000000E+00  0.00000000000E+00  0.33883958821E+04  0.33883958821E+04  0.25500000920E-02 0. -1.
       -2   -1    0    0    0  501  0.00000000000E+00  0.00000000000E+00 -0.70803035264E+03  0.70803035264E+03  0.25500000920E-02 0.  1.
    10030    2    1    2    0    0  0.00000000000E+00  0.00000000000E+00  0.26803655295E+04  0.40964262347E+04  0.30977973667E+04 0.  0.
        3    1    3    3  502    0 -0.10020340842E+04  0.93326824599E+03  0.38292650016E+03  0.14218630875E+04  0.10100000352E+00 0.  1.
       -3    1    3    3    0  502  0.10020340842E+04 -0.93326824599E+03  0.22974390293E+04  0.26745631472E+04  0.10100000352E+00 0. -1.
</event>
<event>
 5   0  0.1171915E-06  0.3058857E+04  0.7818609E-02  0.8227121E-01
       -1   -1    0    0    0  501  0.00000000000E+00  0.00000000000E+00  0.90026060758E+03  0.90026060759E+03  0.50400001928E-02 0. -1.
        1   -1    0    0  501    0  0.00000000000E+00  0.00000000000E+00 -0.25983053363E+04  0.25983053363E+04  0.50400001928E-02 0.  1.
    10030    2    1    2    0    0  0.00000000000E+00  0.00000000000E+00 -0.16980447287E+04  0.34985659439E+04  0.30588572642E+04 0.  0.
        2    1    3    3  502    0 -0.37636898667E+03  0.64790722771E+03 -0.23739943512E+04  0.24894349900E+04  0.25500000920E-02 0.  1.
       -2    1    3    3    0  502  0.37636898667E+03 -0.64790722771E+03  0.67594962253E+03  0.10091309539E+04  0.25500000920E-02 0. -1.
</event>
<event>
 5   0  0.1198763E-06  0.3068467E+04  0.7818609E-02  0.8224446E-01
       -1   -1    0    0    0  501  0.00000000000E+00  0.00000000000E+00  0.10709813427E+04  0.10709813427E+04  0.50400001928E-02 0. -1.
        1   -1    0    0  501    0  0.00000000000E+00  0.00000000000E+00 -0.21978648158E+04  0.21978648158E+04  0.50400001928E-02 0.  1.
    10030    2    1    2    0    0  0.00000000000E+00  0.00000000000E+00 -0.11268834731E+04  0.32688461585E+04  0.30684668559E+04 0.  0.
        1    1    3    3  502    0  0.13904854694E+04  0.32414262878E+03 -0.11616772172E+04  0.18406553837E+04  0.50400001928E-02 0.  1.
       -1    1    3    3    0  502 -0.13904854694E+04 -0.32414262878E+03  0.34793744127E+02  0.14281907748E+04  0.50400001928E-02 0. -1.
</event>
<event>
 5   0  0.1250276E-06  0.3048690E+04  0.7818609E-02  0.8229962E-01
        1   -1    0    0  501    0  0.00000000000E+00  0.00000000000E+00  0.18703816781E+04  0.18703816781E+04  0.50400001928E-02 0.  1.
       -1   -1    0    0    0  501  0.00000000000E+00  0.00000000000E+00 -0.12423281528E+04  0.12423281528E+04  0.50400001928E-02 0. -1.
    10030    2    1    2    0    0  0.00000000000E+00  0.00000000000E+00  0.62805352530E+03  0.31127098310E+04  0.30486900894E+04 0.  0.
        5    1    3    3  502    0  0.58058142480E+03 -0.12733581227E+04  0.93094178028E+03  0.16808302674E+04  0.46999998093E+01 0. -1.
       -5    1    3    3    0  502 -0.58058142480E+03  0.12733581227E+04 -0.30288825497E+03  0.14318795636E+04  0.46999998093E+01 0.  1.
</event>
<event>
 5   0  0.1250276E-06  0.3047436E+04  0.7818609E-02  0.8230313E-01
        1   -1    0    0  501    0  0.00000000000E+00  0.00000000000E+00  0.11770747687E+04  0.11770747687E+04  0.50400001928E-02 0. -1.
       -1   -1    0    0    0  501  0.00000000000E+00  0.00000000000E+00 -0.19724466681E+04  0.19724466681E+04  0.50400001928E-02 0.  1.
    10030    2    1    2    0    0  0.00000000000E+00  0.00000000000E+00 -0.79537189937E+03  0.31495214368E+04  0.30474364346E+04 0.  0.
        5    1    3    3  502    0  0.12606564351E+04 -0.79445622472E+02 -0.12783631692E+04  0.17971646381E+04  0.46999998093E+01 0.  1.
       -5    1    3    3    0  502 -0.12606564351E+04  0.79445622472E+02  0.48299126983E+03  0.13523567987E+04  0.46999998093E+01 0. -1.
</event>
<event>
 5   0  0.3445410E-06  0.3018754E+04  0.7818609E-02  0.8238396E-01
        2   -1    0    0  501    0  0.00000000000E+00  0.00000000000E+00  0.16650431709E+04  0.16650431709E+04  0.25500000920E-02 0. -1.
       -2   -1    0    0    0  501  0.00000000000E+00  0.00000000000E+00 -0.13682640465E+04  0.13682640465E+04  0.25500000920E-02 0.  1.
    10030    2    1    2    0    0  0.00000000000E+00  0.00000000000E+00  0.29677912435E+03  0.30333072174E+04  0.30187538532E+04 0.  0.
        1    1    3    3  502    0 -0.57181790285E+03  0.12304196397E+04 -0.51609309425E+03  0.14516405497E+04  0.50400001928E-02 0.  1.
       -1    1    3    3    0  502  0.57181790285E+03 -0.12304196397E+04  0.81287221860E+03  0.15816666676E+04  0.50400001928E-02 0. -1.
</event>
<event>
 5   0  0.3445410E-06  0.3090380E+04  0.7818609E-02  0.8218383E-01
       -2   -1    0    0    0  501  0.00000000000E+00  0.00000000000E+00  0.10336050769E+04  0.10336050769E+04  0.25500000920E-02 0.  1.
        2   -1    0    0  501    0  0.00000000000E+00  0.00000000000E+00 -0.23099847700E+04  0.23099847700E+04  0.25500000920E-02 0. -1.
    10030    2    1    2    0    0  0.00000000000E+00  0.00000000000E+00 -0.12763796931E+04  0.33435898469E+04  0.30903799028E+04 0.  0.
        1    1    3    3  502    0 -0.50292227920E+03  0.14302259507E+03 -0.22113639952E+04  0.22723373431E+04  0.50400001928E-02 0. -1.
       -1    1    3    3    0  502  0.50292227920E+03 -0.14302259507E+03  0.93498430213E+03  0.10712525038E+04  0.50400001928E-02 0.  1.
</event>
<event>
 5   0  0.1235960E-06  0.3035295E+04  0.7818609E-02  0.8233723E-01
        1   -1    0    0  501    0  0.00000000000E+00  0.00000000000E+00  0.17611291704E+04  0.17611291705E+04  0.50400001928E-02 0. -1.
       -1   -1    0    0    0  501  0.00000000000E+00  0.00000000000E+00 -0.13078277265E+04  0.13078277265E+04  0.50400001928E-02 0.  1.
    10030    2    1    2    0    0  0.00000000000E+00  0.00000000000E+00  0.45330144393E+03  0.30689568970E+04  0.30352947528E+04 0.  0.
        4    1    3    3  502    0 -0.42543677559E+03  0.12799672681E+04  0.93002318012E+03  0.16383703445E+04  0.12699999809E+01 0. -1.
       -4    1    3    3    0  502  0.42543677559E+03 -0.12799672681E+04 -0.47672173619E+03  0.14305865524E+04  0.12699999809E+01 0.  1.
</event>
<event>
 5   0  0.3374790E-06  0.2932804E+04  0.7818609E-02  0.8263184E-01
       -2   -1    0    0    0  501  0.00000000000E+00  0.00000000000E+00  0.18704374755E+04  0.18704374755E+04  0.25500000920E-02 0. -1.
        2   -1    0    0  501    0  0.00000000000E+00  0.00000000000E+00 -0.11496423740E+04  0.11496423740E+04  0.25500000920E-02 0.  1.
    10030    2    1    2    0    0  0.00000000000E+00  0.00000000000E+00  0.72079510145E+03  0.30200798495E+04  0.29328035596E+04 0.  0.
        2    1    3    3  502    0 -0.83696765308E+02 -0.41549893887E+03 -0.10851905683E+04  0.11650249295E+04  0.25500000920E-02 0.  1.
       -2    1    3    3    0  502  0.83696765308E+02  0.41549893887E+03  0.18059856698E+04  0.18550549200E+04  0.25500000920E-02 0. -1.
</event>
<event>
 5   0  0.3441897E-06  0.3082614E+04  0.7818609E-02  0.8220526E-01
        2   -1    0    0  501    0  0.00000000000E+00  0.00000000000E+00  0.27936181354E+04  0.27936181354E+04  0.25500000920E-02 0. -1.
       -2   -1    0    0    0  501  0.00000000000E+00  0.00000000000E+00 -0.85037655147E+03  0.85037655148E+03  0.25500000920E-02 0.  1.
    10030    2    1    2    0    0  0.00000000000E+00  0.00000000000E+00  0.19432415840E+04  0.36439946869E+04  0.30826140570E+04 0.  0.
        5    1    3    3  502    0  0.18751426389E+03 -0.11345250380E+04 -0.24158345730E+03  0.11750290711E+04  0.46999998093E+01 0.  1.
       -5    1    3    3    0  502 -0.18751426389E+03  0.11345250380E+04  0.21848250413E+04  0.24689656158E+04  0.46999998093E+01 0. -1.
</event>
<event>
 5   0  0.3441897E-06  0.2962338E+04  0.7818609E-02  0.8254568E-01
       -2   -1    0    0    0  501  0.00000000000E+00  0.00000000000E+00  0.16918204182E+04  0.16918204182E+04  0.25500000920E-02 0.  1.
        2   -1    0    0  501    0  0.00000000000E+00  0.00000000000E+00 -0.12967458392E+04  0.12967458392E+04  0.25500000920E-02 0. -1.
    10030    2    1    2    0    0  0.00000000000E+00  0.00000000000E+00  0.39507457903E+03  0.29885662574E+04  0.29623376499E+04 0.  0.
        5    1    3    3  502    0  0.13725928211E+04 -0.52915648663E+03  0.37175489424E+03  0.15173138869E+04  0.46999998093E+01 0.  1.
       -5    1    3    3    0  502 -0.13725928211E+04  0.52915648663E+03  0.23319684785E+02  0.14712523705E+04  0.46999998093E+01 0. -1.
</event>
<event>
 5   0  0.1198763E-06  0.2897134E+04  0.7818609E-02  0.8273731E-01
        1   -1    0    0  501    0  0.00000000000E+00  0.00000000000E+00  0.18527301826E+04  0.18527301826E+04  0.50400001928E-02 0.  1.
       -1   -1    0    0    0  501  0.00000000000E+00  0.00000000000E+00 -0.11325695040E+04  0.11325695040E+04  0.50400001928E-02 0. -1.
    10030    2    1    2    0    0  0.00000000000E+00  0.00000000000E+00  0.72016067868E+03  0.29852996866E+04  0.28971335516E+04 0.  0.
        1    1    3    3  502    0  0.27798760867E+03  0.14007981251E+04  0.61001741113E+03  0.15529435726E+04  0.50400001928E-02 0. -1.
       -1    1    3    3    0  502 -0.27798760867E+03 -0.14007981251E+04  0.11014326755E+03  0.14323561140E+04  0.50400001928E-02 0.  1.
</event>
<event>
 5   0  0.1235960E-06  0.2936892E+04  0.7818609E-02  0.8261985E-01
       -1   -1    0    0    0  501  0.00000000000E+00  0.00000000000E+00  0.19723039694E+04  0.19723039694E+04  0.50400001928E-02 0. -1.
        1   -1    0    0  501    0  0.00000000000E+00  0.00000000000E+00 -0.10933070991E+04  0.10933070991E+04  0.50400001928E-02 0.  1.
    10030    2    1    2    0    0  0.00000000000E+00  0.00000000000E+00  0.87899687031E+03  0.30656110685E+04  0.29368921882E+04 0.  0.
        4    1    3    3  502    0  0.47887627804E+02  0.29300812014E+03 -0.10616504861E+04  0.11023839399E+04  0.12699999809E+01 0.  1.
       -4    1    3    3    0  502 -0.47887627804E+02 -0.29300812014E+03  0.19406473564E+04  0.19632271286E+04  0.12699999809E+01 0. -1.
</event>
<event>
 5   0  0.3340899E-06  0.3115367E+04  0.7818609E-02  0.8211533E-01
        2   -1    0    0  501    0  0.00000000000E+00  0.00000000000E+00  0.13503807880E+04  0.13503807880E+04  0.25500000920E-02 0. -1.
       -2   -1    0    0    0  501  0.00000000000E+00  0.00000000000E+00 -0.17968095934E+04  0.17968095934E+04  0.25500000920E-02 0.  1.
    10030    2    1    2    0    0  0.00000000000E+00  0.00000000000E+00 -0.44642880539E+03  0.31471903814E+04  0.31153665303E+04 0.  0.
        3    1    3    3  502    0 -0.17063174251E+03  0.18761782025E+03 -0.17758139905E+04  0.17938313681E+04  0.10100000352E+00 0.  1.
       -3    1    3    3    0  502  0.17063174251E+03 -0.18761782025E+03  0.13293851852E+04  0.13533590132E+04  0.10100000352E+00 0. -1.
</event>
<event>
 5   0  0.3445410E-06  0.2566973E+04  0.7818609E-02  0.8379507E-01
        2   -1    0    0  501    0  0.00000000000E+00  0.00000000000E+00  0.12395004543E+04  0.12395004543E+04  0.25500000920E-02 0. -1.
       -2   -1    0    0    0  501  0.00000000000E+00  0.00000000000E+00 -0.13290330214E+04  0.13290330215E+04  0.25500000920E-02 0.  1.
    10030    2    1    2    0    0  0.00000000000E+00  0.00000000000E+00 -0.89532567104E+02  0.25685334758E+04  0.25669725623E+04 0.  0.
        1    1    3    3  502    0 -0.10284546129E+03  0.42375742825E+03 -0.12526413552E+04  0.13263702016E+04  0.50400001928E-02 0.  1.
       -1    1    3    3    0  502  0.10284546129E+03 -0.42375742825E+03  0.11631087881E+04  0.12421632742E+04  0.50400001928E-02 0. -1.
</event>
<event>
 5   0  0.3441897E-06  0.3082438E+04  0.7818609E-02  0.8220574E-01
        2   -1    0    0  501    0  0.00000000000E+00  0.00000000000E+00  0.15912523338E+04  0.15912523338E+04  0.25500000920E-02 0.  1.
       -2   -1    0    0    0  501  0.00000000000E+00  0.00000000000E+00 -0.14927591384E+04  0.14927591384E+04  0.25500000920E-02 0. -1.
    10030    2    1    2    0    0  0.00000000000E+00  0.00000000000E+00  0.98493195475E+02  0.30840114722E+04  0.30824382964E+04 0.  0.
        5    1    3    3  502    0 -0.41939508314E+03  0.14336980029E+04  0.42885053353E+03  0.15541290388E+04  0.46999998093E+01 0.  1.
       -5    1    3    3    0  502  0.41939508314E+03 -0.14336980029E+04 -0.33035733805E+03  0.15298824334E+04  0.46999998093E+01 0. -1.
</event>
<event>
 5   0  0.1171915E-06  0.3050645E+04  0.7818609E-02  0.8229415E-01
       -1   -1    0    0    0  501  0.00000000000E+00  0.00000000000E+00  0.12261710832E+04  0.12261710832E+04  0.50400001928E-02 0. -1.
        1   -1    0    0  501    0  0.00000000000E+00  0.00000000000E+00 -0.18974590095E+04  0.18974590095E+04  0.50400001928E-02 0.  1.
    10030    2    1    2    0    0  0.00000000000E+00  0.00000000000E+00 -0.67128792634E+03  0.31236300927E+04  0.30506454196E+04 0.  0.
        2    1    3    3  502    0 -0.91013057253E+03 -0.44728400016E+03 -0.15022927381E+04  0.18125352705E+04  0.25500000920E-02 0.  1.
       -2    1    3    3    0  502  0.91013057253E+03  0.44728400016E+03  0.83100481171E+03  0.13110948223E+04  0.25500000920E-02 0. -1.
</event>
<event>
 5   0  0.3340899E-06  0.3115346E+04  0.7818609E-02  0.8211539E-01
       -2   -1    0    0    0  501  0.00000000000E+00  0.00000000000E+00  0.11177633664E+04  0.11177633664E+04  0.25500000920E-02 0. -1.
        2   -1    0    0  501    0  0.00000000000E+00  0.00000000000E+00 -0.21707148240E+04  0.21707148240E+04  0.25500000920E-02 0.  1.
    10030    2    1    2    0    0  0.00000000000E+00  0.00000000000E+00 -0.10529514576E+04  0.32884781904E+04  0.31153462145E+04 0.  0.
        3    1    3    3  502    0 -0.51626580027E+01  0.10991474121E+04 -0.16915318416E+04  0.20172832394E+04  0.10100000352E+00 0.  1.
       -3    1    3    3    0  502  0.51626580027E+01 -0.10991474121E+04  0.63858038396E+03  0.12711949510E+04  0.10100000352E+00 0. -1.
</event>
<event>
 5   0  0.3445959E-06  0.3108600E+04  0.7818609E-02  0.8213382E-01
        2   -1    0    0  501    0  0.00000000000E+00  0.00000000000E+00  0.25899568519E+04  0.25899568519E+04  0.25500000920E-02 0.  1.
       -2   -1    0    0    0  501  0.00000000000E+00  0.00000000000E+00 -0.93277582041E+03  0.93277582041E+03  0.25500000920E-02 0. -1.
    10030    2    1    2    0    0  0.00000000000E+00  0.00000000000E+00  0.16571810315E+04  0.35227326724E+04  0.31086004101E+04 0.  0.
        4    1    3    3  502    0  0.10502024415E+04  0.11174951651E+04  0.54162155919E+03  0.16263690044E+04  0.12699999809E+01 0. -1.
       -4    1    3    3    0  502 -0.10502024415E+04 -0.11174951651E+04  0.11155594723E+04  0.18963636680E+04  0.12699999809E+01 0.  1.
</event>
<event>
 5   0  0.1109562E-06  0.2623471E+04  0.7818609E-02  0.8360272E-01
        3   -1    0    0  501    0  0.00000000000E+00  0.00000000000E+00  0.11687321142E+04  0.11687321186E+04  0.10100000352E+00 0.  1.
       -3   -1    0    0    0  501  0.00000000000E+00  0.00000000000E+00 -0.14722368951E+04  0.14722368986E+04  0.10100000352E+00 0. -1.
    10030    2    1    2    0    0  0.00000000000E+00  0.00000000000E+00 -0.30350478088E+03  0.26409690171E+04  0.26234714021E+04 0.  0.
        1    1    3    3  502    0 -0.23432685251E+03  0.82096551774E+03  0.85075972481E+03  0.12052740620E+04  0.50400001928E-02 0.  1.
       -1    1    3    3    0  502  0.23432685251E+03 -0.82096551774E+03 -0.11542645057E+04  0.14356949552E+04  0.50400001928E-02 0. -1.
</event>
<event>
 5   0  0.3340899E-06  0.3105822E+04  0.7818609E-02  0.8214142E-01
        2   -1    0    0  501    0  0.00000000000E+00  0.00000000000E+00  0.18276228676E+04  0.18276228676E+04  0.25500000920E-02 0. -1.
       -2   -1    0    0    0  501  0.00000000000E+00  0.00000000000E+00 -0.13194916725E+04  0.13194916725E+04  0.25500000920E-02 0.  1.
    10030    2    1    2    0    0  0.00000000000E+00  0.00000000000E+00  0.50813119518E+03  0.31471145401E+04  0.31058223737E+04 0.  0.
        3    1    3    3  502    0 -0.74470326079E+03 -0.50514602751E+03 -0.10283744018E+04  0.13664952895E+04  0.10100000352E+00 0.  1.
       -3    1    3    3    0  502  0.74470326079E+03  0.50514602751E+03  0.15365055970E+04  0.17806192506E+04  0.10100000352E+00 0. -1.
</event>
<event>
 5   0  0.3445959E-06  0.3094624E+04  0.7818609E-02  0.8217215E-01
        2   -1    0    0  501    0  0.00000000000E+00  0.00000000000E+00  0.15290593251E+04  0.15290593251E+04  0.25500000920E-02 0. -1.
       -2   -1    0    0    0  501  0.00000000000E+00  0.00000000000E+00 -0.15657822251E+04  0.15657822251E+04  0.25500000920E-02 0.  1.
    10030    2    1    2    0    0  0.00000000000E+00  0.00000000000E+00 -0.36722899954E+02  0.30948415502E+04  0.30946236685E+04 0.  0.
        4    1    3    3  502    0 -0.98334316265E+03 -0.82845790612E+01  0.11763522633E+04  0.15332444913E+04  0.12699999809E+01 0. -1.
       -4    1    3    3    0  502  0.98334316265E+03  0.82845790612E+01 -0.12130751633E+04  0.15615970589E+04  0.12699999809E+01 0.  1.
</event>
<event>
 5   0  0.3445410E-06  0.3105689E+04  0.7818609E-02  0.8214178E-01
        2   -1    0    0  501    0  0.00000000000E+00  0.00000000000E+00  0.11560988311E+04  0.11560988311E+04  0.25500000920E-02 0. -1.
       -2   -1    0    0    0  501  0.00000000000E+00  0.00000000000E+00 -0.20857433470E+04  0.20857433470E+04  0.25500000920E-02 0.  1.
    10030    2    1    2    0    0  0.00000000000E+00  0.00000000000E+00 -0.92964451587E+03  0.32418421781E+04  0.31056886163E+04 0.  0.
        1    1    3    3  502    0 -0.64372657783E+03  0.11898817338E+04 -0.12605563949E+04  0.18491092104E+04  0.50400001928E-02 0.  1.
       -1    1    3    3    0  502  0.64372657783E+03 -0.11898817338E+04  0.33091187903E+03  0.13927329676E+04  0.50400001928E-02 0. -1.
</event>
<event>
 5   0  0.1235960E-06  0.3020996E+04  0.7818609E-02  0.8237761E-01
       -1   -1    0    0    0  501  0.00000000000E+00  0.00000000000E+00  0.16444142427E+04  0.16444142427E+04  0.50400001928E-02 0. -1.
        1   -1    0    0  501    0  0.00000000000E+00  0.00000000000E+00 -0.13874878779E+04  0.13874878779E+04  0.50400001928E-02 0.  1.
    10030    2    1    2    0    0  0.00000000000E+00  0.00000000000E+00  0.25692636480E+03  0.30319021206E+04  0.30209964105E+04 0.  0.
        4    1    3    3  502    0  0.12384528463E+04  0.86435528961E+03  0.10138995969E+03  0.15136568488E+04  0.12699999809E+01 0.  1.
       -4    1    3    3    0  502 -0.12384528463E+04 -0.86435528961E+03  0.15553640510E+03  0.15182452718E+04  0.12699999809E+01 0. -1.
</event>
<event>
 5   0  0.3340899E-06  0.3092331E+04  0.7818609E-02  0.8217846E-01
        2   -1    0    0  501    0  0.00000000000E+00  0.00000000000E+00  0.22103544234E+04  0.22103544235E+04  0.25500000920E-02 0. -1.
       -2   -1    0    0    0  501  0.00000000000E+00  0.00000000000E+00 -0.10815584946E+04  0.10815584946E+04  0.25500000920E-02 0.  1.
    10030    2    1    2    0    0  0.00000000000E+00  0.00000000000E+00  0.11287959288E+04  0.32919129181E+04  0.30923309026E+04 0.  0.
        3    1    3    3  502    0 -0.19621082932E+03  0.96232689357E+02  0.21938302005E+04  0.22046882725E+04  0.10100000352E+00 0. -1.
       -3    1    3    3    0  502  0.19621082932E+03 -0.96232689357E+02 -0.10650342716E+04  0.10872246456E+04  0.10100000352E+00 0.  1.
</event>
<event>
 5   0  0.3441897E-06  0.3111025E+04  0.7818609E-02  0.8212719E-01
       -2   -1    0    0    0  501  0.00000000000E+00  0.00000000000E+00  0.15874646950E+04  0.15874646950E+04  0.25500000920E-02 0.  1.
        2   -1    0    0  501    0  0.00000000000E+00  0.00000000000E+00 -0.15242031348E+04  0.15242031348E+04  0.25500000920E-02 0. -1.
    10030    2    1    2    0    0  0.00000000000E+00  0.00000000000E+00  0.63261560250E+02  0.31116678298E+04  0.31110246958E+04 0.  0.
        5    1    3    3  502    0  0.42875033891E+03  0.10148262717E+03 -0.14604788755E+04  0.15254986767E+04  0.46999998093E+01 0. -1.
       -5    1    3    3    0  502 -0.42875033891E+03 -0.10148262717E+03  0.15237404358E+04  0.15861691531E+04  0.46999998093E+01 0.  1.
</event>
<event>
 5   0  0.1211008E-06  0.3098944E+04  0.7818609E-02  0.8216028E-01
        1   -1    0    0  501    0  0.00000000000E+00  0.00000000000E+00  0.23975752011E+04  0.23975752011E+04  0.50400001928E-02 0.  1.
       -1   -1    0    0    0  501  0.00000000000E+00  0.00000000000E+00 -0.10013714038E+04  0.10013714038E+04  0.50400001928E-02 0. -1.
    10030    2    1    2    0    0  0.00000000000E+00  0.00000000000E+00  0.13962037973E+04  0.33989466048E+04  0.30989438490E+04 0.  0.
        3    1    3    3  502    0  0.10407848784E+04  0.11185426801E+04  0.41527776998E+03  0.15832960957E+04  0.10100000352E+00 0. -1.
       -3    1    3    3    0  502 -0.10407848784E+04 -0.11185426801E+04  0.98092602731E+03  0.18156505092E+04  0.10100000352E+00 0.  1.
</event>
<event>
 5   0  0.1235960E-06  0.3137444E+04  0.7818609E-02  0.8205536E-01
        1   -1    0    0  501    0  0.00000000000E+00  0.00000000000E+00  0.23062731142E+04  0.23062731142E+04  0.50400001928E-02 0.  1.
       -1   -1    0    0    0  501  0.00000000000E+00  0.00000000000E+00 -0.10670416509E+04  0.10670416509E+04  0.50400001928E-02 0. -1.
    10030    2    1    2    0    0  0.00000000000E+00  0.00000000000E+00  0.12392314634E+04  0.33733147651E+04  0.31374444831E+04 0.  0.
        4    1    3    3  502    0  0.89038114428E+03  0.12808377574E+04  0.44111036725E+03  0.16210810935E+04  0.12699999809E+01 0. -1.
       -4    1    3    3    0  502 -0.89038114428E+03 -0.12808377574E+04  0.79812109612E+03  0.17522336716E+04  0.12699999809E+01 0.  1.
</event>
<event>
 5   0  0.3445959E-06  0.3096326E+04  0.7818609E-02  0.8216747E-01
       -2   -1    0    0    0  501  0.00000000000E+00  0.00000000000E+00  0.92764009242E+03  0.92764009243E+03  0.25500000920E-02 0. -1.
        2   -1    0    0  501    0  0.00000000000E+00  0.00000000000E+00 -0.25837706838E+04  0.25837706838E+04  0.25500000920E-02 0.  1.
    10030    2    1    2    0    0  0.00000000000E+00  0.00000000000E+00 -0.16561305913E+04  0.35114107762E+04  0.30963263884E+04 0.  0.
        4    1    3    3  502    0 -0.46091621860E+03 -0.15711599873E+03  0.83852731715E+03  0.96966946541E+03  0.12699999809E+01 0. -1.
       -4    1    3    3    0  502  0.46091621860E+03  0.15711599873E+03 -0.24946579085E+04  0.25417413108E+04  0.12699999809E+01 0.  1.
</event>
<event>
 5   0  0.1211008E-06  0.3122223E+04  0.7818609E-02  0.8209665E-01
       -1   -1    0    0    0  501  0.00000000000E+00  0.00000000000E+00  0.12562791280E+04  0.12562791281E+04  0.50400001928E-02 0. -1.
        1   -1    0    0  501    0  0.00000000000E+00  0.00000000000E+00 -0.19399103150E+04  0.19399103150E+04  0.50400001928E-02 0.  1.
    10030    2    1    2    0    0  0.00000000000E+00  0.00000000000E+00 -0.68363118695E+03  0.31961894431E+04  0.31222228230E+04 0.  0.
        3    1    3    3  502    0 -0.99824981386E+03 -0.35015056830E+03  0.83340624126E+03  0.13467271752E+04  0.10100000352E+00 0. -1.
       -3    1    3    3    0  502  0.99824981386E+03  0.35015056830E+03 -0.15170374282E+04  0.18494622678E+04  0.10100000352E+00 0.  1.
</event>
<event>
 5   0  0.3441897E-06  0.3101638E+04  0.7818609E-02  0.8215288E-01
        2   -1    0    0  501    0  0.00000000000E+00  0.00000000000E+00  0.18054773979E+04  0.18054773979E+04  0.25500000920E-02 0.  1.
       -2   -1    0    0    0  501  0.00000000000E+00  0.00000000000E+00 -0.13320799321E+04  0.13320799321E+04  0.25500000920E-02 0. -1.
    10030    2    1    2    0    0  0.00000000000E+00  0.00000000000E+00  0.47339746582E+03  0.31375573300E+04  0.31016384119E+04 0.  0.
        5    1    3    3  502    0 -0.13865539328E+04 -0.40089810598E+02  0.93818385231E+03  0.16746193694E+04  0.46999998093E+01 0.  1.
       -5    1    3    3    0  502  0.13865539328E+04  0.40089810598E+02 -0.46478638649E+03  0.14629379606E+04  0.46999998093E+01 0. -1.
</event>
<event>
 5   0  0.3374790E-06  0.3166594E+04  0.7818609E-02  0.8197696E-01
       -2   -1    0    0    0  501  0.00000000000E+00  0.00000000000E+00  0.17891849400E+04  0.17891849400E+04  0.25500000920E-02 0.  1.
        2   -1    0    0  501    0  0.00000000000E+00  0.00000000000E+00 -0.14011008916E+04  0.14011008916E+04  0.25500000920E-02 0. -1.
    10030    2    1    2    0    0  0.00000000000E+00  0.00000000000E+00  0.38808404835E+03  0.31902858316E+04  0.31665935102E+04 0.  0.
        2    1    3    3  502    0  0.14085516604E+04 -0.15139023750E+02 -0.53426475667E+03  0.15065476429E+04  0.25500000920E-02 0. -1.
       -2    1    3    3    0  502 -0.14085516604E+04  0.15139023750E+02  0.92234880502E+03  0.16837381887E+04  0.25500000920E-02 0.  1.
</event>
<event>
 5   0  0.3441897E-06  0.3077818E+04  0.7818609E-02  0.8221852E-01
        2   -1    0    0  501    0  0.00000000000E+00  0.00000000000E+00  0.12316926914E+04  0.12316926914E+04  0.25500000920E-02 0. -1.
       -2   -1    0    0    0  501  0.00000000000E+00  0.00000000000E+00 -0.19227532176E+04  0.19227532176E+04  0.25500000920E-02 0.  1.
    10030    2    1    2    0    0  0.00000000000E+00  0.00000000000E+00 -0.69106052615E+03  0.31544459090E+04  0.30778181139E+04 0.  0.
        5    1    3    3  502    0  0.20504628116E+03 -0.62369261974E+03  0.10809488134E+04  0.12647169203E+04  0.46999998093E+01 0. -1.
       -5    1    3    3    0  502 -0.20504628116E+03  0.62369261974E+03 -0.17720093395E+04  0.18897289887E+04  0.46999998093E+01 0.  1.
</event>
<event>
 5   0  0.1250276E-06  0.3087423E+04  0.7818609E-02  0.8219198E-01
        1   -1    0    0  501    0  0.00000000000E+00  0.00000000000E+00  0.21105270836E+04  0.21105270836E+04  0.50400001928E-02 0. -1.
       -1   -1    0    0    0  501  0.00000000000E+00  0.00000000000E+00 -0.11291232722E+04  0.11291232723E+04  0.50400001928E-02 0.  1.
    10030    2    1    2    0    0  0.00000000000E+00  0.00000000000E+00  0.98140381136E+03  0.32396503559E+04  0.30874230334E+04 0.  0.
        5    1    3    3  502    0  0.44591952910E+02 -0.21640857497E+03  0.20938410681E+04  0.21054723038E+04  0.46999998093E+01 0. -1.
       -5    1    3    3    0  502 -0.44591952910E+02  0.21640857497E+03 -0.11124372568E+04  0.11341780521E+04  0.46999998093E+01 0.  1.
</event>
<event>
 5   0  0.1235960E-06  0.3107174E+04  0.7818609E-02  0.8213772E-01
        1   -1    0    0  501    0  0.00000000000E+00  0.00000000000E+00  0.21689269948E+04  0.21689269948E+04  0.50400001928E-02 0.  1.
       -1   -1    0    0    0  501  0.00000000000E+00  0.00000000000E+00 -0.11128231832E+04  0.11128231833E+04  0.50400001928E-02 0. -1.
    10030    2    1    2    0    0  0.00000000000E+00  0.00000000000E+00  0.10561038116E+04  0.32817501781E+04  0.31071737915E+04 0.  0.
        4    1    3    3  502    0  0.85058282949E+03 -0.45570897692E+03 -0.75792377193E+03  0.12270337723E+04  0.12699999809E+01 0. -1.
       -4    1    3    3    0  502 -0.85058282949E+03  0.45570897692E+03  0.18140275835E+04  0.20547164057E+04  0.12699999809E+01 0.  1.
</event>
<event>
 5   0  0.3340899E-06  0.3087318E+04  0.7818609E-02  0.8219227E-01
       -2   -1    0    0    0  501  0.00000000000E+00  0.00000000000E+00  0.89461836637E+03  0.89461836637E+03  0.25500000920E-02 0.  1.
        2   -1    0    0  501    0  0.00000000000E+00  0.00000000000E+00 -0.26635745170E+04  0.26635745170E+04  0.25500000920E-02 0. -1.
    10030    2    1    2    0    0  0.00000000000E+00  0.00000000000E+00 -0.17689561507E+04  0.35581928834E+04  0.30873177246E+04 0.  0.
        3    1    3    3  502    0 -0.64869149105E+02 -0.12520802740E+04  0.15340985649E+03  0.12631102934E+04  0.10100000352E+00 0.  1.
       -3    1    3    3    0  502  0.64869149105E+02  0.12520802740E+04 -0.19223660072E+04  0.22950825900E+04  0.10100000352E+00 0. -1.
</event>
<event>
 5   0  0.1171915E-06  0.3126673E+04  0.7818609E-02  0.8208456E-01
        1   -1    0    0  501    0  0.00000000000E+00  0.00000000000E+00  0.15931238080E+04  0.15931238080E+04  0.50400001928E-02 0.  1.
       -1   -1    0    0    0  501  0.00000000000E+00  0.00000000000E+00 -0.15341064461E+04  0.15341064461E+04  0.50400001928E-02 0. -1.
    10030    2    1    2    0    0  0.00000000000E+00  0.00000000000E+00  0.59017361928E+02  0.31272302541E+04  0.31266733141E+04 0.  0.
        2    1    3    3  502    0 -0.49851730538E+03 -0.79619655117E+03  0.12793604373E+04  0.15872024383E+04  0.25500000920E-02 0.  1.
       -2    1    3    3    0  502  0.49851730538E+03  0.79619655117E+03 -0.12203430753E+04  0.15400278158E+04  0.25500000920E-02 0. -1.
</event>
<event>
 5   0  0.3445959E-06  0.3037225E+04  0.7818609E-02  0.8233180E-01
       -2   -1    0    0    0  501  0.00000000000E+00  0.00000000000E+00  0.17169045481E+04  0.17169045481E+04  0.25500000920E-02 0. -1.
        2   -1    0    0  501    0  0.00000000000E+00  0.00000000000E+00 -0.13432216217E+04  0.13432216217E+04  0.25500000920E-02 0.  1.
    10030    2    1    2    0    0  0.00000000000E+00  0.00000000000E+00  0.37368292633E+03  0.30601261698E+04  0.30372245959E+04 0.  0.
        4    1    3    3  502    0  0.12100481166E+04  0.32863912475E+03  0.10500169295E+04  0.16354685213E+04  0.12699999809E+01 0. -1.
       -4    1    3    3    0  502 -0.12100481166E+04 -0.32863912475E+03 -0.67633400318E+03  0.14246576486E+04  0.12699999809E+01 0.  1.
</event>
<event>
 5   0  0.1235960E-06  0.3099268E+04  0.7818609E-02  0.8215939E-01
        1   -1    0    0  501    0  0.00000000000E+00  0.00000000000E+00  0.19387482932E+04  0.19387482932E+04  0.50400001928E-02 0.  1.
       -1   -1    0    0    0  501  0.00000000000E+00  0.00000000000E+00 -0.12386167358E+04  0.12386167358E+04  0.50400001928E-02 0. -1.
    10030    2    1    2    0    0  0.00000000000E+00  0.00000000000E+00  0.70013155738E+03  0.31773650289E+04  0.30992683539E+04 0.  0.
        4    1    3    3  502    0 -0.54608026870E+03 -0.93390298211E+03 -0.78738992179E+03  0.13380444468E+04  0.12699999809E+01 0. -1.
       -4    1    3    3    0  502  0.54608026870E+03  0.93390298211E+03  0.14875214792E+04  0.18393205821E+04  0.12699999809E+01 0.  1.
</event>
<event>
 5   0  0.1198763E-06  0.3082403E+04  0.7818609E-02  0.8220584E-01
       -1   -1    0    0    0  501  0.00000000000E+00  0.00000000000E+00  0.24799080642E+04  0.24799080642E+04  0.50400001928E-02 0.  1.
        1   -1    0    0  501    0  0.00000000000E+00  0.00000000000E+00 -0.95781860249E+03  0.95781860250E+03  0.50400001928E-02 0. -1.
    10030    2    1    2    0    0  0.00000000000E+00  0.00000000000E+00  0.15220894617E+04  0.34377266667E+04  0.30824030083E+04 0.  0.
        1    1    3    3  502    0 -0.10940353817E+04 -0.38821083974E+03  0.18916502146E+04  0.22194507444E+04  0.50400001928E-02 0.  1.
       -1    1    3    3    0  502  0.10940353817E+04  0.38821083974E+03 -0.36956075291E+03  0.12182759222E+04  0.50400001928E-02 0. -1.
</event>
<event>
 5   0  0.1250276E-06  0.3046854E+04  0.7818609E-02  0.8230477E-01
        1   -1    0    0  501    0  0.00000000000E+00  0.00000000000E+00  0.19892286629E+04  0.19892286629E+04  0.50400001928E-02 0. -1.
       -1   -1    0    0    0  501  0.00000000000E+00  0.00000000000E+00 -0.11666982319E+04  0.11666982319E+04  0.50400001928E-02 0.  1.
    10030    2    1    2    0    0  0.00000000000E+00  0.00000000000E+00  0.82253043098E+03  0.31559268948E+04  0.30468538290E+04 0.  0.
        5    1    3    3  502    0 -0.89722792051E+03  0.61482197064E+03  0.15161198101E+04  0.18659221220E+04  0.46999998093E+01 0. -1.
       -5    1    3    3    0  502  0.89722792051E+03 -0.61482197064E+03 -0.69358937909E+03  0.12900047727E+04  0.46999998093E+01 0.  1.
</event>
<event>
 5   0  0.1211008E-06  0.3094334E+04  0.7818609E-02  0.8217295E-01
       -1   -1    0    0    0  501  0.00000000000E+00  0.00000000000E+00  0.20148913521E+04  0.20148913521E+04  0.50400001928E-02 0. -1.
        1   -1    0    0  501    0  0.00000000000E+00  0.00000000000E+00 -0.11880169607E+04  0.11880169608E+04  0.50400001928E-02 0.  1.
    10030    2    1    2    0    0  0.00000000000E+00  0.00000000000E+00  0.82687439134E+03  0.32029083128E+04  0.30943335957E+04 0.  0.
        3    1    3    3  502    0  0.77786099834E+03  0.12730725535E+02  0.17977086843E+04  0.19588226893E+04  0.10100000352E+00 0. -1.
       -3    1    3    3    0  502 -0.77786099834E+03 -0.12730725535E+02 -0.97083429300E+03  0.12440856236E+04  0.10100000352E+00 0.  1.
</event>
<event>
 5   0  0.3374790E-06  0.3088434E+04  0.7818609E-02  0.8218919E-01
       -2   -1    0    0    0  501  0.00000000000E+00  0.00000000000E+00  0.18063330180E+04  0.18063330180E+04  0.25500000920E-02 0.  1.
        2   -1    0    0  501    0  0.00000000000E+00  0.00000000000E+00 -0.13201362313E+04  0.13201362313E+04  0.25500000920E-02 0. -1.
    10030    2    1    2    0    0  0.00000000000E+00  0.00000000000E+00  0.48619678672E+03  0.31264692493E+04  0.30884336890E+04 0.  0.
        2    1    3    3  502    0  0.96756109629E+03  0.11969489194E+04  0.37012068174E+03  0.15829878426E+04  0.25500000920E-02 0.  1.
       -2    1    3    3    0  502 -0.96756109629E+03 -0.11969489194E+04  0.11607610497E+03  0.15434814067E+04  0.25500000920E-02 0. -1.
</event>
<event>
 5   0  0.1235960E-06  0.3187717E+04  0.7818609E-02  0.8192069E-01
        1   -1    0    0  501    0  0.00000000000E+00  0.00000000000E+00  0.18930573709E+04  0.18930573709E+04  0.50400001928E-02 0.  1.
       -1   -1    0    0    0  501  0.00000000000E+00  0.00000000000E+00 -0.13419485899E+04  0.13419485899E+04  0.50400001928E-02 0. -1.
    10030    2    1    2    0    0  0.00000000000E+00  0.00000000000E+00  0.55110878099E+03  0.32350059607E+04  0.31877174714E+04 0.  0.
        4    1    3    3  502    0 -0.82311582686E+03 -0.13484870647E+04  0.61602254153E+02  0.15810545464E+04  0.12699999809E+01 0. -1.
       -4    1    3    3    0  502  0.82311582686E+03  0.13484870647E+04  0.48950652684E+03  0.16539514143E+04  0.12699999809E+01 0.  1.
</event>
<event>
 5   0  0.3441897E-06  0.3165953E+04  0.7818609E-02  0.8197867E-01
        2   -1    0    0  501    0  0.00000000000E+00  0.00000000000E+00  0.11949636258E+04  0.11949636258E+04  0.25500000920E-02 0.  1.
       -2   -1    0    0    0  501  0.00000000000E+00  0.00000000000E+00 -0.20969799733E+04  0.20969799733E+04  0.25500000920E-02 0. -1.
    10030    2    1    2    0    0  0.00000000000E+00  0.00000000000E+00 -0.90201634752E+03  0.32919435992E+04  0.31659531217E+04 0.  0.
        5    1    3    3  502    0  0.78789227763E+03 -0.13685962493E+04 -0.56473521337E+03  0.16771338307E+04  0.46999998093E+01 0.  1.
       -5    1    3    3    0  502 -0.78789227763E+03  0.13685962493E+04 -0.33728113415E+03  0.16148097685E+04  0.46999998093E+01 0. -1.
</event>
<event>
 5   0  0.3445959E-06  0.2913299E+04  0.7818609E-02  0.8268932E-01
       -2   -1    0    0    0  501  0.00000000000E+00  0.00000000000E+00  0.94674177094E+03  0.94674177095E+03  0.25500000920E-02 0.  1.
        2   -1    0    0  501    0  0.00000000000E+00  0.00000000000E+00 -0.22411891476E+04  0.22411891476E+04  0.25500000920E-02 0. -1.
    10030    2    1    2    0    0  0.00000000000E+00  0.00000000000E+00 -0.12944473766E+04  0.31879309185E+04  0.29132987369E+04 0.  0.
        4    1    3    3  502    0 -0.21775683812E+03  0.79868680696E+03  0.66430493041E+03  0.10614241893E+04  0.12699999809E+01 0.  1.
       -4    1    3    3    0  502  0.21775683812E+03 -0.79868680696E+03 -0.19587523070E+04  0.21265067292E+04  0.12699999809E+01 0. -1.
</event>
<event>
 5   0  0.1198763E-06  0.3085353E+04  0.7818609E-02  0.8219769E-01
        1   -1    0    0  501    0  0.00000000000E+00  0.00000000000E+00  0.24679842629E+04  0.24679842629E+04  0.50400001928E-02 0. -1.
       -1   -1    0    0    0  501  0.00000000000E+00  0.00000000000E+00 -0.96428903132E+03  0.96428903133E+03  0.50400001928E-02 0.  1.
    10030    2    1    2    0    0  0.00000000000E+00  0.00000000000E+00  0.15036952316E+04  0.34322732942E+04  0.30853525920E+04 0.  0.
        1    1    3    3  502    0  0.74418563429E+03  0.35643330135E+02 -0.75088191740E+03  0.10577837015E+04  0.50400001928E-02 0.  1.
       -1    1    3    3    0  502 -0.74418563429E+03 -0.35643330135E+02  0.22545771490E+04  0.23744895927E+04  0.50400001928E-02 0. -1.
</event>
<event>
 5   0  0.3441897E-06  0.3085698E+04  0.7818609E-02  0.8219674E-01
       -2   -1    0    0    0  501  0.00000000000E+00  0.00000000000E+00  0.18175431486E+04  0.18175431486E+04  0.25500000920E-02 0. -1.
        2   -1    0    0  501    0  0.00000000000E+00  0.00000000000E+00 -0.13096703529E+04  0.13096703529E+04  0.25500000920E-02 0.  1.
    10030    2    1    2    0    0  0.00000000000E+00  0.00000000000E+00  0.50787279573E+03  0.31272135016E+04  0.30856975723E+04 0.  0.
        5    1    3    3  502    0 -0.13547516941E+03 -0.87919429206E+03  0.15314614464E+04  0.17710822614E+04  0.46999998093E+01 0. -1.
       -5    1    3    3    0  502  0.13547516941E+03  0.87919429206E+03 -0.10235886507E+04  0.13561312402E+04  0.46999998093E+01 0.  1.
</event>
<event>
 5   0  0.3445410E-06  0.3069885E+04  0.7818609E-02  0.8224052E-01
        2   -1    0    0  501    0  0.00000000000E+00  0.00000000000E+00  0.23232452386E+04  0.23232452386E+04  0.25500000920E-02 0. -1.
       -2   -1    0    0    0  501  0.00000000000E+00  0.00000000000E+00 -0.10141194732E+04  0.10141194732E+04  0.25500000920E-02 0.  1.
    10030    2    1    2    0    0  0.00000000000E+00  0.00000000000E+00  0.13091257654E+04  0.33373647118E+04  0.30698848431E+04 0.  0.
        1    1    3    3  502    0 -0.34378388534E+02 -0.12988830749E+04  0.15429346567E+04  0.20171580183E+04  0.50400001928E-02 0.  1.
       -1    1    3    3    0  502  0.34378388534E+02  0.12988830749E+04 -0.23380889124E+03  0.13202066935E+04  0.50400001928E-02 0. -1.
</event>
<event>
 5   0  0.3340899E-06  0.3244802E+04  0.7818609E-02  0.8177084E-01
        2   -1    0    0  501    0  0.00000000000E+00  0.00000000000E+00  0.20791064356E+04  0.20791064357E+04  0.25500000920E-02 0.  1.
       -2   -1    0    0    0  501  0.00000000000E+00  0.00000000000E+00 -0.12660173512E+04  0.12660173512E+04  0.25500000920E-02 0. -1.
    10030    2    1    2    0    0  0.00000000000E+00  0.00000000000E+00  0.81308908448E+03  0.33451237868E+04  0.32448018876E+04 0.  0.
        3    1    3    3  502    0  0.12434134610E+04  0.85361282771E+02 -0.66423175595E+03  0.14122915490E+04  0.10100000352E+00 0. -1.
       -3    1    3    3    0  502 -0.12434134610E+04 -0.85361282771E+02  0.14773208404E+04  0.19328322378E+04  0.10100000352E+00 0.  1.
</event>
<event>
 5   0  0.1198763E-06  0.3089208E+04  0.7818609E-02  0.8218706E-01
       -1   -1    0    0    0  501  0.00000000000E+00  0.00000000000E+00  0.14579305472E+04  0.14579305472E+04  0.50400001928E-02 0. -1.
        1   -1    0    0  501    0  0.00000000000E+00  0.00000000000E+00 -0.16364302906E+04  0.16364302906E+04  0.50400001928E-02 0.  1.
    10030    2    1    2    0    0  0.00000000000E+00  0.00000000000E+00 -0.17849974338E+03  0.30943608378E+04  0.30892081244E+04 0.  0.
        1    1    3    3  502    0 -0.51134352014E+03 -0.97385459705E+02  0.13674266459E+04  0.14631513097E+04  0.50400001928E-02 0. -1.
       -1    1    3    3    0  502  0.51134352014E+03  0.97385459705E+02 -0.15459263892E+04  0.16312095280E+04  0.50400001928E-02 0.  1.
</event>
<event>
 5   0  0.1171915E-06  0.3046940E+04  0.7818609E-02  0.8230453E-01
        1   -1    0    0  501    0  0.00000000000E+00  0.00000000000E+00  0.15621728886E+04  0.15621728886E+04  0.50400001928E-02 0. -1.
       -1   -1    0    0    0  501  0.00000000000E+00  0.00000000000E+00 -0.14857259076E+04  0.14857259076E+04  0.50400001928E-02 0.  1.
    10030    2    1    2    0    0  0.00000000000E+00  0.00000000000E+00  0.76446980993E+02  0.30478987963E+04  0.30469399291E+04 0.  0.
        2    1    3    3  502    0 -0.31798800369E+03  0.65553418706E+03  0.13765979391E+04  0.15575183231E+04  0.25500000920E-02 0. -1.
       -2    1    3    3    0  502  0.31798800369E+03 -0.65553418706E+03 -0.13001509581E+04  0.14903804732E+04  0.25500000920E-02 0.  1.
</event>
<event>
 5   0  0.3445410E-06  0.3108749E+04  0.7818609E-02  0.8213341E-01
        2   -1    0    0  501    0  0.00000000000E+00  0.00000000000E+00  0.21873715055E+04  0.21873715055E+04  0.25500000920E-02 0.  1.
       -2   -1    0    0    0  501  0.00000000000E+00  0.00000000000E+00 -0.11045586716E+04  0.11045586716E+04  0.25500000920E-02 0. -1.
    10030    2    1    2    0    0  0.00000000000E+00  0.00000000000E+00  0.10828128339E+04  0.32919301772E+04  0.31087490504E+04 0.  0.
        1    1    3    3  502    0 -0.52569229088E+03 -0.95358776407E+03 -0.63318760262E+03  0.12596065055E+04  0.50400001928E-02 0. -1.
       -1    1    3    3    0  502  0.52569229088E+03  0.95358776407E+03  0.17160004365E+04  0.20323236717E+04  0.50400001928E-02 0.  1.
</event>
<event>
 5   0  0.3340899E-06  0.3075653E+04  0.7818609E-02  0.8222452E-01
        2   -1    0    0  501    0  0.00000000000E+00  0.00000000000E+00  0.25426966699E+04  0.25426966699E+04  0.25500000920E-02 0. -1.
       -2   -1    0    0    0  501  0.00000000000E+00  0.00000000000E+00 -0.93007991518E+03  0.93007991519E+03  0.25500000920E-02 0.  1.
    10030    2    1    2    0    0  0.00000000000E+00  0.00000000000E+00  0.16126167547E+04  0.34727765851E+04  0.30756534935E+04 0.  0.
        3    1    3    3  502    0 -0.42729256342E+03 -0.17554403768E+03  0.24625045406E+04  0.25054586938E+04  0.10100000352E+00 0. -1.
       -3    1    3    3    0  502  0.42729256342E+03  0.17554403768E+03 -0.84988778588E+03  0.96731789124E+03  0.10100000352E+00 0.  1.
</event>
<event>
 5   0  0.1250276E-06  0.3132011E+04  0.7818609E-02  0.8207007E-01
       -1   -1    0    0    0  501  0.00000000000E+00  0.00000000000E+00  0.15316328450E+04  0.15316328450E+04  0.50400001928E-02 0.  1.
        1   -1    0    0  501    0  0.00000000000E+00  0.00000000000E+00 -0.16011496994E+04  0.16011496994E+04  0.50400001928E-02 0. -1.
    10030    2    1    2    0    0  0.00000000000E+00  0.00000000000E+00 -0.69516854413E+02  0.31327825444E+04  0.31320111554E+04 0.  0.
        5    1    3    3  502    0 -0.11331436150E+04  0.10765172270E+04  0.62464210681E+02  0.15642338891E+04  0.46999998093E+01 0. -1.
       -5    1    3    3    0  502  0.11331436150E+04 -0.10765172270E+04 -0.13198106509E+03  0.15685486552E+04  0.46999998093E+01 0.  1.
</event>
<event>
 5   0  0.3340899E-06  0.3119956E+04  0.7818609E-02  0.8210282E-01
       -2   -1    0    0    0  501  0.00000000000E+00  0.00000000000E+00  0.28253097274E+04  0.28253097274E+04  0.25500000920E-02 0.  1.
        2   -1    0    0  501    0  0.00000000000E+00  0.00000000000E+00 -0.86133272515E+03  0.86133272516E+03  0.25500000920E-02 0. -1.
    10030    2    1    2    0    0  0.00000000000E+00  0.00000000000E+00  0.19639770022E+04  0.36866424525E+04  0.31199562349E+04 0.  0.
        3    1    3    3  502    0  0.49897150151E+03  0.96244542446E+03  0.23074507455E+04  0.25494318402E+04  0.10100000352E+00 0.  1.
       -3    1    3    3    0  502 -0.49897150151E+03 -0.96244542446E+03 -0.34347374330E+03  0.11372106124E+04  0.10100000352E+00 0. -1.
</event>
<event>
 5   0  0.1235960E-06  0.3006729E+04  0.7818609E-02  0.8241812E-01
       -1   -1    0    0    0  501  0.00000000000E+00  0.00000000000E+00  0.12702326774E+04  0.12702326774E+04  0.50400001928E-02 0.  1.
        1   -1    0    0  501    0  0.00000000000E+00  0.00000000000E+00 -0.17792846923E+04  0.17792846924E+04  0.50400001928E-02 0. -1.
    10030    2    1    2    0    0  0.00000000000E+00  0.00000000000E+00 -0.50905201496E+03  0.30495173697E+04  0.30067294914E+04 0.  0.
        4    1    3    3  502    0  0.59885960893E+03 -0.12701617817E+04  0.28991862975E+03  0.14338752414E+04  0.12699999809E+01 0.  1.
       -4    1    3    3    0  502 -0.59885960893E+03  0.12701617817E+04 -0.79897064471E+03  0.16156421284E+04  0.12699999809E+01 0. -1.
</event>
<event>
 5   0  0.1235960E-06  0.3099543E+04  0.7818609E-02  0.8215863E-01
       -1   -1    0    0    0  501  0.00000000000E+00  0.00000000000E+00  0.17669057316E+04  0.17669057316E+04  0.50400001928E-02 0. -1.
        1   -1    0    0  501    0  0.00000000000E+00  0.00000000000E+00 -0.13593205534E+04  0.13593205535E+04  0.50400001928E-02 0.  1.
    10030    2    1    2    0    0  0.00000000000E+00  0.00000000000E+00  0.40758517814E+03  0.31262262850E+04  0.30995427256E+04 0.  0.
        4    1    3    3  502    0  0.12534925167E+04 -0.18698301087E+03 -0.69584102578E+03  0.14458224240E+04  0.12699999809E+01 0.  1.
       -4    1    3    3    0  502 -0.12534925167E+04  0.18698301087E+03  0.11034262039E+04  0.16804038610E+04  0.12699999809E+01 0. -1.
</event>
<event>
 5   0  0.3340899E-06  0.3130631E+04  0.7818609E-02  0.8207382E-01
        2   -1    0    0  501    0  0.00000000000E+00  0.00000000000E+00  0.11805843504E+04  0.11805843504E+04  0.25500000920E-02 0. -1.
       -2   -1    0    0    0  501  0.00000000000E+00  0.00000000000E+00 -0.20754231952E+04  0.20754231952E+04  0.25500000920E-02 0.  1.
    10030    2    1    2    0    0  0.00000000000E+00  0.00000000000E+00 -0.89483884487E+03  0.32560075456E+04  0.31306306998E+04 0.  0.
        3    1    3    3  502    0 -0.79034290227E+03 -0.12164109340E+04 -0.10591188215E+04  0.17961152946E+04  0.10100000352E+00 0.  1.
       -3    1    3    3    0  502  0.79034290227E+03  0.12164109340E+04  0.16427997661E+03  0.14598922509E+04  0.10100000352E+00 0. -1.
</event>
<event>
 5   0  0.1250276E-06  0.3107185E+04  0.7818609E-02  0.8213769E-01
       -1   -1    0    0    0  501  0.00000000000E+00  0.00000000000E+00  0.14449848262E+04  0.14449848262E+04  0.50400001928E-02 0.  1.
        1   -1    0    0  501    0  0.00000000000E+00  0.00000000000E+00 -0.16703630320E+04  0.16703630321E+04  0.50400001928E-02 0. -1.
    10030    2    1    2    0    0  0.00000000000E+00  0.00000000000E+00 -0.22537820585E+03  0.31153478583E+04  0.31071847293E+04 0.  0.
        5    1    3    3  502    0  0.90079385902E+03 -0.95334086864E+03  0.72216812566E+03  0.14972766211E+04  0.46999998093E+01 0.  1.
       -5    1    3    3    0  502 -0.90079385902E+03  0.95334086864E+03 -0.94754633151E+03  0.16180712372E+04  0.46999998093E+01 0. -1.
</event>
<event>
 5   0  0.1198763E-06  0.3084722E+04  0.7818609E-02  0.8219943E-01
       -1   -1    0    0    0  501  0.00000000000E+00  0.00000000000E+00  0.11068890971E+04  0.11068890971E+04  0.50400001928E-02 0.  1.
        1   -1    0    0  501    0  0.00000000000E+00  0.00000000000E+00 -0.21491559405E+04  0.21491559405E+04  0.50400001928E-02 0. -1.
    10030    2    1    2    0    0  0.00000000000E+00  0.00000000000E+00 -0.10422668434E+04  0.32560450376E+04  0.30847218860E+04 0.  0.
        1    1    3    3  502    0  0.11290857863E+04  0.49880105441E+03 -0.14972875825E+04  0.19404915123E+04  0.50400001928E-02 0. -1.
       -1    1    3    3    0  502 -0.11290857863E+04 -0.49880105441E+03  0.45502073919E+03  0.13155535252E+04  0.50400001928E-02 0.  1.
</event>
<event>
 5   0  0.1235960E-06  0.2936443E+04  0.7818609E-02  0.8262116E-01
       -1   -1    0    0    0  501  0.00000000000E+00  0.00000000000E+00  0.15887523907E+04  0.15887523907E+04  0.50400001928E-02 0.  1.
        1   -1    0    0  501    0  0.00000000000E+00  0.00000000000E+00 -0.13568349971E+04  0.13568349971E+04  0.50400001928E-02 0. -1.
    10030    2    1    2    0    0  0.00000000000E+00  0.00000000000E+00  0.23191739360E+03  0.29455873877E+04  0.29364433216E+04 0.  0.
        4    1    3    3  502    0  0.90245793867E+03  0.92473337278E+03  0.81534649922E+03  0.15278591782E+04  0.12699999809E+01 0.  1.
       -4    1    3    3    0  502 -0.90245793867E+03 -0.92473337278E+03 -0.58342910562E+03  0.14177282095E+04  0.12699999809E+01 0. -1.
</event>
<event>
 5   0  0.3374790E-06  0.3092028E+04  0.7818609E-02  0.8217929E-01
       -2   -1    0    0    0  501  0.00000000000E+00  0.00000000000E+00  0.14144155426E+04  0.14144155426E+04  0.25500000920E-02 0. -1.
        2   -1    0    0  501    0  0.00000000000E+00  0.00000000000E+00 -0.16898562753E+04  0.16898562753E+04  0.25500000920E-02 0.  1.
    10030    2    1    2    0    0  0.00000000000E+00  0.00000000000E+00 -0.27544073273E+03  0.31042718179E+04  0.30920278010E+04 0.  0.
        2    1    3    3  502    0  0.72304423571E+03 -0.10789790392E+04 -0.97959339313E+03  0.16268349485E+04  0.25500000920E-02 0.  1.
       -2    1    3    3    0  502 -0.72304423571E+03  0.10789790392E+04  0.70415266040E+03  0.14774368694E+04  0.25500000920E-02 0. -1.
</event>
<event>
 5   0  0.3374790E-06  0.2765943E+04  0.7818609E-02  0.8313920E-01
        2   -1    0    0  501    0  0.00000000000E+00  0.00000000000E+00  0.16454102246E+04  0.16454102246E+04  0.25500000920E-02 0. -1.
       -2   -1    0    0    0  501  0.00000000000E+00  0.00000000000E+00 -0.11623909957E+04  0.11623909957E+04  0.25500000920E-02 0.  1.
    10030    2    1    2    0    0  0.00000000000E+00  0.00000000000E+00  0.48301922884E+03  0.28078012203E+04  0.27659428984E+04 0.  0.
        2    1    3    3  502    0  0.57839355552E+03 -0.29008029849E+03 -0.99924943282E+03  0.11904558428E+04  0.25500000920E-02 0.  1.
       -2    1    3    3    0  502 -0.57839355552E+03  0.29008029849E+03  0.14822686617E+04  0.16173453775E+04  0.25500000920E-02 0. -1.
</event>
<event>
 5   0  0.3374790E-06  0.3113436E+04  0.7818609E-02  0.8212060E-01
        2   -1    0    0  501    0  0.00000000000E+00  0.00000000000E+00  0.23711950603E+04  0.23711950603E+04  0.25500000920E-02 0.  1.
       -2   -1    0    0    0  501  0.00000000000E+00  0.00000000000E+00 -0.10220042678E+04  0.10220042678E+04  0.25500000920E-02 0. -1.
    10030    2    1    2    0    0  0.00000000000E+00  0.00000000000E+00  0.13491907925E+04  0.33931993282E+04  0.31134363469E+04 0.  0.
        2    1    3    3  502    0  0.86435987075E+03  0.12861688645E+04  0.83633224447E+03  0.17609088441E+04  0.25500000920E-02 0.  1.
       -2    1    3    3    0  502 -0.86435987075E+03 -0.12861688645E+04  0.51285854801E+03  0.16322904841E+04  0.25500000920E-02 0. -1.
</event>
<event>
 5   0  0.1171915E-06  0.3113543E+04  0.7818609E-02  0.8212031E-01
        1   -1    0    0  501    0  0.00000000000E+00  0.00000000000E+00  0.25028655012E+04  0.25028655012E+04  0.50400001928E-02 0.  1.
       -1   -1    0    0    0  501  0.00000000000E+00  0.00000000000E+00 -0.96830506232E+03  0.96830506233E+03  0.50400001928E-02 0. -1.
    10030    2    1    2    0    0  0.00000000000E+00  0.00000000000E+00  0.15345604389E+04  0.34711705635E+04  0.31135428920E+04 0.  0.
        2    1    3    3  502    0  0.91327238309E+03  0.12572727480E+04  0.66307713814E+03  0.16895184224E+04  0.25500000920E-02 0. -1.
       -2    1    3    3    0  502 -0.91327238309E+03 -0.12572727480E+04  0.87148330071E+03  0.17816521411E+04  0.25500000920E-02 0.  1.
</event>
<event>
 5   0  0.1235960E-06  0.2864189E+04  0.7818609E-02  0.8283613E-01
        1   -1    0    0  501    0  0.00000000000E+00  0.00000000000E+00  0.18926481620E+04  0.18926481620E+04  0.50400001928E-02 0.  1.
       -1   -1    0    0    0  501  0.00000000000E+00  0.00000000000E+00 -0.10836108892E+04  0.10836108892E+04  0.50400001928E-02 0. -1.
    10030    2    1    2    0    0  0.00000000000E+00  0.00000000000E+00  0.80903727281E+03  0.29762590512E+04  0.28641886514E+04 0.  0.
        4    1    3    3  502    0 -0.72701152712E+03  0.36693830974E+03 -0.81958272989E+03  0.11553817325E+04  0.12699999809E+01 0. -1.
       -4    1    3    3    0  502  0.72701152712E+03 -0.36693830974E+03  0.16286200027E+04  0.18208773187E+04  0.12699999809E+01 0.  1.
</event>
<event>
 5   0  0.1211008E-06  0.3138872E+04  0.7818609E-02  0.8205150E-01
       -1   -1    0    0    0  501  0.00000000000E+00  0.00000000000E+00  0.19262098367E+04  0.19262098367E+04  0.50400001928E-02 0. -1.
        1   -1    0    0  501    0  0.00000000000E+00  0.00000000000E+00 -0.12787441184E+04  0.12787441184E+04  0.50400001928E-02 0.  1.
    10030    2    1    2    0    0  0.00000000000E+00  0.00000000000E+00  0.64746571829E+03  0.32049539551E+04  0.31388720901E+04 0.  0.
        3    1    3    3  502    0  0.10489648787E+03 -0.74325537888E+03  0.17310449526E+04  0.18867825708E+04  0.10100000352E+00 0. -1.
       -3    1    3    3    0  502 -0.10489648787E+03  0.74325537888E+03 -0.10835792343E+04  0.13181713844E+04  0.10100000352E+00 0.  1.
</event>
<event>
 5   0  0.3441897E-06  0.3378137E+04  0.7818609E-02  0.8143293E-01
        2   -1    0    0  501    0  0.00000000000E+00  0.00000000000E+00  0.18614854745E+04  0.18614854745E+04  0.25500000920E-02 0. -1.
       -2   -1    0    0    0  501  0.00000000000E+00  0.00000000000E+00 -0.15326217516E+04  0.15326217516E+04  0.25500000920E-02 0.  1.
    10030    2    1    2    0    0  0.00000000000E+00  0.00000000000E+00  0.32886372293E+03  0.33941072261E+04  0.33781374327E+04 0.  0.
        5    1    3    3  502    0 -0.66551102599E+03  0.77524952615E+03  0.15157862070E+04  0.18279897890E+04  0.46999998093E+01 0. -1.
       -5    1    3    3    0  502  0.66551102599E+03 -0.77524952615E+03 -0.11869224841E+04  0.15661174371E+04  0.46999998093E+01 0.  1.
</event>
<event>
 5   0  0.1235960E-06  0.3119761E+04  0.7818609E-02  0.8210335E-01
       -1   -1    0    0    0  501  0.00000000000E+00  0.00000000000E+00  0.19480801187E+04  0.19480801187E+04  0.50400001928E-02 0. -1.
        1   -1    0    0  501    0  0.00000000000E+00  0.00000000000E+00 -0.12490386746E+04  0.12490386746E+04  0.50400001928E-02 0.  1.
    10030    2    1    2    0    0  0.00000000000E+00  0.00000000000E+00  0.69904144414E+03  0.31971187933E+04  0.31197611507E+04 0.  0.
        4    1    3    3  502    0  0.22865101447E+03  0.14359805623E+04 -0.22919814205E+03  0.14720240701E+04  0.12699999809E+01 0. -1.
       -4    1    3    3    0  502 -0.22865101447E+03 -0.14359805623E+04  0.92823958619E+03  0.17250947232E+04  0.12699999809E+01 0.  1.
</event>
<event>
 5   0  0.3441897E-06  0.2801721E+04  0.7818609E-02  0.8302734E-01
       -2   -1    0    0    0  501  0.00000000000E+00  0.00000000000E+00  0.16660731169E+04  0.16660731169E+04  0.25500000920E-02 0.  1.
        2   -1    0    0  501    0  0.00000000000E+00  0.00000000000E+00 -0.11778653174E+04  0.11778653174E+04  0.25500000920E-02 0. -1.
    10030    2    1    2    0    0  0.00000000000E+00  0.00000000000E+00  0.48820779954E+03  0.28439384343E+04  0.28017207146E+04 0.  0.
        5    1    3    3  502    0  0.43384460885E+03  0.11240142876E+04 -0.48133878027E+03  0.12974353066E+04  0.46999998093E+01 0. -1.
       -5    1    3    3    0  502 -0.43384460885E+03 -0.11240142876E+04  0.96954657981E+03  0.15465031277E+04  0.46999998093E+01 0.  1.
</event>
<event>
 5   0  0.1235960E-06  0.3099468E+04  0.7818609E-02  0.8215884E-01
        1   -1    0    0  501    0  0.00000000000E+00  0.00000000000E+00  0.15254968056E+04  0.15254968056E+04  0.50400001928E-02 0. -1.
       -1   -1    0    0    0  501  0.00000000000E+00  0.00000000000E+00 -0.15743561928E+04  0.15743561928E+04  0.50400001928E-02 0.  1.
    10030    2    1    2    0    0  0.00000000000E+00  0.00000000000E+00 -0.48859387242E+02  0.30998529984E+04  0.30994679176E+04 0.  0.
        4    1    3    3  502    0  0.13984014773E+04  0.38483765029E+03 -0.57043435037E+03  0.15585325373E+04  0.12699999809E+01 0.  1.
       -4    1    3    3    0  502 -0.13984014773E+04 -0.38483765029E+03  0.52157496312E+03  0.15413204611E+04  0.12699999809E+01 0. -1.
</event>
<event>
 5   0  0.1109562E-06  0.3093608E+04  0.7818609E-02  0.8217494E-01
       -3   -1    0    0    0  501  0.00000000000E+00  0.00000000000E+00  0.20168068647E+04  0.20168068672E+04  0.10100000352E+00 0. -1.
        3   -1    0    0  501    0  0.00000000000E+00  0.00000000000E+00 -0.11863318434E+04  0.11863318477E+04  0.10100000352E+00 0.  1.
    10030    2    1    2    0    0  0.00000000000E+00  0.00000000000E+00  0.83047502129E+03  0.32031387149E+04  0.30936077427E+04 0.  0.
        2    1    3    3  502    0  0.79577823987E+03  0.97361160739E+03  0.13479187910E+04  0.18433848313E+04  0.25500000920E-02 0. -1.
       -2    1    3    3    0  502 -0.79577823987E+03 -0.97361160739E+03 -0.51744376970E+03  0.13597538836E+04  0.25500000920E-02 0.  1.
</event>
<event>
 5   0  0.1211008E-06  0.3040928E+04  0.7818609E-02  0.8232139E-01
       -1   -1    0    0    0  501  0.00000000000E+00  0.00000000000E+00  0.12006444023E+04  0.12006444023E+04  0.50400001928E-02 0.  1.
        1   -1    0    0  501    0  0.00000000000E+00  0.00000000000E+00 -0.19254745130E+04  0.19254745130E+04  0.50400001928E-02 0. -1.
    10030    2    1    2    0    0  0.00000000000E+00  0.00000000000E+00 -0.72483011074E+03  0.31261189154E+04  0.30409276189E+04 0.  0.
        3    1    3    3  502    0  0.79327951972E+03  0.65111295084E+03 -0.15157037895E+04  0.18304640010E+04  0.10100000352E+00 0. -1.
       -3    1    3    3    0  502 -0.79327951972E+03 -0.65111295084E+03  0.79087367877E+03  0.12956549144E+04  0.10100000352E+00 0.  1.
</event>
<event>
 5   0  0.1211008E-06  0.3052663E+04  0.7818609E-02  0.8228850E-01
        1   -1    0    0  501    0  0.00000000000E+00  0.00000000000E+00  0.85859852497E+03  0.85859852499E+03  0.50400001928E-02 0.  1.
       -1   -1    0    0    0  501  0.00000000000E+00  0.00000000000E+00 -0.27133616206E+04  0.27133616206E+04  0.50400001928E-02 0. -1.
    10030    2    1    2    0    0  0.00000000000E+00  0.00000000000E+00 -0.18547630956E+04  0.35719601456E+04  0.30526632865E+04 0.  0.
        3    1    3    3  502    0  0.43177624691E+02  0.33685032556E+02 -0.27122117077E+04  0.27127645210E+04  0.10100000352E+00 0. -1.
       -3    1    3    3    0  502 -0.43177624691E+02 -0.33685032556E+02  0.85744861211E+03  0.85919562458E+03  0.10100000352E+00 0.  1.
</event>
<event>
 5   0  0.3445959E-06  0.3102823E+04  0.7818609E-02  0.8214964E-01
       -2   -1    0    0    0  501  0.00000000000E+00  0.00000000000E+00  0.14795413897E+04  0.14795413897E+04  0.25500000920E-02 0.  1.
        2   -1    0    0  501    0  0.00000000000E+00  0.00000000000E+00 -0.16267726785E+04  0.16267726785E+04  0.25500000920E-02 0. -1.
    10030    2    1    2    0    0  0.00000000000E+00  0.00000000000E+00 -0.14723128881E+03  0.31063140682E+04  0.31028229144E+04 0.  0.
        4    1    3    3  502    0 -0.60928402998E+03  0.50988915357E+03  0.12604233179E+04  0.14899270221E+04  0.12699999809E+01 0.  1.
       -4    1    3    3    0  502  0.60928402998E+03 -0.50988915357E+03 -0.14076546067E+04  0.16163870461E+04  0.12699999809E+01 0. -1.
</event>
<event>
 5   0  0.3374790E-06  0.3106097E+04  0.7818609E-02  0.8214067E-01
        2   -1    0    0  501    0  0.00000000000E+00  0.00000000000E+00  0.19721936226E+04  0.19721936226E+04  0.25500000920E-02 0.  1.
       -2   -1    0    0    0  501  0.00000000000E+00  0.00000000000E+00 -0.12229834144E+04  0.12229834144E+04  0.25500000920E-02 0. -1.
    10030    2    1    2    0    0  0.00000000000E+00  0.00000000000E+00  0.74921020818E+03  0.31951770370E+04  0.31060972879E+04 0.  0.
        2    1    3    3  502    0  0.87029016420E+03 -0.52676902874E+03 -0.83253534725E+03  0.13145363000E+04  0.25500000920E-02 0. -1.
       -2    1    3    3    0  502 -0.87029016420E+03  0.52676902874E+03  0.15817455554E+04  0.18806407370E+04  0.25500000920E-02 0.  1.
</event>
<event>
 5   0  0.1211008E-06  0.2831640E+04  0.7818609E-02  0.8293512E-01
       -1   -1    0    0    0  501  0.00000000000E+00  0.00000000000E+00  0.14831964645E+04  0.14831964645E+04  0.50400001928E-02 0.  1.
        1   -1    0    0  501    0  0.00000000000E+00  0.00000000000E+00 -0.13515042101E+04  0.13515042101E+04  0.50400001928E-02 0. -1.
    10030    2    1    2    0    0  0.00000000000E+00  0.00000000000E+00  0.13169225439E+03  0.28347006746E+04  0.28316399956E+04 0.  0.
        3    1    3    3  502    0 -0.10981387985E+04  0.82179718682E+03  0.41734787813E+03  0.14336801242E+04  0.10100000352E+00 0. -1.
       -3    1    3    3    0  502  0.10981387985E+04 -0.82179718682E+03 -0.28565562374E+03  0.14010205504E+04  0.10100000352E+00 0.  1.
</event>
<event>
 5   0  0.3340899E-06  0.3053172E+04  0.7818609E-02  0.8228708E-01
       -2   -1    0    0    0  501  0.00000000000E+00  0.00000000000E+00  0.12275151509E+04  0.12275151509E+04  0.25500000920E-02 0.  1.
        2   -1    0    0  501    0  0.00000000000E+00  0.00000000000E+00 -0.18985223365E+04  0.18985223365E+04  0.25500000920E-02 0. -1.
    10030    2    1    2    0    0  0.00000000000E+00  0.00000000000E+00 -0.67100718568E+03  0.31260374874E+04  0.30531720766E+04 0.  0.
        3    1    3    3  502    0 -0.12766483022E+04  0.79217945735E+03 -0.58707962233E+02  0.15036042748E+04  0.10100000352E+00 0.  1.
       -3    1    3    3    0  502  0.12766483022E+04 -0.79217945735E+03 -0.61229922345E+03  0.16224332126E+04  0.10100000352E+00 0. -1.
</event>
<event>
 5   0  0.1198763E-06  0.3166141E+04  0.7818609E-02  0.8197817E-01
       -1   -1    0    0    0  501  0.00000000000E+00  0.00000000000E+00  0.18805161702E+04  0.18805161703E+04  0.50400001928E-02 0.  1.
        1   -1    0    0  501    0  0.00000000000E+00  0.00000000000E+00 -0.13326721255E+04  0.13326721255E+04  0.50400001928E-02 0. -1.
    10030    2    1    2    0    0  0.00000000000E+00  0.00000000000E+00  0.54784404477E+03  0.32131882957E+04  0.31661405412E+04 0.  0.
        1    1    3    3  502    0 -0.83783320621E+03 -0.35501070974E+03  0.15885920722E+04  0.18307435258E+04  0.50400001928E-02 0.  1.
       -1    1    3    3    0  502  0.83783320621E+03  0.35501070974E+03 -0.10407480274E+04  0.13824447700E+04  0.50400001928E-02 0. -1.
</event>
<event>
 5   0  0.1235960E-06  0.3063066E+04  0.7818609E-02  0.8225948E-01
       -1   -1    0    0    0  501  0.00000000000E+00  0.00000000000E+00  0.13785729130E+04  0.13785729130E+04  0.50400001928E-02 0. -1.
        1   -1    0    0  501    0  0.00000000000E+00  0.00000000000E+00 -0.17014644690E+04  0.17014644690E+04  0.50400001928E-02 0.  1.
    10030    2    1    2    0    0  0.00000000000E+00  0.00000000000E+00 -0.32289155596E+03  0.30800373820E+04  0.30630656731E+04 0.  0.
        4    1    3    3  502    0 -0.13369708707E+04  0.66201918480E+03 -0.50952951984E+03  0.15765095796E+04  0.12699999809E+01 0. -1.
       -4    1    3    3    0  502  0.13369708707E+04 -0.66201918480E+03  0.18663796387E+03  0.15035278024E+04  0.12699999809E+01 0.  1.
</event>
<event>
 5   0  0.1250276E-06  0.3123531E+04  0.7818609E-02  0.8209310E-01
       -1   -1    0    0    0  501  0.00000000000E+00  0.00000000000E+00  0.23151102808E+04  0.23151102808E+04  0.50400001928E-02 0.  1.
        1   -1    0    0  501    0  0.00000000000E+00  0.00000000000E+00 -0.10535618339E+04  0.10535618339E+04  0.50400001928E-02 0. -1.
    10030    2    1    2    0    0  0.00000000000E+00  0.00000000000E+00  0.12615484469E+04  0.33686721147E+04  0.31235312280E+04 0.  0.
        5    1    3    3  502    0 -0.49138522237E+02  0.14080596760E+04 -0.95936264795E+02  0.14121871344E+04  0.46999998093E+01 0. -1.
       -5    1    3    3    0  502  0.49138522237E+02 -0.14080596760E+04  0.13574847117E+04  0.19564849803E+04  0.46999998093E+01 0.  1.
</event>
<event>
 5   0  0.3340899E-06  0.3100498E+04  0.7818609E-02  0.8215601E-01
       -2   -1    0    0    0  501  0.00000000000E+00  0.00000000000E+00  0.13868531293E+04  0.13868531293E+04  0.25500000920E-02 0.  1.
        2   -1    0    0  501    0  0.00000000000E+00  0.00000000000E+00 -0.17328957329E+04  0.17328957329E+04  0.25500000920E-02 0. -1.
    10030    2    1    2    0    0  0.00000000000E+00  0.00000000000E+00 -0.34604260354E+03  0.31197488622E+04  0.31004979406E+04 0.  0.
        3    1    3    3  502    0 -0.14008413823E+04  0.20610504458E+03 -0.80815838334E+03  0.16303238484E+04  0.10100000352E+00 0. -1.
       -3    1    3    3    0  502  0.14008413823E+04 -0.20610504458E+03  0.46211577981E+03  0.14894250139E+04  0.10100000352E+00 0.  1.
</event>
<event>
 5   0  0.1198763E-06  0.3111138E+04  0.7818609E-02  0.8212688E-01
       -1   -1    0    0    0  501  0.00000000000E+00  0.00000000000E+00  0.19566104395E+04  0.19566104395E+04  0.50400001928E-02 0.  1.
        1   -1    0    0  501    0  0.00000000000E+00  0.00000000000E+00 -0.12367283941E+04  0.12367283942E+04  0.50400001928E-02 0. -1.
    10030    2    1    2    0    0  0.00000000000E+00  0.00000000000E+00  0.71988204539E+03  0.31933388337E+04  0.31111384970E+04 0.  0.
        1    1    3    3  502    0  0.75938493727E+03  0.15637905860E+03 -0.10242731795E+04  0.12846226836E+04  0.50400001928E-02 0. -1.
       -1    1    3    3    0  502 -0.75938493727E+03 -0.15637905860E+03  0.17441552249E+04  0.19087161501E+04  0.50400001928E-02 0.  1.
</event>
<event>
 5   0  0.3445410E-06  0.3105567E+04  0.7818609E-02  0.8214212E-01
        2   -1    0    0  501    0  0.00000000000E+00  0.00000000000E+00  0.24133211074E+04  0.24133211074E+04  0.25500000920E-02 0.  1.
       -2   -1    0    0    0  501  0.00000000000E+00  0.00000000000E+00 -0.99909513242E+03  0.99909513242E+03  0.25500000920E-02 0. -1.
    10030    2    1    2    0    0  0.00000000000E+00  0.00000000000E+00  0.14142259749E+04  0.34124162398E+04  0.31055674981E+04 0.  0.
        1    1    3    3  502    0 -0.45382154205E+03  0.90991876457E+03 -0.58239624806E+03  0.11717898873E+04  0.50400001928E-02 0. -1.
       -1    1    3    3    0  502  0.45382154205E+03 -0.90991876457E+03  0.19966222230E+04  0.22406263525E+04  0.50400001928E-02 0.  1.
</event>
<event>
 5   0  0.1235960E-06  0.3092249E+04  0.7818609E-02  0.8217868E-01
        1   -1    0    0  501    0  0.00000000000E+00  0.00000000000E+00  0.13463327759E+04  0.13463327759E+04  0.50400001928E-02 0.  1.
       -1   -1    0    0    0  501  0.00000000000E+00  0.00000000000E+00 -0.17755644646E+04  0.17755644646E+04  0.50400001928E-02 0. -1.
    10030    2    1    2    0    0  0.00000000000E+00  0.00000000000E+00 -0.42923168867E+03  0.31218972405E+04  0.30922487832E+04 0.  0.
        4    1    3    3  502    0  0.43729264428E+02  0.12997168208E+04  0.62965748413E+03  0.14448689294E+04  0.12699999809E+01 0.  1.
       -4    1    3    3    0  502 -0.43729264428E+02 -0.12997168208E+04 -0.10588891728E+04  0.16770283111E+04  0.12699999809E+01 0. -1.
</event>
<event>
 5   0  0.1250276E-06  0.3087123E+04  0.7818609E-02  0.8219281E-01
       -1   -1    0    0    0  501  0.00000000000E+00  0.00000000000E+00  0.16141340085E+04  0.16141340085E+04  0.50400001928E-02 0. -1.
        1   -1    0    0  501    0  0.00000000000E+00  0.00000000000E+00 -0.14760748613E+04  0.14760748614E+04  0.50400001928E-02 0.  1.
    10030    2    1    2    0    0  0.00000000000E+00  0.00000000000E+00  0.13805914713E+03  0.30902088698E+04  0.30871233424E+04 0.  0.
        5    1    3    3  502    0 -0.57574580170E+03  0.79345365942E+03  0.12624915849E+04  0.15984239205E+04  0.46999998093E+01 0. -1.
       -5    1    3    3    0  502  0.57574580170E+03 -0.79345365942E+03 -0.11244324378E+04  0.14917849493E+04  0.46999998093E+01 0.  1.
</event>
<event>
 5   0  0.1171915E-06  0.3095849E+04  0.7818609E-02  0.8216878E-01
        1   -1    0    0  501    0  0.00000000000E+00  0.00000000000E+00  0.15527105404E+04  0.15527105404E+04  0.50400001928E-02 0. -1.
       -1   -1    0    0    0  501  0.00000000000E+00  0.00000000000E+00 -0.15431533828E+04  0.15431533828E+04  0.50400001928E-02 0.  1.
    10030    2    1    2    0    0  0.00000000000E+00  0.00000000000E+00  0.95571575559E+01  0.30958639232E+04  0.30958491713E+04 0.  0.
        2    1    3    3  502    0 -0.16052757755E+03 -0.30511791777E+03  0.15138266820E+04  0.15525905031E+04  0.25500000920E-02 0. -1.
       -2    1    3    3    0  502  0.16052757755E+03  0.30511791777E+03 -0.15042695245E+04  0.15432734201E+04  0.25500000920E-02 0.  1.
</event>
<event>
 5   0  0.1235960E-06  0.3117837E+04  0.7818609E-02  0.8210860E-01
       -1   -1    0    0    0  501  0.00000000000E+00  0.00000000000E+00  0.21726536961E+04  0.21726536961E+04  0.50400001928E-02 0. -1.
        1   -1    0    0  501    0  0.00000000000E+00  0.00000000000E+00 -0.11185525628E+04  0.11185525628E+04  0.50400001928E-02 0.  1.
    10030    2    1    2    0    0  0.00000000000E+00  0.00000000000E+00  0.10541011333E+04  0.32912062589E+04  0.31178373017E+04 0.  0.
        4    1    3    3  502    0  0.15066457663E+04 -0.38656174973E+03  0.63682488981E+03  0.16807614360E+04  0.12699999809E+01 0.  1.
       -4    1    3    3    0  502 -0.15066457663E+04  0.38656174973E+03  0.41727624348E+03  0.16104448229E+04  0.12699999809E+01 0. -1.
</event>
<event>
 5   0  0.1250276E-06  0.3071333E+04  0.7818609E-02  0.8223650E-01
       -1   -1    0    0    0  501  0.00000000000E+00  0.00000000000E+00  0.15802978429E+04  0.15802978429E+04  0.50400001928E-02 0. -1.
        1   -1    0    0  501    0  0.00000000000E+00  0.00000000000E+00 -0.14922958468E+04  0.14922958468E+04  0.50400001928E-02 0.  1.
    10030    2    1    2    0    0  0.00000000000E+00  0.00000000000E+00  0.88001996062E+02  0.30725936897E+04  0.30713332009E+04 0.  0.
        5    1    3    3  502    0  0.25930123863E+03 -0.18087345095E+03 -0.14593790242E+04  0.14932386158E+04  0.46999998093E+01 0.  1.
       -5    1    3    3    0  502 -0.25930123863E+03  0.18087345095E+03  0.15473810202E+04  0.15793550739E+04  0.46999998093E+01 0. -1.
</event>
<event>
 5   0  0.3374790E-06  0.3120935E+04  0.7818609E-02  0.8210016E-01
       -2   -1    0    0    0  501  0.00000000000E+00  0.00000000000E+00  0.11803997416E+04  0.11803997416E+04  0.25500000920E-02 0.  1.
        2   -1    0    0  501    0  0.00000000000E+00  0.00000000000E+00 -0.20629097866E+04  0.20629097866E+04  0.25500000920E-02 0. -1.
    10030    2    1    2    0    0  0.00000000000E+00  0.00000000000E+00 -0.88251004499E+03  0.32433095281E+04  0.31209345901E+04 0.  0.
        2    1    3    3  502    0 -0.49325527993E+03  0.14432450804E+04 -0.98471240441E+02  0.15283827133E+04  0.25500000920E-02 0.  1.
       -2    1    3    3    0  502  0.49325527993E+03 -0.14432450804E+04 -0.78403880455E+03  0.17149268148E+04  0.25500000920E-02 0. -1.
</event>
<event>
 5   0  0.1198763E-06  0.3107169E+04  0.7818609E-02  0.8213773E-01
       -1   -1    0    0    0  501  0.00000000000E+00  0.00000000000E+00  0.27789749471E+04  0.27789749471E+04  0.50400001928E-02 0.  1.
        1   -1    0    0  501    0  0.00000000000E+00  0.00000000000E+00 -0.86853079790E+03  0.86853079792E+03  0.50400001928E-02 0. -1.
    10030    2    1    2    0    0  0.00000000000E+00  0.00000000000E+00  0.19104441492E+04  0.36475057451E+04  0.31071693409E+04 0.  0.
        1    1    3    3  502    0 -0.32319847606E+03  0.85035271167E+03  0.24336222642E+04  0.25980905131E+04  0.50400001928E-02 0.  1.
       -1    1    3    3    0  502  0.32319847606E+03 -0.85035271167E+03 -0.52317811496E+03  0.10494152320E+04  0.50400001928E-02 0. -1.
</event>
<event>
 5   0  0.1198763E-06  0.3055920E+04  0.7818609E-02  0.8227940E-01
        1   -1    0    0  501    0  0.00000000000E+00  0.00000000000E+00  0.14546015158E+04  0.14546015158E+04  0.50400001928E-02 0. -1.
       -1   -1    0    0    0  501  0.00000000000E+00  0.00000000000E+00 -0.16050181745E+04  0.16050181745E+04  0.50400001928E-02 0.  1.
    10030    2    1    2    0    0  0.00000000000E+00  0.00000000000E+00 -0.15041665865E+03  0.30596196903E+04  0.30559200706E+04 0.  0.
        1    1    3    3  502    0  0.88559262193E+03 -0.29165259831E+03 -0.12871804630E+04  0.15893926748E+04  0.50400001928E-02 0.  1.
       -1    1    3    3    0  502 -0.88559262193E+03  0.29165259831E+03  0.11367638044E+04  0.14702270155E+04  0.50400001928E-02 0. -1.
</event>
<event>
 5   0  0.1198763E-06  0.3092143E+04  0.7818609E-02  0.8217898E-01
        1   -1    0    0  501    0  0.00000000000E+00  0.00000000000E+00  0.10600601066E+04  0.10600601067E+04  0.50400001928E-02 0. -1.
       -1   -1    0    0    0  501  0.00000000000E+00  0.00000000000E+00 -0.22549068494E+04  0.22549068494E+04  0.50400001928E-02 0.  1.
    10030    2    1    2    0    0  0.00000000000E+00  0.00000000000E+00 -0.11948467428E+04  0.33149669561E+04  0.30921428138E+04 0.  0.
        1    1    3    3  502    0 -0.19823293712E+03  0.13097953470E+04  0.25718955468E+03  0.13494467813E+04  0.50400001928E-02 0. -1.
       -1    1    3    3    0  502  0.19823293712E+03 -0.13097953470E+04 -0.14520362975E+04  0.19655201748E+04  0.50400001928E-02 0.  1.
</event>
<event>
 5   0  0.3445959E-06  0.3114611E+04  0.7818609E-02  0.8211740E-01
        2   -1    0    0  501    0  0.00000000000E+00  0.00000000000E+00  0.14418404225E+04  0.14418404225E+04  0.25500000920E-02 0. -1.
       -2   -1    0    0    0  501  0.00000000000E+00  0.00000000000E+00 -0.16820169945E+04  0.16820169945E+04  0.25500000920E-02 0.  1.
    10030    2    1    2    0    0  0.00000000000E+00  0.00000000000E+00 -0.24017657206E+03  0.31238574170E+04  0.31146107904E+04 0.  0.
        4    1    3    3  502    0 -0.81208523860E+03  0.12735102077E+04 -0.50053987387E+03  0.15911795820E+04  0.12699999809E+01 0. -1.
       -4    1    3    3    0  502  0.81208523860E+03 -0.12735102077E+04  0.26036330180E+03  0.15326778350E+04  0.12699999809E+01 0.  1.
</event>
<event>
 5   0  0.1211008E-06  0.3045590E+04  0.7818609E-02  0.8230831E-01
        1   -1    0    0  501    0  0.00000000000E+00  0.00000000000E+00  0.12421472678E+04  0.12421472678E+04  0.50400001928E-02 0. -1.
       -1   -1    0    0    0  501  0.00000000000E+00  0.00000000000E+00 -0.18668512977E+04  0.18668512977E+04  0.50400001928E-02 0.  1.
    10030    2    1    2    0    0  0.00000000000E+00  0.00000000000E+00 -0.62470402988E+03  0.31089985655E+04  0.30455897549E+04 0.  0.
        3    1    3    3  502    0  0.42273092871E+03 -0.19011581468E+02  0.11809233710E+04  0.12544492404E+04  0.10100000352E+00 0. -1.
       -3    1    3    3    0  502 -0.42273092871E+03  0.19011581468E+02 -0.18056274009E+04  0.18545493251E+04  0.10100000352E+00 0.  1.
</event>
<event>
 5   0  0.3445959E-06  0.3244203E+04  0.7818609E-02  0.8177240E-01
       -2   -1    0    0    0  501  0.00000000000E+00  0.00000000000E+00  0.17853920113E+04  0.17853920113E+04  0.25500000920E-02 0.  1.
        2   -1    0    0  501    0  0.00000000000E+00  0.00000000000E+00 -0.14737450874E+04  0.14737450874E+04  0.25500000920E-02 0. -1.
    10030    2    1    2    0    0  0.00000000000E+00  0.00000000000E+00  0.31164692393E+03  0.32591370987E+04  0.32442026482E+04 0.  0.
        4    1    3    3  502    0  0.93670572246E+03  0.67535157460E+03 -0.98858420585E+03  0.15201373967E+04  0.12699999809E+01 0. -1.
       -4    1    3    3    0  502 -0.93670572246E+03 -0.67535157460E+03  0.13002311298E+04  0.17389997020E+04  0.12699999809E+01 0.  1.
</event>
<event>
 5   0  0.3340899E-06  0.3096993E+04  0.7818609E-02  0.8216564E-01
       -2   -1    0    0    0  501  0.00000000000E+00  0.00000000000E+00  0.11801489749E+04  0.11801489749E+04  0.25500000920E-02 0. -1.
        2   -1    0    0  501    0  0.00000000000E+00  0.00000000000E+00 -0.20318124181E+04  0.20318124181E+04  0.25500000920E-02 0.  1.
    10030    2    1    2    0    0  0.00000000000E+00  0.00000000000E+00 -0.85166344324E+03  0.32119613930E+04  0.30969929560E+04 0.  0.
        3    1    3    3  502    0 -0.37430143144E+03  0.15020568238E+04 -0.46686127549E+03  0.16168598344E+04  0.10100000352E+00 0.  1.
       -3    1    3    3    0  502  0.37430143144E+03 -0.15020568238E+04 -0.38480216775E+03  0.15951015585E+04  0.10100000352E+00 0. -1.
</event>
<event>
 5   0  0.3445410E-06  0.3129040E+04  0.7818609E-02  0.8207813E-01
        2   -1    0    0  501    0  0.00000000000E+00  0.00000000000E+00  0.17637476054E+04  0.17637476054E+04  0.25500000920E-02 0.  1.
       -2   -1    0    0    0  501  0.00000000000E+00  0.00000000000E+00 -0.13877964026E+04  0.13877964026E+04  0.25500000920E-02 0. -1.
    10030    2    1    2    0    0  0.00000000000E+00  0.00000000000E+00  0.37595120285E+03  0.31515440080E+04  0.31290398411E+04 0.  0.
        1    1    3    3  502    0 -0.98285292735E+03 -0.66282230963E+03  0.12162931648E+04  0.16984411541E+04  0.50400001928E-02 0.  1.
       -1    1    3    3    0  502  0.98285292735E+03  0.66282230963E+03 -0.84034196198E+03  0.14531028539E+04  0.50400001928E-02 0. -1.
</event>
<event>
 5   0  0.3445959E-06  0.3078973E+04  0.7818609E-02  0.8221532E-01
       -2   -1    0    0    0  501  0.00000000000E+00  0.00000000000E+00  0.11000203926E+04  0.11000203926E+04  0.25500000920E-02 0.  1.
        2   -1    0    0  501    0  0.00000000000E+00  0.00000000000E+00 -0.21545231562E+04  0.21545231562E+04  0.25500000920E-02 0. -1.
    10030    2    1    2    0    0  0.00000000000E+00  0.00000000000E+00 -0.10545027636E+04  0.32545435488E+04  0.30789734706E+04 0.  0.
        4    1    3    3  502    0  0.26978910755E+03  0.76738908900E+03  0.85431580345E+03  0.11796309937E+04  0.12699999809E+01 0.  1.
       -4    1    3    3    0  502 -0.26978910755E+03 -0.76738908900E+03 -0.19088185670E+04  0.20749125551E+04  0.12699999809E+01 0. -1.
</event>
<event>
 5   0  0.1211008E-06  0.2787213E+04  0.7818609E-02  0.8307249E-01
        1   -1    0    0  501    0  0.00000000000E+00  0.00000000000E+00  0.81892691107E+03  0.81892691108E+03  0.50400001928E-02 0.  1.
       -1   -1    0    0    0  501  0.00000000000E+00  0.00000000000E+00 -0.23715662787E+04  0.23715662787E+04  0.50400001928E-02 0. -1.
    10030    2    1    2    0    0  0.00000000000E+00  0.00000000000E+00 -0.15526393677E+04  0.31904931898E+04  0.27872132657E+04 0.  0.
        3    1    3    3  502    0  0.35415011280E+03 -0.49425953420E+03  0.65907899753E+03  0.89671618962E+03  0.10100000352E+00 0.  1.
       -3    1    3    3    0  502 -0.35415011280E+03  0.49425953420E+03 -0.22117183652E+04  0.22937770002E+04  0.10100000352E+00 0. -1.
</event>
<event>
 5   0  0.3340899E-06  0.3124549E+04  0.7818609E-02  0.8209033E-01
       -2   -1    0    0    0  501  0.00000000000E+00  0.00000000000E+00  0.95919837321E+03  0.95919837322E+03  0.25500000920E-02 0. -1.
        2   -1    0    0  501    0  0.00000000000E+00  0.00000000000E+00 -0.25445224259E+04  0.25445224259E+04  0.25500000920E-02 0.  1.
    10030    2    1    2    0    0  0.00000000000E+00  0.00000000000E+00 -0.15853240527E+04  0.35037207991E+04  0.31245491012E+04 0.  0.
        3    1    3    3  502    0 -0.98454031901E+02 -0.77796901552E+03 -0.23078464634E+04  0.24374339569E+04  0.10100000352E+00 0.  1.
       -3    1    3    3    0  502  0.98454031901E+02  0.77796901552E+03  0.72252241076E+03  0.10662868422E+04  0.10100000352E+00 0. -1.
</event>
<event>
 5   0  0.1211008E-06  0.3072970E+04  0.7818609E-02  0.8223196E-01
        1   -1    0    0  501    0  0.00000000000E+00  0.00000000000E+00  0.13817552531E+04  0.13817552532E+04  0.50400001928E-02 0. -1.
       -1   -1    0    0    0  501  0.00000000000E+00  0.00000000000E+00 -0.17085410956E+04  0.17085410956E+04  0.50400001928E-02 0.  1.
    10030    2    1    2    0    0  0.00000000000E+00  0.00000000000E+00 -0.32678584245E+03  0.30902963488E+04  0.30729696608E+04 0.  0.
        3    1    3    3  502    0 -0.12896629324E+03  0.75402351445E+03 -0.15034233238E+04  0.16868507539E+04  0.10100000352E+00 0.  1.
       -3    1    3    3    0  502  0.12896629324E+03 -0.75402351445E+03  0.11766374813E+04  0.14034455949E+04  0.10100000352E+00 0. -1.
</event>
<event>
 5   0  0.3445959E-06  0.3208543E+04  0.7818609E-02  0.8186565E-01
        2   -1    0    0  501    0  0.00000000000E+00  0.00000000000E+00  0.17179030986E+04  0.17179030986E+04  0.25500000920E-02 0. -1.
       -2   -1    0    0    0  501  0.00000000000E+00  0.00000000000E+00 -0.14981560791E+04  0.14981560791E+04  0.25500000920E-02 0.  1.
    10030    2    1    2    0    0  0.00000000000E+00  0.00000000000E+00  0.21974701943E+03  0.32160591777E+04  0.32085429531E+04 0.  0.
        4    1    3    3  502    0  0.90144865500E+03 -0.85722467642E+02  0.14372594398E+04  0.16987272675E+04  0.12699999809E+01 0. -1.
       -4    1    3    3    0  502 -0.90144865500E+03  0.85722467642E+02 -0.12175124204E+04  0.15173319102E+04  0.12699999809E+01 0.  1.
</event>
<event>
 5   0  0.3374790E-06  0.3128201E+04  0.7818609E-02  0.8208041E-01
        2   -1    0    0  501    0  0.00000000000E+00  0.00000000000E+00  0.13196091694E+04  0.13196091694E+04  0.25500000920E-02 0.  1.
       -2   -1    0    0    0  501  0.00000000000E+00  0.00000000000E+00 -0.18538904471E+04  0.18538904471E+04  0.25500000920E-02 0. -1.
    10030    2    1    2    0    0  0.00000000000E+00  0.00000000000E+00 -0.53428127771E+03  0.31734996165E+04  0.31282012935E+04 0.  0.
        2    1    3    3  502    0 -0.10427109566E+04  0.11613902830E+04 -0.16399581954E+03  0.15693846428E+04  0.25500000920E-02 0. -1.
       -2    1    3    3    0  502  0.10427109566E+04 -0.11613902830E+04 -0.37028545816E+03  0.16041149737E+04  0.25500000920E-02 0.  1.
</event>
<event>
 5   0  0.3445410E-06  0.3088420E+04  0.7818609E-02  0.8218923E-01
        2   -1    0    0  501    0  0.00000000000E+00  0.00000000000E+00  0.18484581436E+04  0.18484581436E+04  0.25500000920E-02 0.  1.
       -2   -1    0    0    0  501  0.00000000000E+00  0.00000000000E+00 -0.12900394001E+04  0.12900394001E+04  0.25500000920E-02 0. -1.
    10030    2    1    2    0    0  0.00000000000E+00  0.00000000000E+00  0.55841874350E+03  0.31384975436E+04  0.30884195535E+04 0.  0.
        1    1    3    3  502    0  0.52017191347E+03 -0.10159501250E+04  0.13361950342E+04  0.17573134739E+04  0.50400001928E-02 0.  1.
       -1    1    3    3    0  502 -0.52017191347E+03  0.10159501250E+04 -0.77777629073E+03  0.13811840697E+04  0.50400001928E-02 0. -1.
</event>
<event>
 5   0  0.3340899E-06  0.3105468E+04  0.7818609E-02  0.8214239E-01
        2   -1    0    0  501    0  0.00000000000E+00  0.00000000000E+00  0.20783206137E+04  0.20783206137E+04  0.25500000920E-02 0. -1.
       -2   -1    0    0    0  501  0.00000000000E+00  0.00000000000E+00 -0.11600630570E+04  0.11600630570E+04  0.25500000920E-02 0.  1.
    10030    2    1    2    0    0  0.00000000000E+00  0.00000000000E+00  0.91825755673E+03  0.32383836707E+04  0.31054680578E+04 0.  0.
        3    1    3    3  502    0 -0.94409527126E+02  0.15360575003E+04  0.67435318125E+03  0.16802196364E+04  0.10100000352E+00 0. -1.
       -3    1    3    3    0  502  0.94409527126E+02 -0.15360575003E+04  0.24390437548E+03  0.15581640343E+04  0.10100000352E+00 0.  1.
</event>
<event>
 5   0  0.3374790E-06  0.3271894E+04  0.7818609E-02  0.8170084E-01
        2   -1    0    0  501    0  0.00000000000E+00  0.00000000000E+00  0.18147148436E+04  0.18147148436E+04  0.25500000920E-02 0. -1.
       -2   -1    0    0    0  501  0.00000000000E+00  0.00000000000E+00 -0.14747899022E+04  0.14747899022E+04  0.25500000920E-02 0.  1.
    10030    2    1    2    0    0  0.00000000000E+00  0.00000000000E+00  0.33992494140E+03  0.32895047459E+04  0.32718943301E+04 0.  0.
        2    1    3    3  502    0  0.15662273800E+04 -0.36828784145E+03 -0.12763577150E+03  0.16139996996E+04  0.25500000920E-02 0.  1.
       -2    1    3    3    0  502 -0.15662273800E+04  0.36828784145E+03  0.46756071290E+03  0.16755050463E+04  0.25500000920E-02 0. -1.
</event>
<event>
 5   0  0.1171915E-06  0.3093954E+04  0.7818609E-02  0.8217399E-01
        1   -1    0    0  501    0  0.00000000000E+00  0.00000000000E+00  0.23928374778E+04  0.23928374778E+04  0.50400001928E-02 0.  1.
       -1   -1    0    0    0  501  0.00000000000E+00  0.00000000000E+00 -0.10001256069E+04  0.10001256069E+04  0.50400001928E-02 0. -1.
    10030    2    1    2    0    0  0.00000000000E+00  0.00000000000E+00  0.13927118708E+04  0.33929630847E+04  0.30939541268E+04 0.  0.
        2    1    3    3  502    0  0.14431194893E+04  0.14398832016E+03  0.12867243310E+04  0.19388104602E+04  0.25500000920E-02 0.  1.
       -2    1    3    3    0  502 -0.14431194893E+04 -0.14398832016E+03  0.10598753988E+03  0.14541526245E+04  0.25500000920E-02 0. -1.
</event>
<event>
 5   0  0.1171915E-06  0.3076653E+04  0.7818609E-02  0.8222175E-01
        1   -1    0    0  501    0  0.00000000000E+00  0.00000000000E+00  0.16723431616E+04  0.16723431616E+04  0.50400001928E-02 0.  1.
       -1   -1    0    0    0  501  0.00000000000E+00  0.00000000000E+00 -0.14150493927E+04  0.14150493927E+04  0.50400001928E-02 0. -1.
    10030    2    1    2    0    0  0.00000000000E+00  0.00000000000E+00  0.25729376892E+03  0.30873925543E+04  0.30766528405E+04 0.  0.
        2    1    3    3  502    0  0.36569065794E+03  0.12127680357E+04 -0.74727590207E+03  0.14706995749E+04  0.25500000920E-02 0. -1.
       -2    1    3    3    0  502 -0.36569065794E+03 -0.12127680357E+04  0.10045696710E+04  0.16166929794E+04  0.25500000920E-02 0.  1.
</event>
<event>
 5   0  0.1235960E-06  0.3048757E+04  0.7818609E-02  0.8229944E-01
        1   -1    0    0  501    0  0.00000000000E+00  0.00000000000E+00  0.19039602588E+04  0.19039602588E+04  0.50400001928E-02 0. -1.
       -1   -1    0    0    0  501  0.00000000000E+00  0.00000000000E+00 -0.12204715755E+04  0.12204715755E+04  0.50400001928E-02 0.  1.
    10030    2    1    2    0    0  0.00000000000E+00  0.00000000000E+00  0.68348868329E+03  0.31244318343E+04  0.30487567149E+04 0.  0.
        4    1    3    3  502    0  0.86355844135E+03 -0.69589648042E+03 -0.73002638604E+03  0.13277594776E+04  0.12699999809E+01 0.  1.
       -4    1    3    3    0  502 -0.86355844135E+03  0.69589648042E+03  0.14135150693E+04  0.17966723567E+04  0.12699999809E+01 0. -1.
</event>
<event>
 5   0  0.1250276E-06  0.3110921E+04  0.7818609E-02  0.8212747E-01
       -1   -1    0    0    0  501  0.00000000000E+00  0.00000000000E+00  0.12049000328E+04  0.12049000328E+04  0.50400001928E-02 0.  1.
        1   -1    0    0  501    0  0.00000000000E+00  0.00000000000E+00 -0.20080146075E+04  0.20080146075E+04  0.50400001928E-02 0. -1.
    10030    2    1    2    0    0  0.00000000000E+00  0.00000000000E+00 -0.80311457474E+03  0.32129146403E+04  0.31109206781E+04 0.  0.
        5    1    3    3  502    0  0.62067593092E+03 -0.29647075204E+03 -0.18423957111E+04  0.19666157643E+04  0.46999998093E+01 0. -1.
       -5    1    3    3    0  502 -0.62067593092E+03  0.29647075204E+03  0.10392811363E+04  0.12462988760E+04  0.46999998093E+01 0.  1.
</event>
<event>
 5   0  0.1250276E-06  0.3107948E+04  0.7818609E-02  0.8213560E-01
        1   -1    0    0  501    0  0.00000000000E+00  0.00000000000E+00  0.19940370812E+04  0.19940370812E+04  0.50400001928E-02 0. -1.
       -1   -1    0    0    0  501  0.00000000000E+00  0.00000000000E+00 -0.12110282040E+04  0.12110282040E+04  0.50400001928E-02 0.  1.
    10030    2    1    2    0    0  0.00000000000E+00  0.00000000000E+00  0.78300887717E+03  0.32050652852E+04  0.31079479694E+04 0.  0.
        5    1    3    3  502    0 -0.15002571740E+04  0.13360446634E+03  0.78580184911E+03  0.16988609059E+04  0.46999998093E+01 0. -1.
       -5    1    3    3    0  502  0.15002571740E+04 -0.13360446634E+03 -0.27929719343E+01  0.15062043793E+04  0.46999998093E+01 0.  1.
</event>
<event>
 5   0  0.3340899E-06  0.3045885E+04  0.7818609E-02  0.8230748E-01
        2   -1    0    0  501    0  0.00000000000E+00  0.00000000000E+00  0.10312011209E+04  0.10312011209E+04  0.25500000920E-02 0.  1.
       -2   -1    0    0    0  501  0.00000000000E+00  0.00000000000E+00 -0.22491771808E+04  0.22491771808E+04  0.25500000920E-02 0. -1.
    10030    2    1    2    0    0  0.00000000000E+00  0.00000000000E+00 -0.12179760599E+04  0.32803783017E+04  0.30458851127E+04 0.  0.
        3    1    3    3  502    0 -0.67423484265E+03 -0.48746200341E+02 -0.20787437828E+04  0.21858967358E+04  0.10100000352E+00 0. -1.
       -3    1    3    3    0  502  0.67423484265E+03  0.48746200341E+02  0.86076772290E+03  0.10944815659E+04  0.10100000352E+00 0.  1.
</event>
<event>
 5   0  0.3340899E-06  0.3167077E+04  0.7818609E-02  0.8197567E-01
        2   -1    0    0  501    0  0.00000000000E+00  0.00000000000E+00  0.18041764735E+04  0.18041764735E+04  0.25500000920E-02 0.  1.
       -2   -1    0    0    0  501  0.00000000000E+00  0.00000000000E+00 -0.13898828521E+04  0.13898828521E+04  0.25500000920E-02 0. -1.
    10030    2    1    2    0    0  0.00000000000E+00  0.00000000000E+00  0.41429362138E+03  0.31940593256E+04  0.31670768496E+04 0.  0.
        3    1    3    3  502    0  0.14671153792E+04  0.18256412117E+02 -0.39360686879E+03  0.15191073727E+04  0.10100000352E+00 0. -1.
       -3    1    3    3    0  502 -0.14671153792E+04 -0.18256412117E+02  0.80790049017E+03  0.16749519529E+04  0.10100000352E+00 0.  1.
</event>
<event>
 5   0  0.1109562E-06  0.3105833E+04  0.7818609E-02  0.8214139E-01
        3   -1    0    0  501    0  0.00000000000E+00  0.00000000000E+00  0.11583299453E+04  0.11583299497E+04  0.10100000352E+00 0.  1.
       -3   -1    0    0    0  501  0.00000000000E+00  0.00000000000E+00 -0.20819193664E+04  0.20819193689E+04  0.10100000352E+00 0. -1.
    10030    2    1    2    0    0  0.00000000000E+00  0.00000000000E+00 -0.92358942114E+03  0.32402493186E+04  0.31058329362E+04 0.  0.
        2    1    3    3  502    0  0.13114155234E+04 -0.81650605833E+03 -0.29665078381E+03  0.15730526075E+04  0.25500000920E-02 0.  1.
       -2    1    3    3    0  502 -0.13114155234E+04  0.81650605833E+03 -0.62693863734E+03  0.16671967111E+04  0.25500000920E-02 0. -1.
</event>
<event>
 5   0  0.3445410E-06  0.3127059E+04  0.7818609E-02  0.8208351E-01
       -2   -1    0    0    0  501  0.00000000000E+00  0.00000000000E+00  0.12467978828E+04  0.12467978828E+04  0.25500000920E-02 0.  1.
        2   -1    0    0  501    0  0.00000000000E+00  0.00000000000E+00 -0.19607227233E+04  0.19607227233E+04  0.25500000920E-02 0. -1.
    10030    2    1    2    0    0  0.00000000000E+00  0.00000000000E+00 -0.71392484049E+03  0.32075206061E+04  0.31270592832E+04 0.  0.
        1    1    3    3  502    0  0.79078963092E+03 -0.94559711084E+03 -0.13435440701E+04  0.18233520792E+04  0.50400001928E-02 0. -1.
       -1    1    3    3    0  502 -0.79078963092E+03  0.94559711084E+03  0.62961922965E+03  0.13841685269E+04  0.50400001928E-02 0.  1.
</event>
<event>
 5   0  0.1171915E-06  0.3039290E+04  0.7818609E-02  0.8232600E-01
       -1   -1    0    0    0  501  0.00000000000E+00  0.00000000000E+00  0.10759486386E+04  0.10759486386E+04  0.50400001928E-02 0.  1.
        1   -1    0    0  501    0  0.00000000000E+00  0.00000000000E+00 -0.21463108950E+04  0.21463108950E+04  0.50400001928E-02 0. -1.
    10030    2    1    2    0    0  0.00000000000E+00  0.00000000000E+00 -0.10703622564E+04  0.32222595335E+04  0.30392895784E+04 0.  0.
        2    1    3    3  502    0 -0.12864462843E+04 -0.10866297705E+03  0.31468043188E+03  0.13288248414E+04  0.25500000920E-02 0.  1.
       -2    1    3    3    0  502  0.12864462843E+04  0.10866297705E+03 -0.13850426883E+04  0.18934346921E+04  0.25500000920E-02 0. -1.
</event>
<event>
 5   0  0.3340899E-06  0.3095340E+04  0.7818609E-02  0.8217018E-01
        2   -1    0    0  501    0  0.00000000000E+00  0.00000000000E+00  0.25217277228E+04  0.25217277228E+04  0.25500000920E-02 0. -1.
       -2   -1    0    0    0  501  0.00000000000E+00  0.00000000000E+00 -0.94985743978E+03  0.94985743978E+03  0.25500000920E-02 0.  1.
    10030    2    1    2    0    0  0.00000000000E+00  0.00000000000E+00  0.15718702831E+04  0.34715851626E+04  0.30953396186E+04 0.  0.
        3    1    3    3  502    0 -0.39246057433E+03 -0.96002552656E+03  0.20743090082E+04  0.23191447100E+04  0.10100000352E+00 0. -1.
       -3    1    3    3    0  502  0.39246057433E+03  0.96002552656E+03 -0.50243872518E+03  0.11524404526E+04  0.10100000352E+00 0.  1.
</event>
<event>
 5   0  0.3445959E-06  0.2693198E+04  0.7818609E-02  0.8337215E-01
       -2   -1    0    0    0  501  0.00000000000E+00  0.00000000000E+00  0.14384569862E+04  0.14384569862E+04  0.25500000920E-02 0. -1.
        2   -1    0    0  501    0  0.00000000000E+00  0.00000000000E+00 -0.12606074008E+04  0.12606074008E+04  0.25500000920E-02 0.  1.
    10030    2    1    2    0    0  0.00000000000E+00  0.00000000000E+00  0.17784958544E+03  0.26990643870E+04  0.26931984869E+04 0.  0.
        4    1    3    3  502    0 -0.13369545090E+04 -0.12602047819E+03 -0.11289952282E+02  0.13429287382E+04  0.12699999809E+01 0.  1.
       -4    1    3    3    0  502  0.13369545090E+04  0.12602047819E+03  0.18913953773E+03  0.13561356487E+04  0.12699999809E+01 0. -1.
</event>
<event>
 5   0  0.3441897E-06  0.3065719E+04  0.7818609E-02  0.8225209E-01
       -2   -1    0    0    0  501  0.00000000000E+00  0.00000000000E+00  0.19182229209E+04  0.19182229209E+04  0.25500000920E-02 0.  1.
        2   -1    0    0  501    0  0.00000000000E+00  0.00000000000E+00 -0.12249140215E+04  0.12249140215E+04  0.25500000920E-02 0. -1.
    10030    2    1    2    0    0  0.00000000000E+00  0.00000000000E+00  0.69330889939E+03  0.31431369424E+04  0.30657189383E+04 0.  0.
        5    1    3    3  502    0 -0.23618069801E+03 -0.44068880090E+03 -0.11389535358E+04  0.12438750693E+04  0.46999998093E+01 0. -1.
       -5    1    3    3    0  502  0.23618069801E+03  0.44068880090E+03  0.18322624352E+04  0.18992618731E+04  0.46999998093E+01 0.  1.
</event>
<event>
 5   0  0.1198763E-06  0.3096618E+04  0.7818609E-02  0.8216667E-01
       -1   -1    0    0    0  501  0.00000000000E+00  0.00000000000E+00  0.14866284161E+04  0.14866284161E+04  0.50400001928E-02 0. -1.
        1   -1    0    0  501    0  0.00000000000E+00  0.00000000000E+00 -0.16125483642E+04  0.16125483642E+04  0.50400001928E-02 0.  1.
    10030    2    1    2    0    0  0.00000000000E+00  0.00000000000E+00 -0.12591994813E+03  0.30991767803E+04  0.30966176519E+04 0.  0.
        1    1    3    3  502    0 -0.13186983811E+04  0.22675540694E+03  0.71670680012E+03  0.15179104296E+04  0.50400001928E-02 0. -1.
       -1    1    3    3    0  502  0.13186983811E+04 -0.22675540694E+03 -0.84262674825E+03  0.15812663507E+04  0.50400001928E-02 0.  1.
</event>
<event>
 5   0  0.1211008E-06  0.3154884E+04  0.7818609E-02  0.8200835E-01
        1   -1    0    0  501    0  0.00000000000E+00  0.00000000000E+00  0.28280401382E+04  0.28280401382E+04  0.50400001928E-02 0.  1.
       -1   -1    0    0    0  501  0.00000000000E+00  0.00000000000E+00 -0.87987549620E+03  0.87987549621E+03  0.50400001928E-02 0. -1.
    10030    2    1    2    0    0  0.00000000000E+00  0.00000000000E+00  0.19481646420E+04  0.37079156344E+04  0.31548839724E+04 0.  0.
        3    1    3    3  502    0  0.14869935532E+04 -0.19380053916E+03  0.15493940280E+04  0.21562305861E+04  0.10100000352E+00 0.  1.
       -3    1    3    3    0  502 -0.14869935532E+04  0.19380053916E+03  0.39877061393E+03  0.15516850483E+04  0.10100000352E+00 0. -1.
</event>
<event>
 5   0  0.1235960E-06  0.3089890E+04  0.7818609E-02  0.8218518E-01
       -1   -1    0    0    0  501  0.00000000000E+00  0.00000000000E+00  0.30870088450E+04  0.30870088450E+04  0.50400001928E-02 0.  1.
        1   -1    0    0  501    0  0.00000000000E+00  0.00000000000E+00 -0.77319339416E+03  0.77319339418E+03  0.50400001928E-02 0. -1.
    10030    2    1    2    0    0  0.00000000000E+00  0.00000000000E+00  0.23138154509E+04  0.38602022392E+04  0.30898898665E+04 0.  0.
        4    1    3    3  502    0  0.22673751875E+03 -0.98186303980E+03 -0.30610222066E+03  0.10531690813E+04  0.12699999809E+01 0. -1.
       -4    1    3    3    0  502 -0.22673751875E+03  0.98186303980E+03  0.26199176715E+04  0.28070331580E+04  0.12699999809E+01 0.  1.
</event>
<event>
 5   0  0.1250276E-06  0.3113425E+04  0.7818609E-02  0.8212063E-01
       -1   -1    0    0    0  501  0.00000000000E+00  0.00000000000E+00  0.19342514807E+04  0.19342514807E+04  0.50400001928E-02 0. -1.
        1   -1    0    0  501    0  0.00000000000E+00  0.00000000000E+00 -0.12528636169E+04  0.12528636169E+04  0.50400001928E-02 0.  1.
    10030    2    1    2    0    0  0.00000000000E+00  0.00000000000E+00  0.68138786383E+03  0.31871150976E+04  0.31134246778E+04 0.  0.
        5    1    3    3  502    0 -0.79105957470E+03 -0.41096062466E+03  0.16470921418E+04  0.18728583767E+04  0.46999998093E+01 0. -1.
       -5    1    3    3    0  502  0.79105957470E+03  0.41096062466E+03 -0.96570427797E+03  0.13142567208E+04  0.46999998093E+01 0.  1.
</event>
<event>
 5   0  0.3340899E-06  0.2914379E+04  0.7818609E-02  0.8268612E-01
       -2   -1    0    0    0  501  0.00000000000E+00  0.00000000000E+00  0.16775927253E+04  0.16775927253E+04  0.25500000920E-02 0. -1.
        2   -1    0    0  501    0  0.00000000000E+00  0.00000000000E+00 -0.12657432069E+04  0.12657432069E+04  0.25500000920E-02 0.  1.
    10030    2    1    2    0    0  0.00000000000E+00  0.00000000000E+00  0.41184951832E+03  0.29433359322E+04  0.29143792451E+04 0.  0.
        3    1    3    3  502    0 -0.12395835647E+04  0.64674736278E+03 -0.20870526659E+03  0.14136504036E+04  0.10100000352E+00 0.  1.
       -3    1    3    3    0  502  0.12395835647E+04 -0.64674736278E+03  0.62055478491E+03  0.15296855286E+04  0.10100000352E+00 0. -1.
</event>
<event>
 5   0  0.1171915E-06  0.3014622E+04  0.7818609E-02  0.8239568E-01
        1   -1    0    0  501    0  0.00000000000E+00  0.00000000000E+00  0.17691100042E+04  0.17691100042E+04  0.50400001928E-02 0. -1.
       -1   -1    0    0    0  501  0.00000000000E+00  0.00000000000E+00 -0.12842542514E+04  0.12842542514E+04  0.50400001928E-02 0.  1.
    10030    2    1    2    0    0  0.00000000000E+00  0.00000000000E+00  0.48485575281E+03  0.30533642555E+04  0.30146223936E+04 0.  0.
        2    1    3    3  502    0 -0.13475052374E+04 -0.30805627560E+03  0.85125010603E+03  0.16233594108E+04  0.25500000920E-02 0. -1.
       -2    1    3    3    0  502  0.13475052374E+04  0.30805627560E+03 -0.36639435322E+03  0.14300048447E+04  0.25500000920E-02 0.  1.
</event>
<event>
 5   0  0.1235960E-06  0.3100226E+04  0.7818609E-02  0.8215676E-01
       -1   -1    0    0    0  501  0.00000000000E+00  0.00000000000E+00  0.13527920367E+04  0.13527920367E+04  0.50400001928E-02 0. -1.
        1   -1    0    0  501    0  0.00000000000E+00  0.00000000000E+00 -0.17762155063E+04  0.17762155063E+04  0.50400001928E-02 0.  1.
    10030    2    1    2    0    0  0.00000000000E+00  0.00000000000E+00 -0.42342346958E+03  0.31290075430E+04  0.31002259223E+04 0.  0.
        4    1    3    3  502    0 -0.80939597996E+03 -0.12638896035E+04 -0.60300908904E+03  0.16174549009E+04  0.12699999809E+01 0.  1.
       -4    1    3    3    0  502  0.80939597996E+03  0.12638896035E+04  0.17958561947E+03  0.15115526421E+04  0.12699999809E+01 0. -1.
</event>
<event>
 5   0  0.1211008E-06  0.3093941E+04  0.7818609E-02  0.8217403E-01
       -1   -1    0    0    0  501  0.00000000000E+00  0.00000000000E+00  0.91826741990E+03  0.91826741991E+03  0.50400001928E-02 0. -1.
        1   -1    0    0  501    0  0.00000000000E+00  0.00000000000E+00 -0.26061223262E+04  0.26061223262E+04  0.50400001928E-02 0.  1.
    10030    2    1    2    0    0  0.00000000000E+00  0.00000000000E+00 -0.16878549063E+04  0.35243897461E+04  0.30939406746E+04 0.  0.
        3    1    3    3  502    0 -0.11290345344E+04  0.48448742388E+02 -0.20473384022E+04  0.23385167957E+04  0.10100000352E+00 0.  1.
       -3    1    3    3    0  502  0.11290345344E+04 -0.48448742388E+02  0.35948349586E+03  0.11858729504E+04  0.10100000352E+00 0. -1.
</event>
<event>
 5   0  0.1235960E-06  0.3080236E+04  0.7818609E-02  0.8221183E-01
       -1   -1    0    0    0  501  0.00000000000E+00  0.00000000000E+00  0.11694521619E+04  0.11694521619E+04  0.50400001928E-02 0.  1.
        1   -1    0    0  501    0  0.00000000000E+00  0.00000000000E+00 -0.20282694955E+04  0.20282694955E+04  0.50400001928E-02 0. -1.
    10030    2    1    2    0    0  0.00000000000E+00  0.00000000000E+00 -0.85881733367E+03  0.31977216574E+04  0.30802364496E+04 0.  0.
        4    1    3    3  502    0  0.20230708255E+03 -0.10896687392E+04  0.68079942422E+03  0.13006904265E+04  0.12699999809E+01 0.  1.
       -4    1    3    3    0  502 -0.20230708255E+03  0.10896687392E+04 -0.15396167579E+04  0.18970312309E+04  0.12699999809E+01 0. -1.
</event>
<event>
 5   0  0.3374790E-06  0.3096226E+04  0.7818609E-02  0.8216774E-01
       -2   -1    0    0    0  501  0.00000000000E+00  0.00000000000E+00  0.15504032119E+04  0.15504032119E+04  0.25500000920E-02 0. -1.
        2   -1    0    0  501    0  0.00000000000E+00  0.00000000000E+00 -0.15458265298E+04  0.15458265298E+04  0.25500000920E-02 0.  1.
    10030    2    1    2    0    0  0.00000000000E+00  0.00000000000E+00  0.45766821290E+01  0.30962297418E+04  0.30962263593E+04 0.  0.
        2    1    3    3  502    0  0.10363695388E+04  0.10973933619E+04  0.34626604933E+03  0.15486233204E+04  0.25500000920E-02 0. -1.
       -2    1    3    3    0  502 -0.10363695388E+04 -0.10973933619E+04 -0.34168936720E+03  0.15476064213E+04  0.25500000920E-02 0.  1.
</event>
<event>
 5   0  0.3441897E-06  0.3065800E+04  0.7818609E-02  0.8225187E-01
        2   -1    0    0  501    0  0.00000000000E+00  0.00000000000E+00  0.16240420165E+04  0.16240420165E+04  0.25500000920E-02 0.  1.
       -2   -1    0    0    0  501  0.00000000000E+00  0.00000000000E+00 -0.14468724654E+04  0.14468724654E+04  0.25500000920E-02 0. -1.
    10030    2    1    2    0    0  0.00000000000E+00  0.00000000000E+00  0.17716955113E+03  0.30709144820E+04  0.30657995214E+04 0.  0.
        5    1    3    3  502    0 -0.67044401767E+03 -0.13365580706E+04 -0.24943479439E+03  0.15159559570E+04  0.46999998093E+01 0. -1.
       -5    1    3    3    0  502  0.67044401767E+03  0.13365580706E+04  0.42660434552E+03  0.15549585250E+04  0.46999998093E+01 0.  1.
</event>
<event>
 5   0  0.3340899E-06  0.3086584E+04  0.7818609E-02  0.8219429E-01
       -2   -1    0    0    0  501  0.00000000000E+00  0.00000000000E+00  0.16391092314E+04  0.16391092314E+04  0.25500000920E-02 0. -1.
        2   -1    0    0  501    0  0.00000000000E+00  0.00000000000E+00 -0.14530763443E+04  0.14530763443E+04  0.25500000920E-02 0.  1.
    10030    2    1    2    0    0  0.00000000000E+00  0.00000000000E+00  0.18603288709E+03  0.30921855758E+04  0.30865844229E+04 0.  0.
        3    1    3    3  502    0 -0.13002140774E+04 -0.93498619341E+02 -0.73458932524E+03  0.14963021506E+04  0.10100000352E+00 0. -1.
       -3    1    3    3    0  502  0.13002140774E+04  0.93498619341E+02  0.92062221234E+03  0.15958834252E+04  0.10100000352E+00 0.  1.
</event>
<event>
 5   0  0.3441897E-06  0.3031817E+04  0.7818609E-02  0.8234703E-01
       -2   -1    0    0    0  501  0.00000000000E+00  0.00000000000E+00  0.14204064521E+04  0.14204064521E+04  0.25500000920E-02 0. -1.
        2   -1    0    0  501    0  0.00000000000E+00  0.00000000000E+00 -0.16178315929E+04  0.16178315929E+04  0.25500000920E-02 0.  1.
    10030    2    1    2    0    0  0.00000000000E+00  0.00000000000E+00 -0.19742514082E+03  0.30382380450E+04  0.30318169028E+04 0.  0.
        5    1    3    3  502    0 -0.14211152684E+04 -0.74182237191E+02  0.42477749840E+03  0.14851025633E+04  0.46999998093E+01 0.  1.
       -5    1    3    3    0  502  0.14211152684E+04  0.74182237191E+02 -0.62220263922E+03  0.15531354817E+04  0.46999998093E+01 0. -1.
</event>
<event>
 5   0  0.1235960E-06  0.3103208E+04  0.7818609E-02  0.8214858E-01
        1   -1    0    0  501    0  0.00000000000E+00  0.00000000000E+00  0.12715925336E+04  0.12715925336E+04  0.50400001928E-02 0. -1.
       -1   -1    0    0    0  501  0.00000000000E+00  0.00000000000E+00 -0.18932756172E+04  0.18932756172E+04  0.50400001928E-02 0.  1.
    10030    2    1    2    0    0  0.00000000000E+00  0.00000000000E+00 -0.62168308358E+03  0.31648681508E+04  0.31032081070E+04 0.  0.
        4    1    3    3  502    0  0.10664401822E+04 -0.91263910114E+03  0.36356058889E+03  0.14499595532E+04  0.12699999809E+01 0. -1.
       -4    1    3    3    0  502 -0.10664401822E+04  0.91263910114E+03 -0.98524367247E+03  0.17149085976E+04  0.12699999809E+01 0.  1.
</event>
<event>
 5   0  0.1250276E-06  0.3086716E+04  0.7818609E-02  0.8219393E-01
       -1   -1    0    0    0  501  0.00000000000E+00  0.00000000000E+00  0.11640934841E+04  0.11640934841E+04  0.50400001928E-02 0. -1.
        1   -1    0    0  501    0  0.00000000000E+00  0.00000000000E+00 -0.20461872195E+04  0.20461872195E+04  0.50400001928E-02 0.  1.
    10030    2    1    2    0    0  0.00000000000E+00  0.00000000000E+00 -0.88209373537E+03  0.32102807036E+04  0.30867155421E+04 0.  0.
        5    1    3    3  502    0  0.22029443481E+03 -0.14829057242E+04 -0.82231741780E+03  0.17099026436E+04  0.46999998093E+01 0. -1.
       -5    1    3    3    0  502 -0.22029443481E+03  0.14829057242E+04 -0.59776317572E+02  0.15003780600E+04  0.46999998093E+01 0.  1.
</event>
<event>
 5   0  0.1211008E-06  0.3116036E+04  0.7818609E-02  0.8211351E-01
       -1   -1    0    0    0  501  0.00000000000E+00  0.00000000000E+00  0.14874863498E+04  0.14874863498E+04  0.50400001928E-02 0.  1.
        1   -1    0    0  501    0  0.00000000000E+00  0.00000000000E+00 -0.16318944578E+04  0.16318944578E+04  0.50400001928E-02 0. -1.
    10030    2    1    2    0    0  0.00000000000E+00  0.00000000000E+00 -0.14440810802E+03  0.31193808076E+04  0.31160364121E+04 0.  0.
        3    1    3    3  502    0  0.79147074870E+03  0.37088769456E+03  0.12189232414E+04  0.14999191667E+04  0.10100000352E+00 0.  1.
       -3    1    3    3    0  502 -0.79147074870E+03 -0.37088769456E+03 -0.13633313494E+04  0.16194616409E+04  0.10100000352E+00 0. -1.
</event>
<event>
 5   0  0.1250276E-06  0.3091904E+04  0.7818609E-02  0.8217963E-01
        1   -1    0    0  501    0  0.00000000000E+00  0.00000000000E+00  0.23531725581E+04  0.23531725581E+04  0.50400001928E-02 0. -1.
       -1   -1    0    0    0  501  0.00000000000E+00  0.00000000000E+00 -0.10156366254E+04  0.10156366254E+04  0.50400001928E-02 0.  1.
    10030    2    1    2    0    0  0.00000000000E+00  0.00000000000E+00  0.13375359327E+04  0.33688091836E+04  0.30919044203E+04 0.  0.
        5    1    3    3  502    0  0.60324594551E+03  0.83298562790E+03  0.19263347569E+04  0.21837029131E+04  0.46999998093E+01 0. -1.
       -5    1    3    3    0  502 -0.60324594551E+03 -0.83298562790E+03 -0.58879882415E+03  0.11851062705E+04  0.46999998093E+01 0.  1.
</event>
<event>
 5   0  0.3374790E-06  0.3107072E+04  0.7818609E-02  0.8213800E-01
        2   -1    0    0  501    0  0.00000000000E+00  0.00000000000E+00  0.16016394251E+04  0.16016394251E+04  0.25500000920E-02 0.  1.
       -2   -1    0    0    0  501  0.00000000000E+00  0.00000000000E+00 -0.15068774010E+04  0.15068774010E+04  0.25500000920E-02 0. -1.
    10030    2    1    2    0    0  0.00000000000E+00  0.00000000000E+00  0.94762024034E+02  0.31085168261E+04  0.31070720972E+04 0.  0.
        2    1    3    3  502    0  0.68629540615E+03  0.11620530040E+03  0.14369001671E+04  0.15966174077E+04  0.25500000920E-02 0.  1.
       -2    1    3    3    0  502 -0.68629540615E+03 -0.11620530040E+03 -0.13421381431E+04  0.15118994184E+04  0.25500000920E-02 0. -1.
</event>
<event>
 5   0  0.3340899E-06  0.3123053E+04  0.7818609E-02  0.8209440E-01
       -2   -1    0    0    0  501  0.00000000000E+00  0.00000000000E+00  0.13302980410E+04  0.13302980410E+04  0.25500000920E-02 0. -1.
        2   -1    0    0  501    0  0.00000000000E+00  0.00000000000E+00 -0.18329463227E+04  0.18329463227E+04  0.25500000920E-02 0.  1.
    10030    2    1    2    0    0  0.00000000000E+00  0.00000000000E+00 -0.50264828170E+03  0.31632443638E+04  0.31230529310E+04 0.  0.
        3    1    3    3  502    0  0.28561758960E+03 -0.53560111330E+03  0.12059124454E+04  0.13500632563E+04  0.10100000352E+00 0. -1.
       -3    1    3    3    0  502 -0.28561758960E+03  0.53560111330E+03 -0.17085607271E+04  0.18131811074E+04  0.10100000352E+00 0.  1.
</event>
<event>
 5   0  0.3340899E-06  0.3103646E+04  0.7818609E-02  0.8214738E-01
        2   -1    0    0  501    0  0.00000000000E+00  0.00000000000E+00  0.26023850645E+04  0.26023850645E+04  0.25500000920E-02 0.  1.
       -2   -1    0    0    0  501  0.00000000000E+00  0.00000000000E+00 -0.92536437972E+03  0.92536437972E+03  0.25500000920E-02 0. -1.
    10030    2    1    2    0    0  0.00000000000E+00  0.00000000000E+00  0.16770206848E+04  0.35277494442E+04  0.31036458825E+04 0.  0.
        3    1    3    3  502    0 -0.76693246783E+03  0.44622634579E+03 -0.60858492895E+03  0.10759549191E+04  0.10100000352E+00 0. -1.
       -3    1    3    3    0  502  0.76693246783E+03 -0.44622634579E+03  0.22856056137E+04  0.24517945251E+04  0.10100000352E+00 0.  1.
</event>
<event>
 5   0  0.1171915E-06  0.3091662E+04  0.7818609E-02  0.8218030E-01
        1   -1    0    0  501    0  0.00000000000E+00  0.00000000000E+00  0.21186827115E+04  0.21186827115E+04  0.50400001928E-02 0. -1.
       -1   -1    0    0    0  501  0.00000000000E+00  0.00000000000E+00 -0.11278674653E+04  0.11278674653E+04  0.50400001928E-02 0.  1.
    10030    2    1    2    0    0  0.00000000000E+00  0.00000000000E+00  0.99081524623E+03  0.32465501768E+04  0.30916618829E+04 0.  0.
        2    1    3    3  502    0  0.12597535491E+03 -0.40350001136E+03 -0.10659981569E+04  0.11467493709E+04  0.25500000920E-02 0.  1.
       -2    1    3    3    0  502 -0.12597535491E+03  0.40350001136E+03  0.20568134031E+04  0.20998008059E+04  0.25500000920E-02 0. -1.
</event>
<event>
 5   0  0.3445959E-06  0.3100900E+04  0.7818609E-02  0.8215491E-01
        2   -1    0    0  501    0  0.00000000000E+00  0.00000000000E+00  0.23366548705E+04  0.23366548706E+04  0.25500000920E-02 0. -1.
       -2   -1    0    0    0  501  0.00000000000E+00  0.00000000000E+00 -0.10287761397E+04  0.10287761397E+04  0.25500000920E-02 0.  1.
    10030    2    1    2    0    0  0.00000000000E+00  0.00000000000E+00  0.13078787308E+04  0.33654310103E+04  0.31008997260E+04 0.  0.
        4    1    3    3  502    0  0.15455283816E+04  0.12105595851E+03  0.62778724688E+03  0.16725522305E+04  0.12699999809E+01 0. -1.
       -4    1    3    3    0  502 -0.15455283816E+04 -0.12105595851E+03  0.68009148394E+03  0.16928787798E+04  0.12699999809E+01 0.  1.
</event>
<event>
 5   0  0.3340899E-06  0.3162152E+04  0.7818609E-02  0.8198885E-01
       -2   -1    0    0    0  501  0.00000000000E+00  0.00000000000E+00  0.12603735374E+04  0.12603735374E+04  0.25500000920E-02 0. -1.
        2   -1    0    0  501    0  0.00000000000E+00  0.00000000000E+00 -0.19833813964E+04  0.19833813964E+04  0.25500000920E-02 0.  1.
    10030    2    1    2    0    0  0.00000000000E+00  0.00000000000E+00 -0.72300785897E+03  0.32437549338E+04  0.31621520689E+04 0.  0.
        3    1    3    3  502    0  0.18332443753E+03 -0.11560845461E+04 -0.14517877354E+04  0.18648932854E+04  0.10100000352E+00 0.  1.
       -3    1    3    3    0  502 -0.18332443753E+03  0.11560845461E+04  0.72877987640E+03  0.13788616484E+04  0.10100000352E+00 0. -1.
</event>
<event>
 5   0  0.3340899E-06  0.2825622E+04  0.7818609E-02  0.8295358E-01
        2   -1    0    0  501    0  0.00000000000E+00  0.00000000000E+00  0.20726760815E+04  0.20726760815E+04  0.25500000920E-02 0. -1.
       -2   -1    0    0    0  501  0.00000000000E+00  0.00000000000E+00 -0.96302328233E+03  0.96302328233E+03  0.25500000920E-02 0.  1.
    10030    2    1    2    0    0  0.00000000000E+00  0.00000000000E+00  0.11096527992E+04  0.30356993639E+04  0.28256222842E+04 0.  0.
        3    1    3    3  502    0  0.99857329876E+03 -0.91328582190E+03  0.11869478019E+03  0.13584285357E+04  0.10100000352E+00 0.  1.
       -3    1    3    3    0  502 -0.99857329876E+03  0.91328582190E+03  0.99095801902E+03  0.16772708282E+04  0.10100000352E+00 0. -1.
</event>
<event>
 5   0  0.3340899E-06  0.3049672E+04  0.7818609E-02  0.8229687E-01
        2   -1    0    0  501    0  0.00000000000E+00  0.00000000000E+00  0.13194896115E+04  0.13194896115E+04  0.25500000920E-02 0. -1.
       -2   -1    0    0    0  501  0.00000000000E+00  0.00000000000E+00 -0.17621391877E+04  0.17621391877E+04  0.25500000920E-02 0.  1.
    10030    2    1    2    0    0  0.00000000000E+00  0.00000000000E+00 -0.44264957621E+03  0.30816287992E+04  0.30496716887E+04 0.  0.
        3    1    3    3  502    0 -0.65651253974E+03 -0.13068676883E+03  0.11630816365E+04  0.13419562771E+04  0.10100000352E+00 0. -1.
       -3    1    3    3    0  502  0.65651253974E+03  0.13068676883E+03 -0.16057312127E+04  0.17396725221E+04  0.10100000352E+00 0.  1.
</event>
<event>
 5   0  0.3441897E-06  0.3120639E+04  0.7818609E-02  0.8210096E-01
        2   -1    0    0  501    0  0.00000000000E+00  0.00000000000E+00  0.20874607111E+04  0.20874607111E+04  0.25500000920E-02 0. -1.
       -2   -1    0    0    0  501  0.00000000000E+00  0.00000000000E+00 -0.11662961241E+04  0.11662961241E+04  0.25500000920E-02 0.  1.
    10030    2    1    2    0    0  0.00000000000E+00  0.00000000000E+00  0.92116458700E+03  0.32537568352E+04  0.31206392528E+04 0.  0.
        5    1    3    3  502    0  0.44792986025E+03  0.12758633535E+04 -0.35115612524E+03  0.13970687781E+04  0.46999998093E+01 0.  1.
       -5    1    3    3    0  502 -0.44792986025E+03 -0.12758633535E+04  0.12723207122E+04  0.18566880571E+04  0.46999998093E+01 0. -1.
</event>
<event>
 5   0  0.1211008E-06  0.3096935E+04  0.7818609E-02  0.8216580E-01
        1   -1    0    0  501    0  0.00000000000E+00  0.00000000000E+00  0.15345435890E+04  0.15345435890E+04  0.50400001928E-02 0.  1.
       -1   -1    0    0    0  501  0.00000000000E+00  0.00000000000E+00 -0.15625176543E+04  0.15625176543E+04  0.50400001928E-02 0. -1.
    10030    2    1    2    0    0  0.00000000000E+00  0.00000000000E+00 -0.27974065340E+02  0.30970612433E+04  0.30969349035E+04 0.  0.
        3    1    3    3  502    0  0.95953558296E+03 -0.11983467160E+04  0.18852567816E+03  0.15467014348E+04  0.10100000352E+00 0.  1.
       -3    1    3    3    0  502 -0.95953558296E+03  0.11983467160E+04 -0.21649974350E+03  0.15503598085E+04  0.10100000352E+00 0. -1.
</event>
<event>
 5   0  0.1171915E-06  0.3104528E+04  0.7818609E-02  0.8214496E-01
        1   -1    0    0  501    0  0.00000000000E+00  0.00000000000E+00  0.18239284837E+04  0.18239284837E+04  0.50400001928E-02 0. -1.
       -1   -1    0    0    0  501  0.00000000000E+00  0.00000000000E+00 -0.13210624667E+04  0.13210624668E+04  0.50400001928E-02 0.  1.
    10030    2    1    2    0    0  0.00000000000E+00  0.00000000000E+00  0.50286601694E+03  0.31449909505E+04  0.31045279589E+04 0.  0.
        2    1    3    3  502    0  0.84925875583E+03  0.12796950322E+04  0.47945255146E+03  0.16089544925E+04  0.25500000920E-02 0. -1.
       -2    1    3    3    0  502 -0.84925875583E+03 -0.12796950322E+04  0.23413465481E+02  0.15360364580E+04  0.25500000920E-02 0.  1.
</event>
<event>
 5   0  0.1235960E-06  0.3250407E+04  0.7818609E-02  0.8175630E-01
       -1   -1    0    0    0  501  0.00000000000E+00  0.00000000000E+00  0.12861382402E+04  0.12861382402E+04  0.50400001928E-02 0. -1.
        1   -1    0    0  501    0  0.00000000000E+00  0.00000000000E+00 -0.20536568192E+04  0.20536568192E+04  0.50400001928E-02 0.  1.
    10030    2    1    2    0    0  0.00000000000E+00  0.00000000000E+00 -0.76751857900E+03  0.33397950593E+04  0.32504070928E+04 0.  0.
        4    1    3    3  502    0  0.86947180460E+03  0.11663158698E+04  0.36074340450E+03  0.14988033039E+04  0.12699999809E+01 0. -1.
       -4    1    3    3    0  502 -0.86947180460E+03 -0.11663158698E+04 -0.11282619835E+04  0.18409917554E+04  0.12699999809E+01 0.  1.
</event>
<event>
 5   0  0.3340899E-06  0.3051788E+04  0.7818609E-02  0.8229095E-01
       -2   -1    0    0    0  501  0.00000000000E+00  0.00000000000E+00  0.12182726459E+04  0.12182726459E+04  0.25500000920E-02 0.  1.
        2   -1    0    0  501    0  0.00000000000E+00  0.00000000000E+00 -0.19111920661E+04  0.19111920661E+04  0.25500000920E-02 0. -1.
    10030    2    1    2    0    0  0.00000000000E+00  0.00000000000E+00 -0.69291942014E+03  0.31294647120E+04  0.30517883382E+04 0.  0.
        3    1    3    3  502    0  0.14953398615E+04  0.97549093854E+02 -0.51393140802E+02  0.14993993439E+04  0.10100000352E+00 0.  1.
       -3    1    3    3    0  502 -0.14953398615E+04 -0.97549093854E+02 -0.64152627934E+03  0.16300653682E+04  0.10100000352E+00 0. -1.
</event>
<event>
 5   0  0.3340899E-06  0.3056675E+04  0.7818609E-02  0.8227730E-01
        2   -1    0    0  501    0  0.00000000000E+00  0.00000000000E+00  0.20710093600E+04  0.20710093600E+04  0.25500000920E-02 0.  1.
       -2   -1    0    0    0  501  0.00000000000E+00  0.00000000000E+00 -0.11278634129E+04  0.11278634129E+04  0.25500000920E-02 0. -1.
    10030    2    1    2    0    0  0.00000000000E+00  0.00000000000E+00  0.94314594705E+03  0.31988727729E+04  0.30566751120E+04 0.  0.
        3    1    3    3  502    0  0.71180573560E+03 -0.13487851283E+03  0.18798939326E+04  0.20146614670E+04  0.10100000352E+00 0.  1.
       -3    1    3    3    0  502 -0.71180573560E+03  0.13487851283E+03 -0.93674798557E+03  0.11842113060E+04  0.10100000352E+00 0. -1.
</event>
<event>
 5   0  0.3445410E-06  0.3064998E+04  0.7818609E-02  0.8225410E-01
        2   -1    0    0  501    0  0.00000000000E+00  0.00000000000E+00  0.25068379168E+04  0.25068379168E+04  0.25500000920E-02 0. -1.
       -2   -1    0    0    0  501  0.00000000000E+00  0.00000000000E+00 -0.93685851780E+03  0.93685851780E+03  0.25500000920E-02 0.  1.
    10030    2    1    2    0    0  0.00000000000E+00  0.00000000000E+00  0.15699793990E+04  0.34436964346E+04  0.30649975237E+04 0.  0.
        1    1    3    3  502    0 -0.47077835612E+03  0.14577496485E+04  0.73619376539E+03  0.16996021765E+04  0.50400001928E-02 0. -1.
       -1    1    3    3    0  502  0.47077835612E+03 -0.14577496485E+04  0.83378563359E+03  0.17440942581E+04  0.50400001928E-02 0.  1.
</event>
<event>
 5   0  0.1198763E-06  0.3097340E+04  0.7818609E-02  0.8216468E-01
       -1   -1    0    0    0  501  0.00000000000E+00  0.00000000000E+00  0.11561133867E+04  0.11561133867E+04  0.50400001928E-02 0.  1.
        1   -1    0    0  501    0  0.00000000000E+00  0.00000000000E+00 -0.20745180614E+04  0.20745180614E+04  0.50400001928E-02 0. -1.
    10030    2    1    2    0    0  0.00000000000E+00  0.00000000000E+00 -0.91840467465E+03  0.32306314481E+04  0.30973395692E+04 0.  0.
        1    1    3    3  502    0  0.14868189742E+04 -0.15851359915E+03 -0.38585409355E+02  0.14957426440E+04  0.50400001928E-02 0.  1.
       -1    1    3    3    0  502 -0.14868189742E+04  0.15851359915E+03 -0.87981926530E+03  0.17348888041E+04  0.50400001928E-02 0. -1.
</event>
<event>
 5   0  0.3374790E-06  0.3008232E+04  0.7818609E-02  0.8241384E-01
       -2   -1    0    0    0  501  0.00000000000E+00  0.00000000000E+00  0.14636200260E+04  0.14636200260E+04  0.25500000920E-02 0.  1.
        2   -1    0    0  501    0  0.00000000000E+00  0.00000000000E+00 -0.15457321483E+04  0.15457321483E+04  0.25500000920E-02 0. -1.
    10030    2    1    2    0    0  0.00000000000E+00  0.00000000000E+00 -0.82112122265E+02  0.30093521743E+04  0.30082317245E+04 0.  0.
        2    1    3    3  502    0 -0.10230049827E+04  0.10853553176E+04  0.15351359775E+03  0.14993671280E+04  0.25500000920E-02 0. -1.
       -2    1    3    3    0  502  0.10230049827E+04 -0.10853553176E+04 -0.23562572001E+03  0.15099850463E+04  0.25500000920E-02 0.  1.
</event>
<event>
 5   0  0.3340899E-06  0.3120576E+04  0.7818609E-02  0.8210113E-01
        2   -1    0    0  501    0  0.00000000000E+00  0.00000000000E+00  0.15626671027E+04  0.15626671027E+04  0.25500000920E-02 0.  1.
       -2   -1    0    0    0  501  0.00000000000E+00  0.00000000000E+00 -0.15579129441E+04  0.15579129441E+04  0.25500000920E-02 0. -1.
    10030    2    1    2    0    0  0.00000000000E+00  0.00000000000E+00  0.47541586361E+01  0.31205800468E+04  0.31205764253E+04 0.  0.
        3    1    3    3  502    0 -0.15166944047E+04 -0.20696069935E+03  0.30454401985E+03  0.15607503703E+04  0.10100000352E+00 0. -1.
       -3    1    3    3    0  502  0.15166944047E+04  0.20696069935E+03 -0.29978986121E+03  0.15598296764E+04  0.10100000352E+00 0.  1.
</event>
<event>
 5   0  0.1198763E-06  0.3106648E+04  0.7818609E-02  0.8213916E-01
       -1   -1    0    0    0  501  0.00000000000E+00  0.00000000000E+00  0.13101072111E+04  0.13101072111E+04  0.50400001928E-02 0. -1.
        1   -1    0    0  501    0  0.00000000000E+00  0.00000000000E+00 -0.18416927201E+04  0.18416927201E+04  0.50400001928E-02 0.  1.
    10030    2    1    2    0    0  0.00000000000E+00  0.00000000000E+00 -0.53158550893E+03  0.31517999312E+04  0.31066476551E+04 0.  0.
        1    1    3    3  502    0 -0.14665997089E+04  0.45305416982E+03 -0.24337636246E+02  0.15351759207E+04  0.50400001928E-02 0. -1.
       -1    1    3    3    0  502  0.14665997089E+04 -0.45305416982E+03 -0.50724787269E+03  0.16166240105E+04  0.50400001928E-02 0.  1.
</event>
<event>
 5   0  0.3445959E-06  0.3090501E+04  0.7818609E-02  0.8218350E-01
        2   -1    0    0  501    0  0.00000000000E+00  0.00000000000E+00  0.22820486755E+04  0.22820486755E+04  0.25500000920E-02 0. -1.
       -2   -1    0    0    0  501  0.00000000000E+00  0.00000000000E+00 -0.10463400788E+04  0.10463400788E+04  0.25500000920E-02 0.  1.
    10030    2    1    2    0    0  0.00000000000E+00  0.00000000000E+00  0.12357085967E+04  0.33283887543E+04  0.30905009244E+04 0.  0.
        4    1    3    3  502    0  0.65143046221E+03 -0.85810523577E+03 -0.57515431021E+03  0.12212740627E+04  0.12699999809E+01 0.  1.
       -4    1    3    3    0  502 -0.65143046221E+03  0.85810523577E+03  0.18108629069E+04  0.21071146916E+04  0.12699999809E+01 0. -1.
</event>
<event>
 5   0  0.1109562E-06  0.3095950E+04  0.7818609E-02  0.8216850E-01
        3   -1    0    0  501    0  0.00000000000E+00  0.00000000000E+00  0.11283043526E+04  0.11283043571E+04  0.10100000352E+00 0. -1.
       -3   -1    0    0    0  501  0.00000000000E+00  0.00000000000E+00 -0.21237411457E+04  0.21237411481E+04  0.10100000352E+00 0.  1.
    10030    2    1    2    0    0  0.00000000000E+00  0.00000000000E+00 -0.99543679309E+03  0.32520455053E+04  0.30959498638E+04 0.  0.
        4    1    3    3  502    0  0.27585409980E+03  0.73275618641E+02 -0.20958615448E+04  0.21152073252E+04  0.12699999809E+01 0.  1.
       -4    1    3    3    0  502 -0.27585409980E+03 -0.73275618641E+02  0.11004247517E+04  0.11368381801E+04  0.12699999809E+01 0. -1.
</event>
<event>
 5   0  0.3441897E-06  0.3074936E+04  0.7818609E-02  0.8222650E-01
        2   -1    0    0  501    0  0.00000000000E+00  0.00000000000E+00  0.16773296778E+04  0.16773296778E+04  0.25500000920E-02 0. -1.
       -2   -1    0    0    0  501  0.00000000000E+00  0.00000000000E+00 -0.14092681684E+04  0.14092681684E+04  0.25500000920E-02 0.  1.
    10030    2    1    2    0    0  0.00000000000E+00  0.00000000000E+00  0.26806150936E+03  0.30865978462E+04  0.30749356565E+04 0.  0.
        5    1    3    3  502    0  0.69047361113E+03  0.12096790890E+04 -0.51936650810E+03  0.14865533848E+04  0.46999998093E+01 0.  1.
       -5    1    3    3    0  502 -0.69047361113E+03 -0.12096790890E+04  0.78742801746E+03  0.16000444615E+04  0.46999998093E+01 0. -1.
</event>
<event>
 5   0  0.3445959E-06  0.3046572E+04  0.7818609E-02  0.8230556E-01
       -2   -1    0    0    0  501  0.00000000000E+00  0.00000000000E+00  0.15867129718E+04  0.15867129718E+04  0.25500000920E-02 0. -1.
        2   -1    0    0  501    0  0.00000000000E+00  0.00000000000E+00 -0.14623939706E+04  0.14623939706E+04  0.25500000920E-02 0.  1.
    10030    2    1    2    0    0  0.00000000000E+00  0.00000000000E+00  0.12431900120E+03  0.30491069425E+04  0.30465715046E+04 0.  0.
        4    1    3    3  502    0 -0.93128810593E+03 -0.86556062132E+03 -0.77752928074E+03  0.14903174564E+04  0.12699999809E+01 0.  1.
       -4    1    3    3    0  502  0.93128810593E+03  0.86556062132E+03  0.90184828195E+03  0.15587894861E+04  0.12699999809E+01 0. -1.
</event>
<event>
 5   0  0.3340899E-06  0.3061910E+04  0.7818609E-02  0.8226270E-01
       -2   -1    0    0    0  501  0.00000000000E+00  0.00000000000E+00  0.12808565428E+04  0.12808565428E+04  0.25500000920E-02 0.  1.
        2   -1    0    0  501    0  0.00000000000E+00  0.00000000000E+00 -0.18298878105E+04  0.18298878105E+04  0.25500000920E-02 0. -1.
    10030    2    1    2    0    0  0.00000000000E+00  0.00000000000E+00 -0.54903126772E+03  0.31107443533E+04  0.30619103675E+04 0.  0.
        3    1    3    3  502    0 -0.13878279917E+04  0.48974795747E+03  0.15399826188E+03  0.14797415556E+04  0.10100000352E+00 0. -1.
       -3    1    3    3    0  502  0.13878279917E+04 -0.48974795747E+03 -0.70302952959E+03  0.16310027977E+04  0.10100000352E+00 0.  1.
</event>
<event>
 5   0  0.3340899E-06  0.3111648E+04  0.7818609E-02  0.8212549E-01
       -2   -1    0    0    0  501  0.00000000000E+00  0.00000000000E+00  0.15065746844E+04  0.15065746844E+04  0.25500000920E-02 0.  1.
        2   -1    0    0  501    0  0.00000000000E+00  0.00000000000E+00 -0.16066828564E+04  0.16066828564E+04  0.25500000920E-02 0. -1.
    10030    2    1    2    0    0  0.00000000000E+00  0.00000000000E+00 -0.10010817207E+03  0.31132575408E+04  0.31116476133E+04 0.  0.
        3    1    3    3  502    0 -0.95643865019E+03 -0.77542033711E+03  0.90150902265E+03  0.15260308381E+04  0.10100000352E+00 0.  1.
       -3    1    3    3    0  502  0.95643865019E+03  0.77542033711E+03 -0.10016171947E+04  0.15872267027E+04  0.10100000352E+00 0. -1.
</event>
<event>
 5   0  0.3445959E-06  0.3097499E+04  0.7818609E-02  0.8216425E-01
        2   -1    0    0  501    0  0.00000000000E+00  0.00000000000E+00  0.22605782368E+04  0.22605782368E+04  0.25500000920E-02 0. -1.
       -2   -1    0    0    0  501  0.00000000000E+00  0.00000000000E+00 -0.10610671117E+04  0.10610671117E+04  0.25500000920E-02 0.  1.
    10030    2    1    2    0    0  0.00000000000E+00  0.00000000000E+00  0.11995111251E+04  0.33216453484E+04  0.30974991334E+04 0.  0.
        4    1    3    3  502    0 -0.67965951601E+03  0.24753777733E+03  0.20683110698E+04  0.21911468010E+04  0.12699999809E+01 0. -1.
       -4    1    3    3    0  502  0.67965951601E+03 -0.24753777733E+03 -0.86879994474E+03  0.11304985474E+04  0.12699999809E+01 0.  1.
</event>
<event>
 5   0  0.3340899E-06  0.3090913E+04  0.7818609E-02  0.8218236E-01
       -2   -1    0    0    0  501  0.00000000000E+00  0.00000000000E+00  0.10921693850E+04  0.10921693850E+04  0.25500000920E-02 0. -1.
        2   -1    0    0  501    0  0.00000000000E+00  0.00000000000E+00 -0.21868733482E+04  0.21868733482E+04  0.25500000920E-02 0.  1.
    10030    2    1    2    0    0  0.00000000000E+00  0.00000000000E+00 -0.10947039632E+04  0.32790427333E+04  0.30909132113E+04 0.  0.
        3    1    3    3  502    0  0.12303867465E+04 -0.92387034960E+03 -0.39344187589E+03  0.15881386869E+04  0.10100000352E+00 0. -1.
       -3    1    3    3    0  502 -0.12303867465E+04  0.92387034960E+03 -0.70126208731E+03  0.16909040464E+04  0.10100000352E+00 0.  1.
</event>
<event>
 5   0  0.1250276E-06  0.3061558E+04  0.7818609E-02  0.8226368E-01
        1   -1    0    0  501    0  0.00000000000E+00  0.00000000000E+00  0.11319300893E+04  0.11319300894E+04  0.50400001928E-02 0.  1.
       -1   -1    0    0    0  501  0.00000000000E+00  0.00000000000E+00 -0.20701669895E+04  0.20701669895E+04  0.50400001928E-02 0. -1.
    10030    2    1    2    0    0  0.00000000000E+00  0.00000000000E+00 -0.93823690017E+03  0.32020970789E+04  0.30615579729E+04 0.  0.
        5    1    3    3  502    0  0.86787717429E+03 -0.17679688220E+02 -0.17878454596E+04  0.19874448014E+04  0.46999998093E+01 0. -1.
       -5    1    3    3    0  502 -0.86787717429E+03  0.17679688220E+02  0.84960855943E+03  0.12146522775E+04  0.46999998093E+01 0.  1.
</event>
<event>
 5   0  0.3445410E-06  0.3026496E+04  0.7818609E-02  0.8236205E-01
        2   -1    0    0  501    0  0.00000000000E+00  0.00000000000E+00  0.17305430262E+04  0.17305430262E+04  0.25500000920E-02 0. -1.
       -2   -1    0    0    0  501  0.00000000000E+00  0.00000000000E+00 -0.13232376279E+04  0.13232376279E+04  0.25500000920E-02 0.  1.
    10030    2    1    2    0    0  0.00000000000E+00  0.00000000000E+00  0.40730539830E+03  0.30537806541E+04  0.30264960921E+04 0.  0.
        1    1    3    3  502    0 -0.38469643285E+03  0.10493663040E+04 -0.82572022181E+03  0.13895952181E+04  0.50400001928E-02 0. -1.
       -1    1    3    3    0  502  0.38469643285E+03 -0.10493663040E+04  0.12330256201E+04  0.16641854360E+04  0.50400001928E-02 0.  1.
</event>
<event>
 5   0  0.1211008E-06  0.3056795E+04  0.7818609E-02  0.8227696E-01
       -1   -1    0    0    0  501  0.00000000000E+00  0.00000000000E+00  0.21084879552E+04  0.21084879552E+04  0.50400001928E-02 0.  1.
        1   -1    0    0  501    0  0.00000000000E+00  0.00000000000E+00 -0.11079022518E+04  0.11079022519E+04  0.50400001928E-02 0. -1.
    10030    2    1    2    0    0  0.00000000000E+00  0.00000000000E+00  0.10005857034E+04  0.32163902071E+04  0.30567947616E+04 0.  0.
        3    1    3    3  502    0 -0.10853934367E+04 -0.73840716896E+03 -0.32330906279E+03  0.13519810723E+04  0.10100000352E+00 0.  1.
       -3    1    3    3    0  502  0.10853934367E+04  0.73840716896E+03  0.13238947661E+04  0.18644091347E+04  0.10100000352E+00 0. -1.
</event>
<event>
 5   0  0.3445959E-06  0.3082551E+04  0.7818609E-02  0.8220543E-01
        2   -1    0    0  501    0  0.00000000000E+00  0.00000000000E+00  0.98901532141E+03  0.98901532141E+03  0.25500000920E-02 0. -1.
       -2   -1    0    0    0  501  0.00000000000E+00  0.00000000000E+00 -0.24019150875E+04  0.24019150875E+04  0.25500000920E-02 0.  1.
    10030    2    1    2    0    0  0.00000000000E+00  0.00000000000E+00 -0.14128997661E+04  0.33909304090E+04  0.30825514252E+04 0.  0.
        4    1    3    3  502    0 -0.18162904038E+03  0.83199926425E+03  0.70671317522E+03  0.11066422226E+04  0.12699999809E+01 0. -1.
       -4    1    3    3    0  502  0.18162904038E+03 -0.83199926425E+03 -0.21196129414E+04  0.22842881863E+04  0.12699999809E+01 0.  1.
</event>
<event>
 5   0  0.3445959E-06  0.3091016E+04  0.7818609E-02  0.8218208E-01
       -2   -1    0    0    0  501  0.00000000000E+00  0.00000000000E+00  0.11538301675E+04  0.11538301675E+04  0.25500000920E-02 0.  1.
        2   -1    0    0  501    0  0.00000000000E+00  0.00000000000E+00 -0.20701448163E+04  0.20701448163E+04  0.25500000920E-02 0. -1.
    10030    2    1    2    0    0  0.00000000000E+00  0.00000000000E+00 -0.91631464874E+03  0.32239749838E+04  0.30910163637E+04 0.  0.
        4    1    3    3  502    0  0.18219090685E+03  0.91747489655E+03 -0.17413790030E+04  0.19767033559E+04  0.12699999809E+01 0. -1.
       -4    1    3    3    0  502 -0.18219090685E+03 -0.91747489655E+03  0.82506435423E+03  0.12472716279E+04  0.12699999809E+01 0.  1.
</event>
<event>
 5   0  0.3445959E-06  0.3102907E+04  0.7818609E-02  0.8214941E-01
        2   -1    0    0  501    0  0.00000000000E+00  0.00000000000E+00  0.21592446717E+04  0.21592446717E+04  0.25500000920E-02 0.  1.
       -2   -1    0    0    0  501  0.00000000000E+00  0.00000000000E+00 -0.11147450293E+04  0.11147450293E+04  0.25500000920E-02 0. -1.
    10030    2    1    2    0    0  0.00000000000E+00  0.00000000000E+00  0.10444996425E+04  0.32739897010E+04  0.31029065502E+04 0.  0.
        4    1    3    3  502    0 -0.10700601078E+04  0.31193617320E+03 -0.61645349897E+03  0.12737147796E+04  0.12699999809E+01 0. -1.
       -4    1    3    3    0  502  0.10700601078E+04 -0.31193617320E+03  0.16609531414E+04  0.20002749214E+04  0.12699999809E+01 0.  1.
</event>
<event>
 5   0  0.3445410E-06  0.3159734E+04  0.7818609E-02  0.8199533E-01
        2   -1    0    0  501    0  0.00000000000E+00  0.00000000000E+00  0.14432988649E+04  0.14432988649E+04  0.25500000920E-02 0.  1.
       -2   -1    0    0    0  501  0.00000000000E+00  0.00000000000E+00 -0.17293573373E+04  0.17293573373E+04  0.25500000920E-02 0. -1.
    10030    2    1    2    0    0  0.00000000000E+00  0.00000000000E+00 -0.28605847242E+03  0.31726562022E+04  0.31597338381E+04 0.  0.
        1    1    3    3  502    0  0.33231925043E+03  0.63542708131E+03 -0.15565421320E+04  0.17137756762E+04  0.50400001928E-02 0.  1.
       -1    1    3    3    0  502 -0.33231925043E+03 -0.63542708131E+03  0.12704836595E+04  0.14588805260E+04  0.50400001928E-02 0. -1.
</event>
<event>
 5   0  0.1235960E-06  0.3087720E+04  0.7818609E-02  0.8219116E-01
        1   -1    0    0  501    0  0.00000000000E+00  0.00000000000E+00  0.16248055156E+04  0.16248055156E+04  0.50400001928E-02 0. -1.
       -1   -1    0    0    0  501  0.00000000000E+00  0.00000000000E+00 -0.14669468816E+04  0.14669468817E+04  0.50400001928E-02 0.  1.
    10030    2    1    2    0    0  0.00000000000E+00  0.00000000000E+00  0.15785863398E+03  0.30917523973E+04  0.30877197959E+04 0.  0.
        4    1    3    3  502    0  0.13566281529E+04  0.67261529315E+03 -0.22254610438E+03  0.15304834724E+04  0.12699999809E+01 0.  1.
       -4    1    3    3    0  502 -0.13566281529E+04 -0.67261529315E+03  0.38040473836E+03  0.15612689249E+04  0.12699999809E+01 0. -1.
</event>
<event>
 5   0  0.1250276E-06  0.3082641E+04  0.7818609E-02  0.8220518E-01
        1   -1    0    0  501    0  0.00000000000E+00  0.00000000000E+00  0.17899809119E+04  0.17899809119E+04  0.50400001928E-02 0.  1.
       -1   -1    0    0    0  501  0.00000000000E+00  0.00000000000E+00 -0.13272033684E+04  0.13272033684E+04  0.50400001928E-02 0. -1.
    10030    2    1    2    0    0  0.00000000000E+00  0.00000000000E+00  0.46277754345E+03  0.31171842803E+04  0.30826408780E+04 0.  0.
        5    1    3    3  502    0  0.35785162477E+03  0.19678171868E+03  0.17342684340E+04  0.17817098309E+04  0.46999998093E+01 0.  1.
       -5    1    3    3    0  502 -0.35785162477E+03 -0.19678171868E+03 -0.12714908906E+04  0.13354744494E+04  0.46999998093E+01 0. -1.
</event>
<event>
 5   0  0.3445959E-06  0.3082255E+04  0.7818609E-02  0.8220625E-01
        2   -1    0    0  501    0  0.00000000000E+00  0.00000000000E+00  0.14598807814E+04  0.14598807814E+04  0.25500000920E-02 0. -1.
       -2   -1    0    0    0  501  0.00000000000E+00  0.00000000000E+00 -0.16268955004E+04  0.16268955004E+04  0.25500000920E-02 0.  1.
    10030    2    1    2    0    0  0.00000000000E+00  0.00000000000E+00 -0.16701471901E+03  0.30867762818E+04  0.30822546776E+04 0.  0.
        4    1    3    3  502    0  0.43086133218E+03 -0.12052594716E+04 -0.94312544195E+03  0.15898990829E+04  0.12699999809E+01 0.  1.
       -4    1    3    3    0  502 -0.43086133218E+03  0.12052594716E+04  0.77611072294E+03  0.14968771989E+04  0.12699999809E+01 0. -1.
</event>
<event>
 5   0  0.3445410E-06  0.3012809E+04  0.7818609E-02  0.8240083E-01
       -2   -1    0    0    0  501  0.00000000000E+00  0.00000000000E+00  0.92760592037E+03  0.92760592038E+03  0.25500000920E-02 0. -1.
        2   -1    0    0  501    0  0.00000000000E+00  0.00000000000E+00 -0.24463567911E+04  0.24463567911E+04  0.25500000920E-02 0.  1.
    10030    2    1    2    0    0  0.00000000000E+00  0.00000000000E+00 -0.15187508708E+04  0.33739627115E+04  0.30128093486E+04 0.  0.
        1    1    3    3  502    0 -0.67551392335E+03 -0.70312762664E+03  0.52655217677E+03  0.11081356933E+04  0.50400001928E-02 0. -1.
       -1    1    3    3    0  502  0.67551392335E+03  0.70312762664E+03 -0.20453030475E+04  0.22658270182E+04  0.50400001928E-02 0.  1.
</event>
<event>
 5   0  0.3374790E-06  0.3095978E+04  0.7818609E-02  0.8216843E-01
       -2   -1    0    0    0  501  0.00000000000E+00  0.00000000000E+00  0.10987284780E+04  0.10987284780E+04  0.25500000920E-02 0. -1.
        2   -1    0    0  501    0  0.00000000000E+00  0.00000000000E+00 -0.21809479539E+04  0.21809479539E+04  0.25500000920E-02 0.  1.
    10030    2    1    2    0    0  0.00000000000E+00  0.00000000000E+00 -0.10822194759E+04  0.32796764319E+04  0.30959777944E+04 0.  0.
        2    1    3    3  502    0  0.57359974295E+03 -0.48316470342E+03  0.89342053633E+03  0.11664754822E+04  0.25500000920E-02 0.  1.
       -2    1    3    3    0  502 -0.57359974295E+03  0.48316470342E+03 -0.19756400123E+04  0.21132009497E+04  0.25500000920E-02 0. -1.
</event>
<event>
 5   0  0.3441897E-06  0.3094082E+04  0.7818609E-02  0.8217364E-01
        2   -1    0    0  501    0  0.00000000000E+00  0.00000000000E+00  0.18211979174E+04  0.18211979174E+04  0.25500000920E-02 0.  1.
       -2   -1    0    0    0  501  0.00000000000E+00  0.00000000000E+00 -0.13141544855E+04  0.13141544855E+04  0.25500000920E-02 0. -1.
    10030    2    1    2    0    0  0.00000000000E+00  0.00000000000E+00  0.50704343192E+03  0.31353524029E+04  0.30940817133E+04 0.  0.
        5    1    3    3  502    0  0.23471529718E+03  0.79459511861E+03  0.15774091825E+04  0.17817728510E+04  0.46999998093E+01 0.  1.
       -5    1    3    3    0  502 -0.23471529718E+03 -0.79459511861E+03 -0.10703657506E+04  0.13535795519E+04  0.46999998093E+01 0. -1.
</event>
<event>
 5   0  0.3374790E-06  0.3071953E+04  0.7818609E-02  0.8223478E-01
        2   -1    0    0  501    0  0.00000000000E+00  0.00000000000E+00  0.17936488424E+04  0.17936488424E+04  0.25500000920E-02 0.  1.
       -2   -1    0    0    0  501  0.00000000000E+00  0.00000000000E+00 -0.13153207768E+04  0.13153207768E+04  0.25500000920E-02 0. -1.
    10030    2    1    2    0    0  0.00000000000E+00  0.00000000000E+00  0.47832806555E+03  0.31089696192E+04  0.30719528568E+04 0.  0.
        2    1    3    3  502    0 -0.11166700476E+04 -0.58929841521E+03  0.11243455906E+04  0.16906737191E+04  0.25500000920E-02 0. -1.
       -2    1    3    3    0  502  0.11166700476E+04  0.58929841521E+03 -0.64601752504E+03  0.14182959000E+04  0.25500000920E-02 0.  1.
</event>
<event>
 5   0  0.1211008E-06  0.3119912E+04  0.7818609E-02  0.8210294E-01
       -1   -1    0    0    0  501  0.00000000000E+00  0.00000000000E+00  0.15167806654E+04  0.15167806654E+04  0.50400001928E-02 0. -1.
        1   -1    0    0  501    0  0.00000000000E+00  0.00000000000E+00 -0.16043605117E+04  0.16043605117E+04  0.50400001928E-02 0.  1.
    10030    2    1    2    0    0  0.00000000000E+00  0.00000000000E+00 -0.87579846339E+02  0.31211411771E+04  0.31199121811E+04 0.  0.
        3    1    3    3  502    0  0.91503050101E+03  0.67550390010E+03  0.10242807088E+04  0.15306003128E+04  0.10100000352E+00 0. -1.
       -3    1    3    3    0  502 -0.91503050101E+03 -0.67550390010E+03 -0.11118605551E+04  0.15905408643E+04  0.10100000352E+00 0.  1.
</event>
<event>
 5   0  0.3445410E-06  0.3100432E+04  0.7818609E-02  0.8215619E-01
        2   -1    0    0  501    0  0.00000000000E+00  0.00000000000E+00  0.13793948828E+04  0.13793948828E+04  0.25500000920E-02 0. -1.
       -2   -1    0    0    0  501  0.00000000000E+00  0.00000000000E+00 -0.17421906741E+04  0.17421906741E+04  0.25500000920E-02 0.  1.
    10030    2    1    2    0    0  0.00000000000E+00  0.00000000000E+00 -0.36279579129E+03  0.31215855569E+04  0.31004315189E+04 0.  0.
        1    1    3    3  502    0 -0.55283873064E+03  0.49241843684E+03  0.11899017117E+04  0.14014180898E+04  0.50400001928E-02 0. -1.
       -1    1    3    3    0  502  0.55283873064E+03 -0.49241843684E+03 -0.15526975030E+04  0.17201674671E+04  0.50400001928E-02 0.  1.
</event>
<event>
 5   0  0.1171915E-06  0.3078793E+04  0.7818609E-02  0.8221582E-01
        1   -1    0    0  501    0  0.00000000000E+00  0.00000000000E+00  0.18180636885E+04  0.18180636885E+04  0.50400001928E-02 0.  1.
       -1   -1    0    0    0  501  0.00000000000E+00  0.00000000000E+00 -0.13034425308E+04  0.13034425308E+04  0.50400001928E-02 0. -1.
    10030    2    1    2    0    0  0.00000000000E+00  0.00000000000E+00  0.51462115774E+03  0.31215062193E+04  0.30787929682E+04 0.  0.
        2    1    3    3  502    0 -0.14651216876E+04 -0.44760189779E+03  0.10417703988E+03  0.15355070414E+04  0.25500000920E-02 0.  1.
       -2    1    3    3    0  502  0.14651216876E+04  0.44760189779E+03  0.41044411786E+03  0.15859991779E+04  0.25500000920E-02 0. -1.
</event>
<event>
 5   0  0.1235960E-06  0.2556586E+04  0.7818609E-02  0.8383099E-01
        1   -1    0    0  501    0  0.00000000000E+00  0.00000000000E+00  0.23219453178E+04  0.23219453178E+04  0.50400001928E-02 0. -1.
       -1   -1    0    0    0  501  0.00000000000E+00  0.00000000000E+00 -0.70373475538E+03  0.70373475539E+03  0.50400001928E-02 0.  1.
    10030    2    1    2    0    0  0.00000000000E+00  0.00000000000E+00  0.16182105624E+04  0.30256800732E+04  0.25565864900E+04 0.  0.
        4    1    3    3  502    0 -0.10750605169E+03  0.12701619149E+04  0.69581691993E+03  0.14522505432E+04  0.12699999809E+01 0.  1.
       -4    1    3    3    0  502  0.10750605169E+03 -0.12701619149E+04  0.92239364245E+03  0.15734295300E+04  0.12699999809E+01 0. -1.
</event>
<event>
 5   0  0.3340899E-06  0.3037595E+04  0.7818609E-02  0.8233076E-01
        2   -1    0    0  501    0  0.00000000000E+00  0.00000000000E+00  0.16513042000E+04  0.16513042000E+04  0.25500000920E-02 0.  1.
       -2   -1    0    0    0  501  0.00000000000E+00  0.00000000000E+00 -0.13969240154E+04  0.13969240154E+04  0.25500000920E-02 0. -1.
    10030    2    1    2    0    0  0.00000000000E+00  0.00000000000E+00  0.25438018454E+03  0.30482282154E+04  0.30375954264E+04 0.  0.
        3    1    3    3  502    0 -0.25103942931E+03 -0.14966404964E+04  0.65387885531E+02  0.15189566012E+04  0.10100000352E+00 0. -1.
       -3    1    3    3    0  502  0.25103942931E+03  0.14966404964E+04  0.18899229901E+03  0.15292716142E+04  0.10100000352E+00 0.  1.
</event>
<event>
 5   0  0.3441897E-06  0.3106875E+04  0.7818609E-02  0.8213854E-01
       -2   -1    0    0    0  501  0.00000000000E+00  0.00000000000E+00  0.12778649679E+04  0.12778649679E+04  0.25500000920E-02 0.  1.
        2   -1    0    0  501    0  0.00000000000E+00  0.00000000000E+00 -0.18884369422E+04  0.18884369422E+04  0.25500000920E-02 0. -1.
    10030    2    1    2    0    0  0.00000000000E+00  0.00000000000E+00 -0.61057197423E+03  0.31663019101E+04  0.31068745791E+04 0.  0.
        5    1    3    3  502    0  0.15458294059E+04 -0.44484446695E+02 -0.45498992801E+03  0.16120190268E+04  0.46999998093E+01 0.  1.
       -5    1    3    3    0  502 -0.15458294059E+04  0.44484446695E+02 -0.15558204622E+03  0.15542828833E+04  0.46999998093E+01 0. -1.
</event>
<event>
 5   0  0.3441897E-06  0.3054615E+04  0.7818609E-02  0.8228305E-01
        2   -1    0    0  501    0  0.00000000000E+00  0.00000000000E+00  0.16906100211E+04  0.16906100211E+04  0.25500000920E-02 0. -1.
       -2   -1    0    0    0  501  0.00000000000E+00  0.00000000000E+00 -0.13797790925E+04  0.13797790925E+04  0.25500000920E-02 0.  1.
    10030    2    1    2    0    0  0.00000000000E+00  0.00000000000E+00  0.31083092861E+03  0.30703891136E+04  0.30546151055E+04 0.  0.
        5    1    3    3  502    0 -0.12983242136E+03  0.20850496199E+03 -0.13597889865E+04  0.13818027915E+04  0.46999998093E+01 0.  1.
       -5    1    3    3    0  502  0.12983242136E+03 -0.20850496199E+03  0.16706199151E+04  0.16885863222E+04  0.46999998093E+01 0. -1.
</event>
<event>
 5   0  0.3445410E-06  0.3119413E+04  0.7818609E-02  0.8210430E-01
        2   -1    0    0  501    0  0.00000000000E+00  0.00000000000E+00  0.17779001244E+04  0.17779001244E+04  0.25500000920E-02 0. -1.
       -2   -1    0    0    0  501  0.00000000000E+00  0.00000000000E+00 -0.13682903987E+04  0.13682903987E+04  0.25500000920E-02 0.  1.
    10030    2    1    2    0    0  0.00000000000E+00  0.00000000000E+00  0.40960972566E+03  0.31461905231E+04  0.31194125537E+04 0.  0.
        1    1    3    3  502    0 -0.27357728312E+03 -0.19036082129E+03  0.17415649696E+04  0.17731695676E+04  0.50400001928E-02 0. -1.
       -1    1    3    3    0  502  0.27357728312E+03  0.19036082129E+03 -0.13319552440E+04  0.13730209554E+04  0.50400001928E-02 0.  1.
</event>
<event>
 5   0  0.1235960E-06  0.3087570E+04  0.7818609E-02  0.8219157E-01
       -1   -1    0    0    0  501  0.00000000000E+00  0.00000000000E+00  0.11461522071E+04  0.11461522071E+04  0.50400001928E-02 0.  1.
        1   -1    0    0  501    0  0.00000000000E+00  0.00000000000E+00 -0.20793681215E+04  0.20793681215E+04  0.50400001928E-02 0. -1.
    10030    2    1    2    0    0  0.00000000000E+00  0.00000000000E+00 -0.93321591440E+03  0.32255203287E+04  0.30875701527E+04 0.  0.
        4    1    3    3  502    0  0.75355860407E+02  0.37362772747E+03  0.10962246473E+04  0.11605973784E+04  0.12699999809E+01 0.  1.
       -4    1    3    3    0  502 -0.75355860407E+02 -0.37362772747E+03 -0.20294405617E+04  0.20649229503E+04  0.12699999809E+01 0. -1.
</event>
<event>
 5   0  0.1109562E-06  0.2953356E+04  0.7818609E-02  0.8257177E-01
        3   -1    0    0  501    0  0.00000000000E+00  0.00000000000E+00  0.20455328257E+04  0.20455328282E+04  0.10100000352E+00 0. -1.
       -3   -1    0    0    0  501  0.00000000000E+00  0.00000000000E+00 -0.10660194103E+04  0.10660194151E+04  0.10100000352E+00 0.  1.
    10030    2    1    2    0    0  0.00000000000E+00  0.00000000000E+00  0.97951341537E+03  0.31115522433E+04  0.29533558594E+04 0.  0.
        4    1    3    3  502    0 -0.82082675818E+03  0.98456967489E+03  0.12621298304E+04  0.17989183787E+04  0.12699999809E+01 0. -1.
       -4    1    3    3    0  502  0.82082675818E+03 -0.98456967489E+03 -0.28261641499E+03  0.13126338646E+04  0.12699999809E+01 0.  1.
</event>
<event>
 5   0  0.3441897E-06  0.3035332E+04  0.7818609E-02  0.8233713E-01
        2   -1    0    0  501    0  0.00000000000E+00  0.00000000000E+00  0.14415277292E+04  0.14415277292E+04  0.25500000920E-02 0.  1.
       -2   -1    0    0    0  501  0.00000000000E+00  0.00000000000E+00 -0.15978260868E+04  0.15978260868E+04  0.25500000920E-02 0. -1.
    10030    2    1    2    0    0  0.00000000000E+00  0.00000000000E+00 -0.15629835762E+03  0.30393538160E+04  0.30353323446E+04 0.  0.
        5    1    3    3  502    0  0.98065885236E+02 -0.14912831679E+04 -0.34259397394E+03  0.15332759457E+04  0.46999998093E+01 0.  1.
       -5    1    3    3    0  502 -0.98065885236E+02  0.14912831679E+04  0.18629561631E+03  0.15060778703E+04  0.46999998093E+01 0. -1.
</event>
<event>
 5   0  0.3374790E-06  0.3134522E+04  0.7818609E-02  0.8206327E-01
        2   -1    0    0  501    0  0.00000000000E+00  0.00000000000E+00  0.19140880467E+04  0.19140880467E+04  0.25500000920E-02 0. -1.
       -2   -1    0    0    0  501  0.00000000000E+00  0.00000000000E+00 -0.12832779415E+04  0.12832779415E+04  0.25500000920E-02 0.  1.
    10030    2    1    2    0    0  0.00000000000E+00  0.00000000000E+00  0.63081010520E+03  0.31973659881E+04  0.31345219529E+04 0.  0.
        2    1    3    3  502    0  0.80722168606E+03 -0.11773426870E+04  0.97534153100E+03  0.17288822271E+04  0.25500000920E-02 0. -1.
       -2    1    3    3    0  502 -0.80722168606E+03  0.11773426870E+04 -0.34453142580E+03  0.14684837610E+04  0.25500000920E-02 0.  1.
</event>
<event>
 5   0  0.3340899E-06  0.2979807E+04  0.7818609E-02  0.8249521E-01
       -2   -1    0    0    0  501  0.00000000000E+00  0.00000000000E+00  0.10640293970E+04  0.10640293970E+04  0.25500000920E-02 0. -1.
        2   -1    0    0  501    0  0.00000000000E+00  0.00000000000E+00 -0.20862318778E+04  0.20862318778E+04  0.25500000920E-02 0.  1.
    10030    2    1    2    0    0  0.00000000000E+00  0.00000000000E+00 -0.10222024808E+04  0.31502612749E+04  0.29798067367E+04 0.  0.
        3    1    3    3  502    0  0.99950596827E+03 -0.62580205613E+03  0.45157598466E+03  0.12627593889E+04  0.10100000352E+00 0. -1.
       -3    1    3    3    0  502 -0.99950596827E+03  0.62580205613E+03 -0.14737784655E+04  0.18875018860E+04  0.10100000352E+00 0.  1.
</event>
<event>
 5   0  0.1198763E-06  0.3081325E+04  0.7818609E-02  0.8220882E-01
       -1   -1    0    0    0  501  0.00000000000E+00  0.00000000000E+00  0.14314835815E+04  0.14314835816E+04  0.50400001928E-02 0. -1.
        1   -1    0    0  501    0  0.00000000000E+00  0.00000000000E+00 -0.16581689977E+04  0.16581689977E+04  0.50400001928E-02 0.  1.
    10030    2    1    2    0    0  0.00000000000E+00  0.00000000000E+00 -0.22668541614E+03  0.30896525792E+04  0.30813254912E+04 0.  0.
        1    1    3    3  502    0 -0.10083624540E+04  0.15350003312E+03  0.10444571750E+04  0.14598794092E+04  0.50400001928E-02 0. -1.
       -1    1    3    3    0  502  0.10083624540E+04 -0.15350003312E+03 -0.12711425912E+04  0.16297731701E+04  0.50400001928E-02 0.  1.
</event>
<event>
 5   0  0.3340899E-06  0.3080003E+04  0.7818609E-02  0.8221247E-01
        2   -1    0    0  501    0  0.00000000000E+00  0.00000000000E+00  0.17880583741E+04  0.17880583741E+04  0.25500000920E-02 0.  1.
       -2   -1    0    0    0  501  0.00000000000E+00  0.00000000000E+00 -0.13263577284E+04  0.13263577284E+04  0.25500000920E-02 0. -1.
    10030    2    1    2    0    0  0.00000000000E+00  0.00000000000E+00  0.46170064562E+03  0.31144161025E+04  0.30800032749E+04 0.  0.
        3    1    3    3  502    0 -0.12913518465E+04  0.80792245671E+03  0.18765790010E+01  0.15232635423E+04  0.10100000352E+00 0.  1.
       -3    1    3    3    0  502  0.12913518465E+04 -0.80792245671E+03  0.45982406662E+03  0.15911525602E+04  0.10100000352E+00 0. -1.
</event>
<event>
 5   0  0.3441897E-06  0.3046864E+04  0.7818609E-02  0.8230474E-01
       -2   -1    0    0    0  501  0.00000000000E+00  0.00000000000E+00  0.10528607505E+04  0.10528607505E+04  0.25500000920E-02 0.  1.
        2   -1    0    0  501    0  0.00000000000E+00  0.00000000000E+00 -0.22043232385E+04  0.22043232385E+04  0.25500000920E-02 0. -1.
    10030    2    1    2    0    0  0.00000000000E+00  0.00000000000E+00 -0.11514624879E+04  0.32571839890E+04  0.30468642367E+04 0.  0.
        5    1    3    3  502    0  0.43170882978E+03 -0.83467275739E+03 -0.18575724541E+04  0.20817417318E+04  0.46999998093E+01 0. -1.
       -5    1    3    3    0  502 -0.43170882978E+03  0.83467275739E+03  0.70610996621E+03  0.11754422572E+04  0.46999998093E+01 0.  1.
</event>
<event>
 5   0  0.1198763E-06  0.3085103E+04  0.7818609E-02  0.8219838E-01
       -1   -1    0    0    0  501  0.00000000000E+00  0.00000000000E+00  0.22485822678E+04  0.22485822678E+04  0.50400001928E-02 0.  1.
        1   -1    0    0  501    0  0.00000000000E+00  0.00000000000E+00 -0.10582069381E+04  0.10582069382E+04  0.50400001928E-02 0. -1.
    10030    2    1    2    0    0  0.00000000000E+00  0.00000000000E+00  0.11903753297E+04  0.33067892060E+04  0.30851031470E+04 0.  0.
        1    1    3    3  502    0  0.12798312180E+04 -0.27755700850E+03 -0.27852993835E+03  0.13388744400E+04  0.50400001928E-02 0.  1.
       -1    1    3    3    0  502 -0.12798312180E+04  0.27755700850E+03  0.14689052680E+04  0.19679147660E+04  0.50400001928E-02 0. -1.
</event>
<event>
 5   0  0.1171915E-06  0.2999130E+04  0.7818609E-02  0.8243979E-01
       -1   -1    0    0    0  501  0.00000000000E+00  0.00000000000E+00  0.11834780585E+04  0.11834780586E+04  0.50400001928E-02 0.  1.
        1   -1    0    0  501    0  0.00000000000E+00  0.00000000000E+00 -0.19000738020E+04  0.19000738020E+04  0.50400001928E-02 0. -1.
    10030    2    1    2    0    0  0.00000000000E+00  0.00000000000E+00 -0.71659574348E+03  0.30835518606E+04  0.29991303102E+04 0.  0.
        2    1    3    3  502    0  0.46439618701E+03  0.84184794774E+03  0.82488813383E+03  0.12668118325E+04  0.25500000920E-02 0.  1.
       -2    1    3    3    0  502 -0.46439618701E+03 -0.84184794774E+03 -0.15414838773E+04  0.18167400281E+04  0.25500000920E-02 0. -1.
</event>
<event>
 5   0  0.3445959E-06  0.3137324E+04  0.7818609E-02  0.8205569E-01
        2   -1    0    0  501    0  0.00000000000E+00  0.00000000000E+00  0.12857420450E+04  0.12857420450E+04  0.25500000920E-02 0.  1.
       -2   -1    0    0    0  501  0.00000000000E+00  0.00000000000E+00 -0.19138372076E+04  0.19138372076E+04  0.25500000920E-02 0. -1.
    10030    2    1    2    0    0  0.00000000000E+00  0.00000000000E+00 -0.62809516256E+03  0.31995792526E+04  0.31373243155E+04 0.  0.
        4    1    3    3  502    0  0.14656913061E+04 -0.55533484570E+03 -0.24913267763E+03  0.15870464705E+04  0.12699999809E+01 0.  1.
       -4    1    3    3    0  502 -0.14656913061E+04  0.55533484570E+03 -0.37896248493E+03  0.16125327821E+04  0.12699999809E+01 0. -1.
</event>
<event>
 5   0  0.3445959E-06  0.3118541E+04  0.7818609E-02  0.8210668E-01
        2   -1    0    0  501    0  0.00000000000E+00  0.00000000000E+00  0.27024314261E+04  0.27024314261E+04  0.25500000920E-02 0. -1.
       -2   -1    0    0    0  501  0.00000000000E+00  0.00000000000E+00 -0.89968034035E+03  0.89968034035E+03  0.25500000920E-02 0.  1.
    10030    2    1    2    0    0  0.00000000000E+00  0.00000000000E+00  0.18027510857E+04  0.36021117665E+04  0.31185409571E+04 0.  0.
        4    1    3    3  502    0  0.87480308028E+03 -0.72619684185E+02  0.23899148792E+04  0.25460260781E+04  0.12699999809E+01 0. -1.
       -4    1    3    3    0  502 -0.87480308028E+03  0.72619684185E+02 -0.58716379347E+03  0.10560856883E+04  0.12699999809E+01 0.  1.
</event>
<event>
 5   0  0.3374790E-06  0.3272592E+04  0.7818609E-02  0.8169905E-01
       -2   -1    0    0    0  501  0.00000000000E+00  0.00000000000E+00  0.89721409171E+03  0.89721409172E+03  0.25500000920E-02 0.  1.
        2   -1    0    0  501    0  0.00000000000E+00  0.00000000000E+00 -0.29841980994E+04  0.29841980994E+04  0.25500000920E-02 0. -1.
    10030    2    1    2    0    0  0.00000000000E+00  0.00000000000E+00 -0.20869840077E+04  0.38814121911E+04  0.32725919924E+04 0.  0.
        2    1    3    3  502    0 -0.16223957297E+04  0.68917111021E+02 -0.12823159568E+04  0.20691185769E+04  0.25500000920E-02 0. -1.
       -2    1    3    3    0  502  0.16223957297E+04 -0.68917111021E+02 -0.80466805083E+03  0.18122936142E+04  0.25500000920E-02 0.  1.
</event>
<event>
 5   0  0.3445410E-06  0.3092802E+04  0.7818609E-02  0.8217716E-01
        2   -1    0    0  501    0  0.00000000000E+00  0.00000000000E+00  0.19638645290E+04  0.19638645290E+04  0.25500000920E-02 0. -1.
       -2   -1    0    0    0  501  0.00000000000E+00  0.00000000000E+00 -0.12176786076E+04  0.12176786076E+04  0.25500000920E-02 0.  1.
    10030    2    1    2    0    0  0.00000000000E+00  0.00000000000E+00  0.74618592144E+03  0.31815431367E+04  0.30928018529E+04 0.  0.
        1    1    3    3  502    0  0.11077667767E+04 -0.86343158344E+03 -0.29253927211E+03  0.14346569473E+04  0.50400001928E-02 0.  1.
       -1    1    3    3    0  502 -0.11077667767E+04  0.86343158344E+03  0.10387251936E+04  0.17468861893E+04  0.50400001928E-02 0. -1.
</event>
<event>
 5   0  0.3445959E-06  0.3089780E+04  0.7818609E-02  0.8218548E-01
       -2   -1    0    0    0  501  0.00000000000E+00  0.00000000000E+00  0.96403132332E+03  0.96403132333E+03  0.25500000920E-02 0. -1.
        2   -1    0    0  501    0  0.00000000000E+00  0.00000000000E+00 -0.24757346177E+04  0.24757346177E+04  0.25500000920E-02 0.  1.
    10030    2    1    2    0    0  0.00000000000E+00  0.00000000000E+00 -0.15117032944E+04  0.34397659410E+04  0.30897803933E+04 0.  0.
        4    1    3    3  502    0 -0.82556679543E+03  0.97595349849E+02  0.69379721551E+03  0.10827934130E+04  0.12699999809E+01 0. -1.
       -4    1    3    3    0  502  0.82556679543E+03 -0.97595349849E+02 -0.22055005099E+04  0.23569725280E+04  0.12699999809E+01 0.  1.
</event>
<event>
 5   0  0.3340899E-06  0.3079761E+04  0.7818609E-02  0.8221314E-01
        2   -1    0    0  501    0  0.00000000000E+00  0.00000000000E+00  0.11045125471E+04  0.11045125471E+04  0.25500000920E-02 0. -1.
       -2   -1    0    0    0  501  0.00000000000E+00  0.00000000000E+00 -0.21468579712E+04  0.21468579712E+04  0.25500000920E-02 0.  1.
    10030    2    1    2    0    0  0.00000000000E+00  0.00000000000E+00 -0.10423454241E+04  0.32513705182E+04  0.30797607478E+04 0.  0.
        3    1    3    3  502    0  0.11168713204E+03  0.93921334947E+03 -0.18040531541E+04  0.20369593821E+04  0.10100000352E+00 0.  1.
       -3    1    3    3    0  502 -0.11168713204E+03 -0.93921334947E+03  0.76170773004E+03  0.12144111361E+04  0.10100000352E+00 0. -1.
</event>
<event>
 5   0  0.1211008E-06  0.3103047E+04  0.7818609E-02  0.8214902E-01
        1   -1    0    0  501    0  0.00000000000E+00  0.00000000000E+00  0.18967944651E+04  0.18967944651E+04  0.50400001928E-02 0. -1.
       -1   -1    0    0    0  501  0.00000000000E+00  0.00000000000E+00 -0.12691015018E+04  0.12691015018E+04  0.50400001928E-02 0.  1.
    10030    2    1    2    0    0  0.00000000000E+00  0.00000000000E+00  0.62769296325E+03  0.31658959669E+04  0.31030466992E+04 0.  0.
        3    1    3    3  502    0  0.60517544933E+03  0.14283009481E+04  0.28250339728E+03  0.15767336815E+04  0.10100000352E+00 0.  1.
       -3    1    3    3    0  502 -0.60517544933E+03 -0.14283009481E+04  0.34518956596E+03  0.15891622854E+04  0.10100000352E+00 0. -1.
</event>
<event>
 5   0  0.1211008E-06  0.3074790E+04  0.7818609E-02  0.8222691E-01
        1   -1    0    0  501    0  0.00000000000E+00  0.00000000000E+00  0.18684255932E+04  0.18684255932E+04  0.50400001928E-02 0. -1.
       -1   -1    0    0    0  501  0.00000000000E+00  0.00000000000E+00 -0.12650132715E+04  0.12650132715E+04  0.50400001928E-02 0.  1.
    10030    2    1    2    0    0  0.00000000000E+00  0.00000000000E+00  0.60341232176E+03  0.31334388647E+04  0.30747898609E+04 0.  0.
        3    1    3    3  502    0 -0.97150268316E+03  0.11547174861E+03 -0.90684530927E+03  0.13339863617E+04  0.10100000352E+00 0.  1.
       -3    1    3    3    0  502  0.97150268316E+03 -0.11547174861E+03  0.15102576310E+04  0.17994525030E+04  0.10100000352E+00 0. -1.
</event>
<event>
 5   0  0.1235960E-06  0.2952620E+04  0.7818609E-02  0.8257391E-01
       -1   -1    0    0    0  501  0.00000000000E+00  0.00000000000E+00  0.16510204756E+04  0.16510204756E+04  0.50400001928E-02 0.  1.
        1   -1    0    0  501    0  0.00000000000E+00  0.00000000000E+00 -0.13200871113E+04  0.13200871113E+04  0.50400001928E-02 0. -1.
    10030    2    1    2    0    0  0.00000000000E+00  0.00000000000E+00  0.33093336434E+03  0.29711075869E+04  0.29526197522E+04 0.  0.
        4    1    3    3  502    0 -0.60635547208E+03  0.34357706125E+03 -0.11441342747E+04  0.13396854134E+04  0.12699999809E+01 0. -1.
       -4    1    3    3    0  502  0.60635547208E+03 -0.34357706125E+03  0.14750676390E+04  0.16314221735E+04  0.12699999809E+01 0.  1.
</event>
<event>
 5   0  0.1198763E-06  0.2519603E+04  0.7818609E-02  0.8396035E-01
        1   -1    0    0  501    0  0.00000000000E+00  0.00000000000E+00  0.11872176284E+04  0.11872176284E+04  0.50400001928E-02 0. -1.
       -1   -1    0    0    0  501  0.00000000000E+00  0.00000000000E+00 -0.13368233431E+04  0.13368233431E+04  0.50400001928E-02 0.  1.
    10030    2    1    2    0    0  0.00000000000E+00  0.00000000000E+00 -0.14960571463E+03  0.25240409715E+04  0.25196033331E+04 0.  0.
        1    1    3    3  502    0  0.45434527610E+03  0.10325398754E+04 -0.63662215764E+03  0.12953208081E+04  0.50400001928E-02 0.  1.
       -1    1    3    3    0  502 -0.45434527610E+03 -0.10325398754E+04  0.48701644301E+03  0.12287201634E+04  0.50400001928E-02 0. -1.
</event>
<event>
 5   0  0.3445410E-06  0.3110362E+04  0.7818609E-02  0.8212900E-01
       -2   -1    0    0    0  501  0.00000000000E+00  0.00000000000E+00  0.14531359333E+04  0.14531359333E+04  0.25500000920E-02 0. -1.
        2   -1    0    0  501    0  0.00000000000E+00  0.00000000000E+00 -0.16643917201E+04  0.16643917201E+04  0.25500000920E-02 0.  1.
    10030    2    1    2    0    0  0.00000000000E+00  0.00000000000E+00 -0.21125578679E+03  0.31175276534E+04  0.31103616610E+04 0.  0.
        1    1    3    3  502    0 -0.13123944788E+04 -0.22123569128E+03  0.70075217992E+03  0.15041203798E+04  0.50400001928E-02 0. -1.
       -1    1    3    3    0  502  0.13123944788E+04  0.22123569128E+03 -0.91200796671E+03  0.16134072736E+04  0.50400001928E-02 0.  1.
</event>
<event>
 5   0  0.3445959E-06  0.3086120E+04  0.7818609E-02  0.8219558E-01
        2   -1    0    0  501    0  0.00000000000E+00  0.00000000000E+00  0.18445072477E+04  0.18445072477E+04  0.25500000920E-02 0.  1.
       -2   -1    0    0    0  501  0.00000000000E+00  0.00000000000E+00 -0.12908778245E+04  0.12908778245E+04  0.25500000920E-02 0. -1.
    10030    2    1    2    0    0  0.00000000000E+00  0.00000000000E+00  0.55362942324E+03  0.31353850722E+04  0.30861195720E+04 0.  0.
        4    1    3    3  502    0  0.47012864907E+03  0.76047787994E+03 -0.10009122074E+04  0.13420783927E+04  0.12699999809E+01 0. -1.
       -4    1    3    3    0  502 -0.47012864907E+03 -0.76047787994E+03  0.15545416306E+04  0.17933066795E+04  0.12699999809E+01 0.  1.
</event>
<event>
 5   0  0.3374790E-06  0.3100869E+04  0.7818609E-02  0.8215500E-01
       -2   -1    0    0    0  501  0.00000000000E+00  0.00000000000E+00  0.24586451302E+04  0.24586451302E+04  0.25500000920E-02 0.  1.
        2   -1    0    0  501    0  0.00000000000E+00  0.00000000000E+00 -0.97771200947E+03  0.97771200948E+03  0.25500000920E-02 0. -1.
    10030    2    1    2    0    0  0.00000000000E+00  0.00000000000E+00  0.14809331208E+04  0.34363571397E+04  0.31008688272E+04 0.  0.
        2    1    3    3  502    0  0.11655745986E+04 -0.99617049934E+03  0.48551727847E+03  0.16083055793E+04  0.25500000920E-02 0.  1.
       -2    1    3    3    0  502 -0.11655745986E+04  0.99617049934E+03  0.99541584229E+03  0.18280515605E+04  0.25500000920E-02 0. -1.
</event>
<event>
 5   0  0.1250276E-06  0.3065191E+04  0.7818609E-02  0.8225356E-01
       -1   -1    0    0    0  501  0.00000000000E+00  0.00000000000E+00  0.20103085416E+04  0.20103085416E+04  0.50400001928E-02 0.  1.
        1   -1    0    0  501    0  0.00000000000E+00  0.00000000000E+00 -0.11684018727E+04  0.11684018727E+04  0.50400001928E-02 0. -1.
    10030    2    1    2    0    0  0.00000000000E+00  0.00000000000E+00  0.84190666887E+03  0.31787104144E+04  0.30651905421E+04 0.  0.
        5    1    3    3  502    0 -0.27097931181E+03  0.84017720672E+03  0.17201471992E+04  0.19334570083E+04  0.46999998093E+01 0.  1.
       -5    1    3    3    0  502  0.27097931181E+03 -0.84017720672E+03 -0.87824053033E+03  0.12452534060E+04  0.46999998093E+01 0. -1.
</event>
<event>
 5   0  0.1211008E-06  0.2765339E+04  0.7818609E-02  0.8314111E-01
        1   -1    0    0  501    0  0.00000000000E+00  0.00000000000E+00  0.14791962552E+04  0.14791962552E+04  0.50400001928E-02 0.  1.
       -1   -1    0    0    0  501  0.00000000000E+00  0.00000000000E+00 -0.12924419965E+04  0.12924419965E+04  0.50400001928E-02 0. -1.
    10030    2    1    2    0    0  0.00000000000E+00  0.00000000000E+00  0.18675425863E+03  0.27716382517E+04  0.27653393002E+04 0.  0.
        3    1    3    3  502    0 -0.43083089105E+03  0.17833576476E+03 -0.12112623329E+04  0.12979119196E+04  0.10100000352E+00 0. -1.
       -3    1    3    3    0  502  0.43083089105E+03 -0.17833576476E+03  0.13980165915E+04  0.14737263321E+04  0.10100000352E+00 0.  1.
</event>
<event>
 5   0  0.3445410E-06  0.3202739E+04  0.7818609E-02  0.8188094E-01
        2   -1    0    0  501    0  0.00000000000E+00  0.00000000000E+00  0.18568018538E+04  0.18568018538E+04  0.25500000920E-02 0.  1.
       -2   -1    0    0    0  501  0.00000000000E+00  0.00000000000E+00 -0.13810758859E+04  0.13810758859E+04  0.25500000920E-02 0. -1.
    10030    2    1    2    0    0  0.00000000000E+00  0.00000000000E+00  0.47572596789E+03  0.32378777398E+04  0.32027389936E+04 0.  0.
        1    1    3    3  502    0  0.15711972736E+04 -0.70593858377E+02  0.54239856813E+03  0.16636828340E+04  0.50400001928E-02 0.  1.
       -1    1    3    3    0  502 -0.15711972736E+04  0.70593858377E+02 -0.66672600248E+02  0.15741949057E+04  0.50400001928E-02 0. -1.
</event>
<event>
 5   0  0.1235960E-06  0.2618039E+04  0.7818609E-02  0.8362100E-01
       -1   -1    0    0    0  501  0.00000000000E+00  0.00000000000E+00  0.15906773789E+04  0.15906773789E+04  0.50400001928E-02 0.  1.
        1   -1    0    0  501    0  0.00000000000E+00  0.00000000000E+00 -0.10772340511E+04  0.10772340511E+04  0.50400001928E-02 0. -1.
    10030    2    1    2    0    0  0.00000000000E+00  0.00000000000E+00  0.51344332778E+03  0.26679114300E+04  0.26180388361E+04 0.  0.
        4    1    3    3  502    0  0.77589154483E+03  0.20739582067E+03  0.13101003304E+04  0.15366799291E+04  0.12699999809E+01 0.  1.
       -4    1    3    3    0  502 -0.77589154483E+03 -0.20739582067E+03 -0.79665700267E+03  0.11312315009E+04  0.12699999809E+01 0. -1.
</event>
<event>
 5   0  0.1211008E-06  0.3099180E+04  0.7818609E-02  0.8215963E-01
       -1   -1    0    0    0  501  0.00000000000E+00  0.00000000000E+00  0.15035762124E+04  0.15035762124E+04  0.50400001928E-02 0. -1.
        1   -1    0    0  501    0  0.00000000000E+00  0.00000000000E+00 -0.15970124113E+04  0.15970124113E+04  0.50400001928E-02 0.  1.
    10030    2    1    2    0    0  0.00000000000E+00  0.00000000000E+00 -0.93436198831E+02  0.31005886237E+04  0.30991804546E+04 0.  0.
        3    1    3    3  502    0 -0.32185829690E+03 -0.40202752737E+03  0.14154557884E+04  0.15062317203E+04  0.10100000352E+00 0. -1.
       -3    1    3    3    0  502  0.32185829690E+03  0.40202752737E+03 -0.15088919873E+04  0.15943569034E+04  0.10100000352E+00 0.  1.
</event>
<event>
 5   0  0.1198763E-06  0.3086919E+04  0.7818609E-02  0.8219337E-01
        1   -1    0    0  501    0  0.00000000000E+00  0.00000000000E+00  0.26491556885E+04  0.26491556885E+04  0.50400001928E-02 0. -1.
       -1   -1    0    0    0  501  0.00000000000E+00  0.00000000000E+00 -0.89925538339E+03  0.89925538341E+03  0.50400001928E-02 0.  1.
    10030    2    1    2    0    0  0.00000000000E+00  0.00000000000E+00  0.17499003051E+04  0.35484110719E+04  0.30869191854E+04 0.  0.
        1    1    3    3  502    0  0.41968802662E+02  0.13692716873E+04  0.16923088820E+04  0.21772863124E+04  0.50400001928E-02 0.  1.
       -1    1    3    3    0  502 -0.41968802662E+02 -0.13692716873E+04  0.57591423104E+02  0.13711247595E+04  0.50400001928E-02 0. -1.
</event>
<event>
 5   0  0.1250276E-06  0.3065110E+04  0.7818609E-02  0.8225379E-01
        1   -1    0    0  501    0  0.00000000000E+00  0.00000000000E+00  0.16675826520E+04  0.16675826520E+04  0.50400001928E-02 0. -1.
       -1   -1    0    0    0  501  0.00000000000E+00  0.00000000000E+00 -0.14084605266E+04  0.14084605266E+04  0.50400001928E-02 0.  1.
    10030    2    1    2    0    0  0.00000000000E+00  0.00000000000E+00  0.25912212537E+03  0.30760431787E+04  0.30651096817E+04 0.  0.
        5    1    3    3  502    0 -0.77202212967E+03 -0.12775580254E+03  0.14519725434E+04  0.16494199195E+04  0.46999998093E+01 0. -1.
       -5    1    3    3    0  502  0.77202212967E+03  0.12775580254E+03 -0.11928504181E+04  0.14266232592E+04  0.46999998093E+01 0.  1.
</event>
<event>
 5   0  0.1211008E-06  0.3135790E+04  0.7818609E-02  0.8205984E-01
       -1   -1    0    0    0  501  0.00000000000E+00  0.00000000000E+00  0.14332558855E+04  0.14332558855E+04  0.50400001928E-02 0. -1.
        1   -1    0    0  501    0  0.00000000000E+00  0.00000000000E+00 -0.17151824228E+04  0.17151824228E+04  0.50400001928E-02 0.  1.
    10030    2    1    2    0    0  0.00000000000E+00  0.00000000000E+00 -0.28192653732E+03  0.31484383083E+04  0.31357903643E+04 0.  0.
        3    1    3    3  502    0  0.30555419939E+03 -0.12955500332E+04  0.69092069954E+03  0.14997282023E+04  0.10100000352E+00 0. -1.
       -3    1    3    3    0  502 -0.30555419939E+03  0.12955500332E+04 -0.97284723686E+03  0.16487101061E+04  0.10100000352E+00 0.  1.
</event>
<event>
 5   0  0.3445959E-06  0.3065653E+04  0.7818609E-02  0.8225228E-01
       -2   -1    0    0    0  501  0.00000000000E+00  0.00000000000E+00  0.18706835665E+04  0.18706835665E+04  0.25500000920E-02 0.  1.
        2   -1    0    0  501    0  0.00000000000E+00  0.00000000000E+00 -0.12559886417E+04  0.12559886417E+04  0.25500000920E-02 0. -1.
    10030    2    1    2    0    0  0.00000000000E+00  0.00000000000E+00  0.61469492487E+03  0.31266722082E+04  0.30656531518E+04 0.  0.
        4    1    3    3  502    0  0.11258343825E+04  0.32024414255E+03 -0.70204659364E+03  0.13648920837E+04  0.12699999809E+01 0. -1.
       -4    1    3    3    0  502 -0.11258343825E+04 -0.32024414255E+03  0.13167415185E+04  0.17617801245E+04  0.12699999809E+01 0.  1.
</event>
<event>
 5   0  0.3445410E-06  0.3051851E+04  0.7818609E-02  0.8229078E-01
        2   -1    0    0  501    0  0.00000000000E+00  0.00000000000E+00  0.17617395180E+04  0.17617395180E+04  0.25500000920E-02 0.  1.
       -2   -1    0    0    0  501  0.00000000000E+00  0.00000000000E+00 -0.13216756715E+04  0.13216756715E+04  0.25500000920E-02 0. -1.
    10030    2    1    2    0    0  0.00000000000E+00  0.00000000000E+00  0.44006384647E+03  0.30834151895E+04  0.30518507569E+04 0.  0.
        1    1    3    3  502    0  0.97793647540E+03 -0.26123949195E+02  0.14032144470E+04  0.17105709558E+04  0.50400001928E-02 0.  1.
       -1    1    3    3    0  502 -0.97793647540E+03  0.26123949195E+02 -0.96315060054E+03  0.13728442337E+04  0.50400001928E-02 0. -1.
</event>
<event>
 5   0  0.1235960E-06  0.3100431E+04  0.7818609E-02  0.8215620E-01
       -1   -1    0    0    0  501  0.00000000000E+00  0.00000000000E+00  0.11342214613E+04  0.11342214613E+04  0.50400001928E-02 0.  1.
        1   -1    0    0  501    0  0.00000000000E+00  0.00000000000E+00 -0.21187815168E+04  0.21187815168E+04  0.50400001928E-02 0. -1.
    10030    2    1    2    0    0  0.00000000000E+00  0.00000000000E+00 -0.98456005547E+03  0.32530029781E+04  0.31004305947E+04 0.  0.
        4    1    3    3  502    0  0.14701125370E+04 -0.34032267992E+03 -0.86488325009E+03  0.17392742875E+04  0.12699999809E+01 0. -1.
       -4    1    3    3    0  502 -0.14701125370E+04  0.34032267992E+03 -0.11967680538E+03  0.15137286906E+04  0.12699999809E+01 0.  1.
</event>
<event>
 5   0  0.3441897E-06  0.3027867E+04  0.7818609E-02  0.8235818E-01
       -2   -1    0    0    0  501  0.00000000000E+00  0.00000000000E+00  0.10216474828E+04  0.10216474828E+04  0.25500000920E-02 0. -1.
        2   -1    0    0  501    0  0.00000000000E+00  0.00000000000E+00 -0.22434294175E+04  0.22434294175E+04  0.25500000920E-02 0.  1.
    10030    2    1    2    0    0  0.00000000000E+00  0.00000000000E+00 -0.12217819347E+04  0.32650769003E+04  0.30278665871E+04 0.  0.
        5    1    3    3  502    0  0.29835608270E+02  0.10785561468E+04  0.53428550369E+03  0.12040168664E+04  0.46999998093E+01 0. -1.
       -5    1    3    3    0  502 -0.29835608270E+02 -0.10785561468E+04 -0.17560674384E+04  0.20610600339E+04  0.46999998093E+01 0.  1.
</event>
<event>
 5   0  0.1235960E-06  0.3113894E+04  0.7818609E-02  0.8211935E-01
        1   -1    0    0  501    0  0.00000000000E+00  0.00000000000E+00  0.85912662102E+03  0.85912662103E+03  0.50400001928E-02 0.  1.
       -1   -1    0    0    0  501  0.00000000000E+00  0.00000000000E+00 -0.28215685372E+04  0.28215685372E+04  0.50400001928E-02 0. -1.
    10030    2    1    2    0    0  0.00000000000E+00  0.00000000000E+00 -0.19624419162E+04  0.36806951582E+04  0.31138944384E+04 0.  0.
        4    1    3    3  502    0  0.69020292877E+03  0.86034645255E+03  0.31766427648E+03  0.11478189347E+04  0.12699999809E+01 0.  1.
       -4    1    3    3    0  502 -0.69020292877E+03 -0.86034645255E+03 -0.22801061926E+04  0.25328762236E+04  0.12699999809E+01 0. -1.
</event>
<event>
 5   0  0.1198763E-06  0.3104538E+04  0.7818609E-02  0.8214494E-01
        1   -1    0    0  501    0  0.00000000000E+00  0.00000000000E+00  0.17209782276E+04  0.17209782277E+04  0.50400001928E-02 0. -1.
       -1   -1    0    0    0  501  0.00000000000E+00  0.00000000000E+00 -0.14000982694E+04  0.14000982694E+04  0.50400001928E-02 0.  1.
    10030    2    1    2    0    0  0.00000000000E+00  0.00000000000E+00  0.32087995826E+03  0.31210764970E+04  0.31045377358E+04 0.  0.
        1    1    3    3  502    0 -0.44442026700E+03  0.10676749681E+03 -0.13309148383E+04  0.14072110641E+04  0.50400001928E-02 0.  1.
       -1    1    3    3    0  502  0.44442026700E+03 -0.10676749681E+03  0.16517947966E+04  0.17138654329E+04  0.50400001928E-02 0. -1.
</event>
<event>
 5   0  0.1198763E-06  0.3182221E+04  0.7818609E-02  0.8193528E-01
       -1   -1    0    0    0  501  0.00000000000E+00  0.00000000000E+00  0.13635566203E+04  0.13635566203E+04  0.50400001928E-02 0. -1.
        1   -1    0    0  501    0  0.00000000000E+00  0.00000000000E+00 -0.18566395080E+04  0.18566395080E+04  0.50400001928E-02 0.  1.
    10030    2    1    2    0    0  0.00000000000E+00  0.00000000000E+00 -0.49308288768E+03  0.32201961284E+04  0.31822212951E+04 0.  0.
        1    1    3    3  502    0  0.97348356943E+03 -0.12475325536E+04 -0.41473367148E+03  0.16358519953E+04  0.50400001928E-02 0. -1.
       -1    1    3    3    0  502 -0.97348356943E+03  0.12475325536E+04 -0.78349216191E+02  0.15843441331E+04  0.50400001928E-02 0.  1.
</event>
<event>
 5   0  0.1211008E-06  0.2762903E+04  0.7818609E-02  0.8314879E-01
       -1   -1    0    0    0  501  0.00000000000E+00  0.00000000000E+00  0.10319765498E+04  0.10319765498E+04  0.50400001928E-02 0. -1.
        1   -1    0    0  501    0  0.00000000000E+00  0.00000000000E+00 -0.18492747696E+04  0.18492747696E+04  0.50400001928E-02 0.  1.
    10030    2    1    2    0    0  0.00000000000E+00  0.00000000000E+00 -0.81729821978E+03  0.28812513195E+04  0.27629029635E+04 0.  0.
        3    1    3    3  502    0  0.69063062448E+03  0.34670892429E+03 -0.16027884942E+04  0.17793562614E+04  0.10100000352E+00 0.  1.
       -3    1    3    3    0  502 -0.69063062448E+03 -0.34670892429E+03  0.78549027440E+03  0.11018950581E+04  0.10100000352E+00 0. -1.
</event>
<event>
 5   0  0.3441897E-06  0.3084100E+04  0.7818609E-02  0.8220115E-01
       -2   -1    0    0    0  501  0.00000000000E+00  0.00000000000E+00  0.10282783435E+04  0.10282783435E+04  0.25500000920E-02 0. -1.
        2   -1    0    0  501    0  0.00000000000E+00  0.00000000000E+00 -0.23125233920E+04  0.23125233920E+04  0.25500000920E-02 0.  1.
    10030    2    1    2    0    0  0.00000000000E+00  0.00000000000E+00 -0.12842450486E+04  0.33408017355E+04  0.30840996889E+04 0.  0.
        5    1    3    3  502    0 -0.58986653474E+03 -0.14240088368E+04 -0.59187241265E+03  0.16510841102E+04  0.46999998093E+01 0. -1.
       -5    1    3    3    0  502  0.58986653474E+03  0.14240088368E+04 -0.69237263590E+03  0.16897176253E+04  0.46999998093E+01 0.  1.
</event>
<event>
 5   0  0.3445410E-06  0.3116927E+04  0.7818609E-02  0.8211108E-01
        2   -1    0    0  501    0  0.00000000000E+00  0.00000000000E+00  0.11263604618E+04  0.11263604618E+04  0.25500000920E-02 0. -1.
       -2   -1    0    0    0  501  0.00000000000E+00  0.00000000000E+00 -0.21563331843E+04  0.21563331843E+04  0.25500000920E-02 0.  1.
    10030    2    1    2    0    0  0.00000000000E+00  0.00000000000E+00 -0.10299727225E+04  0.32826936460E+04  0.31169269745E+04 0.  0.
        1    1    3    3  502    0 -0.71156800590E+03 -0.98496027720E+03 -0.15427614046E+04  0.19638198813E+04  0.50400001928E-02 0.  1.
       -1    1    3    3    0  502  0.71156800590E+03  0.98496027720E+03  0.51278868211E+03  0.13188737647E+04  0.50400001928E-02 0. -1.
</event>
<event>
 5   0  0.1235960E-06  0.3077784E+04  0.7818609E-02  0.8221862E-01
        1   -1    0    0  501    0  0.00000000000E+00  0.00000000000E+00  0.14277558690E+04  0.14277558691E+04  0.50400001928E-02 0. -1.
       -1   -1    0    0    0  501  0.00000000000E+00  0.00000000000E+00 -0.16586786713E+04  0.16586786713E+04  0.50400001928E-02 0.  1.
    10030    2    1    2    0    0  0.00000000000E+00  0.00000000000E+00 -0.23092280220E+03  0.30864345403E+04  0.30777837531E+04 0.  0.
        4    1    3    3  502    0  0.65404549465E+03  0.13921211703E+04 -0.16468840728E+03  0.15469003673E+04  0.12699999809E+01 0.  1.
       -4    1    3    3    0  502 -0.65404549465E+03 -0.13921211703E+04 -0.66234394925E+02  0.15395341730E+04  0.12699999809E+01 0. -1.
</event>
<event>
 5   0  0.1211008E-06  0.2618106E+04  0.7818609E-02  0.8362077E-01
        1   -1    0    0  501    0  0.00000000000E+00  0.00000000000E+00  0.25948643395E+04  0.25948643395E+04  0.50400001928E-02 0. -1.
       -1   -1    0    0    0  501  0.00000000000E+00  0.00000000000E+00 -0.66038874564E+03  0.66038874566E+03  0.50400001928E-02 0.  1.
    10030    2    1    2    0    0  0.00000000000E+00  0.00000000000E+00  0.19344755939E+04  0.32552530852E+04  0.26181055795E+04 0.  0.
        3    1    3    3  502    0 -0.75136607296E+03 -0.71516319737E+03  0.19600682781E+04  0.22176286974E+04  0.10100000352E+00 0. -1.
       -3    1    3    3    0  502  0.75136607296E+03  0.71516319737E+03 -0.25592684226E+02  0.10376243878E+04  0.10100000352E+00 0.  1.
</event>
<event>
 5   0  0.3441897E-06  0.3146037E+04  0.7818609E-02  0.8203216E-01
        2   -1    0    0  501    0  0.00000000000E+00  0.00000000000E+00  0.14990148920E+04  0.14990148921E+04  0.25500000920E-02 0.  1.
       -2   -1    0    0    0  501  0.00000000000E+00  0.00000000000E+00 -0.16506752194E+04  0.16506752194E+04  0.25500000920E-02 0. -1.
    10030    2    1    2    0    0  0.00000000000E+00  0.00000000000E+00 -0.15166032737E+03  0.31496901115E+04  0.31460367041E+04 0.  0.
        5    1    3    3  502    0  0.10411352614E+03  0.15424389584E+04 -0.36669651175E+03  0.15888505242E+04  0.46999998093E+01 0.  1.
       -5    1    3    3    0  502 -0.10411352614E+03 -0.15424389584E+04  0.21503618438E+03  0.15608395873E+04  0.46999998093E+01 0. -1.
</event>
<event>
 5   0  0.1211008E-06  0.3111244E+04  0.7818609E-02  0.8212659E-01
        1   -1    0    0  501    0  0.00000000000E+00  0.00000000000E+00  0.19345264072E+04  0.19345264072E+04  0.50400001928E-02 0. -1.
       -1   -1    0    0    0  501  0.00000000000E+00  0.00000000000E+00 -0.12509315650E+04  0.12509315650E+04  0.50400001928E-02 0.  1.
    10030    2    1    2    0    0  0.00000000000E+00  0.00000000000E+00  0.68359484221E+03  0.31854579722E+04  0.31112442181E+04 0.  0.
        3    1    3    3  502    0 -0.16810408878E+03 -0.94299376309E+03 -0.91319124011E+03  0.13234101681E+04  0.10100000352E+00 0.  1.
       -3    1    3    3    0  502  0.16810408878E+03  0.94299376309E+03  0.15967860823E+04  0.18620478041E+04  0.10100000352E+00 0. -1.
</event>
<event>
 5   0  0.1211008E-06  0.3032529E+04  0.7818609E-02  0.8234503E-01
       -1   -1    0    0    0  501  0.00000000000E+00  0.00000000000E+00  0.90359043078E+03  0.90359043080E+03  0.50400001928E-02 0.  1.
        1   -1    0    0  501    0  0.00000000000E+00  0.00000000000E+00 -0.25443579866E+04  0.25443579866E+04  0.50400001928E-02 0. -1.
    10030    2    1    2    0    0  0.00000000000E+00  0.00000000000E+00 -0.16407675558E+04  0.34479484174E+04  0.30325286671E+04 0.  0.
        3    1    3    3  502    0  0.84548679099E+03  0.47392350270E+03 -0.21461361113E+04  0.23548570272E+04  0.10100000352E+00 0. -1.
       -3    1    3    3    0  502 -0.84548679099E+03 -0.47392350270E+03  0.50536855551E+03  0.10930913902E+04  0.10100000352E+00 0.  1.
</event>
<event>
 5   0  0.3445959E-06  0.3109953E+04  0.7818609E-02  0.8213012E-01
        2   -1    0    0  501    0  0.00000000000E+00  0.00000000000E+00  0.26634572207E+04  0.26634572207E+04  0.25500000920E-02 0. -1.
       -2   -1    0    0    0  501  0.00000000000E+00  0.00000000000E+00 -0.90782430522E+03  0.90782430523E+03  0.25500000920E-02 0.  1.
    10030    2    1    2    0    0  0.00000000000E+00  0.00000000000E+00  0.17556329155E+04  0.35712815259E+04  0.31099525404E+04 0.  0.
        4    1    3    3  502    0 -0.63916969847E+03 -0.10194079304E+04  0.20089275159E+04  0.23416920825E+04  0.12699999809E+01 0. -1.
       -4    1    3    3    0  502  0.63916969847E+03  0.10194079304E+04 -0.25329460046E+03  0.12295894435E+04  0.12699999809E+01 0.  1.
</event>
<event>
 5   0  0.3374790E-06  0.3105178E+04  0.7818609E-02  0.8214318E-01
       -2   -1    0    0    0  501  0.00000000000E+00  0.00000000000E+00  0.81162578210E+03  0.81162578211E+03  0.25500000920E-02 0.  1.
        2   -1    0    0  501    0  0.00000000000E+00  0.00000000000E+00 -0.29700055893E+04  0.29700055893E+04  0.25500000920E-02 0. -1.
    10030    2    1    2    0    0  0.00000000000E+00  0.00000000000E+00 -0.21583798072E+04  0.37816313714E+04  0.31051783262E+04 0.  0.
        2    1    3    3  502    0 -0.26765929794E+03 -0.71142504517E+03 -0.27279070610E+04  0.28318269771E+04  0.25500000920E-02 0. -1.
       -2    1    3    3    0  502  0.26765929794E+03  0.71142504517E+03  0.56952725380E+03  0.94980439433E+03  0.25500000920E-02 0.  1.
</event>
<event>
 5   0  0.1171915E-06  0.3118427E+04  0.7818609E-02  0.8210699E-01
       -1   -1    0    0    0  501  0.00000000000E+00  0.00000000000E+00  0.15647188606E+04  0.15647188606E+04  0.50400001928E-02 0. -1.
        1   -1    0    0  501    0  0.00000000000E+00  0.00000000000E+00 -0.15537276718E+04  0.15537276718E+04  0.50400001928E-02 0.  1.
    10030    2    1    2    0    0  0.00000000000E+00  0.00000000000E+00  0.10991188831E+02  0.31184465325E+04  0.31184271628E+04 0.  0.
        2    1    3    3  502    0 -0.78355748269E+02  0.76780428369E+03 -0.13493131570E+04  0.15544481455E+04  0.25500000920E-02 0.  1.
       -2    1    3    3    0  502  0.78355748269E+02 -0.76780428369E+03  0.13603043458E+04  0.15639983870E+04  0.25500000920E-02 0. -1.
</event>
<event>
 5   0  0.3374790E-06  0.3118844E+04  0.7818609E-02  0.8210585E-01
        2   -1    0    0  501    0  0.00000000000E+00  0.00000000000E+00  0.14371149611E+04  0.14371149611E+04  0.25500000920E-02 0.  1.
       -2   -1    0    0    0  501  0.00000000000E+00  0.00000000000E+00 -0.16921381371E+04  0.16921381371E+04  0.25500000920E-02 0. -1.
    10030    2    1    2    0    0  0.00000000000E+00  0.00000000000E+00 -0.25502317597E+03  0.31292530982E+04  0.31188440378E+04 0.  0.
        2    1    3    3  502    0 -0.59909961805E+03 -0.14423391862E+03  0.13097752994E+04  0.14474926979E+04  0.25500000920E-02 0.  1.
       -2    1    3    3    0  502  0.59909961805E+03  0.14423391862E+03 -0.15647984753E+04  0.16817604003E+04  0.25500000920E-02 0. -1.
</event>
<event>
 5   0  0.1171915E-06  0.3124369E+04  0.7818609E-02  0.8209082E-01
       -1   -1    0    0    0  501  0.00000000000E+00  0.00000000000E+00  0.14430873976E+04  0.14430873976E+04  0.50400001928E-02 0.  1.
        1   -1    0    0  501    0  0.00000000000E+00  0.00000000000E+00 -0.16911104503E+04  0.16911104503E+04  0.50400001928E-02 0. -1.
    10030    2    1    2    0    0  0.00000000000E+00  0.00000000000E+00 -0.24802305275E+03  0.31341978479E+04  0.31243688507E+04 0.  0.
        2    1    3    3  502    0  0.14355882954E+04  0.58831928000E+03 -0.30730703773E+03  0.15816039152E+04  0.25500000920E-02 0.  1.
       -2    1    3    3    0  502 -0.14355882954E+04 -0.58831928000E+03  0.59283984982E+02  0.15525939327E+04  0.25500000920E-02 0. -1.
</event>
<event>
 5   0  0.1198763E-06  0.3067078E+04  0.7818609E-02  0.8224832E-01
       -1   -1    0    0    0  501  0.00000000000E+00  0.00000000000E+00  0.14053397107E+04  0.14053397107E+04  0.50400001928E-02 0. -1.
        1   -1    0    0  501    0  0.00000000000E+00  0.00000000000E+00 -0.16734330012E+04  0.16734330012E+04  0.50400001928E-02 0.  1.
    10030    2    1    2    0    0  0.00000000000E+00  0.00000000000E+00 -0.26809329047E+03  0.30787727119E+04  0.30670779904E+04 0.  0.
        1    1    3    3  502    0 -0.11028388999E+04 -0.91453548606E+03 -0.68304430562E+03  0.15871919600E+04  0.50400001928E-02 0.  1.
       -1    1    3    3    0  502  0.11028388999E+04  0.91453548606E+03  0.41495101514E+03  0.14915807519E+04  0.50400001928E-02 0. -1.
</event>
<event>
 5   0  0.3374790E-06  0.3229474E+04  0.7818609E-02  0.8181076E-01
       -2   -1    0    0    0  501  0.00000000000E+00  0.00000000000E+00  0.11374555039E+04  0.11374555039E+04  0.25500000920E-02 0. -1.
        2   -1    0    0  501    0  0.00000000000E+00  0.00000000000E+00 -0.22922881958E+04  0.22922881958E+04  0.25500000920E-02 0.  1.
    10030    2    1    2    0    0  0.00000000000E+00  0.00000000000E+00 -0.11548326919E+04  0.34297436997E+04  0.32294741522E+04 0.  0.
        2    1    3    3  502    0 -0.86715349459E+03  0.51846829262E+03 -0.19151360425E+04  0.21652968884E+04  0.25500000920E-02 0.  1.
       -2    1    3    3    0  502  0.86715349459E+03 -0.51846829262E+03  0.76030335063E+03  0.12644468113E+04  0.25500000920E-02 0. -1.
</event>
<event>
 5   0  0.3445959E-06  0.3078154E+04  0.7818609E-02  0.8221759E-01
       -2   -1    0    0    0  501  0.00000000000E+00  0.00000000000E+00  0.94994933065E+03  0.94994933066E+03  0.25500000920E-02 0.  1.
        2   -1    0    0  501    0  0.00000000000E+00  0.00000000000E+00 -0.24935619874E+04  0.24935619874E+04  0.25500000920E-02 0. -1.
    10030    2    1    2    0    0  0.00000000000E+00  0.00000000000E+00 -0.15436126568E+04  0.34435113181E+04  0.30781536940E+04 0.  0.
        4    1    3    3  502    0  0.55766904359E+03  0.13771969850E+04 -0.12208049488E+04  0.19230269456E+04  0.12699999809E+01 0. -1.
       -4    1    3    3    0  502 -0.55766904359E+03 -0.13771969850E+04 -0.32280770794E+03  0.15204843724E+04  0.12699999809E+01 0.  1.
</event>
<event>
 5   0  0.3445410E-06  0.3100826E+04  0.7818609E-02  0.8215511E-01
        2   -1    0    0  501    0  0.00000000000E+00  0.00000000000E+00  0.17526063426E+04  0.17526063426E+04  0.25500000920E-02 0.  1.
       -2   -1    0    0    0  501  0.00000000000E+00  0.00000000000E+00 -0.13715458780E+04  0.13715458780E+04  0.25500000920E-02 0. -1.
    10030    2    1    2    0    0  0.00000000000E+00  0.00000000000E+00  0.38106046466E+03  0.31241522206E+04  0.31008256997E+04 0.  0.
        1    1    3    3  502    0 -0.95755549715E+03  0.57613085624E+03  0.12732963983E+04  0.16941437399E+04  0.50400001928E-02 0.  1.
       -1    1    3    3    0  502  0.95755549715E+03 -0.57613085624E+03 -0.89223593360E+03  0.14300084807E+04  0.50400001928E-02 0. -1.
</event>
<event>
 5   0  0.3445410E-06  0.3096465E+04  0.7818609E-02  0.8216709E-01
        2   -1    0    0  501    0  0.00000000000E+00  0.00000000000E+00  0.16708890867E+04  0.16708890867E+04  0.25500000920E-02 0. -1.
       -2   -1    0    0    0  501  0.00000000000E+00  0.00000000000E+00 -0.14345799335E+04  0.14345799335E+04  0.25500000920E-02 0.  1.
    10030    2    1    2    0    0  0.00000000000E+00  0.00000000000E+00  0.23630915324E+03  0.31054690202E+04  0.30964650522E+04 0.  0.
        1    1    3    3  502    0 -0.83751984363E+03 -0.54153890949E+03 -0.10694848157E+04  0.14623616687E+04  0.50400001928E-02 0.  1.
       -1    1    3    3    0  502  0.83751984363E+03  0.54153890949E+03  0.13057939690E+04  0.16431073515E+04  0.50400001928E-02 0. -1.
</event>
<event>
 5   0  0.1171915E-06  0.3047994E+04  0.7818609E-02  0.8230157E-01
       -1   -1    0    0    0  501  0.00000000000E+00  0.00000000000E+00  0.19074477296E+04  0.19074477297E+04  0.50400001928E-02 0.  1.
        1   -1    0    0  501    0  0.00000000000E+00  0.00000000000E+00 -0.12176303484E+04  0.12176303484E+04  0.50400001928E-02 0. -1.
    10030    2    1    2    0    0  0.00000000000E+00  0.00000000000E+00  0.68981738124E+03  0.31250780781E+04  0.30479935982E+04 0.  0.
        2    1    3    3  502    0 -0.90023902894E+03 -0.11872257452E+03 -0.90998996792E+03  0.12855376699E+04  0.25500000920E-02 0. -1.
       -2    1    3    3    0  502  0.90023902894E+03  0.11872257452E+03  0.15998073492E+04  0.18395404082E+04  0.25500000920E-02 0.  1.
</event>
<event>
 5   0  0.1171915E-06  0.3124857E+04  0.7818609E-02  0.8208949E-01
       -1   -1    0    0    0  501  0.00000000000E+00  0.00000000000E+00  0.97532377149E+03  0.97532377151E+03  0.50400001928E-02 0.  1.
        1   -1    0    0  501    0  0.00000000000E+00  0.00000000000E+00 -0.25029465885E+04  0.25029465885E+04  0.50400001928E-02 0. -1.
    10030    2    1    2    0    0  0.00000000000E+00  0.00000000000E+00 -0.15276228170E+04  0.34782703600E+04  0.31248573129E+04 0.  0.
        2    1    3    3  502    0 -0.13971346269E+03 -0.38422880653E+03 -0.24423502673E+04  0.24763332683E+04  0.25500000920E-02 0. -1.
       -2    1    3    3    0  502  0.13971346269E+03  0.38422880653E+03  0.91472745030E+03  0.10019370917E+04  0.25500000920E-02 0.  1.
</event>
<event>
 5   0  0.3445410E-06  0.2949295E+04  0.7818609E-02  0.8258360E-01
        2   -1    0    0  501    0  0.00000000000E+00  0.00000000000E+00  0.19012473049E+04  0.19012473049E+04  0.25500000920E-02 0. -1.
       -2   -1    0    0    0  501  0.00000000000E+00  0.00000000000E+00 -0.11437677877E+04  0.11437677877E+04  0.25500000920E-02 0.  1.
    10030    2    1    2    0    0  0.00000000000E+00  0.00000000000E+00  0.75747951725E+03  0.30450150926E+04  0.29492951183E+04 0.  0.
        1    1    3    3  502    0  0.30618840544E+03 -0.13865619002E+04  0.78949629831E+03  0.16246875539E+04  0.50400001928E-02 0.  1.
       -1    1    3    3    0  502 -0.30618840544E+03  0.13865619002E+04 -0.32016781060E+02  0.14203275387E+04  0.50400001928E-02 0. -1.
</event>
<event>
 5   0  0.3441897E-06  0.3067790E+04  0.7818609E-02  0.8224634E-01
        2   -1    0    0  501    0  0.00000000000E+00  0.00000000000E+00  0.19461893967E+04  0.19461893967E+04  0.25500000920E-02 0.  1.
       -2   -1    0    0    0  501  0.00000000000E+00  0.00000000000E+00 -0.12089437310E+04  0.12089437310E+04  0.25500000920E-02 0. -1.
    10030    2    1    2    0    0  0.00000000000E+00  0.00000000000E+00  0.73724566572E+03  0.31551331276E+04  0.30677897388E+04 0.  0.
        5    1    3    3  502    0 -0.13456729290E+04  0.31721737396E+03 -0.31463263443E+03  0.14179133538E+04  0.46999998093E+01 0. -1.
       -5    1    3    3    0  502  0.13456729290E+04 -0.31721737396E+03  0.10518783001E+04  0.17372197738E+04  0.46999998093E+01 0.  1.
</event>
<event>
 5   0  0.3445959E-06  0.3087048E+04  0.7818609E-02  0.8219302E-01
        2   -1    0    0  501    0  0.00000000000E+00  0.00000000000E+00  0.11932002084E+04  0.11932002084E+04  0.25500000920E-02 0. -1.
       -2   -1    0    0    0  501  0.00000000000E+00  0.00000000000E+00 -0.19967025267E+04  0.19967025267E+04  0.25500000920E-02 0.  1.
    10030    2    1    2    0    0  0.00000000000E+00  0.00000000000E+00 -0.80350231836E+03  0.31899027351E+04  0.30870476970E+04 0.  0.
        4    1    3    3  502    0  0.14790931683E+04  0.43493760690E+03 -0.47891821135E+03  0.16143889211E+04  0.12699999809E+01 0.  1.
       -4    1    3    3    0  502 -0.14790931683E+04 -0.43493760690E+03 -0.32458410701E+03  0.15755138140E+04  0.12699999809E+01 0. -1.
</event>
<event>
 5   0  0.1198763E-06  0.3074766E+04  0.7818609E-02  0.8222697E-01
       -1   -1    0    0    0  501  0.00000000000E+00  0.00000000000E+00  0.21580669312E+04  0.21580669312E+04  0.50400001928E-02 0. -1.
        1   -1    0    0  501    0  0.00000000000E+00  0.00000000000E+00 -0.10952146042E+04  0.10952146042E+04  0.50400001928E-02 0.  1.
    10030    2    1    2    0    0  0.00000000000E+00  0.00000000000E+00  0.10628523270E+04  0.32532815354E+04  0.30747659553E+04 0.  0.
        1    1    3    3  502    0  0.16480130961E+03  0.15074360572E+04  0.26370714226E+03  0.15391765315E+04  0.50400001928E-02 0.  1.
       -1    1    3    3    0  502 -0.16480130961E+03 -0.15074360572E+04  0.79914518477E+03  0.17141050039E+04  0.50400001928E-02 0. -1.
</event>
<event>
 5   0  0.3340899E-06  0.2937739E+04  0.7818609E-02  0.8261737E-01
        2   -1    0    0  501    0  0.00000000000E+00  0.00000000000E+00  0.24707035446E+04  0.24707035446E+04  0.25500000920E-02 0. -1.
       -2   -1    0    0    0  501  0.00000000000E+00  0.00000000000E+00 -0.87326419235E+03  0.87326419235E+03  0.25500000920E-02 0.  1.
    10030    2    1    2    0    0  0.00000000000E+00  0.00000000000E+00  0.15974393523E+04  0.33439677370E+04  0.29377385421E+04 0.  0.
        3    1    3    3  502    0  0.70779607104E+03  0.19803694332E+03 -0.64890299764E+03  0.98044327712E+03  0.10100000352E+00 0.  1.
       -3    1    3    3    0  502 -0.70779607104E+03 -0.19803694332E+03  0.22463423499E+04  0.23635244598E+04  0.10100000352E+00 0. -1.
</event>
<event>
 5   0  0.3445410E-06  0.3074052E+04  0.7818609E-02  0.8222895E-01
       -2   -1    0    0    0  501  0.00000000000E+00  0.00000000000E+00  0.18570680480E+04  0.18570680480E+04  0.25500000920E-02 0. -1.
        2   -1    0    0  501    0  0.00000000000E+00  0.00000000000E+00 -0.12721394850E+04  0.12721394850E+04  0.25500000920E-02 0.  1.
    10030    2    1    2    0    0  0.00000000000E+00  0.00000000000E+00  0.58492856304E+03  0.31292075330E+04  0.30740524330E+04 0.  0.
        1    1    3    3  502    0 -0.38883473678E+03  0.44542029481E+03  0.17366719753E+04  0.18345629565E+04  0.50400001928E-02 0. -1.
       -1    1    3    3    0  502  0.38883473678E+03 -0.44542029481E+03 -0.11517434123E+04  0.12946445765E+04  0.50400001928E-02 0.  1.
</event>
<event>
 5   0  0.1235960E-06  0.3099901E+04  0.7818609E-02  0.8215765E-01
        1   -1    0    0  501    0  0.00000000000E+00  0.00000000000E+00  0.15229658876E+04  0.15229658876E+04  0.50400001928E-02 0. -1.
       -1   -1    0    0    0  501  0.00000000000E+00  0.00000000000E+00 -0.15774134849E+04  0.15774134849E+04  0.50400001928E-02 0.  1.
    10030    2    1    2    0    0  0.00000000000E+00  0.00000000000E+00 -0.54447597329E+02  0.31003793725E+04  0.30999012424E+04 0.  0.
        4    1    3    3  502    0  0.12476907278E+04  0.52715130978E+03 -0.78081507065E+03  0.15634239486E+04  0.12699999809E+01 0.  1.
       -4    1    3    3    0  502 -0.12476907278E+04 -0.52715130978E+03  0.72636747332E+03  0.15369554238E+04  0.12699999809E+01 0. -1.
</event>
<event>
 5   0  0.3340899E-06  0.3087600E+04  0.7818609E-02  0.8219149E-01
        2   -1    0    0  501    0  0.00000000000E+00  0.00000000000E+00  0.21240029311E+04  0.21240029311E+04  0.25500000920E-02 0.  1.
       -2   -1    0    0    0  501  0.00000000000E+00  0.00000000000E+00 -0.11220879712E+04  0.11220879712E+04  0.25500000920E-02 0. -1.
    10030    2    1    2    0    0  0.00000000000E+00  0.00000000000E+00  0.10019149598E+04  0.32460909023E+04  0.30875998056E+04 0.  0.
        3    1    3    3  502    0  0.74386244645E+03  0.84291038971E+03  0.16133282331E+04  0.19663817692E+04  0.10100000352E+00 0.  1.
       -3    1    3    3    0  502 -0.74386244645E+03 -0.84291038971E+03 -0.61141327331E+03  0.12797091331E+04  0.10100000352E+00 0. -1.
</event>
<event>
 5   0  0.3445410E-06  0.3101520E+04  0.7818609E-02  0.8215321E-01
       -2   -1    0    0    0  501  0.00000000000E+00  0.00000000000E+00  0.12295620846E+04  0.12295620846E+04  0.25500000920E-02 0.  1.
        2   -1    0    0  501    0  0.00000000000E+00  0.00000000000E+00 -0.19558647245E+04  0.19558647245E+04  0.25500000920E-02 0. -1.
    10030    2    1    2    0    0  0.00000000000E+00  0.00000000000E+00 -0.72630263992E+03  0.31854268091E+04  0.31015203419E+04 0.  0.
        1    1    3    3  502    0 -0.10444296343E+04  0.93946262739E+03 -0.10377571489E+04  0.17465288974E+04  0.50400001928E-02 0. -1.
       -1    1    3    3    0  502  0.10444296343E+04 -0.93946262739E+03  0.31145450896E+03  0.14388979117E+04  0.50400001928E-02 0.  1.
</event>
<event>
 5   0  0.1171915E-06  0.3086775E+04  0.7818609E-02  0.8219377E-01
        1   -1    0    0  501    0  0.00000000000E+00  0.00000000000E+00  0.10992995432E+04  0.10992995432E+04  0.50400001928E-02 0. -1.
       -1   -1    0    0    0  501  0.00000000000E+00  0.00000000000E+00 -0.21668757982E+04  0.21668757982E+04  0.50400001928E-02 0.  1.
    10030    2    1    2    0    0  0.00000000000E+00  0.00000000000E+00 -0.10675762551E+04  0.32661753414E+04  0.30867753887E+04 0.  0.
        2    1    3    3  502    0  0.16970234473E+03 -0.14787625047E+04 -0.10201838288E+03  0.14919601809E+04  0.25500000920E-02 0.  1.
       -2    1    3    3    0  502 -0.16970234473E+03  0.14787625047E+04 -0.96555787219E+03  0.17742151605E+04  0.25500000920E-02 0. -1.
</event>
<event>
 5   0  0.3441897E-06  0.3123371E+04  0.7818609E-02  0.8209353E-01
        2   -1    0    0  501    0  0.00000000000E+00  0.00000000000E+00  0.25991150605E+04  0.25991150605E+04  0.25500000920E-02 0.  1.
       -2   -1    0    0    0  501  0.00000000000E+00  0.00000000000E+00 -0.93834299811E+03  0.93834299811E+03  0.25500000920E-02 0. -1.
    10030    2    1    2    0    0  0.00000000000E+00  0.00000000000E+00  0.16607720624E+04  0.35374580586E+04  0.31233708831E+04 0.  0.
        5    1    3    3  502    0 -0.44094063469E+03  0.96241839447E+03  0.21307114631E+04  0.23792081116E+04  0.46999998093E+01 0.  1.
       -5    1    3    3    0  502  0.44094063469E+03 -0.96241839447E+03 -0.46993940073E+03  0.11582499470E+04  0.46999998093E+01 0. -1.
</event>
<event>
 5   0  0.1198763E-06  0.3033755E+04  0.7818609E-02  0.8234157E-01
        1   -1    0    0  501    0  0.00000000000E+00  0.00000000000E+00  0.15643456531E+04  0.15643456531E+04  0.50400001928E-02 0.  1.
       -1   -1    0    0    0  501  0.00000000000E+00  0.00000000000E+00 -0.14708499880E+04  0.14708499880E+04  0.50400001928E-02 0. -1.
    10030    2    1    2    0    0  0.00000000000E+00  0.00000000000E+00  0.93495665081E+02  0.30351956411E+04  0.30337552868E+04 0.  0.
        1    1    3    3  502    0  0.88364461215E+03 -0.91216324380E+03 -0.78313269729E+03  0.14920343178E+04  0.50400001928E-02 0.  1.
       -1    1    3    3    0  502 -0.88364461215E+03  0.91216324380E+03  0.87662836237E+03  0.15431613233E+04  0.50400001928E-02 0. -1.
</event>
<event>
 5   0  0.3445410E-06  0.2924742E+04  0.7818609E-02  0.8265554E-01
        2   -1    0    0  501    0  0.00000000000E+00  0.00000000000E+00  0.20743415823E+04  0.20743415823E+04  0.25500000920E-02 0. -1.
       -2   -1    0    0    0  501  0.00000000000E+00  0.00000000000E+00 -0.10309438204E+04  0.10309438204E+04  0.25500000920E-02 0.  1.
    10030    2    1    2    0    0  0.00000000000E+00  0.00000000000E+00  0.10433977619E+04  0.31052854026E+04  0.29247424745E+04 0.  0.
        1    1    3    3  502    0 -0.76642959262E+03 -0.11553584580E+04  0.27952248814E+02  0.13867403561E+04  0.50400001928E-02 0.  1.
       -1    1    3    3    0  502  0.76642959262E+03  0.11553584580E+04  0.10154455131E+04  0.17185450465E+04  0.50400001928E-02 0. -1.
</event>
<event>
 5   0  0.3374790E-06  0.3090821E+04  0.7818609E-02  0.8218261E-01
       -2   -1    0    0    0  501  0.00000000000E+00  0.00000000000E+00  0.18591779460E+04  0.18591779460E+04  0.25500000920E-02 0.  1.
        2   -1    0    0  501    0  0.00000000000E+00  0.00000000000E+00 -0.12845969694E+04  0.12845969694E+04  0.25500000920E-02 0. -1.
    10030    2    1    2    0    0  0.00000000000E+00  0.00000000000E+00  0.57458097662E+03  0.31437749154E+04  0.30908214798E+04 0.  0.
        2    1    3    3  502    0  0.95460941079E+03  0.10381993028E+04 -0.35532270013E+03  0.14544384280E+04  0.25500000920E-02 0. -1.
       -2    1    3    3    0  502 -0.95460941079E+03 -0.10381993028E+04  0.92990367675E+03  0.16893364874E+04  0.25500000920E-02 0.  1.
</event>
<event>
 5   0  0.1250276E-06  0.3187944E+04  0.7818609E-02  0.8192009E-01
       -1   -1    0    0    0  501  0.00000000000E+00  0.00000000000E+00  0.11427870673E+04  0.11427870673E+04  0.50400001928E-02 0. -1.
        1   -1    0    0  501    0  0.00000000000E+00  0.00000000000E+00 -0.22232890721E+04  0.22232890721E+04  0.50400001928E-02 0.  1.
    10030    2    1    2    0    0  0.00000000000E+00  0.00000000000E+00 -0.10805020048E+04  0.33660761394E+04  0.31879435368E+04 0.  0.
        5    1    3    3  502    0  0.10136356878E+03 -0.82659793671E+03  0.89480395429E+03  0.12223890251E+04  0.46999998093E+01 0. -1.
       -5    1    3    3    0  502 -0.10136356878E+03  0.82659793671E+03 -0.19753059591E+04  0.21436871143E+04  0.46999998093E+01 0.  1.
</event>
<event>
 5   0  0.1211008E-06  0.3118680E+04  0.7818609E-02  0.8210630E-01
       -1   -1    0    0    0  501  0.00000000000E+00  0.00000000000E+00  0.18268424438E+04  0.18268424438E+04  0.50400001928E-02 0. -1.
        1   -1    0    0  501    0  0.00000000000E+00  0.00000000000E+00 -0.13310076140E+04  0.13310076140E+04  0.50400001928E-02 0.  1.
    10030    2    1    2    0    0  0.00000000000E+00  0.00000000000E+00  0.49583482979E+03  0.31578500579E+04  0.31186799787E+04 0.  0.
        3    1    3    3  502    0  0.11118820137E+04 -0.54596616086E+03 -0.71117534595E+03  0.14283315596E+04  0.10100000352E+00 0.  1.
       -3    1    3    3    0  502 -0.11118820137E+04  0.54596616086E+03  0.12070101757E+04  0.17295184983E+04  0.10100000352E+00 0. -1.
</event>
<event>
 5   0  0.3340899E-06  0.3071493E+04  0.7818609E-02  0.8223605E-01
        2   -1    0    0  501    0  0.00000000000E+00  0.00000000000E+00  0.14465993358E+04  0.14465993358E+04  0.25500000920E-02 0.  1.
       -2   -1    0    0    0  501  0.00000000000E+00  0.00000000000E+00 -0.16303873433E+04  0.16303873434E+04  0.25500000920E-02 0. -1.
    10030    2    1    2    0    0  0.00000000000E+00  0.00000000000E+00 -0.18378800756E+03  0.30769866791E+04  0.30714929581E+04 0.  0.
        3    1    3    3  502    0  0.11000366390E+04  0.39611158371E+03  0.90564414413E+03  0.14789105179E+04  0.10100000352E+00 0.  1.
       -3    1    3    3    0  502 -0.11000366390E+04 -0.39611158371E+03 -0.10894321517E+04  0.15980761613E+04  0.10100000352E+00 0. -1.
</event>
<event>
 5   0  0.3441897E-06  0.3047045E+04  0.7818609E-02  0.8230423E-01
       -2   -1    0    0    0  501  0.00000000000E+00  0.00000000000E+00  0.15008392277E+04  0.15008392277E+04  0.25500000920E-02 0.  1.
        2   -1    0    0  501    0  0.00000000000E+00  0.00000000000E+00 -0.15465485089E+04  0.15465485089E+04  0.25500000920E-02 0. -1.
    10030    2    1    2    0    0  0.00000000000E+00  0.00000000000E+00 -0.45709281166E+02  0.30473877366E+04  0.30470449093E+04 0.  0.
        5    1    3    3  502    0 -0.11985662905E+04  0.93190399771E+03  0.10401532207E+03  0.15217908828E+04  0.46999998093E+01 0.  1.
       -5    1    3    3    0  502  0.11985662905E+04 -0.93190399771E+03 -0.14972460323E+03  0.15255968539E+04  0.46999998093E+01 0. -1.
</event>
<event>
 5   0  0.1250276E-06  0.3090268E+04  0.7818609E-02  0.8218414E-01
        1   -1    0    0  501    0  0.00000000000E+00  0.00000000000E+00  0.16117426011E+04  0.16117426011E+04  0.50400001928E-02 0.  1.
       -1   -1    0    0    0  501  0.00000000000E+00  0.00000000000E+00 -0.14812777128E+04  0.14812777128E+04  0.50400001928E-02 0. -1.
    10030    2    1    2    0    0  0.00000000000E+00  0.00000000000E+00  0.13046488835E+03  0.30930203139E+04  0.30902675572E+04 0.  0.
        5    1    3    3  502    0 -0.18775888321E+02 -0.37908836810E+03  0.15643502661E+04  0.16097435727E+04  0.46999998093E+01 0.  1.
       -5    1    3    3    0  502  0.18775888321E+02  0.37908836810E+03 -0.14338853777E+04  0.14832767413E+04  0.46999998093E+01 0. -1.
</event>
<event>
 5   0  0.3445410E-06  0.3276623E+04  0.7818609E-02  0.8168869E-01
        2   -1    0    0  501    0  0.00000000000E+00  0.00000000000E+00  0.15422013717E+04  0.15422013717E+04  0.25500000920E-02 0.  1.
       -2   -1    0    0    0  501  0.00000000000E+00  0.00000000000E+00 -0.17404112558E+04  0.17404112558E+04  0.25500000920E-02 0. -1.
    10030    2    1    2    0    0  0.00000000000E+00  0.00000000000E+00 -0.19820988411E+03  0.32826126274E+04  0.32766230335E+04 0.  0.
        1    1    3    3  502    0  0.11479698596E+04 -0.11422189979E+04 -0.34768264634E+03  0.16563158697E+04  0.50400001928E-02 0.  1.
       -1    1    3    3    0  502 -0.11479698596E+04  0.11422189979E+04  0.14947276224E+03  0.16262967577E+04  0.50400001928E-02 0. -1.
</event>
<event>
 5   0  0.1198763E-06  0.3106642E+04  0.7818609E-02  0.8213917E-01
       -1   -1    0    0    0  501  0.00000000000E+00  0.00000000000E+00  0.16063180874E+04  0.16063180874E+04  0.50400001928E-02 0.  1.
        1   -1    0    0  501    0  0.00000000000E+00  0.00000000000E+00 -0.15020722864E+04  0.15020722864E+04  0.50400001928E-02 0. -1.
    10030    2    1    2    0    0  0.00000000000E+00  0.00000000000E+00  0.10424580098E+03  0.31083903738E+04  0.31066418411E+04 0.  0.
        1    1    3    3  502    0  0.11100967918E+04 -0.77025843998E+03  0.81883934374E+03  0.15799084855E+04  0.50400001928E-02 0.  1.
       -1    1    3    3    0  502 -0.11100967918E+04  0.77025843998E+03 -0.71459354277E+03  0.15284818883E+04  0.50400001928E-02 0. -1.
</event>
<event>
 5   0  0.3340899E-06  0.2943476E+04  0.7818609E-02  0.8260058E-01
        2   -1    0    0  501    0  0.00000000000E+00  0.00000000000E+00  0.14302600117E+04  0.14302600117E+04  0.25500000920E-02 0.  1.
       -2   -1    0    0    0  501  0.00000000000E+00  0.00000000000E+00 -0.15144187496E+04  0.15144187496E+04  0.25500000920E-02 0. -1.
    10030    2    1    2    0    0  0.00000000000E+00  0.00000000000E+00 -0.84158737893E+02  0.29446787614E+04  0.29434758899E+04 0.  0.
        3    1    3    3  502    0 -0.10821758041E+04  0.59408901924E+03 -0.84363481293E+03  0.14952477860E+04  0.10100000352E+00 0. -1.
       -3    1    3    3    0  502  0.10821758041E+04 -0.59408901924E+03  0.75947607503E+03  0.14494309754E+04  0.10100000352E+00 0.  1.
</event>
<event>
 5   0  0.3445959E-06  0.3119855E+04  0.7818609E-02  0.8210310E-01
       -2   -1    0    0    0  501  0.00000000000E+00  0.00000000000E+00  0.13580316947E+04  0.13580316947E+04  0.25500000920E-02 0.  1.
        2   -1    0    0  501    0  0.00000000000E+00  0.00000000000E+00 -0.17918387993E+04  0.17918387993E+04  0.25500000920E-02 0. -1.
    10030    2    1    2    0    0  0.00000000000E+00  0.00000000000E+00 -0.43380710462E+03  0.31498704941E+04  0.31198550488E+04 0.  0.
        4    1    3    3  502    0 -0.47057347086E+03  0.10487158258E+04 -0.12816241793E+04  0.17215709177E+04  0.12699999809E+01 0. -1.
       -4    1    3    3    0  502  0.47057347086E+03 -0.10487158258E+04  0.84781707472E+03  0.14282995764E+04  0.12699999809E+01 0.  1.
</event>
<event>
 5   0  0.3374790E-06  0.3091043E+04  0.7818609E-02  0.8218200E-01
        2   -1    0    0  501    0  0.00000000000E+00  0.00000000000E+00  0.19945477477E+04  0.19945477477E+04  0.25500000920E-02 0. -1.
       -2   -1    0    0    0  501  0.00000000000E+00  0.00000000000E+00 -0.11975835025E+04  0.11975835025E+04  0.25500000920E-02 0.  1.
    10030    2    1    2    0    0  0.00000000000E+00  0.00000000000E+00  0.79696424520E+03  0.31921312502E+04  0.30910434986E+04 0.  0.
        2    1    3    3  502    0 -0.14639111875E+04 -0.18400947568E+03 -0.76720856605E+02  0.14774239547E+04  0.25500000920E-02 0.  1.
       -2    1    3    3    0  502  0.14639111875E+04  0.18400947568E+03  0.87368510180E+03  0.17147072955E+04  0.25500000920E-02 0. -1.
</event>
<event>
 5   0  0.3374790E-06  0.3205123E+04  0.7818609E-02  0.8187466E-01
       -2   -1    0    0    0  501  0.00000000000E+00  0.00000000000E+00  0.11957070009E+04  0.11957070009E+04  0.25500000920E-02 0.  1.
        2   -1    0    0  501    0  0.00000000000E+00  0.00000000000E+00 -0.21478533691E+04  0.21478533691E+04  0.25500000920E-02 0. -1.
    10030    2    1    2    0    0  0.00000000000E+00  0.00000000000E+00 -0.95214636824E+03  0.33435603701E+04  0.32051229683E+04 0.  0.
        2    1    3    3  502    0 -0.15740275247E+03  0.62994745492E+02  0.11863251882E+04  0.11983786616E+04  0.25500000920E-02 0.  1.
       -2    1    3    3    0  502  0.15740275247E+03 -0.62994745492E+02 -0.21384715565E+04  0.21451817084E+04  0.25500000920E-02 0. -1.
</event>
<event>
 5   0  0.3445410E-06  0.3129025E+04  0.7818609E-02  0.8207817E-01
       -2   -1    0    0    0  501  0.00000000000E+00  0.00000000000E+00  0.11940922356E+04  0.11940922356E+04  0.25500000920E-02 0.  1.
        2   -1    0    0  501    0  0.00000000000E+00  0.00000000000E+00 -0.20498406666E+04  0.20498406666E+04  0.25500000920E-02 0. -1.
    10030    2    1    2    0    0  0.00000000000E+00  0.00000000000E+00 -0.85574843098E+03  0.32439329022E+04  0.31290246559E+04 0.  0.
        1    1    3    3  502    0  0.10227102916E+04  0.95548583308E+03  0.29694986003E+03  0.14307580988E+04  0.50400001928E-02 0.  1.
       -1    1    3    3    0  502 -0.10227102916E+04 -0.95548583308E+03 -0.11526982910E+04  0.18131748035E+04  0.50400001928E-02 0. -1.
</event>
<event>
 5   0  0.1250276E-06  0.3174978E+04  0.7818609E-02  0.8195457E-01
        1   -1    0    0  501    0  0.00000000000E+00  0.00000000000E+00  0.27231703380E+04  0.27231703380E+04  0.50400001928E-02 0.  1.
       -1   -1    0    0    0  501  0.00000000000E+00  0.00000000000E+00 -0.92543647239E+03  0.92543647240E+03  0.50400001928E-02 0. -1.
    10030    2    1    2    0    0  0.00000000000E+00  0.00000000000E+00  0.17977338656E+04  0.36486068104E+04  0.31749778905E+04 0.  0.
        5    1    3    3  502    0 -0.11657287503E+04  0.10686810052E+04  0.74006247366E+03  0.17460576065E+04  0.46999998093E+01 0.  1.
       -5    1    3    3    0  502  0.11657287503E+04 -0.10686810052E+04  0.10576713920E+04  0.19025492040E+04  0.46999998093E+01 0. -1.
</event>
<event>
 5   0  0.1198763E-06  0.3110544E+04  0.7818609E-02  0.8212850E-01
       -1   -1    0    0    0  501  0.00000000000E+00  0.00000000000E+00  0.12003420127E+04  0.12003420128E+04  0.50400001928E-02 0. -1.
        1   -1    0    0  501    0  0.00000000000E+00  0.00000000000E+00 -0.20151518239E+04  0.20151518239E+04  0.50400001928E-02 0.  1.
    10030    2    1    2    0    0  0.00000000000E+00  0.00000000000E+00 -0.81480981114E+03  0.32154938366E+04  0.31105442587E+04 0.  0.
        1    1    3    3  502    0 -0.10815929843E+04 -0.27565800712E+03 -0.15270176471E+04  0.18914580659E+04  0.50400001928E-02 0.  1.
       -1    1    3    3    0  502  0.10815929843E+04  0.27565800712E+03  0.71220783597E+03  0.13240357707E+04  0.50400001928E-02 0. -1.
</event>
<event>
 5   0  0.3445410E-06  0.3119896E+04  0.7818609E-02  0.8210299E-01
        2   -1    0    0  501    0  0.00000000000E+00  0.00000000000E+00  0.18202333281E+04  0.18202333281E+04  0.25500000920E-02 0. -1.
       -2   -1    0    0    0  501  0.00000000000E+00  0.00000000000E+00 -0.13368820590E+04  0.13368820590E+04  0.25500000920E-02 0.  1.
    10030    2    1    2    0    0  0.00000000000E+00  0.00000000000E+00  0.48335126915E+03  0.31571153871E+04  0.31198956902E+04 0.  0.
        1    1    3    3  502    0 -0.11851359085E+04  0.53507039756E+03 -0.63034121877E+03  0.14450527686E+04  0.50400001928E-02 0.  1.
       -1    1    3    3    0  502  0.11851359085E+04 -0.53507039756E+03  0.11136924879E+04  0.17120626185E+04  0.50400001928E-02 0. -1.
</event>
<event>
 5   0  0.1171915E-06  0.3081694E+04  0.7818609E-02  0.8220780E-01
        1   -1    0    0  501    0  0.00000000000E+00  0.00000000000E+00  0.18873581873E+04  0.18873581873E+04  0.50400001928E-02 0. -1.
       -1   -1    0    0    0  501  0.00000000000E+00  0.00000000000E+00 -0.12579539684E+04  0.12579539684E+04  0.50400001928E-02 0.  1.
    10030    2    1    2    0    0  0.00000000000E+00  0.00000000000E+00  0.62940421885E+03  0.31453121557E+04  0.30816941585E+04 0.  0.
        2    1    3    3  502    0 -0.61884843374E+03  0.12918755833E+04  0.89413107763E+03  0.16886048356E+04  0.25500000920E-02 0.  1.
       -2    1    3    3    0  502  0.61884843374E+03 -0.12918755833E+04 -0.26472685879E+03  0.14567073201E+04  0.25500000920E-02 0. -1.
</event>
<event>
 5   0  0.1211008E-06  0.3132655E+04  0.7818609E-02  0.8206833E-01
        1   -1    0    0  501    0  0.00000000000E+00  0.00000000000E+00  0.14114324585E+04  0.14114324585E+04  0.50400001928E-02 0. -1.
       -1   -1    0    0    0  501  0.00000000000E+00  0.00000000000E+00 -0.17382217408E+04  0.17382217409E+04  0.50400001928E-02 0.  1.
    10030    2    1    2    0    0  0.00000000000E+00  0.00000000000E+00 -0.32678928233E+03  0.31496541994E+04  0.31326554775E+04 0.  0.
        3    1    3    3  502    0 -0.60784979238E+03 -0.50672288609E+03 -0.15224443306E+04  0.17158339673E+04  0.10100000352E+00 0.  1.
       -3    1    3    3    0  502  0.60784979238E+03  0.50672288609E+03  0.11956550482E+04  0.14338202321E+04  0.10100000352E+00 0. -1.
</event>
<event>
 5   0  0.1235960E-06  0.3099031E+04  0.7818609E-02  0.8216004E-01
       -1   -1    0    0    0  501  0.00000000000E+00  0.00000000000E+00  0.10100376609E+04  0.10100376609E+04  0.50400001928E-02 0. -1.
        1   -1    0    0  501    0  0.00000000000E+00  0.00000000000E+00 -0.23771375595E+04  0.23771375595E+04  0.50400001928E-02 0.  1.
    10030    2    1    2    0    0  0.00000000000E+00  0.00000000000E+00 -0.13670998986E+04  0.33871752204E+04  0.30990311133E+04 0.  0.
        4    1    3    3  502    0  0.93469669653E+03  0.60183011074E+03  0.49622910307E+03  0.12174162527E+04  0.12699999809E+01 0. -1.
       -4    1    3    3    0  502 -0.93469669653E+03 -0.60183011074E+03 -0.18633290016E+04  0.21697589677E+04  0.12699999809E+01 0.  1.
</event>
<event>
 5   0  0.3445410E-06  0.3057859E+04  0.7818609E-02  0.8227399E-01
       -2   -1    0    0    0  501  0.00000000000E+00  0.00000000000E+00  0.19262327262E+04  0.19262327262E+04  0.25500000920E-02 0. -1.
        2   -1    0    0  501    0  0.00000000000E+00  0.00000000000E+00 -0.12135733642E+04  0.12135733642E+04  0.25500000920E-02 0.  1.
    10030    2    1    2    0    0  0.00000000000E+00  0.00000000000E+00  0.71265936197E+03  0.31398060904E+04  0.30578585512E+04 0.  0.
        1    1    3    3  502    0 -0.67146617865E+03  0.13720721336E+04  0.28997620966E+03  0.15548424264E+04  0.50400001928E-02 0.  1.
       -1    1    3    3    0  502  0.67146617865E+03 -0.13720721336E+04  0.42268315230E+03  0.15849636640E+04  0.50400001928E-02 0. -1.
</event>
<event>
 5   0  0.1171915E-06  0.3091225E+04  0.7818609E-02  0.8218150E-01
       -1   -1    0    0    0  501  0.00000000000E+00  0.00000000000E+00  0.12467218358E+04  0.12467218358E+04  0.50400001928E-02 0.  1.
        1   -1    0    0  501    0  0.00000000000E+00  0.00000000000E+00 -0.19161595592E+04  0.19161595592E+04  0.50400001928E-02 0. -1.
    10030    2    1    2    0    0  0.00000000000E+00  0.00000000000E+00 -0.66943772341E+03  0.31628813950E+04  0.30912249762E+04 0.  0.
        2    1    3    3  502    0 -0.63837521700E+03  0.11410473038E+04 -0.11780866559E+04  0.17599431911E+04  0.25500000920E-02 0. -1.
       -2    1    3    3    0  502  0.63837521700E+03 -0.11410473038E+04  0.50864893247E+03  0.14029382038E+04  0.25500000920E-02 0.  1.
</event>
<event>
 5   0  0.1250276E-06  0.3100809E+04  0.7818609E-02  0.8215516E-01
       -1   -1    0    0    0  501  0.00000000000E+00  0.00000000000E+00  0.17683821450E+04  0.17683821450E+04  0.50400001928E-02 0.  1.
        1   -1    0    0  501    0  0.00000000000E+00  0.00000000000E+00 -0.13592957366E+04  0.13592957366E+04  0.50400001928E-02 0. -1.
    10030    2    1    2    0    0  0.00000000000E+00  0.00000000000E+00  0.40908640841E+03  0.31276778816E+04  0.31008091269E+04 0.  0.
        5    1    3    3  502    0  0.72274505208E+03 -0.12206632921E+04 -0.42645959260E+03  0.14813065709E+04  0.46999998093E+01 0. -1.
       -5    1    3    3    0  502 -0.72274505208E+03  0.12206632921E+04  0.83554600101E+03  0.16463713107E+04  0.46999998093E+01 0.  1.
</event>
<event>
 5   0  0.1250276E-06  0.3105809E+04  0.7818609E-02  0.8214145E-01
       -1   -1    0    0    0  501  0.00000000000E+00  0.00000000000E+00  0.10557772422E+04  0.10557772422E+04  0.50400001928E-02 0. -1.
        1   -1    0    0  501    0  0.00000000000E+00  0.00000000000E+00 -0.22841114673E+04  0.22841114673E+04  0.50400001928E-02 0.  1.
    10030    2    1    2    0    0  0.00000000000E+00  0.00000000000E+00 -0.12283342251E+04  0.33398887095E+04  0.31058093346E+04 0.  0.
        5    1    3    3  502    0  0.12186744346E+04 -0.52523464756E+03 -0.14814580982E+04  0.19889140251E+04  0.46999998093E+01 0.  1.
       -5    1    3    3    0  502 -0.12186744346E+04  0.52523464756E+03  0.25312387306E+03  0.13509746844E+04  0.46999998093E+01 0. -1.
</event>
<event>
 5   0  0.3445410E-06  0.2843183E+04  0.7818609E-02  0.8289986E-01
       -2   -1    0    0    0  501  0.00000000000E+00  0.00000000000E+00  0.11739431870E+04  0.11739431871E+04  0.25500000920E-02 0. -1.
        2   -1    0    0  501    0  0.00000000000E+00  0.00000000000E+00 -0.17214821677E+04  0.17214821677E+04  0.25500000920E-02 0.  1.
    10030    2    1    2    0    0  0.00000000000E+00  0.00000000000E+00 -0.54753898066E+03  0.28954253548E+04  0.28431829082E+04 0.  0.
        1    1    3    3  502    0 -0.69584215711E+03 -0.52112964344E+03  0.87168689489E+03  0.12311013182E+04  0.50400001928E-02 0. -1.
       -1    1    3    3    0  502  0.69584215711E+03  0.52112964344E+03 -0.14192258756E+04  0.16643240366E+04  0.50400001928E-02 0.  1.
</event>
<event>
 5   0  0.1250276E-06  0.3106530E+04  0.7818609E-02  0.8213948E-01
        1   -1    0    0  501    0  0.00000000000E+00  0.00000000000E+00  0.19953997204E+04  0.19953997204E+04  0.50400001928E-02 0.  1.
       -1   -1    0    0    0  501  0.00000000000E+00  0.00000000000E+00 -0.12090972262E+04  0.12090972262E+04  0.50400001928E-02 0. -1.
    10030    2    1    2    0    0  0.00000000000E+00  0.00000000000E+00  0.78630249423E+03  0.32044969466E+04  0.31065300688E+04 0.  0.
        5    1    3    3  502    0 -0.58488974679E+03 -0.11773012146E+04  0.12465724265E+04  0.18116564438E+04  0.46999998093E+01 0.  1.
       -5    1    3    3    0  502  0.58488974679E+03  0.11773012146E+04 -0.46026993225E+03  0.13928405028E+04  0.46999998093E+01 0. -1.
</event>
<event>
 5   0  0.3374790E-06  0.3120001E+04  0.7818609E-02  0.8210270E-01
        2   -1    0    0  501    0  0.00000000000E+00  0.00000000000E+00  0.12134985009E+04  0.12134985009E+04  0.25500000920E-02 0.  1.
       -2   -1    0    0    0  501  0.00000000000E+00  0.00000000000E+00 -0.20054423241E+04  0.20054423241E+04  0.25500000920E-02 0. -1.
    10030    2    1    2    0    0  0.00000000000E+00  0.00000000000E+00 -0.79194382318E+03  0.32189408250E+04  0.31200008038E+04 0.  0.
        2    1    3    3  502    0  0.56385659075E+03  0.17308183825E+03  0.10940244745E+04  0.12428922433E+04  0.25500000920E-02 0.  1.
       -2    1    3    3    0  502 -0.56385659075E+03 -0.17308183825E+03 -0.18859682976E+04  0.19760485817E+04  0.25500000920E-02 0. -1.
</event>
<event>
 5   0  0.1171915E-06  0.3115754E+04  0.7818609E-02  0.8211428E-01
        1   -1    0    0  501    0  0.00000000000E+00  0.00000000000E+00  0.13983976451E+04  0.13983976451E+04  0.50400001928E-02 0. -1.
       -1   -1    0    0    0  501  0.00000000000E+00  0.00000000000E+00 -0.17355441338E+04  0.17355441338E+04  0.50400001928E-02 0.  1.
    10030    2    1    2    0    0  0.00000000000E+00  0.00000000000E+00 -0.33714648870E+03  0.31339417789E+04  0.31157540529E+04 0.  0.
        2    1    3    3  502    0 -0.91995092686E+03  0.97422781023E+03  0.63076772093E+03  0.14809785454E+04  0.25500000920E-02 0. -1.
       -2    1    3    3    0  502  0.91995092686E+03 -0.97422781023E+03 -0.96791420963E+03  0.16529632335E+04  0.25500000920E-02 0.  1.
</event>
<event>
 5   0  0.3441897E-06  0.3102030E+04  0.7818609E-02  0.8215181E-01
       -2   -1    0    0    0  501  0.00000000000E+00  0.00000000000E+00  0.18337386786E+04  0.18337386786E+04  0.25500000920E-02 0.  1.
        2   -1    0    0  501    0  0.00000000000E+00  0.00000000000E+00 -0.13118815188E+04  0.13118815188E+04  0.25500000920E-02 0. -1.
    10030    2    1    2    0    0  0.00000000000E+00  0.00000000000E+00  0.52185715973E+03  0.31456201974E+04  0.31020302273E+04 0.  0.
        5    1    3    3  502    0  0.69049979797E+03 -0.92219985290E+03  0.13139733284E+04  0.17475098104E+04  0.46999998093E+01 0.  1.
       -5    1    3    3    0  502 -0.69049979797E+03  0.92219985290E+03 -0.79211616865E+03  0.13981103870E+04  0.46999998093E+01 0. -1.
</event>
<event>
 5   0  0.3445959E-06  0.3174862E+04  0.7818609E-02  0.8195488E-01
       -2   -1    0    0    0  501  0.00000000000E+00  0.00000000000E+00  0.15421670432E+04  0.15421670433E+04  0.25500000920E-02 0. -1.
        2   -1    0    0  501    0  0.00000000000E+00  0.00000000000E+00 -0.16340239919E+04  0.16340239919E+04  0.25500000920E-02 0.  1.
    10030    2    1    2    0    0  0.00000000000E+00  0.00000000000E+00 -0.91856948650E+02  0.31761910352E+04  0.31748624841E+04 0.  0.
        4    1    3    3  502    0  0.24271153168E+03 -0.12855488911E+03 -0.16100727660E+04  0.16333313111E+04  0.12699999809E+01 0.  1.
       -4    1    3    3    0  502 -0.24271153168E+03  0.12855488911E+03  0.15182158174E+04  0.15428597240E+04  0.12699999809E+01 0. -1.
</event>
<event>
 5   0  0.3445959E-06  0.3098244E+04  0.7818609E-02  0.8216220E-01
       -2   -1    0    0    0  501  0.00000000000E+00  0.00000000000E+00  0.16513532648E+04  0.16513532648E+04  0.25500000920E-02 0.  1.
        2   -1    0    0  501    0  0.00000000000E+00  0.00000000000E+00 -0.14532199317E+04  0.14532199317E+04  0.25500000920E-02 0. -1.
    10030    2    1    2    0    0  0.00000000000E+00  0.00000000000E+00  0.19813333314E+03  0.31045731965E+04  0.30982443278E+04 0.  0.
        4    1    3    3  502    0  0.79462679230E+03 -0.22626419606E+03  0.14121444049E+04  0.16360869961E+04  0.12699999809E+01 0.  1.
       -4    1    3    3    0  502 -0.79462679230E+03  0.22626419606E+03 -0.12140110718E+04  0.14684862004E+04  0.12699999809E+01 0. -1.
</event>
<event>
 5   0  0.1109562E-06  0.3152245E+04  0.7818609E-02  0.8201544E-01
        3   -1    0    0  501    0  0.00000000000E+00  0.00000000000E+00  0.16134214261E+04  0.16134214293E+04  0.10100000352E+00 0.  1.
       -3   -1    0    0    0  501  0.00000000000E+00  0.00000000000E+00 -0.15396854189E+04  0.15396854222E+04  0.10100000352E+00 0. -1.
    10030    2    1    2    0    0  0.00000000000E+00  0.00000000000E+00  0.73736007259E+02  0.31531068514E+04  0.31522445682E+04 0.  0.
        2    1    3    3  502    0  0.60548057193E+03  0.10687516209E+04 -0.95098743581E+03  0.15534522372E+04  0.25500000920E-02 0.  1.
       -2    1    3    3    0  502 -0.60548057193E+03 -0.10687516209E+04  0.10247234431E+04  0.15996546143E+04  0.25500000920E-02 0. -1.
</event>
<event>
 5   0  0.1109562E-06  0.3085809E+04  0.7818609E-02  0.8219643E-01
       -3   -1    0    0    0  501  0.00000000000E+00  0.00000000000E+00  0.12793770633E+04  0.12793770673E+04  0.10100000352E+00 0.  1.
        3   -1    0    0  501    0  0.00000000000E+00  0.00000000000E+00 -0.18607139237E+04  0.18607139264E+04  0.10100000352E+00 0. -1.
    10030    2    1    2    0    0  0.00000000000E+00  0.00000000000E+00 -0.58133686041E+03  0.31400909937E+04  0.30858092786E+04 0.  0.
        1    1    3    3  502    0  0.15002070249E+04  0.25993551760E+03 -0.36541289385E+02  0.15229979831E+04  0.50400001928E-02 0. -1.
       -1    1    3    3    0  502 -0.15002070249E+04 -0.25993551760E+03 -0.54479557103E+03  0.16170930106E+04  0.50400001928E-02 0.  1.
</event>
<event>
 5   0  0.1250276E-06  0.3081531E+04  0.7818609E-02  0.8220825E-01
        1   -1    0    0  501    0  0.00000000000E+00  0.00000000000E+00  0.34729194379E+04  0.34729194379E+04  0.50400001928E-02 0.  1.
       -1   -1    0    0    0  501  0.00000000000E+00  0.00000000000E+00 -0.68356285548E+03  0.68356285549E+03  0.50400001928E-02 0. -1.
    10030    2    1    2    0    0  0.00000000000E+00  0.00000000000E+00  0.27893565824E+04  0.41564822934E+04  0.30815312608E+04 0.  0.
        5    1    3    3  502    0 -0.13966004267E+03  0.15167592928E+04  0.10816059016E+04  0.18681426862E+04  0.46999998093E+01 0. -1.
       -5    1    3    3    0  502  0.13966004267E+03 -0.15167592928E+04  0.17077506808E+04  0.22883396072E+04  0.46999998093E+01 0.  1.
</event>
<event>
 5   0  0.3445959E-06  0.3084256E+04  0.7818609E-02  0.8220072E-01
        2   -1    0    0  501    0  0.00000000000E+00  0.00000000000E+00  0.18335256957E+04  0.18335256958E+04  0.25500000920E-02 0.  1.
       -2   -1    0    0    0  501  0.00000000000E+00  0.00000000000E+00 -0.12970414443E+04  0.12970414443E+04  0.25500000920E-02 0. -1.
    10030    2    1    2    0    0  0.00000000000E+00  0.00000000000E+00  0.53648425149E+03  0.31305671400E+04  0.30842560312E+04 0.  0.
        4    1    3    3  502    0 -0.64338824666E+02  0.23376151327E+03  0.18140585735E+04  0.18301896215E+04  0.12699999809E+01 0.  1.
       -4    1    3    3    0  502  0.64338824666E+02 -0.23376151327E+03 -0.12775743220E+04  0.13003775185E+04  0.12699999809E+01 0. -1.
</event>
<event>
 5   0  0.3441897E-06  0.3053901E+04  0.7818609E-02  0.8228504E-01
        2   -1    0    0  501    0  0.00000000000E+00  0.00000000000E+00  0.24974174087E+04  0.24974174087E+04  0.25500000920E-02 0. -1.
       -2   -1    0    0    0  501  0.00000000000E+00  0.00000000000E+00 -0.93359568797E+03  0.93359568797E+03  0.25500000920E-02 0.  1.
    10030    2    1    2    0    0  0.00000000000E+00  0.00000000000E+00  0.15638217207E+04  0.34310130967E+04  0.30539011928E+04 0.  0.
        5    1    3    3  502    0  0.12744330128E+04 -0.83704381973E+03  0.68971539754E+03  0.16734847713E+04  0.46999998093E+01 0. -1.
       -5    1    3    3    0  502 -0.12744330128E+04  0.83704381973E+03  0.87410632318E+03  0.17575283254E+04  0.46999998093E+01 0.  1.
</event>
<event>
 5   0  0.1211008E-06  0.3111321E+04  0.7818609E-02  0.8212638E-01
       -1   -1    0    0    0  501  0.00000000000E+00  0.00000000000E+00  0.14080796479E+04  0.14080796480E+04  0.50400001928E-02 0. -1.
        1   -1    0    0  501    0  0.00000000000E+00  0.00000000000E+00 -0.17187095539E+04  0.17187095539E+04  0.50400001928E-02 0.  1.
    10030    2    1    2    0    0  0.00000000000E+00  0.00000000000E+00 -0.31062990599E+03  0.31267892019E+04  0.31113212265E+04 0.  0.
        3    1    3    3  502    0  0.59737857449E+03 -0.89943355037E+02  0.12853841697E+04  0.14202687923E+04  0.10100000352E+00 0. -1.
       -3    1    3    3    0  502 -0.59737857449E+03  0.89943355037E+02 -0.15960140757E+04  0.17065204096E+04  0.10100000352E+00 0.  1.
</event>
<event>
 5   0  0.3445959E-06  0.3086260E+04  0.7818609E-02  0.8219519E-01
       -2   -1    0    0    0  501  0.00000000000E+00  0.00000000000E+00  0.11206948347E+04  0.11206948347E+04  0.25500000920E-02 0.  1.
        2   -1    0    0  501    0  0.00000000000E+00  0.00000000000E+00 -0.21247983263E+04  0.21247983263E+04  0.25500000920E-02 0. -1.
    10030    2    1    2    0    0  0.00000000000E+00  0.00000000000E+00 -0.10041034916E+04  0.32454931610E+04  0.30862602023E+04 0.  0.
        4    1    3    3  502    0  0.12652912982E+04 -0.63164617819E+03 -0.11514142664E+04  0.18236489216E+04  0.12699999809E+01 0. -1.
       -4    1    3    3    0  502 -0.12652912982E+04  0.63164617819E+03  0.14731077483E+03  0.14218442393E+04  0.12699999809E+01 0.  1.
</event>
<event>
 5   0  0.3445410E-06  0.3071009E+04  0.7818609E-02  0.8223740E-01
       -2   -1    0    0    0  501  0.00000000000E+00  0.00000000000E+00  0.12233897383E+04  0.12233897383E+04  0.25500000920E-02 0. -1.
        2   -1    0    0  501    0  0.00000000000E+00  0.00000000000E+00 -0.19272464712E+04  0.19272464712E+04  0.25500000920E-02 0.  1.
    10030    2    1    2    0    0  0.00000000000E+00  0.00000000000E+00 -0.70385673284E+03  0.31506362095E+04  0.30710086656E+04 0.  0.
        1    1    3    3  502    0  0.75334485348E+03 -0.57004822235E+03 -0.15938066349E+04  0.18527555245E+04  0.50400001928E-02 0.  1.
       -1    1    3    3    0  502 -0.75334485348E+03  0.57004822235E+03  0.88994990211E+03  0.12978806849E+04  0.50400001928E-02 0. -1.
</event>
<event>
 5   0  0.1211008E-06  0.3086578E+04  0.7818609E-02  0.8219431E-01
       -1   -1    0    0    0  501  0.00000000000E+00  0.00000000000E+00  0.91049120193E+03  0.91049120194E+03  0.50400001928E-02 0.  1.
        1   -1    0    0  501    0  0.00000000000E+00  0.00000000000E+00 -0.26158856379E+04  0.26158856379E+04  0.50400001928E-02 0. -1.
    10030    2    1    2    0    0  0.00000000000E+00  0.00000000000E+00 -0.17053944360E+04  0.35263768398E+04  0.30865779488E+04 0.  0.
        3    1    3    3  502    0 -0.96435314746E+03  0.64609084080E+03 -0.20146303428E+04  0.23251119965E+04  0.10100000352E+00 0. -1.
       -3    1    3    3    0  502  0.96435314746E+03 -0.64609084080E+03  0.30923590689E+03  0.12012648434E+04  0.10100000352E+00 0.  1.
</event>
<event>
 5   0  0.3340899E-06  0.3096168E+04  0.7818609E-02  0.8216790E-01
        2   -1    0    0  501    0  0.00000000000E+00  0.00000000000E+00  0.14378025421E+04  0.14378025421E+04  0.25500000920E-02 0.  1.
       -2   -1    0    0    0  501  0.00000000000E+00  0.00000000000E+00 -0.16668237384E+04  0.16668237384E+04  0.25500000920E-02 0. -1.
    10030    2    1    2    0    0  0.00000000000E+00  0.00000000000E+00 -0.22902119625E+03  0.31046262805E+04  0.30961675719E+04 0.  0.
        3    1    3    3  502    0 -0.10188879450E+04 -0.96962350661E+03  0.53398728409E+03  0.15044749313E+04  0.10100000352E+00 0. -1.
       -3    1    3    3    0  502  0.10188879450E+04  0.96962350661E+03 -0.76300848035E+03  0.16001513492E+04  0.10100000352E+00 0.  1.
</event>
<event>
 5   0  0.1211008E-06  0.3130901E+04  0.7818609E-02  0.8207308E-01
        1   -1    0    0  501    0  0.00000000000E+00  0.00000000000E+00  0.21343395686E+04  0.21343395686E+04  0.50400001928E-02 0. -1.
       -1   -1    0    0    0  501  0.00000000000E+00  0.00000000000E+00 -0.11481935615E+04  0.11481935615E+04  0.50400001928E-02 0.  1.
    10030    2    1    2    0    0  0.00000000000E+00  0.00000000000E+00  0.98614600714E+03  0.32825331301E+04  0.31309007973E+04 0.  0.
        3    1    3    3  502    0 -0.78916706906E+03  0.47016607981E+03 -0.83591153923E+03  0.12420100310E+04  0.10100000352E+00 0.  1.
       -3    1    3    3    0  502  0.78916706906E+03 -0.47016607981E+03  0.18220575464E+04  0.20405230991E+04  0.10100000352E+00 0. -1.
</event>
<event>
 5   0  0.1250276E-06  0.3106789E+04  0.7818609E-02  0.8213877E-01
        1   -1    0    0  501    0  0.00000000000E+00  0.00000000000E+00  0.25551719835E+04  0.25551719835E+04  0.50400001928E-02 0.  1.
       -1   -1    0    0    0  501  0.00000000000E+00  0.00000000000E+00 -0.94437272165E+03  0.94437272166E+03  0.50400001928E-02 0. -1.
    10030    2    1    2    0    0  0.00000000000E+00  0.00000000000E+00  0.16107992618E+04  0.34995447052E+04  0.31067891595E+04 0.  0.
        5    1    3    3  502    0 -0.91216469052E+03 -0.97250693374E+03  0.17031477149E+04  0.21629952352E+04  0.46999998093E+01 0.  1.
       -5    1    3    3    0  502  0.91216469052E+03  0.97250693374E+03 -0.92348453056E+02  0.13365494699E+04  0.46999998093E+01 0. -1.
</event>
<event>
 5   0  0.1198763E-06  0.2957219E+04  0.7818609E-02  0.8256054E-01
       -1   -1    0    0    0  501  0.00000000000E+00  0.00000000000E+00  0.18946347328E+04  0.18946347328E+04  0.50400001928E-02 0.  1.
        1   -1    0    0  501    0  0.00000000000E+00  0.00000000000E+00 -0.11539353350E+04  0.11539353350E+04  0.50400001928E-02 0. -1.
    10030    2    1    2    0    0  0.00000000000E+00  0.00000000000E+00  0.74069939789E+03  0.30485700678E+04  0.29572189402E+04 0.  0.
        1    1    3    3  502    0 -0.51926912051E+03 -0.65592427290E+03  0.16271950693E+04  0.18296559417E+04  0.50400001928E-02 0.  1.
       -1    1    3    3    0  502  0.51926912051E+03  0.65592427290E+03 -0.88649567146E+03  0.12189141261E+04  0.50400001928E-02 0. -1.
</event>
<event>
 5   0  0.1198763E-06  0.3087997E+04  0.7818609E-02  0.8219040E-01
        1   -1    0    0  501    0  0.00000000000E+00  0.00000000000E+00  0.16785611528E+04  0.16785611528E+04  0.50400001928E-02 0. -1.
       -1   -1    0    0    0  501  0.00000000000E+00  0.00000000000E+00 -0.14202227445E+04  0.14202227445E+04  0.50400001928E-02 0.  1.
    10030    2    1    2    0    0  0.00000000000E+00  0.00000000000E+00  0.25833840831E+03  0.30987838973E+04  0.30879965850E+04 0.  0.
        1    1    3    3  502    0 -0.75733038971E+03 -0.10052628112E+04  0.10266244593E+04  0.16242107066E+04  0.50400001928E-02 0. -1.
       -1    1    3    3    0  502  0.75733038971E+03  0.10052628112E+04 -0.76828605098E+03  0.14745731908E+04  0.50400001928E-02 0.  1.
</event>
<event>
 5   0  0.3340899E-06  0.3084737E+04  0.7818609E-02  0.8219939E-01
        2   -1    0    0  501    0  0.00000000000E+00  0.00000000000E+00  0.17222957557E+04  0.17222957557E+04  0.25500000920E-02 0.  1.
       -2   -1    0    0    0  501  0.00000000000E+00  0.00000000000E+00 -0.13812379407E+04  0.13812379407E+04  0.25500000920E-02 0. -1.
    10030    2    1    2    0    0  0.00000000000E+00  0.00000000000E+00  0.34105781502E+03  0.31035336964E+04  0.30847367751E+04 0.  0.
        3    1    3    3  502    0  0.74818171039E+03  0.84268830812E+03  0.12300370024E+04  0.16681997763E+04  0.10100000352E+00 0.  1.
       -3    1    3    3    0  502 -0.74818171039E+03 -0.84268830812E+03 -0.88897918734E+03  0.14353339201E+04  0.10100000352E+00 0. -1.
</event>
<event>
 5   0  0.1198763E-06  0.3103827E+04  0.7818609E-02  0.8214688E-01
        1   -1    0    0  501    0  0.00000000000E+00  0.00000000000E+00  0.12927669451E+04  0.12927669451E+04  0.50400001928E-02 0.  1.
       -1   -1    0    0    0  501  0.00000000000E+00  0.00000000000E+00 -0.18630086002E+04  0.18630086002E+04  0.50400001928E-02 0. -1.
    10030    2    1    2    0    0  0.00000000000E+00  0.00000000000E+00 -0.57024165509E+03  0.31557755453E+04  0.31038272741E+04 0.  0.
        1    1    3    3  502    0 -0.12181606237E+03 -0.13871973829E+04 -0.98162653396E+03  0.17037448120E+04  0.50400001928E-02 0.  1.
       -1    1    3    3    0  502  0.12181606237E+03  0.13871973829E+04  0.41138487887E+03  0.14520307334E+04  0.50400001928E-02 0. -1.
</event>
<event>
 5   0  0.1171915E-06  0.3101555E+04  0.7818609E-02  0.8215311E-01
       -1   -1    0    0    0  501  0.00000000000E+00  0.00000000000E+00  0.25772322668E+04  0.25772322668E+04  0.50400001928E-02 0.  1.
        1   -1    0    0  501    0  0.00000000000E+00  0.00000000000E+00 -0.93313676111E+03  0.93313676113E+03  0.50400001928E-02 0. -1.
    10030    2    1    2    0    0  0.00000000000E+00  0.00000000000E+00  0.16440955056E+04  0.35103690279E+04  0.31015545586E+04 0.  0.
        2    1    3    3  502    0 -0.23933454784E+02  0.15050557974E+04  0.12442360839E+04  0.19529181232E+04  0.25500000920E-02 0.  1.
       -2    1    3    3    0  502  0.23933454784E+02 -0.15050557974E+04  0.39985942177E+03  0.15574509047E+04  0.25500000920E-02 0. -1.
</event>
<event>
 5   0  0.1250276E-06  0.3118989E+04  0.7818609E-02  0.8210546E-01
        1   -1    0    0  501    0  0.00000000000E+00  0.00000000000E+00  0.20281951006E+04  0.20281951006E+04  0.50400001928E-02 0.  1.
       -1   -1    0    0    0  501  0.00000000000E+00  0.00000000000E+00 -0.11991072691E+04  0.11991072691E+04  0.50400001928E-02 0. -1.
    10030    2    1    2    0    0  0.00000000000E+00  0.00000000000E+00  0.82908783154E+03  0.32273023697E+04  0.31189892519E+04 0.  0.
        5    1    3    3  502    0  0.69721259163E+03 -0.94934113535E+02  0.18545937784E+04  0.19835972516E+04  0.46999998093E+01 0.  1.
       -5    1    3    3    0  502 -0.69721259163E+03  0.94934113535E+02 -0.10255059468E+04  0.12437051181E+04  0.46999998093E+01 0. -1.
</event>
<event>
 5   0  0.3445410E-06  0.3095521E+04  0.7818609E-02  0.8216968E-01
        2   -1    0    0  501    0  0.00000000000E+00  0.00000000000E+00  0.20574687344E+04  0.20574687344E+04  0.25500000920E-02 0.  1.
       -2   -1    0    0    0  501  0.00000000000E+00  0.00000000000E+00 -0.11643255063E+04  0.11643255063E+04  0.25500000920E-02 0. -1.
    10030    2    1    2    0    0  0.00000000000E+00  0.00000000000E+00  0.89314322811E+03  0.32217942406E+04  0.30955214913E+04 0.  0.
        1    1    3    3  502    0  0.71108946416E+03  0.22460021806E+03 -0.96502404209E+03  0.12195756991E+04  0.50400001928E-02 0. -1.
       -1    1    3    3    0  502 -0.71108946416E+03 -0.22460021806E+03  0.18581672702E+04  0.20022185415E+04  0.50400001928E-02 0.  1.
</event>
<event>
 5   0  0.3340899E-06  0.3099984E+04  0.7818609E-02  0.8215742E-01
       -2   -1    0    0    0  501  0.00000000000E+00  0.00000000000E+00  0.14643632763E+04  0.14643632763E+04  0.25500000920E-02 0. -1.
        2   -1    0    0  501    0  0.00000000000E+00  0.00000000000E+00 -0.16406277677E+04  0.16406277678E+04  0.25500000920E-02 0.  1.
    10030    2    1    2    0    0  0.00000000000E+00  0.00000000000E+00 -0.17626449146E+03  0.31049910440E+04  0.30999839052E+04 0.  0.
        3    1    3    3  502    0 -0.10107271646E+04 -0.74596678851E+03  0.82132068612E+03  0.15008675926E+04  0.10100000352E+00 0.  1.
       -3    1    3    3    0  502  0.10107271646E+04  0.74596678851E+03 -0.99758517758E+03  0.16041234515E+04  0.10100000352E+00 0. -1.
</event>
<event>
 5   0  0.1198763E-06  0.3037538E+04  0.7818609E-02  0.8233092E-01
        1   -1    0    0  501    0  0.00000000000E+00  0.00000000000E+00  0.21940698714E+04  0.21940698714E+04  0.50400001928E-02 0. -1.
       -1   -1    0    0    0  501  0.00000000000E+00  0.00000000000E+00 -0.10513152342E+04  0.10513152342E+04  0.50400001928E-02 0.  1.
    10030    2    1    2    0    0  0.00000000000E+00  0.00000000000E+00  0.11427546373E+04  0.32453851056E+04  0.30375378718E+04 0.  0.
        1    1    3    3  502    0 -0.10714487443E+04 -0.65221902402E+03  0.14862814980E+04  0.19448456901E+04  0.50400001928E-02 0. -1.
       -1    1    3    3    0  502  0.10714487443E+04  0.65221902402E+03 -0.34352686077E+03  0.13005394155E+04  0.50400001928E-02 0.  1.
</event>
<event>
 5   0  0.1171915E-06  0.3138081E+04  0.7818609E-02  0.8205364E-01
        1   -1    0    0  501    0  0.00000000000E+00  0.00000000000E+00  0.23647096762E+04  0.23647096762E+04  0.50400001928E-02 0. -1.
       -1   -1    0    0    0  501  0.00000000000E+00  0.00000000000E+00 -0.10410951079E+04  0.10410951079E+04  0.50400001928E-02 0.  1.
    10030    2    1    2    0    0  0.00000000000E+00  0.00000000000E+00  0.13236145682E+04  0.34058047841E+04  0.31380807354E+04 0.  0.
        2    1    3    3  502    0  0.74542200342E+03 -0.13758080970E+04  0.53623965801E+03  0.16541024315E+04  0.25500000920E-02 0.  1.
       -2    1    3    3    0  502 -0.74542200342E+03  0.13758080970E+04  0.78737491022E+03  0.17517023526E+04  0.25500000920E-02 0. -1.
</event>
<event>
 5   0  0.1235960E-06  0.3090590E+04  0.7818609E-02  0.8218325E-01
        1   -1    0    0  501    0  0.00000000000E+00  0.00000000000E+00  0.17970721606E+04  0.17970721606E+04  0.50400001928E-02 0.  1.
       -1   -1    0    0    0  501  0.00000000000E+00  0.00000000000E+00 -0.13287932586E+04  0.13287932586E+04  0.50400001928E-02 0. -1.
    10030    2    1    2    0    0  0.00000000000E+00  0.00000000000E+00  0.46827890198E+03  0.31258654192E+04  0.30905904757E+04 0.  0.
        4    1    3    3  502    0 -0.39335463361E+03  0.95731011969E+03  0.13947405797E+04  0.17367997669E+04  0.12699999809E+01 0.  1.
       -4    1    3    3    0  502  0.39335463361E+03 -0.95731011969E+03 -0.92646167767E+03  0.13890656522E+04  0.12699999809E+01 0. -1.
</event>
<event>
 5   0  0.1211008E-06  0.3118100E+04  0.7818609E-02  0.8210788E-01
       -1   -1    0    0    0  501  0.00000000000E+00  0.00000000000E+00  0.14830834044E+04  0.14830834044E+04  0.50400001928E-02 0. -1.
        1   -1    0    0  501    0  0.00000000000E+00  0.00000000000E+00 -0.16389075921E+04  0.16389075921E+04  0.50400001928E-02 0.  1.
    10030    2    1    2    0    0  0.00000000000E+00  0.00000000000E+00 -0.15582418769E+03  0.31219909965E+04  0.31180998388E+04 0.  0.
        3    1    3    3  502    0  0.13891706309E+04 -0.40037398780E+03  0.50637614197E+03  0.15318326212E+04  0.10100000352E+00 0.  1.
       -3    1    3    3    0  502 -0.13891706309E+04  0.40037398780E+03 -0.66220032966E+03  0.15901583753E+04  0.10100000352E+00 0. -1.
</event>
<event>
 5   0  0.1198763E-06  0.3001823E+04  0.7818609E-02  0.8243211E-01
        1   -1    0    0  501    0  0.00000000000E+00  0.00000000000E+00  0.16166413049E+04  0.16166413049E+04  0.50400001928E-02 0. -1.
       -1   -1    0    0    0  501  0.00000000000E+00  0.00000000000E+00 -0.13934661821E+04  0.13934661821E+04  0.50400001928E-02 0.  1.
    10030    2    1    2    0    0  0.00000000000E+00  0.00000000000E+00  0.22317512276E+03  0.30101074870E+04  0.30018227709E+04 0.  0.
        1    1    3    3  502    0  0.10618517388E+04 -0.53111013690E+03 -0.80916658912E+03  0.14367872708E+04  0.50400001928E-02 0.  1.
       -1    1    3    3    0  502 -0.10618517388E+04  0.53111013690E+03  0.10323417119E+04  0.15733202162E+04  0.50400001928E-02 0. -1.
</event>
<event>
 5   0  0.3445959E-06  0.3073915E+04  0.7818609E-02  0.8222933E-01
       -2   -1    0    0    0  501  0.00000000000E+00  0.00000000000E+00  0.23607863475E+04  0.23607863475E+04  0.25500000920E-02 0.  1.
        2   -1    0    0  501    0  0.00000000000E+00  0.00000000000E+00 -0.10006151307E+04  0.10006151307E+04  0.25500000920E-02 0. -1.
    10030    2    1    2    0    0  0.00000000000E+00  0.00000000000E+00  0.13601712168E+04  0.33614014782E+04  0.30739151190E+04 0.  0.
        4    1    3    3  502    0 -0.98520986708E+03 -0.10144836491E+04  0.21768086175E+02  0.14143164494E+04  0.12699999809E+01 0. -1.
       -4    1    3    3    0  502  0.98520986708E+03  0.10144836491E+04  0.13384031306E+04  0.19470850288E+04  0.12699999809E+01 0.  1.
</event>
<event>
 5   0  0.3445959E-06  0.3072128E+04  0.7818609E-02  0.8223429E-01
        2   -1    0    0  501    0  0.00000000000E+00  0.00000000000E+00  0.18956664286E+04  0.18956664286E+04  0.25500000920E-02 0. -1.
       -2   -1    0    0    0  501  0.00000000000E+00  0.00000000000E+00 -0.12446769470E+04  0.12446769470E+04  0.25500000920E-02 0.  1.
    10030    2    1    2    0    0  0.00000000000E+00  0.00000000000E+00  0.65098948158E+03  0.31403433756E+04  0.30721277987E+04 0.  0.
        4    1    3    3  502    0  0.10047330800E+04 -0.41571663789E+03  0.14345664575E+04  0.18000809479E+04  0.12699999809E+01 0. -1.
       -4    1    3    3    0  502 -0.10047330800E+04  0.41571663789E+03 -0.78357697593E+03  0.13402624277E+04  0.12699999809E+01 0.  1.
</event>
<event>
 5   0  0.1198763E-06  0.3115547E+04  0.7818609E-02  0.8211484E-01
        1   -1    0    0  501    0  0.00000000000E+00  0.00000000000E+00  0.23078137132E+04  0.23078137132E+04  0.50400001928E-02 0.  1.
       -1   -1    0    0    0  501  0.00000000000E+00  0.00000000000E+00 -0.10514966983E+04  0.10514966983E+04  0.50400001928E-02 0. -1.
    10030    2    1    2    0    0  0.00000000000E+00  0.00000000000E+00  0.12563170149E+04  0.33593104115E+04  0.31155471428E+04 0.  0.
        1    1    3    3  502    0  0.10407674987E+04  0.16995626257E+03  0.18644153873E+04  0.21419913292E+04  0.50400001928E-02 0.  1.
       -1    1    3    3    0  502 -0.10407674987E+04 -0.16995626257E+03 -0.60809837247E+03  0.12173190823E+04  0.50400001928E-02 0. -1.
</event>
<event>
 5   0  0.1235960E-06  0.3094732E+04  0.7818609E-02  0.8217185E-01
       -1   -1    0    0    0  501  0.00000000000E+00  0.00000000000E+00  0.13578259878E+04  0.13578259879E+04  0.50400001928E-02 0. -1.
        1   -1    0    0  501    0  0.00000000000E+00  0.00000000000E+00 -0.17633637166E+04  0.17633637166E+04  0.50400001928E-02 0.  1.
    10030    2    1    2    0    0  0.00000000000E+00  0.00000000000E+00 -0.40553772874E+03  0.31211897044E+04  0.30947317043E+04 0.  0.
        4    1    3    3  502    0  0.20463941257E+03 -0.13606812565E+04  0.51110222451E+03  0.14678412270E+04  0.12699999809E+01 0. -1.
       -4    1    3    3    0  502 -0.20463941257E+03  0.13606812565E+04 -0.91663995325E+03  0.16533484774E+04  0.12699999809E+01 0.  1.
</event>
<event>
 5   0  0.3445959E-06  0.3082725E+04  0.7818609E-02  0.8220495E-01
       -2   -1    0    0    0  501  0.00000000000E+00  0.00000000000E+00  0.10259204815E+04  0.10259204816E+04  0.25500000920E-02 0. -1.
        2   -1    0    0  501    0  0.00000000000E+00  0.00000000000E+00 -0.23157719602E+04  0.23157719602E+04  0.25500000920E-02 0.  1.
    10030    2    1    2    0    0  0.00000000000E+00  0.00000000000E+00 -0.12898514786E+04  0.33416924417E+04  0.30827246939E+04 0.  0.
        4    1    3    3  502    0 -0.58339058081E+03 -0.83806067368E+03 -0.18965214845E+04  0.21539465213E+04  0.12699999809E+01 0.  1.
       -4    1    3    3    0  502  0.58339058081E+03  0.83806067368E+03  0.60667000588E+03  0.11877459204E+04  0.12699999809E+01 0. -1.
</event>
<event>
 5   0  0.3445959E-06  0.3029155E+04  0.7818609E-02  0.8235454E-01
        2   -1    0    0  501    0  0.00000000000E+00  0.00000000000E+00  0.12381449480E+04  0.12381449480E+04  0.25500000920E-02 0.  1.
       -2   -1    0    0    0  501  0.00000000000E+00  0.00000000000E+00 -0.18527268574E+04  0.18527268574E+04  0.25500000920E-02 0. -1.
    10030    2    1    2    0    0  0.00000000000E+00  0.00000000000E+00 -0.61458190937E+03  0.30908718055E+04  0.30291546006E+04 0.  0.
        4    1    3    3  502    0  0.10788976925E+04  0.25386234675E+03 -0.13605409941E+04  0.17548617415E+04  0.12699999809E+01 0. -1.
       -4    1    3    3    0  502 -0.10788976925E+04 -0.25386234675E+03  0.74595908475E+03  0.13360100640E+04  0.12699999809E+01 0.  1.
</event>
<event>
 5   0  0.3441897E-06  0.3091038E+04  0.7818609E-02  0.8218202E-01
       -2   -1    0    0    0  501  0.00000000000E+00  0.00000000000E+00  0.18032875221E+04  0.18032875221E+04  0.25500000920E-02 0. -1.
        2   -1    0    0  501    0  0.00000000000E+00  0.00000000000E+00 -0.13245968258E+04  0.13245968258E+04  0.25500000920E-02 0.  1.
    10030    2    1    2    0    0  0.00000000000E+00  0.00000000000E+00  0.47869069631E+03  0.31278843479E+04  0.30910379667E+04 0.  0.
        5    1    3    3  502    0 -0.15000811375E+04 -0.83190068528E+02 -0.12752684846E+03  0.15077961379E+04  0.46999998093E+01 0.  1.
       -5    1    3    3    0  502  0.15000811375E+04  0.83190068528E+02  0.60621754477E+03  0.16200882100E+04  0.46999998093E+01 0. -1.
</event>
<event>
 5   0  0.3445410E-06  0.3136477E+04  0.7818609E-02  0.8205798E-01
       -2   -1    0    0    0  501  0.00000000000E+00  0.00000000000E+00  0.13572188801E+04  0.13572188801E+04  0.25500000920E-02 0. -1.
        2   -1    0    0  501    0  0.00000000000E+00  0.00000000000E+00 -0.18120668588E+04  0.18120668588E+04  0.25500000920E-02 0.  1.
    10030    2    1    2    0    0  0.00000000000E+00  0.00000000000E+00 -0.45484797877E+03  0.31692857389E+04  0.31364765918E+04 0.  0.
        1    1    3    3  502    0 -0.12482996871E+04 -0.88166077650E+03 -0.58294747896E+03  0.16356667133E+04  0.50400001928E-02 0.  1.
       -1    1    3    3    0  502  0.12482996871E+04  0.88166077650E+03  0.12809950019E+03  0.15336190256E+04  0.50400001928E-02 0. -1.
</event>
<event>
 5   0  0.1109562E-06  0.3120994E+04  0.7818609E-02  0.8210000E-01
        3   -1    0    0  501    0  0.00000000000E+00  0.00000000000E+00  0.22122807070E+04  0.22122807093E+04  0.10100000352E+00 0. -1.
       -3   -1    0    0    0  501  0.00000000000E+00  0.00000000000E+00 -0.11007424316E+04  0.11007424362E+04  0.10100000352E+00 0.  1.
    10030    2    1    2    0    0  0.00000000000E+00  0.00000000000E+00  0.11115382754E+04  0.33130231455E+04  0.31209942366E+04 0.  0.
        2    1    3    3  502    0 -0.79758820140E+03  0.13379620267E+04  0.45583917658E+03  0.16229844974E+04  0.25500000920E-02 0.  1.
       -2    1    3    3    0  502  0.79758820140E+03 -0.13379620267E+04  0.65569909878E+03  0.16900386481E+04  0.25500000920E-02 0. -1.
</event>
<event>
 5   0  0.3441897E-06  0.3045650E+04  0.7818609E-02  0.8230814E-01
       -2   -1    0    0    0  501  0.00000000000E+00  0.00000000000E+00  0.19492091337E+04  0.19492091337E+04  0.25500000920E-02 0. -1.
        2   -1    0    0  501    0  0.00000000000E+00  0.00000000000E+00 -0.11897109605E+04  0.11897109605E+04  0.25500000920E-02 0.  1.
    10030    2    1    2    0    0  0.00000000000E+00  0.00000000000E+00  0.75949817325E+03  0.31389200942E+04  0.30456496651E+04 0.  0.
        5    1    3    3  502    0 -0.78426239005E+03 -0.49228908969E+03  0.16257209725E+04  0.18709374160E+04  0.46999998093E+01 0. -1.
       -5    1    3    3    0  502  0.78426239005E+03  0.49228908969E+03 -0.86622279924E+03  0.12679826782E+04  0.46999998093E+01 0.  1.
</event>
<event>
 5   0  0.1171915E-06  0.3070332E+04  0.7818609E-02  0.8223928E-01
        1   -1    0    0  501    0  0.00000000000E+00  0.00000000000E+00  0.19342385595E+04  0.19342385595E+04  0.50400001928E-02 0. -1.
       -1   -1    0    0    0  501  0.00000000000E+00  0.00000000000E+00 -0.12184300894E+04  0.12184300894E+04  0.50400001928E-02 0.  1.
    10030    2    1    2    0    0  0.00000000000E+00  0.00000000000E+00  0.71580847011E+03  0.31526686489E+04  0.30703318784E+04 0.  0.
        2    1    3    3  502    0  0.10143600464E+04 -0.25471851888E+02 -0.82501349283E+03  0.13077547103E+04  0.25500000920E-02 0.  1.
       -2    1    3    3    0  502 -0.10143600464E+04  0.25471851888E+02  0.15408219629E+04  0.18449139385E+04  0.25500000920E-02 0. -1.
</event>
<event>
 5   0  0.3441897E-06  0.3089153E+04  0.7818609E-02  0.8218721E-01
       -2   -1    0    0    0  501  0.00000000000E+00  0.00000000000E+00  0.83360216195E+03  0.83360216196E+03  0.25500000920E-02 0. -1.
        2   -1    0    0  501    0  0.00000000000E+00  0.00000000000E+00 -0.28619362641E+04  0.28619362641E+04  0.25500000920E-02 0.  1.
    10030    2    1    2    0    0  0.00000000000E+00  0.00000000000E+00 -0.20283341022E+04  0.36955384261E+04  0.30891528011E+04 0.  0.
        5    1    3    3  502    0  0.62919458359E+03  0.86684018028E+03 -0.23454432882E+04  0.25784538062E+04  0.46999998093E+01 0.  1.
       -5    1    3    3    0  502 -0.62919458359E+03 -0.86684018028E+03  0.31710918607E+03  0.11170846199E+04  0.46999998093E+01 0. -1.
</event>
<event>
 5   0  0.1211008E-06  0.3099033E+04  0.7818609E-02  0.8216003E-01
       -1   -1    0    0    0  501  0.00000000000E+00  0.00000000000E+00  0.23954357047E+04  0.23954357048E+04  0.50400001928E-02 0. -1.
        1   -1    0    0  501    0  0.00000000000E+00  0.00000000000E+00 -0.10023237636E+04  0.10023237637E+04  0.50400001928E-02 0.  1.
    10030    2    1    2    0    0  0.00000000000E+00  0.00000000000E+00  0.13931119411E+04  0.33977594684E+04  0.30990334823E+04 0.  0.
        3    1    3    3  502    0 -0.15074399563E+04  0.34495232771E+03  0.58893732907E+03  0.16547551233E+04  0.10100000352E+00 0. -1.
       -3    1    3    3    0  502  0.15074399563E+04 -0.34495232771E+03  0.80417461203E+03  0.17430043451E+04  0.10100000352E+00 0.  1.
</event>
<event>
 5   0  0.1235960E-06  0.3095007E+04  0.7818609E-02  0.8217109E-01
        1   -1    0    0  501    0  0.00000000000E+00  0.00000000000E+00  0.12521710466E+04  0.12521710466E+04  0.50400001928E-02 0. -1.
       -1   -1    0    0    0  501  0.00000000000E+00  0.00000000000E+00 -0.19124923944E+04  0.19124923944E+04  0.50400001928E-02 0.  1.
    10030    2    1    2    0    0  0.00000000000E+00  0.00000000000E+00 -0.66032134779E+03  0.31646634410E+04  0.30950073364E+04 0.  0.
        4    1    3    3  502    0 -0.32764258791E+03  0.76613784388E+03  0.10032000838E+04  0.13041199647E+04  0.12699999809E+01 0. -1.
       -4    1    3    3    0  502  0.32764258791E+03 -0.76613784388E+03 -0.16635214316E+04  0.18605434764E+04  0.12699999809E+01 0.  1.
</event>
<event>
 5   0  0.1211008E-06  0.3096198E+04  0.7818609E-02  0.8216782E-01
       -1   -1    0    0    0  501  0.00000000000E+00  0.00000000000E+00  0.12588031601E+04  0.12588031601E+04  0.50400001928E-02 0.  1.
        1   -1    0    0  501    0  0.00000000000E+00  0.00000000000E+00 -0.19038802075E+04  0.19038802075E+04  0.50400001928E-02 0. -1.
    10030    2    1    2    0    0  0.00000000000E+00  0.00000000000E+00 -0.64507704740E+03  0.31626833677E+04  0.30961979406E+04 0.  0.
        3    1    3    3  502    0  0.88411632395E+03  0.54553431971E+03  0.84986228336E+03  0.13422128293E+04  0.10100000352E+00 0.  1.
       -3    1    3    3    0  502 -0.88411632395E+03 -0.54553431971E+03 -0.14949393308E+04  0.18204705384E+04  0.10100000352E+00 0. -1.
</event>
<event>
 5   0  0.1211008E-06  0.3097110E+04  0.7818609E-02  0.8216531E-01
       -1   -1    0    0    0  501  0.00000000000E+00  0.00000000000E+00  0.11620281724E+04  0.11620281724E+04  0.50400001928E-02 0.  1.
        1   -1    0    0  501    0  0.00000000000E+00  0.00000000000E+00 -0.20636530822E+04  0.20636530822E+04  0.50400001928E-02 0. -1.
    10030    2    1    2    0    0  0.00000000000E+00  0.00000000000E+00 -0.90162490978E+03  0.32256812546E+04  0.30971102787E+04 0.  0.
        3    1    3    3  502    0  0.10803939357E+04 -0.27478406396E+03  0.66864015989E+03  0.12999373107E+04  0.10100000352E+00 0.  1.
       -3    1    3    3    0  502 -0.10803939357E+04  0.27478406396E+03 -0.15702650697E+04  0.19257439439E+04  0.10100000352E+00 0. -1.
</event>
<event>
 5   0  0.3374790E-06  0.3115202E+04  0.7818609E-02  0.8211578E-01
        2   -1    0    0  501    0  0.00000000000E+00  0.00000000000E+00  0.18026015802E+04  0.18026015802E+04  0.25500000920E-02 0. -1.
       -2   -1    0    0    0  501  0.00000000000E+00  0.00000000000E+00 -0.13458998663E+04  0.13458998663E+04  0.25500000920E-02 0.  1.
    10030    2    1    2    0    0  0.00000000000E+00  0.00000000000E+00  0.45670171390E+03  0.31485014465E+04  0.31152022251E+04 0.  0.
        2    1    3    3  502    0 -0.72423143862E+03 -0.11336120798E+04 -0.56523891814E+03  0.14591376079E+04  0.25500000920E-02 0.  1.
       -2    1    3    3    0  502  0.72423143862E+03  0.11336120798E+04  0.10219406320E+04  0.16893638387E+04  0.25500000920E-02 0. -1.
</event>
<event>
 5   0  0.1250276E-06  0.3046735E+04  0.7818609E-02  0.8230510E-01
        1   -1    0    0  501    0  0.00000000000E+00  0.00000000000E+00  0.12626858031E+04  0.12626858031E+04  0.50400001928E-02 0.  1.
       -1   -1    0    0    0  501  0.00000000000E+00  0.00000000000E+00 -0.18378669712E+04  0.18378669712E+04  0.50400001928E-02 0. -1.
    10030    2    1    2    0    0  0.00000000000E+00  0.00000000000E+00 -0.57518116812E+03  0.31005527742E+04  0.30467349950E+04 0.  0.
        5    1    3    3  502    0  0.80667337397E+02  0.49262583403E+03  0.11770818985E+04  0.12785661178E+04  0.46999998093E+01 0.  1.
       -5    1    3    3    0  502 -0.80667337397E+02 -0.49262583403E+03 -0.17522630666E+04  0.18219866565E+04  0.46999998093E+01 0. -1.
</event>
<event>
 5   0  0.1171915E-06  0.3115667E+04  0.7818609E-02  0.8211451E-01
        1   -1    0    0  501    0  0.00000000000E+00  0.00000000000E+00  0.18164938030E+04  0.18164938030E+04  0.50400001928E-02 0. -1.
       -1   -1    0    0    0  501  0.00000000000E+00  0.00000000000E+00 -0.13360054358E+04  0.13360054358E+04  0.50400001928E-02 0.  1.
    10030    2    1    2    0    0  0.00000000000E+00  0.00000000000E+00  0.48048836717E+03  0.31524992388E+04  0.31156672447E+04 0.  0.
        2    1    3    3  502    0 -0.59713666934E+02 -0.27677363110E+03  0.17902399394E+04  0.18124923187E+04  0.25500000920E-02 0. -1.
       -2    1    3    3    0  502  0.59713666934E+02  0.27677363110E+03 -0.13097515722E+04  0.13400069201E+04  0.25500000920E-02 0.  1.
</event>
<event>
 5   0  0.1211008E-06  0.3100448E+04  0.7818609E-02  0.8215615E-01
       -1   -1    0    0    0  501  0.00000000000E+00  0.00000000000E+00  0.11630252730E+04  0.11630252730E+04  0.50400001928E-02 0.  1.
        1   -1    0    0  501    0  0.00000000000E+00  0.00000000000E+00 -0.20663298499E+04  0.20663298499E+04  0.50400001928E-02 0. -1.
    10030    2    1    2    0    0  0.00000000000E+00  0.00000000000E+00 -0.90330457691E+03  0.32293551229E+04  0.31004476050E+04 0.  0.
        3    1    3    3  502    0 -0.31127675456E+02  0.25531047527E+03 -0.20439512704E+04  0.20600701874E+04  0.10100000352E+00 0. -1.
       -3    1    3    3    0  502  0.31127675456E+02 -0.25531047527E+03  0.11406466935E+04  0.11692849355E+04  0.10100000352E+00 0.  1.
</event>
<event>
 5   0  0.3445410E-06  0.3103519E+04  0.7818609E-02  0.8214773E-01
       -2   -1    0    0    0  501  0.00000000000E+00  0.00000000000E+00  0.15783593392E+04  0.15783593392E+04  0.25500000920E-02 0. -1.
        2   -1    0    0  501    0  0.00000000000E+00  0.00000000000E+00 -0.15256080405E+04  0.15256080405E+04  0.25500000920E-02 0.  1.
    10030    2    1    2    0    0  0.00000000000E+00  0.00000000000E+00  0.52751298684E+02  0.31039673797E+04  0.31035190985E+04 0.  0.
        1    1    3    3  502    0  0.62633934272E+03  0.34346708049E+03  0.14041402684E+04  0.15753985213E+04  0.50400001928E-02 0. -1.
       -1    1    3    3    0  502 -0.62633934272E+03 -0.34346708049E+03 -0.13513889697E+04  0.15285688584E+04  0.50400001928E-02 0.  1.
</event>
<event>
 5   0  0.3374790E-06  0.3094813E+04  0.7818609E-02  0.8217163E-01
        2   -1    0    0  501    0  0.00000000000E+00  0.00000000000E+00  0.17559380785E+04  0.17559380785E+04  0.25500000920E-02 0.  1.
       -2   -1    0    0    0  501  0.00000000000E+00  0.00000000000E+00 -0.13636399970E+04  0.13636399970E+04  0.25500000920E-02 0. -1.
    10030    2    1    2    0    0  0.00000000000E+00  0.00000000000E+00  0.39229808154E+03  0.31195780755E+04  0.30948133360E+04 0.  0.
        2    1    3    3  502    0 -0.94647729426E+03 -0.12211193989E+04  0.10876310755E+03  0.15487999447E+04  0.25500000920E-02 0. -1.
       -2    1    3    3    0  502  0.94647729426E+03  0.12211193989E+04  0.28353497400E+03  0.15707781309E+04  0.25500000920E-02 0.  1.
</event>
<event>
 5   0  0.1211008E-06  0.3097057E+04  0.7818609E-02  0.8216546E-01
       -1   -1    0    0    0  501  0.00000000000E+00  0.00000000000E+00  0.11890670454E+04  0.11890670454E+04  0.50400001928E-02 0. -1.
        1   -1    0    0  501    0  0.00000000000E+00  0.00000000000E+00 -0.20166570740E+04  0.20166570740E+04  0.50400001928E-02 0.  1.
    10030    2    1    2    0    0  0.00000000000E+00  0.00000000000E+00 -0.82759002861E+03  0.32057241195E+04  0.30970569699E+04 0.  0.
        3    1    3    3  502    0  0.23610375704E+03  0.16309286723E+03 -0.19888958570E+04  0.20094902357E+04  0.10100000352E+00 0.  1.
       -3    1    3    3    0  502 -0.23610375704E+03 -0.16309286723E+03  0.11613058284E+04  0.11962338837E+04  0.10100000352E+00 0. -1.
</event>
<event>
 5   0  0.3445410E-06  0.3114647E+04  0.7818609E-02  0.8211730E-01
        2   -1    0    0  501    0  0.00000000000E+00  0.00000000000E+00  0.17885146266E+04  0.17885146266E+04  0.25500000920E-02 0.  1.
       -2   -1    0    0    0  501  0.00000000000E+00  0.00000000000E+00 -0.13560170381E+04  0.13560170381E+04  0.25500000920E-02 0. -1.
    10030    2    1    2    0    0  0.00000000000E+00  0.00000000000E+00  0.43249758855E+03  0.31445316647E+04  0.31146468863E+04 0.  0.
        1    1    3    3  502    0 -0.53490276024E+03  0.19356600400E+03  0.16798715878E+04  0.17735719079E+04  0.50400001928E-02 0.  1.
       -1    1    3    3    0  502  0.53490276024E+03 -0.19356600400E+03 -0.12473739992E+04  0.13709597568E+04  0.50400001928E-02 0. -1.
</event>
<event>
 5   0  0.1198763E-06  0.2551546E+04  0.7818609E-02  0.8384849E-01
       -1   -1    0    0    0  501  0.00000000000E+00  0.00000000000E+00  0.11247513332E+04  0.11247513332E+04  0.50400001928E-02 0.  1.
        1   -1    0    0  501    0  0.00000000000E+00  0.00000000000E+00 -0.14470721268E+04  0.14470721268E+04  0.50400001928E-02 0. -1.
    10030    2    1    2    0    0  0.00000000000E+00  0.00000000000E+00 -0.32232079366E+03  0.25718234600E+04  0.25515456522E+04 0.  0.
        1    1    3    3  502    0  0.11984429749E+04 -0.39980022038E+03 -0.34002637889E+03  0.13083285973E+04  0.50400001928E-02 0.  1.
       -1    1    3    3    0  502 -0.11984429749E+04  0.39980022038E+03  0.17705585228E+02  0.12634948627E+04  0.50400001928E-02 0. -1.
</event>
<event>
 5   0  0.1211008E-06  0.3113652E+04  0.7818609E-02  0.8212001E-01
        1   -1    0    0  501    0  0.00000000000E+00  0.00000000000E+00  0.16583517609E+04  0.16583517609E+04  0.50400001928E-02 0.  1.
       -1   -1    0    0    0  501  0.00000000000E+00  0.00000000000E+00 -0.14615156760E+04  0.14615156760E+04  0.50400001928E-02 0. -1.
    10030    2    1    2    0    0  0.00000000000E+00  0.00000000000E+00  0.19683608487E+03  0.31198674369E+04  0.31136519362E+04 0.  0.
        3    1    3    3  502    0 -0.12195801682E+04  0.29622985593E+03 -0.82460440319E+03  0.15016991530E+04  0.10100000352E+00 0. -1.
       -3    1    3    3    0  502  0.12195801682E+04 -0.29622985593E+03  0.10214404881E+04  0.16181682839E+04  0.10100000352E+00 0.  1.
</event>
<event>
 5   0  0.3445959E-06  0.3038503E+04  0.7818609E-02  0.8232821E-01
        2   -1    0    0  501    0  0.00000000000E+00  0.00000000000E+00  0.25700331850E+04  0.25700331850E+04  0.25500000920E-02 0. -1.
       -2   -1    0    0    0  501  0.00000000000E+00  0.00000000000E+00 -0.89809156230E+03  0.89809156230E+03  0.25500000920E-02 0.  1.
    10030    2    1    2    0    0  0.00000000000E+00  0.00000000000E+00  0.16719416227E+04  0.34681247473E+04  0.30385029987E+04 0.  0.
        4    1    3    3  502    0 -0.13615543480E+04  0.53047327495E+03  0.13105642130E+04  0.19628581985E+04  0.12699999809E+01 0. -1.
       -4    1    3    3    0  502  0.13615543480E+04 -0.53047327495E+03  0.36137740972E+03  0.15052665489E+04  0.12699999809E+01 0.  1.
</event>
<event>
 5   0  0.1109562E-06  0.3110075E+04  0.7818609E-02  0.8212978E-01
        4   -1    0    0  501    0  0.00000000000E+00  0.00000000000E+00  0.15261153016E+04  0.15261158300E+04  0.12699999809E+01 0.  1.
       -4   -1    0    0    0  501  0.00000000000E+00  0.00000000000E+00 -0.15845066071E+04  0.15845071161E+04  0.12699999809E+01 0. -1.
    10030    2    1    2    0    0  0.00000000000E+00  0.00000000000E+00 -0.58391305510E+02  0.31106229461E+04  0.31100748493E+04 0.  0.
        1    1    3    3  502    0 -0.22248828227E+03 -0.29728565828E+03 -0.15395152804E+04  0.15836625578E+04  0.50400001928E-02 0. -1.
       -1    1    3    3    0  502  0.22248828227E+03  0.29728565828E+03  0.14811239749E+04  0.15269603883E+04  0.50400001928E-02 0.  1.
</event>
<event>
 5   0  0.3445410E-06  0.2980981E+04  0.7818609E-02  0.8249183E-01
        2   -1    0    0  501    0  0.00000000000E+00  0.00000000000E+00  0.19572572523E+04  0.19572572523E+04  0.25500000920E-02 0. -1.
       -2   -1    0    0    0  501  0.00000000000E+00  0.00000000000E+00 -0.11350381837E+04  0.11350381837E+04  0.25500000920E-02 0.  1.
    10030    2    1    2    0    0  0.00000000000E+00  0.00000000000E+00  0.82221906856E+03  0.30922954360E+04  0.29809808565E+04 0.  0.
        1    1    3    3  502    0  0.12000852257E+04  0.73455988999E+03 -0.98961924717E+02  0.14105233934E+04  0.50400001928E-02 0.  1.
       -1    1    3    3    0  502 -0.12000852257E+04 -0.73455988999E+03  0.92118099328E+03  0.16817720426E+04  0.50400001928E-02 0. -1.
</event>
<event>
 5   0  0.3441897E-06  0.3079726E+04  0.7818609E-02  0.8221324E-01
       -2   -1    0    0    0  501  0.00000000000E+00  0.00000000000E+00  0.16763697897E+04  0.16763697897E+04  0.25500000920E-02 0. -1.
        2   -1    0    0  501    0  0.00000000000E+00  0.00000000000E+00 -0.14144716002E+04  0.14144716002E+04  0.25500000920E-02 0.  1.
    10030    2    1    2    0    0  0.00000000000E+00  0.00000000000E+00  0.26189818952E+03  0.30908413900E+04  0.30797256105E+04 0.  0.
        5    1    3    3  502    0 -0.14832897355E+04 -0.36971604841E+03  0.31686612916E+03  0.15611741189E+04  0.46999998093E+01 0.  1.
       -5    1    3    3    0  502  0.14832897355E+04  0.36971604841E+03 -0.54967939639E+02  0.15296672711E+04  0.46999998093E+01 0. -1.
</event>
<event>
 5   0  0.3445959E-06  0.3085143E+04  0.7818609E-02  0.8219827E-01
        2   -1    0    0  501    0  0.00000000000E+00  0.00000000000E+00  0.22810765749E+04  0.22810765749E+04  0.25500000920E-02 0. -1.
       -2   -1    0    0    0  501  0.00000000000E+00  0.00000000000E+00 -0.10431592467E+04  0.10431592467E+04  0.25500000920E-02 0.  1.
    10030    2    1    2    0    0  0.00000000000E+00  0.00000000000E+00  0.12379173283E+04  0.33242358216E+04  0.30851425390E+04 0.  0.
        4    1    3    3  502    0  0.12273328092E+04  0.22177585586E+03 -0.35913097015E+03  0.12978855964E+04  0.12699999809E+01 0.  1.
       -4    1    3    3    0  502 -0.12273328092E+04 -0.22177585586E+03  0.15970482984E+04  0.20263502252E+04  0.12699999809E+01 0. -1.
</event>
<event>
 5   0  0.1211008E-06  0.3030175E+04  0.7818609E-02  0.8235166E-01
        1   -1    0    0  501    0  0.00000000000E+00  0.00000000000E+00  0.25559636499E+04  0.25559636499E+04  0.50400001928E-02 0.  1.
       -1   -1    0    0    0  501  0.00000000000E+00  0.00000000000E+00 -0.89809184498E+03  0.89809184499E+03  0.50400001928E-02 0. -1.
    10030    2    1    2    0    0  0.00000000000E+00  0.00000000000E+00  0.16578718049E+04  0.34540554949E+04  0.30301749851E+04 0.  0.
        3    1    3    3  502    0 -0.13251039475E+04 -0.67415477662E+03  0.11614721961E+04  0.18866379640E+04  0.10100000352E+00 0. -1.
       -3    1    3    3    0  502  0.13251039475E+04  0.67415477662E+03  0.49639960881E+03  0.15674175309E+04  0.10100000352E+00 0.  1.
</event>
<event>
 5   0  0.1211008E-06  0.3071547E+04  0.7818609E-02  0.8223590E-01
        1   -1    0    0  501    0  0.00000000000E+00  0.00000000000E+00  0.20780677900E+04  0.20780677900E+04  0.50400001928E-02 0.  1.
       -1   -1    0    0    0  501  0.00000000000E+00  0.00000000000E+00 -0.11349966069E+04  0.11349966069E+04  0.50400001928E-02 0. -1.
    10030    2    1    2    0    0  0.00000000000E+00  0.00000000000E+00  0.94307118311E+03  0.32130643968E+04  0.30715467703E+04 0.  0.
        3    1    3    3  502    0 -0.39602722418E+03 -0.60801021660E+03  0.18874441690E+04  0.20221175750E+04  0.10100000352E+00 0.  1.
       -3    1    3    3    0  502  0.39602722418E+03  0.60801021660E+03 -0.94437298590E+03  0.11909468219E+04  0.10100000352E+00 0. -1.
</event>
<event>
 5   0  0.3340899E-06  0.3106414E+04  0.7818609E-02  0.8213980E-01
        2   -1    0    0  501    0  0.00000000000E+00  0.00000000000E+00  0.12365078397E+04  0.12365078397E+04  0.25500000920E-02 0. -1.
       -2   -1    0    0    0  501  0.00000000000E+00  0.00000000000E+00 -0.19510198317E+04  0.19510198317E+04  0.25500000920E-02 0.  1.
    10030    2    1    2    0    0  0.00000000000E+00  0.00000000000E+00 -0.71451199197E+03  0.31875276714E+04  0.31064135702E+04 0.  0.
        3    1    3    3  502    0  0.70475341785E+03  0.74477676748E+03  0.83986143196E+03  0.13254195745E+04  0.10100000352E+00 0. -1.
       -3    1    3    3    0  502 -0.70475341785E+03 -0.74477676748E+03 -0.15543734239E+04  0.18621080969E+04  0.10100000352E+00 0.  1.
</event>
<event>
 5   0  0.3445959E-06  0.3103104E+04  0.7818609E-02  0.8214887E-01
        2   -1    0    0  501    0  0.00000000000E+00  0.00000000000E+00  0.15611684594E+04  0.15611684594E+04  0.25500000920E-02 0.  1.
       -2   -1    0    0    0  501  0.00000000000E+00  0.00000000000E+00 -0.15419947536E+04  0.15419947536E+04  0.25500000920E-02 0. -1.
    10030    2    1    2    0    0  0.00000000000E+00  0.00000000000E+00  0.19173705784E+02  0.31031632130E+04  0.31031039775E+04 0.  0.
        4    1    3    3  502    0  0.56935451234E+03  0.93174468032E+03 -0.10927042329E+04  0.15447708126E+04  0.12699999809E+01 0. -1.
       -4    1    3    3    0  502 -0.56935451234E+03 -0.93174468032E+03  0.11118779387E+04  0.15583924004E+04  0.12699999809E+01 0.  1.
</event>
<event>
 5   0  0.1171915E-06  0.3080215E+04  0.7818609E-02  0.8221189E-01
       -1   -1    0    0    0  501  0.00000000000E+00  0.00000000000E+00  0.13422412707E+04  0.13422412707E+04  0.50400001928E-02 0.  1.
        1   -1    0    0  501    0  0.00000000000E+00  0.00000000000E+00 -0.17671424625E+04  0.17671424625E+04  0.50400001928E-02 0. -1.
    10030    2    1    2    0    0  0.00000000000E+00  0.00000000000E+00 -0.42490119179E+03  0.31093837332E+04  0.30802152811E+04 0.  0.
        2    1    3    3  502    0 -0.12526939952E+04 -0.19872040952E+03  0.66943508091E+03  0.14341810814E+04  0.25500000920E-02 0.  1.
       -2    1    3    3    0  502  0.12526939952E+04  0.19872040952E+03 -0.10943362727E+04  0.16752026518E+04  0.25500000920E-02 0. -1.
</event>
<event>
 5   0  0.1198763E-06  0.3124355E+04  0.7818609E-02  0.8209086E-01
        1   -1    0    0  501    0  0.00000000000E+00  0.00000000000E+00  0.18620279917E+04  0.18620279917E+04  0.50400001928E-02 0.  1.
       -1   -1    0    0    0  501  0.00000000000E+00  0.00000000000E+00 -0.13106130585E+04  0.13106130585E+04  0.50400001928E-02 0. -1.
    10030    2    1    2    0    0  0.00000000000E+00  0.00000000000E+00  0.55141493329E+03  0.31726410502E+04  0.31243547822E+04 0.  0.
        1    1    3    3  502    0 -0.18345652742E+03 -0.13886228610E+04 -0.42669697632E+03  0.14642404370E+04  0.50400001928E-02 0. -1.
       -1    1    3    3    0  502  0.18345652742E+03  0.13886228610E+04  0.97811190961E+03  0.17084006132E+04  0.50400001928E-02 0.  1.
</event>
<event>
 5   0  0.1171915E-06  0.3070623E+04  0.7818609E-02  0.8223847E-01
       -1   -1    0    0    0  501  0.00000000000E+00  0.00000000000E+00  0.18104052340E+04  0.18104052340E+04  0.50400001928E-02 0.  1.
        1   -1    0    0  501    0  0.00000000000E+00  0.00000000000E+00 -0.13020189793E+04  0.13020189793E+04  0.50400001928E-02 0. -1.
    10030    2    1    2    0    0  0.00000000000E+00  0.00000000000E+00  0.50838625470E+03  0.31124242133E+04  0.30706233731E+04 0.  0.
        2    1    3    3  502    0  0.96713060869E+03  0.10080200763E+02 -0.95440560429E+03  0.13587984700E+04  0.25500000920E-02 0. -1.
       -2    1    3    3    0  502 -0.96713060869E+03 -0.10080200763E+02  0.14627918590E+04  0.17536257433E+04  0.25500000920E-02 0.  1.
</event>
<event>
 5   0  0.3445959E-06  0.3115581E+04  0.7818609E-02  0.8211475E-01
       -2   -1    0    0    0  501  0.00000000000E+00  0.00000000000E+00  0.99174110374E+03  0.99174110374E+03  0.25500000920E-02 0.  1.
        2   -1    0    0  501    0  0.00000000000E+00  0.00000000000E+00 -0.24469197035E+04  0.24469197035E+04  0.25500000920E-02 0. -1.
    10030    2    1    2    0    0  0.00000000000E+00  0.00000000000E+00 -0.14551785998E+04  0.34386608072E+04  0.31155807468E+04 0.  0.
        4    1    3    3  502    0 -0.15209408136E+04 -0.14223838659E+03 -0.10645635880E+04  0.18619317825E+04  0.12699999809E+01 0. -1.
       -4    1    3    3    0  502  0.15209408136E+04  0.14223838659E+03 -0.39061501177E+03  0.15767290247E+04  0.12699999809E+01 0.  1.
</event>
<event>
 5   0  0.3445959E-06  0.2829058E+04  0.7818609E-02  0.8294303E-01
       -2   -1    0    0    0  501  0.00000000000E+00  0.00000000000E+00  0.10153664533E+04  0.10153664533E+04  0.25500000920E-02 0.  1.
        2   -1    0    0  501    0  0.00000000000E+00  0.00000000000E+00 -0.19706112426E+04  0.19706112426E+04  0.25500000920E-02 0. -1.
    10030    2    1    2    0    0  0.00000000000E+00  0.00000000000E+00 -0.95524478928E+03  0.29859776959E+04  0.28290581813E+04 0.  0.
        4    1    3    3  502    0 -0.10047955049E+03  0.12889106680E+04 -0.10834863027E+04  0.16868109056E+04  0.12699999809E+01 0. -1.
       -4    1    3    3    0  502  0.10047955049E+03 -0.12889106680E+04  0.12824151347E+03  0.12991667903E+04  0.12699999809E+01 0.  1.
</event>
<event>
 5   0  0.3441897E-06  0.3003223E+04  0.7818609E-02  0.8242811E-01
        2   -1    0    0  501    0  0.00000000000E+00  0.00000000000E+00  0.14033674096E+04  0.14033674096E+04  0.25500000920E-02 0.  1.
       -2   -1    0    0    0  501  0.00000000000E+00  0.00000000000E+00 -0.16067333840E+04  0.16067333840E+04  0.25500000920E-02 0. -1.
    10030    2    1    2    0    0  0.00000000000E+00  0.00000000000E+00 -0.20336597442E+03  0.30101007936E+04  0.30032231133E+04 0.  0.
        5    1    3    3  502    0  0.37984197648E+03  0.36475927013E+03  0.13077685287E+04  0.14098261832E+04  0.46999998093E+01 0.  1.
       -5    1    3    3    0  502 -0.37984197648E+03 -0.36475927013E+03 -0.15111345031E+04  0.16002746104E+04  0.46999998093E+01 0. -1.
</event>
<event>
 5   0  0.1211008E-06  0.3088920E+04  0.7818609E-02  0.8218785E-01
       -1   -1    0    0    0  501  0.00000000000E+00  0.00000000000E+00  0.92236886307E+03  0.92236886309E+03  0.50400001928E-02 0. -1.
        1   -1    0    0  501    0  0.00000000000E+00  0.00000000000E+00 -0.25861198161E+04  0.25861198161E+04  0.50400001928E-02 0.  1.
    10030    2    1    2    0    0  0.00000000000E+00  0.00000000000E+00 -0.16637509531E+04  0.35084886792E+04  0.30889198077E+04 0.  0.
        3    1    3    3  502    0 -0.65830004109E+03  0.10959052648E+04  0.15243081286E+03  0.12874791091E+04  0.10100000352E+00 0. -1.
       -3    1    3    3    0  502  0.65830004109E+03 -0.10959052648E+04 -0.18161817659E+04  0.22210095701E+04  0.10100000352E+00 0.  1.
</event>
<event>
 5   0  0.1171915E-06  0.3108716E+04  0.7818609E-02  0.8213350E-01
       -1   -1    0    0    0  501  0.00000000000E+00  0.00000000000E+00  0.13498430567E+04  0.13498430567E+04  0.50400001928E-02 0.  1.
        1   -1    0    0  501    0  0.00000000000E+00  0.00000000000E+00 -0.17898592072E+04  0.17898592072E+04  0.50400001928E-02 0. -1.
    10030    2    1    2    0    0  0.00000000000E+00  0.00000000000E+00 -0.44001615048E+03  0.31397022640E+04  0.31087161488E+04 0.  0.
        2    1    3    3  502    0  0.15593642436E+03  0.11256594790E+04 -0.12910516252E+04  0.17199534093E+04  0.25500000920E-02 0. -1.
       -2    1    3    3    0  502 -0.15593642436E+03 -0.11256594790E+04  0.85103547476E+03  0.14197488547E+04  0.25500000920E-02 0.  1.
</event>
<event>
 5   0  0.3445410E-06  0.3164824E+04  0.7818609E-02  0.8198169E-01
       -2   -1    0    0    0  501  0.00000000000E+00  0.00000000000E+00  0.15189057373E+04  0.15189057373E+04  0.25500000920E-02 0. -1.
        2   -1    0    0  501    0  0.00000000000E+00  0.00000000000E+00 -0.16485733732E+04  0.16485733732E+04  0.25500000920E-02 0.  1.
    10030    2    1    2    0    0  0.00000000000E+00  0.00000000000E+00 -0.12966763584E+03  0.31674791105E+04  0.31648238845E+04 0.  0.
        1    1    3    3  502    0 -0.12778053030E+04 -0.42292805879E+03 -0.89762147529E+03  0.16178315265E+04  0.50400001928E-02 0. -1.
       -1    1    3    3    0  502  0.12778053030E+04  0.42292805879E+03  0.76795383945E+03  0.15496475840E+04  0.50400001928E-02 0.  1.
</event>
<event>
 5   0  0.1235960E-06  0.3066321E+04  0.7818609E-02  0.8225042E-01
        1   -1    0    0  501    0  0.00000000000E+00  0.00000000000E+00  0.16898559270E+04  0.16898559270E+04  0.50400001928E-02 0. -1.
       -1   -1    0    0    0  501  0.00000000000E+00  0.00000000000E+00 -0.13909953839E+04  0.13909953839E+04  0.50400001928E-02 0.  1.
    10030    2    1    2    0    0  0.00000000000E+00  0.00000000000E+00  0.29886054315E+03  0.30808513109E+04  0.30663214404E+04 0.  0.
        4    1    3    3  502    0  0.12698541298E+04  0.69885492216E+03  0.65145023847E+03  0.15891245198E+04  0.12699999809E+01 0. -1.
       -4    1    3    3    0  502 -0.12698541298E+04 -0.69885492216E+03 -0.35258969533E+03  0.14917267912E+04  0.12699999809E+01 0.  1.
</event>
<event>
 5   0  0.3445959E-06  0.3130952E+04  0.7818609E-02  0.8207294E-01
        2   -1    0    0  501    0  0.00000000000E+00  0.00000000000E+00  0.12995771568E+04  0.12995771568E+04  0.25500000920E-02 0. -1.
       -2   -1    0    0    0  501  0.00000000000E+00  0.00000000000E+00 -0.18857794281E+04  0.18857794281E+04  0.25500000920E-02 0.  1.
    10030    2    1    2    0    0  0.00000000000E+00  0.00000000000E+00 -0.58620227129E+03  0.31853565850E+04  0.31309524862E+04 0.  0.
        4    1    3    3  502    0  0.10318009525E+03 -0.31772843765E+03 -0.18490937459E+04  0.18790281494E+04  0.12699999809E+01 0.  1.
       -4    1    3    3    0  502 -0.10318009525E+03  0.31772843765E+03  0.12628914746E+04  0.13063284356E+04  0.12699999809E+01 0. -1.
</event>
<event>
 5   0  0.3374790E-06  0.3039309E+04  0.7818609E-02  0.8232594E-01
        2   -1    0    0  501    0  0.00000000000E+00  0.00000000000E+00  0.20513234851E+04  0.20513234851E+04  0.25500000920E-02 0. -1.
       -2   -1    0    0    0  501  0.00000000000E+00  0.00000000000E+00 -0.11257853060E+04  0.11257853060E+04  0.25500000920E-02 0.  1.
    10030    2    1    2    0    0  0.00000000000E+00  0.00000000000E+00  0.92553817915E+03  0.31771087911E+04  0.30393090250E+04 0.  0.
        2    1    3    3  502    0 -0.19004578787E+03  0.10955085352E+04 -0.62010012145E+03  0.12730987836E+04  0.25500000920E-02 0.  1.
       -2    1    3    3    0  502  0.19004578787E+03 -0.10955085352E+04  0.15456383006E+04  0.19040100075E+04  0.25500000920E-02 0. -1.
</event>
<event>
 5   0  0.1235960E-06  0.3083936E+04  0.7818609E-02  0.8220160E-01
        1   -1    0    0  501    0  0.00000000000E+00  0.00000000000E+00  0.20417277241E+04  0.20417277241E+04  0.50400001928E-02 0.  1.
       -1   -1    0    0    0  501  0.00000000000E+00  0.00000000000E+00 -0.11645359494E+04  0.11645359494E+04  0.50400001928E-02 0. -1.
    10030    2    1    2    0    0  0.00000000000E+00  0.00000000000E+00  0.87719177473E+03  0.32062636735E+04  0.30839360133E+04 0.  0.
        4    1    3    3  502    0 -0.61393497253E+03 -0.74705747267E+03  0.16873437930E+04  0.19447729190E+04  0.12699999809E+01 0.  1.
       -4    1    3    3    0  502  0.61393497253E+03  0.74705747267E+03 -0.81015201825E+03  0.12614907544E+04  0.12699999809E+01 0. -1.
</event>
<event>
 5   0  0.3445959E-06  0.3039868E+04  0.7818609E-02  0.8232437E-01
        2   -1    0    0  501    0  0.00000000000E+00  0.00000000000E+00  0.16868718546E+04  0.16868718546E+04  0.25500000920E-02 0.  1.
       -2   -1    0    0    0  501  0.00000000000E+00  0.00000000000E+00 -0.13695169475E+04  0.13695169475E+04  0.25500000920E-02 0. -1.
    10030    2    1    2    0    0  0.00000000000E+00  0.00000000000E+00  0.31735490711E+03  0.30563888022E+04  0.30398681506E+04 0.  0.
        4    1    3    3  502    0 -0.10761273195E+04  0.25081656464E+02  0.12375978039E+04  0.16402222515E+04  0.12699999809E+01 0.  1.
       -4    1    3    3    0  502  0.10761273195E+04 -0.25081656464E+02 -0.92024289676E+03  0.14161665507E+04  0.12699999809E+01 0. -1.
</event>
<event>
 5   0  0.1211008E-06  0.3111651E+04  0.7818609E-02  0.8212548E-01
       -1   -1    0    0    0  501  0.00000000000E+00  0.00000000000E+00  0.18026578878E+04  0.18026578878E+04  0.50400001928E-02 0. -1.
        1   -1    0    0  501    0  0.00000000000E+00  0.00000000000E+00 -0.13427909266E+04  0.13427909266E+04  0.50400001928E-02 0.  1.
    10030    2    1    2    0    0  0.00000000000E+00  0.00000000000E+00  0.45986696118E+03  0.31454488145E+04  0.31116507873E+04 0.  0.
        3    1    3    3  502    0  0.87581580273E+03 -0.10748766846E+03  0.15252516571E+04  0.17621008901E+04  0.10100000352E+00 0. -1.
       -3    1    3    3    0  502 -0.87581580273E+03  0.10748766846E+03 -0.10653846960E+04  0.13833479243E+04  0.10100000352E+00 0.  1.
</event>
<event>
 5   0  0.3441897E-06  0.2985101E+04  0.7818609E-02  0.8247998E-01
        2   -1    0    0  501    0  0.00000000000E+00  0.00000000000E+00  0.32937084964E+04  0.32937084964E+04  0.25500000920E-02 0.  1.
       -2   -1    0    0    0  501  0.00000000000E+00  0.00000000000E+00 -0.67635235798E+03  0.67635235799E+03  0.25500000920E-02 0. -1.
    10030    2    1    2    0    0  0.00000000000E+00  0.00000000000E+00  0.26173561384E+04  0.39700608544E+04  0.29851013437E+04 0.  0.
        5    1    3    3  502    0 -0.16591948156E+03 -0.36809451904E+03 -0.60233046280E+03  0.72515303607E+03  0.46999998093E+01 0. -1.
       -5    1    3    3    0  502  0.16591948156E+03  0.36809451904E+03  0.32196866012E+04  0.32449078183E+04  0.46999998093E+01 0.  1.
</event>
<event>
 5   0  0.3441897E-06  0.3096362E+04  0.7818609E-02  0.8216737E-01
        2   -1    0    0  501    0  0.00000000000E+00  0.00000000000E+00  0.16351865248E+04  0.16351865248E+04  0.25500000920E-02 0.  1.
       -2   -1    0    0    0  501  0.00000000000E+00  0.00000000000E+00 -0.14658049513E+04  0.14658049513E+04  0.25500000920E-02 0. -1.
    10030    2    1    2    0    0  0.00000000000E+00  0.00000000000E+00  0.16938157354E+03  0.31009914761E+04  0.30963620618E+04 0.  0.
        5    1    3    3  502    0 -0.97283644266E+02 -0.15149225935E+04  0.38909891706E+03  0.15671230421E+04  0.46999998093E+01 0.  1.
       -5    1    3    3    0  502  0.97283644266E+02  0.15149225935E+04 -0.21971734352E+03  0.15338684340E+04  0.46999998093E+01 0. -1.
</event>
<event>
 5   0  0.3445410E-06  0.3167113E+04  0.7818609E-02  0.8197557E-01
       -2   -1    0    0    0  501  0.00000000000E+00  0.00000000000E+00  0.80153973132E+03  0.80153973133E+03  0.25500000920E-02 0. -1.
        2   -1    0    0  501    0  0.00000000000E+00  0.00000000000E+00 -0.31285435086E+04  0.31285435086E+04  0.25500000920E-02 0.  1.
    10030    2    1    2    0    0  0.00000000000E+00  0.00000000000E+00 -0.23270037773E+04  0.39300832400E+04  0.31671134639E+04 0.  0.
        1    1    3    3  502    0 -0.10151311610E+04  0.61366575362E+03  0.13830914015E+03  0.11942388160E+04  0.50400001928E-02 0. -1.
       -1    1    3    3    0  502  0.10151311610E+04 -0.61366575362E+03 -0.24653129175E+04  0.27358444240E+04  0.50400001928E-02 0.  1.
</event>
<event>
 5   0  0.1235960E-06  0.3093588E+04  0.7818609E-02  0.8217500E-01
        1   -1    0    0  501    0  0.00000000000E+00  0.00000000000E+00  0.92258192404E+03  0.92258192405E+03  0.50400001928E-02 0.  1.
       -1   -1    0    0    0  501  0.00000000000E+00  0.00000000000E+00 -0.25933426644E+04  0.25933426645E+04  0.50400001928E-02 0. -1.
    10030    2    1    2    0    0  0.00000000000E+00  0.00000000000E+00 -0.16707607404E+04  0.35159245885E+04  0.30935876035E+04 0.  0.
        4    1    3    3  502    0 -0.73460782393E+03 -0.49693557922E+03 -0.22756593911E+04  0.24423801715E+04  0.12699999809E+01 0. -1.
       -4    1    3    3    0  502  0.73460782393E+03  0.49693557922E+03  0.60489865067E+03  0.10735444170E+04  0.12699999809E+01 0.  1.
</event>
<event>
 5   0  0.1211008E-06  0.3185223E+04  0.7818609E-02  0.8192731E-01
       -1   -1    0    0    0  501  0.00000000000E+00  0.00000000000E+00  0.10758879606E+04  0.10758879606E+04  0.50400001928E-02 0.  1.
        1   -1    0    0  501    0  0.00000000000E+00  0.00000000000E+00 -0.23575044317E+04  0.23575044317E+04  0.50400001928E-02 0. -1.
    10030    2    1    2    0    0  0.00000000000E+00  0.00000000000E+00 -0.12816164711E+04  0.34333923924E+04  0.31852225262E+04 0.  0.
        3    1    3    3  502    0 -0.87104377425E+03  0.12782654494E+04 -0.10494649111E+04  0.18692395313E+04  0.10100000352E+00 0.  1.
       -3    1    3    3    0  502  0.87104377425E+03 -0.12782654494E+04 -0.23215156000E+03  0.15641528610E+04  0.10100000352E+00 0. -1.
</event>
<event>
 5   0  0.1211008E-06  0.3088250E+04  0.7818609E-02  0.8218970E-01
        1   -1    0    0  501    0  0.00000000000E+00  0.00000000000E+00  0.14947171134E+04  0.14947171134E+04  0.50400001928E-02 0. -1.
       -1   -1    0    0    0  501  0.00000000000E+00  0.00000000000E+00 -0.15951664967E+04  0.15951664967E+04  0.50400001928E-02 0.  1.
    10030    2    1    2    0    0  0.00000000000E+00  0.00000000000E+00 -0.10044938337E+03  0.30898836101E+04  0.30882504182E+04 0.  0.
        3    1    3    3  502    0 -0.10555501359E+04 -0.73976333152E+03  0.80045242744E+03  0.15172870443E+04  0.10100000352E+00 0. -1.
       -3    1    3    3    0  502  0.10555501359E+04  0.73976333152E+03 -0.90090181081E+03  0.15725965658E+04  0.10100000352E+00 0.  1.
</event>
<event>
 5   0  0.3445959E-06  0.2716069E+04  0.7818609E-02  0.8329810E-01
        2   -1    0    0  501    0  0.00000000000E+00  0.00000000000E+00  0.11276907596E+04  0.11276907596E+04  0.25500000920E-02 0.  1.
       -2   -1    0    0    0  501  0.00000000000E+00  0.00000000000E+00 -0.16354290187E+04  0.16354290187E+04  0.25500000920E-02 0. -1.
    10030    2    1    2    0    0  0.00000000000E+00  0.00000000000E+00 -0.50773825913E+03  0.27631197783E+04  0.27160693602E+04 0.  0.
        4    1    3    3  502    0 -0.98299986652E+03  0.45556859346E+03 -0.10868480045E+04  0.15346242793E+04  0.12699999809E+01 0. -1.
       -4    1    3    3    0  502  0.98299986652E+03 -0.45556859346E+03  0.57910974537E+03  0.12284954990E+04  0.12699999809E+01 0.  1.
</event>
<event>
 5   0  0.1250276E-06  0.3109946E+04  0.7818609E-02  0.8213014E-01
        1   -1    0    0  501    0  0.00000000000E+00  0.00000000000E+00  0.16772016837E+04  0.16772016837E+04  0.50400001928E-02 0.  1.
       -1   -1    0    0    0  501  0.00000000000E+00  0.00000000000E+00 -0.14416518488E+04  0.14416518488E+04  0.50400001928E-02 0. -1.
    10030    2    1    2    0    0  0.00000000000E+00  0.00000000000E+00  0.23554983497E+03  0.31188535325E+04  0.31099459212E+04 0.  0.
        5    1    3    3  502    0 -0.32545563966E+03 -0.14389640547E+04  0.61048640620E+03  0.15966385521E+04  0.46999998093E+01 0.  1.
       -5    1    3    3    0  502  0.32545563966E+03  0.14389640547E+04 -0.37493657123E+03  0.15222149804E+04  0.46999998093E+01 0. -1.
</event>
<event>
 5   0  0.1235960E-06  0.3103097E+04  0.7818609E-02  0.8214888E-01
        1   -1    0    0  501    0  0.00000000000E+00  0.00000000000E+00  0.21862126092E+04  0.21862126092E+04  0.50400001928E-02 0. -1.
       -1   -1    0    0    0  501  0.00000000000E+00  0.00000000000E+00 -0.11011293772E+04  0.11011293772E+04  0.50400001928E-02 0.  1.
    10030    2    1    2    0    0  0.00000000000E+00  0.00000000000E+00  0.10850832320E+04  0.32873419864E+04  0.31030971167E+04 0.  0.
        4    1    3    3  502    0  0.33708969235E+03  0.13779503095E+04  0.12082847900E+04  0.18634189713E+04  0.12699999809E+01 0. -1.
       -4    1    3    3    0  502 -0.33708969235E+03 -0.13779503095E+04 -0.12320155794E+03  0.14239230151E+04  0.12699999809E+01 0.  1.
</event>
<event>
 5   0  0.1171915E-06  0.3332902E+04  0.7818609E-02  0.8154574E-01
       -1   -1    0    0    0  501  0.00000000000E+00  0.00000000000E+00  0.16578939858E+04  0.16578939858E+04  0.50400001928E-02 0. -1.
        1   -1    0    0  501    0  0.00000000000E+00  0.00000000000E+00 -0.16750519115E+04  0.16750519115E+04  0.50400001928E-02 0.  1.
    10030    2    1    2    0    0  0.00000000000E+00  0.00000000000E+00 -0.17157925690E+02  0.33329458973E+04  0.33329017327E+04 0.  0.
        2    1    3    3  502    0  0.81107852880E+03  0.14527043661E+04 -0.10270849960E+03  0.16669575252E+04  0.25500000920E-02 0.  1.
       -2    1    3    3    0  502 -0.81107852880E+03 -0.14527043661E+04  0.85550573914E+02  0.16659883720E+04  0.25500000920E-02 0. -1.
</event>
<event>
 5   0  0.3340899E-06  0.3093129E+04  0.7818609E-02  0.8217626E-01
        2   -1    0    0  501    0  0.00000000000E+00  0.00000000000E+00  0.17381264285E+04  0.17381264285E+04  0.25500000920E-02 0. -1.
       -2   -1    0    0    0  501  0.00000000000E+00  0.00000000000E+00 -0.13761153405E+04  0.13761153406E+04  0.25500000920E-02 0.  1.
    10030    2    1    2    0    0  0.00000000000E+00  0.00000000000E+00  0.36201108792E+03  0.31142417690E+04  0.30931294457E+04 0.  0.
        3    1    3    3  502    0  0.14325532872E+03  0.10036056982E+04  0.13569312185E+04  0.16938148744E+04  0.10100000352E+00 0. -1.
       -3    1    3    3    0  502 -0.14325532872E+03 -0.10036056982E+04 -0.99492013056E+03  0.14204268947E+04  0.10100000352E+00 0.  1.
</event>
<event>
 5   0  0.3445959E-06  0.2966167E+04  0.7818609E-02  0.8253458E-01
       -2   -1    0    0    0  501  0.00000000000E+00  0.00000000000E+00  0.12422871642E+04  0.12422871642E+04  0.25500000920E-02 0.  1.
        2   -1    0    0  501    0  0.00000000000E+00  0.00000000000E+00 -0.17705545874E+04  0.17705545874E+04  0.25500000920E-02 0. -1.
    10030    2    1    2    0    0  0.00000000000E+00  0.00000000000E+00 -0.52826742324E+03  0.30128417516E+04  0.29661673840E+04 0.  0.
        4    1    3    3  502    0  0.44369265210E+03 -0.56405910867E+02 -0.17004178825E+04  0.17582569165E+04  0.12699999809E+01 0. -1.
       -4    1    3    3    0  502 -0.44369265210E+03  0.56405910867E+02  0.11721504593E+04  0.12545848351E+04  0.12699999809E+01 0.  1.
</event>
<event>
 5   0  0.3445410E-06  0.3083101E+04  0.7818609E-02  0.8220391E-01
        2   -1    0    0  501    0  0.00000000000E+00  0.00000000000E+00  0.30027939605E+04  0.30027939605E+04  0.25500000920E-02 0.  1.
       -2   -1    0    0    0  501  0.00000000000E+00  0.00000000000E+00 -0.79138896654E+03  0.79138896654E+03  0.25500000920E-02 0. -1.
    10030    2    1    2    0    0  0.00000000000E+00  0.00000000000E+00  0.22114049940E+04  0.37941829271E+04  0.30831010422E+04 0.  0.
        1    1    3    3  502    0 -0.31316815675E+03 -0.42265947679E+03  0.28889239164E+04  0.29364258414E+04  0.50400001928E-02 0.  1.
       -1    1    3    3    0  502  0.31316815675E+03  0.42265947679E+03 -0.67751892238E+03  0.85775708562E+03  0.50400001928E-02 0. -1.
</event>
<event>
 5   0  0.3340899E-06  0.3150972E+04  0.7818609E-02  0.8201887E-01
        2   -1    0    0  501    0  0.00000000000E+00  0.00000000000E+00  0.13524531897E+04  0.13524531897E+04  0.25500000920E-02 0. -1.
       -2   -1    0    0    0  501  0.00000000000E+00  0.00000000000E+00 -0.18352996474E+04  0.18352996474E+04  0.25500000920E-02 0.  1.
    10030    2    1    2    0    0  0.00000000000E+00  0.00000000000E+00 -0.48284645772E+03  0.31877528371E+04  0.31509724608E+04 0.  0.
        3    1    3    3  502    0 -0.22554973999E+03  0.12809387952E+04  0.65804425546E+03  0.14576347741E+04  0.10100000352E+00 0. -1.
       -3    1    3    3    0  502  0.22554973999E+03 -0.12809387952E+04 -0.11408907132E+04  0.17301180630E+04  0.10100000352E+00 0.  1.
</event>
<event>
 5   0  0.1250276E-06  0.3074052E+04  0.7818609E-02  0.8222895E-01
        1   -1    0    0  501    0  0.00000000000E+00  0.00000000000E+00  0.18573096686E+04  0.18573096686E+04  0.50400001928E-02 0.  1.
       -1   -1    0    0    0  501  0.00000000000E+00  0.00000000000E+00 -0.12719734808E+04  0.12719734808E+04  0.50400001928E-02 0. -1.
    10030    2    1    2    0    0  0.00000000000E+00  0.00000000000E+00  0.58533618777E+03  0.31292831494E+04  0.30740518175E+04 0.  0.
        5    1    3    3  502    0 -0.13566590419E+04  0.72233819702E+03  0.28104687720E+03  0.15624678121E+04  0.46999998093E+01 0. -1.
       -5    1    3    3    0  502  0.13566590419E+04 -0.72233819702E+03  0.30428931057E+03  0.15668153373E+04  0.46999998093E+01 0.  1.
</event>
<event>
 5   0  0.1235960E-06  0.3114768E+04  0.7818609E-02  0.8211697E-01
        1   -1    0    0  501    0  0.00000000000E+00  0.00000000000E+00  0.12886142391E+04  0.12886142392E+04  0.50400001928E-02 0. -1.
       -1   -1    0    0    0  501  0.00000000000E+00  0.00000000000E+00 -0.18822121202E+04  0.18822121202E+04  0.50400001928E-02 0.  1.
    10030    2    1    2    0    0  0.00000000000E+00  0.00000000000E+00 -0.59359788105E+03  0.31708263594E+04  0.31147682669E+04 0.  0.
        4    1    3    3  502    0  0.12938216475E+03 -0.14273873533E+04 -0.91708390320E+03  0.17015342780E+04  0.12699999809E+01 0.  1.
       -4    1    3    3    0  502 -0.12938216475E+03  0.14273873533E+04  0.32348602215E+03  0.14692920813E+04  0.12699999809E+01 0. -1.
</event>
<event>
 5   0  0.1250276E-06  0.3087948E+04  0.7818609E-02  0.8219053E-01
        1   -1    0    0  501    0  0.00000000000E+00  0.00000000000E+00  0.21186539419E+04  0.21186539419E+04  0.50400001928E-02 0. -1.
       -1   -1    0    0    0  501  0.00000000000E+00  0.00000000000E+00 -0.11251745482E+04  0.11251745482E+04  0.50400001928E-02 0.  1.
    10030    2    1    2    0    0  0.00000000000E+00  0.00000000000E+00  0.99347939374E+03  0.32438284901E+04  0.30879478570E+04 0.  0.
        5    1    3    3  502    0 -0.82082439878E+02 -0.49930183637E+03  0.20290709863E+04  0.20912175899E+04  0.46999998093E+01 0. -1.
       -5    1    3    3    0  502  0.82082439878E+02  0.49930183637E+03 -0.10355915926E+04  0.11526109002E+04  0.46999998093E+01 0.  1.
</event>
<event>
 5   0  0.1198763E-06  0.3093909E+04  0.7818609E-02  0.8217411E-01
       -1   -1    0    0    0  501  0.00000000000E+00  0.00000000000E+00  0.22436876976E+04  0.22436876976E+04  0.50400001928E-02 0. -1.
        1   -1    0    0  501    0  0.00000000000E+00  0.00000000000E+00 -0.10665784385E+04  0.10665784385E+04  0.50400001928E-02 0.  1.
    10030    2    1    2    0    0  0.00000000000E+00  0.00000000000E+00  0.11771092591E+04  0.33102661362E+04  0.30939094499E+04 0.  0.
        1    1    3    3  502    0 -0.21814917196E+03  0.20883065831E+03  0.22118429820E+04  0.22323639224E+04  0.50400001928E-02 0. -1.
       -1    1    3    3    0  502  0.21814917196E+03 -0.20883065831E+03 -0.10347337229E+04  0.10779022137E+04  0.50400001928E-02 0.  1.
</event>
<event>
 5   0  0.3445959E-06  0.3129916E+04  0.7818609E-02  0.8207575E-01
       -2   -1    0    0    0  501  0.00000000000E+00  0.00000000000E+00  0.11416411966E+04  0.11416411966E+04  0.25500000920E-02 0. -1.
        2   -1    0    0  501    0  0.00000000000E+00  0.00000000000E+00 -0.21452387256E+04  0.21452387256E+04  0.25500000920E-02 0.  1.
    10030    2    1    2    0    0  0.00000000000E+00  0.00000000000E+00 -0.10035975290E+04  0.32868799222E+04  0.31299155935E+04 0.  0.
        4    1    3    3  502    0 -0.84681260678E+03  0.83306814310E+03  0.56811628797E+03  0.13167580839E+04  0.12699999809E+01 0. -1.
       -4    1    3    3    0  502  0.84681260678E+03 -0.83306814310E+03 -0.15717138170E+04  0.19701218382E+04  0.12699999809E+01 0.  1.
</event>
<event>
 5   0  0.3445410E-06  0.3096834E+04  0.7818609E-02  0.8216607E-01
       -2   -1    0    0    0  501  0.00000000000E+00  0.00000000000E+00  0.12097785759E+04  0.12097785759E+04  0.25500000920E-02 0. -1.
        2   -1    0    0  501    0  0.00000000000E+00  0.00000000000E+00 -0.19818465943E+04  0.19818465943E+04  0.25500000920E-02 0.  1.
    10030    2    1    2    0    0  0.00000000000E+00  0.00000000000E+00 -0.77206801838E+03  0.31916251701E+04  0.30968342225E+04 0.  0.
        1    1    3    3  502    0  0.13770062713E+04  0.65329763880E+03 -0.10444667385E+03  0.15276953832E+04  0.50400001928E-02 0. -1.
       -1    1    3    3    0  502 -0.13770062713E+04 -0.65329763880E+03 -0.66762134453E+03  0.16639297869E+04  0.50400001928E-02 0.  1.
</event>
<event>
 5   0  0.3374790E-06  0.3044486E+04  0.7818609E-02  0.8231140E-01
        2   -1    0    0  501    0  0.00000000000E+00  0.00000000000E+00  0.26471959924E+04  0.26471959924E+04  0.25500000920E-02 0. -1.
       -2   -1    0    0    0  501  0.00000000000E+00  0.00000000000E+00 -0.87535038014E+03  0.87535038015E+03  0.25500000920E-02 0.  1.
    10030    2    1    2    0    0  0.00000000000E+00  0.00000000000E+00  0.17718456122E+04  0.35225463725E+04  0.30444861755E+04 0.  0.
        2    1    3    3  502    0  0.12358873626E+04  0.13791311276E+03  0.19017263872E+04  0.22722237679E+04  0.25500000920E-02 0. -1.
       -2    1    3    3    0  502 -0.12358873626E+04 -0.13791311276E+03 -0.12988077495E+03  0.12503226046E+04  0.25500000920E-02 0.  1.
</event>
<event>
 5   0  0.1211008E-06  0.3090914E+04  0.7818609E-02  0.8218236E-01
       -1   -1    0    0    0  501  0.00000000000E+00  0.00000000000E+00  0.19942230356E+04  0.19942230357E+04  0.50400001928E-02 0.  1.
        1   -1    0    0  501    0  0.00000000000E+00  0.00000000000E+00 -0.11976784246E+04  0.11976784246E+04  0.50400001928E-02 0. -1.
    10030    2    1    2    0    0  0.00000000000E+00  0.00000000000E+00  0.79654461107E+03  0.31919014602E+04  0.30909143654E+04 0.  0.
        3    1    3    3  502    0 -0.17058761847E+03  0.69242427461E+03 -0.10176137459E+04  0.12426138812E+04  0.10100000352E+00 0. -1.
       -3    1    3    3    0  502  0.17058761847E+03 -0.69242427461E+03  0.18141583570E+04  0.19492875791E+04  0.10100000352E+00 0.  1.
</event>
<event>
 5   0  0.3340899E-06  0.3071172E+04  0.7818609E-02  0.8223694E-01
       -2   -1    0    0    0  501  0.00000000000E+00  0.00000000000E+00  0.14004089952E+04  0.14004089952E+04  0.25500000920E-02 0.  1.
        2   -1    0    0  501    0  0.00000000000E+00  0.00000000000E+00 -0.16838117430E+04  0.16838117430E+04  0.25500000920E-02 0. -1.
    10030    2    1    2    0    0  0.00000000000E+00  0.00000000000E+00 -0.28340274783E+03  0.30842207383E+04  0.30711724870E+04 0.  0.
        3    1    3    3  502    0  0.89165935054E+03 -0.76132859361E+03 -0.11375532555E+04  0.16336171657E+04  0.10100000352E+00 0. -1.
       -3    1    3    3    0  502 -0.89165935054E+03  0.76132859361E+03  0.85415050764E+03  0.14506035726E+04  0.10100000352E+00 0.  1.
</event>
<event>
 5   0  0.3441897E-06  0.2902382E+04  0.7818609E-02  0.8272169E-01
       -2   -1    0    0    0  501  0.00000000000E+00  0.00000000000E+00  0.11601704260E+04  0.11601704260E+04  0.25500000920E-02 0.  1.
        2   -1    0    0  501    0  0.00000000000E+00  0.00000000000E+00 -0.18152119396E+04  0.18152119396E+04  0.25500000920E-02 0. -1.
    10030    2    1    2    0    0  0.00000000000E+00  0.00000000000E+00 -0.65504151352E+03  0.29753823656E+04  0.29023819248E+04 0.  0.
        5    1    3    3  502    0  0.92318007348E+03  0.51249568118E+03  0.69301775987E+03  0.12630158260E+04  0.46999998093E+01 0.  1.
       -5    1    3    3    0  502 -0.92318007348E+03 -0.51249568118E+03 -0.13480592734E+04  0.17123665396E+04  0.46999998093E+01 0. -1.
</event>
<event>
 5   0  0.3445410E-06  0.3098201E+04  0.7818609E-02  0.8216232E-01
       -2   -1    0    0    0  501  0.00000000000E+00  0.00000000000E+00  0.13438627511E+04  0.13438627511E+04  0.25500000920E-02 0. -1.
        2   -1    0    0  501    0  0.00000000000E+00  0.00000000000E+00 -0.17856829910E+04  0.17856829910E+04  0.25500000920E-02 0.  1.
    10030    2    1    2    0    0  0.00000000000E+00  0.00000000000E+00 -0.44182023987E+03  0.31295457421E+04  0.30982013214E+04 0.  0.
        1    1    3    3  502    0 -0.69831358578E+03 -0.51911597744E+03  0.10736916682E+04  0.13820047252E+04  0.50400001928E-02 0. -1.
       -1    1    3    3    0  502  0.69831358578E+03  0.51911597744E+03 -0.15155119081E+04  0.17475410169E+04  0.50400001928E-02 0.  1.
</event>
<event>
 5   0  0.1211008E-06  0.3157682E+04  0.7818609E-02  0.8200084E-01
       -1   -1    0    0    0  501  0.00000000000E+00  0.00000000000E+00  0.21012915906E+04  0.21012915906E+04  0.50400001928E-02 0. -1.
        1   -1    0    0  501    0  0.00000000000E+00  0.00000000000E+00 -0.11862887696E+04  0.11862887696E+04  0.50400001928E-02 0.  1.
    10030    2    1    2    0    0  0.00000000000E+00  0.00000000000E+00  0.91500282097E+03  0.32875803603E+04  0.31576818178E+04 0.  0.
        3    1    3    3  502    0 -0.23613705134E+03  0.29118597212E+03  0.20542777322E+04  0.20882066441E+04  0.10100000352E+00 0. -1.
       -3    1    3    3    0  502  0.23613705134E+03 -0.29118597212E+03 -0.11392749112E+04  0.11993737161E+04  0.10100000352E+00 0.  1.
</event>
<event>
 5   0  0.1235960E-06  0.2969016E+04  0.7818609E-02  0.8252634E-01
       -1   -1    0    0    0  501  0.00000000000E+00  0.00000000000E+00  0.29923247127E+04  0.29923247127E+04  0.50400001928E-02 0. -1.
        1   -1    0    0  501    0  0.00000000000E+00  0.00000000000E+00 -0.73647205060E+03  0.73647205062E+03  0.50400001928E-02 0.  1.
    10030    2    1    2    0    0  0.00000000000E+00  0.00000000000E+00  0.22558526621E+04  0.37287967634E+04  0.29690156734E+04 0.  0.
        4    1    3    3  502    0  0.11224924985E+04  0.59892323950E+03  0.16729287890E+03  0.12832330171E+04  0.12699999809E+01 0.  1.
       -4    1    3    3    0  502 -0.11224924985E+04 -0.59892323950E+03  0.20885597832E+04  0.24455637463E+04  0.12699999809E+01 0. -1.
</event>
<event>
 5   0  0.1211008E-06  0.3124381E+04  0.7818609E-02  0.8209079E-01
       -1   -1    0    0    0  501  0.00000000000E+00  0.00000000000E+00  0.10370850296E+04  0.10370850296E+04  0.50400001928E-02 0.  1.
        1   -1    0    0  501    0  0.00000000000E+00  0.00000000000E+00 -0.23531712272E+04  0.23531712272E+04  0.50400001928E-02 0. -1.
    10030    2    1    2    0    0  0.00000000000E+00  0.00000000000E+00 -0.13160861976E+04  0.33902562568E+04  0.31243806758E+04 0.  0.
        3    1    3    3  502    0 -0.15453560834E+04 -0.23392648068E+02 -0.90492593175E+03  0.17909672226E+04  0.10100000352E+00 0. -1.
       -3    1    3    3    0  502  0.15453560834E+04  0.23392648068E+02 -0.41116026584E+03  0.15992890342E+04  0.10100000352E+00 0.  1.
</event>
<event>
 5   0  0.3445959E-06  0.3073326E+04  0.7818609E-02  0.8223097E-01
       -2   -1    0    0    0  501  0.00000000000E+00  0.00000000000E+00  0.99329232902E+03  0.99329232902E+03  0.25500000920E-02 0. -1.
        2   -1    0    0  501    0  0.00000000000E+00  0.00000000000E+00 -0.23772786540E+04  0.23772786540E+04  0.25500000920E-02 0.  1.
    10030    2    1    2    0    0  0.00000000000E+00  0.00000000000E+00 -0.13839863250E+04  0.33705709830E+04  0.30733256586E+04 0.  0.
        4    1    3    3  502    0  0.11042310380E+04  0.10038966653E+04 -0.10937518058E+04  0.18502511520E+04  0.12699999809E+01 0. -1.
       -4    1    3    3    0  502 -0.11042310380E+04 -0.10038966653E+04 -0.29023451915E+03  0.15203198311E+04  0.12699999809E+01 0.  1.
</event>
<event>
 5   0  0.3441897E-06  0.3107011E+04  0.7818609E-02  0.8213816E-01
       -2   -1    0    0    0  501  0.00000000000E+00  0.00000000000E+00  0.13397443857E+04  0.13397443857E+04  0.25500000920E-02 0.  1.
        2   -1    0    0  501    0  0.00000000000E+00  0.00000000000E+00 -0.18013731626E+04  0.18013731627E+04  0.25500000920E-02 0. -1.
    10030    2    1    2    0    0  0.00000000000E+00  0.00000000000E+00 -0.46162877693E+03  0.31411175484E+04  0.31070111562E+04 0.  0.
        5    1    3    3  502    0  0.14910758169E+04  0.43118812775E+03 -0.29576287369E+03  0.15801038133E+04  0.46999998093E+01 0.  1.
       -5    1    3    3    0  502 -0.14910758169E+04 -0.43118812775E+03 -0.16586590324E+03  0.15610137351E+04  0.46999998093E+01 0. -1.
</event>
<event>
 5   0  0.3374790E-06  0.3106053E+04  0.7818609E-02  0.8214079E-01
        2   -1    0    0  501    0  0.00000000000E+00  0.00000000000E+00  0.25922193370E+04  0.25922193371E+04  0.25500000920E-02 0. -1.
       -2   -1    0    0    0  501  0.00000000000E+00  0.00000000000E+00 -0.93043486868E+03  0.93043486868E+03  0.25500000920E-02 0.  1.
    10030    2    1    2    0    0  0.00000000000E+00  0.00000000000E+00  0.16617844684E+04  0.35226542057E+04  0.31060529670E+04 0.  0.
        2    1    3    3  502    0  0.82142562167E+03 -0.12429628731E+04  0.13280928259E+04  0.19958775789E+04  0.25500000920E-02 0. -1.
       -2    1    3    3    0  502 -0.82142562167E+03  0.12429628731E+04  0.33369164248E+03  0.15267766268E+04  0.25500000920E-02 0.  1.
</event>
<event>
 5   0  0.3340899E-06  0.3094845E+04  0.7818609E-02  0.8217154E-01
       -2   -1    0    0    0  501  0.00000000000E+00  0.00000000000E+00  0.20298142603E+04  0.20298142603E+04  0.25500000920E-02 0. -1.
        2   -1    0    0  501    0  0.00000000000E+00  0.00000000000E+00 -0.11796728274E+04  0.11796728274E+04  0.25500000920E-02 0.  1.
    10030    2    1    2    0    0  0.00000000000E+00  0.00000000000E+00  0.85014143286E+03  0.32094870877E+04  0.30948452158E+04 0.  0.
        3    1    3    3  502    0  0.64234575903E+02  0.15245406018E+04  0.15831356225E+03  0.15340838705E+04  0.10100000352E+00 0.  1.
       -3    1    3    3    0  502 -0.64234575903E+02 -0.15245406018E+04  0.69182787061E+03  0.16754032172E+04  0.10100000352E+00 0. -1.
</event>
<event>
 5   0  0.3374790E-06  0.3120533E+04  0.7818609E-02  0.8210125E-01
       -2   -1    0    0    0  501  0.00000000000E+00  0.00000000000E+00  0.74509719111E+03  0.74509719111E+03  0.25500000920E-02 0.  1.
        2   -1    0    0  501    0  0.00000000000E+00  0.00000000000E+00 -0.32672671503E+04  0.32672671503E+04  0.25500000920E-02 0. -1.
    10030    2    1    2    0    0  0.00000000000E+00  0.00000000000E+00 -0.25221699592E+04  0.40123643415E+04  0.31205330162E+04 0.  0.
        2    1    3    3  502    0 -0.10744467558E+03  0.14708488114E+04 -0.19160720444E+04  0.24179066698E+04  0.25500000920E-02 0.  1.
       -2    1    3    3    0  502  0.10744467558E+03 -0.14708488114E+04 -0.60609791481E+03  0.15944576717E+04  0.25500000920E-02 0. -1.
</event>
<event>
 5   0  0.3340899E-06  0.3102911E+04  0.7818609E-02  0.8214940E-01
        2   -1    0    0  501    0  0.00000000000E+00  0.00000000000E+00  0.34297766305E+04  0.34297766305E+04  0.25500000920E-02 0.  1.
       -2   -1    0    0    0  501  0.00000000000E+00  0.00000000000E+00 -0.70179894429E+03  0.70179894430E+03  0.25500000920E-02 0. -1.
    10030    2    1    2    0    0  0.00000000000E+00  0.00000000000E+00  0.27279776862E+04  0.41315755748E+04  0.31029106455E+04 0.  0.
        3    1    3    3  502    0  0.52921226147E+03  0.10943768276E+04  0.26475644186E+04  0.29133011549E+04  0.10100000352E+00 0.  1.
       -3    1    3    3    0  502 -0.52921226147E+03 -0.10943768276E+04  0.80413267633E+02  0.12182744199E+04  0.10100000352E+00 0. -1.
</event>
<event>
 5   0  0.3340899E-06  0.3111987E+04  0.7818609E-02  0.8212456E-01
        2   -1    0    0  501    0  0.00000000000E+00  0.00000000000E+00  0.20174928522E+04  0.20174928522E+04  0.25500000920E-02 0. -1.
       -2   -1    0    0    0  501  0.00000000000E+00  0.00000000000E+00 -0.12000614564E+04  0.12000614564E+04  0.25500000920E-02 0.  1.
    10030    2    1    2    0    0  0.00000000000E+00  0.00000000000E+00  0.81743139588E+03  0.32175543086E+04  0.31119867676E+04 0.  0.
        3    1    3    3  502    0 -0.98344019647E+03 -0.20166565576E+03  0.16378633482E+04  0.19210465935E+04  0.10100000352E+00 0. -1.
       -3    1    3    3    0  502  0.98344019647E+03  0.20166565576E+03 -0.82043195234E+03  0.12965077151E+04  0.10100000352E+00 0.  1.
</event>
<event>
 5   0  0.3445959E-06  0.3087127E+04  0.7818609E-02  0.8219280E-01
       -2   -1    0    0    0  501  0.00000000000E+00  0.00000000000E+00  0.12432748813E+04  0.12432748813E+04  0.25500000920E-02 0.  1.
        2   -1    0    0  501    0  0.00000000000E+00  0.00000000000E+00 -0.19163806855E+04  0.19163806855E+04  0.25500000920E-02 0. -1.
    10030    2    1    2    0    0  0.00000000000E+00  0.00000000000E+00 -0.67310580417E+03  0.31596555669E+04  0.30871267997E+04 0.  0.
        4    1    3    3  502    0 -0.36725273296E+03  0.49015988171E+03  0.11135812898E+04  0.12709036869E+04  0.12699999809E+01 0.  1.
       -4    1    3    3    0  502  0.36725273296E+03 -0.49015988171E+03 -0.17866870939E+04  0.18887518800E+04  0.12699999809E+01 0. -1.
</event>
<event>
 5   0  0.1250276E-06  0.3091653E+04  0.7818609E-02  0.8218032E-01
       -1   -1    0    0    0  501  0.00000000000E+00  0.00000000000E+00  0.11794700827E+04  0.11794700827E+04  0.50400001928E-02 0.  1.
        1   -1    0    0  501    0  0.00000000000E+00  0.00000000000E+00 -0.20259772991E+04  0.20259772991E+04  0.50400001928E-02 0. -1.
    10030    2    1    2    0    0  0.00000000000E+00  0.00000000000E+00 -0.84650721632E+03  0.32054473818E+04  0.30916530288E+04 0.  0.
        5    1    3    3  502    0 -0.37954351998E+03 -0.14564091181E+04 -0.78890518746E+03  0.16992864054E+04  0.46999998093E+01 0. -1.
       -5    1    3    3    0  502  0.37954351998E+03  0.14564091181E+04 -0.57602028864E+02  0.15061609763E+04  0.46999998093E+01 0.  1.
</event>
<event>
 5   0  0.1171915E-06  0.3093505E+04  0.7818609E-02  0.8217523E-01
        1   -1    0    0  501    0  0.00000000000E+00  0.00000000000E+00  0.25410224043E+04  0.25410224043E+04  0.50400001928E-02 0. -1.
       -1   -1    0    0    0  501  0.00000000000E+00  0.00000000000E+00 -0.94152777694E+03  0.94152777696E+03  0.50400001928E-02 0.  1.
    10030    2    1    2    0    0  0.00000000000E+00  0.00000000000E+00  0.15994946273E+04  0.34825501812E+04  0.30935049219E+04 0.  0.
        2    1    3    3  502    0  0.99675280406E+02 -0.86980037751E+03  0.22352396392E+04  0.24005799513E+04  0.25500000920E-02 0. -1.
       -2    1    3    3    0  502 -0.99675280406E+02  0.86980037751E+03 -0.63574501186E+03  0.10819702299E+04  0.25500000920E-02 0.  1.
</event>
<event>
 5   0  0.1171915E-06  0.3099840E+04  0.7818609E-02  0.8215782E-01
       -1   -1    0    0    0  501  0.00000000000E+00  0.00000000000E+00  0.16381853790E+04  0.16381853790E+04  0.50400001928E-02 0.  1.
        1   -1    0    0  501    0  0.00000000000E+00  0.00000000000E+00 -0.14664105142E+04  0.14664105142E+04  0.50400001928E-02 0. -1.
    10030    2    1    2    0    0  0.00000000000E+00  0.00000000000E+00  0.17177486482E+03  0.31045958933E+04  0.30998401663E+04 0.  0.
        2    1    3    3  502    0 -0.12738264227E+04 -0.67657137688E+03  0.65409342806E+03  0.15837363404E+04  0.25500000920E-02 0.  1.
       -2    1    3    3    0  502  0.12738264227E+04  0.67657137688E+03 -0.48231856325E+03  0.15208595529E+04  0.25500000920E-02 0. -1.
</event>
<event>
 5   0  0.1211008E-06  0.3037079E+04  0.7818609E-02  0.8233221E-01
       -1   -1    0    0    0  501  0.00000000000E+00  0.00000000000E+00  0.30861432513E+04  0.30861432513E+04  0.50400001928E-02 0.  1.
        1   -1    0    0  501    0  0.00000000000E+00  0.00000000000E+00 -0.74719863696E+03  0.74719863697E+03  0.50400001928E-02 0. -1.
    10030    2    1    2    0    0  0.00000000000E+00  0.00000000000E+00  0.23389446143E+04  0.38333418882E+04  0.30370788800E+04 0.  0.
        3    1    3    3  502    0  0.16811296818E+03 -0.87028106544E+03  0.27257521423E+04  0.28662476959E+04  0.10100000352E+00 0.  1.
       -3    1    3    3    0  502 -0.16811296818E+03  0.87028106544E+03 -0.38680752798E+03  0.96709419233E+03  0.10100000352E+00 0. -1.
</event>
<event>
 5   0  0.3445410E-06  0.3097153E+04  0.7818609E-02  0.8216520E-01
        2   -1    0    0  501    0  0.00000000000E+00  0.00000000000E+00  0.18454168794E+04  0.18454168794E+04  0.25500000920E-02 0. -1.
       -2   -1    0    0    0  501  0.00000000000E+00  0.00000000000E+00 -0.12994837712E+04  0.12994837712E+04  0.25500000920E-02 0.  1.
    10030    2    1    2    0    0  0.00000000000E+00  0.00000000000E+00  0.54593310818E+03  0.31449006506E+04  0.30971530707E+04 0.  0.
        1    1    3    3  502    0 -0.31046653092E+03  0.15101212274E+04  0.12500220984E+03  0.15467647335E+04  0.50400001928E-02 0.  1.
       -1    1    3    3    0  502  0.31046653092E+03 -0.15101212274E+04  0.42093089834E+03  0.15981359171E+04  0.50400001928E-02 0. -1.
</event>
<event>
 5   0  0.1211008E-06  0.3084030E+04  0.7818609E-02  0.8220134E-01
        1   -1    0    0  501    0  0.00000000000E+00  0.00000000000E+00  0.24199482659E+04  0.24199482659E+04  0.50400001928E-02 0.  1.
       -1   -1    0    0    0  501  0.00000000000E+00  0.00000000000E+00 -0.98258741840E+03  0.98258741841E+03  0.50400001928E-02 0. -1.
    10030    2    1    2    0    0  0.00000000000E+00  0.00000000000E+00  0.14373608475E+04  0.34025356843E+04  0.30840302977E+04 0.  0.
        3    1    3    3  502    0  0.54573844970E+03 -0.13623944455E+04  0.12406844853E+04  0.19217822673E+04  0.10100000352E+00 0.  1.
       -3    1    3    3    0  502 -0.54573844970E+03  0.13623944455E+04  0.19667636224E+03  0.14807534171E+04  0.10100000352E+00 0. -1.
</event>
<event>
 5   0  0.3340899E-06  0.2705498E+04  0.7818609E-02  0.8333223E-01
       -2   -1    0    0    0  501  0.00000000000E+00  0.00000000000E+00  0.62467289711E+03  0.62467289712E+03  0.25500000920E-02 0. -1.
        2   -1    0    0  501    0  0.00000000000E+00  0.00000000000E+00 -0.29294216270E+04  0.29294216270E+04  0.25500000920E-02 0.  1.
    10030    2    1    2    0    0  0.00000000000E+00  0.00000000000E+00 -0.23047487299E+04  0.35540945241E+04  0.27054983235E+04 0.  0.
        3    1    3    3  502    0  0.28574315979E+03 -0.69631014290E+03  0.32420864605E+03  0.81951706807E+03  0.10100000352E+00 0. -1.
       -3    1    3    3    0  502 -0.28574315979E+03  0.69631014290E+03 -0.26289573759E+04  0.27345774561E+04  0.10100000352E+00 0.  1.
</event>
<event>
 5   0  0.1198763E-06  0.3204929E+04  0.7818609E-02  0.8187517E-01
       -1   -1    0    0    0  501  0.00000000000E+00  0.00000000000E+00  0.14517253430E+04  0.14517253430E+04  0.50400001928E-02 0.  1.
        1   -1    0    0  501    0  0.00000000000E+00  0.00000000000E+00 -0.17688557523E+04  0.17688557523E+04  0.50400001928E-02 0. -1.
    10030    2    1    2    0    0  0.00000000000E+00  0.00000000000E+00 -0.31713040927E+03  0.32205810953E+04  0.32049291559E+04 0.  0.
        1    1    3    3  502    0  0.49963584786E+03  0.11379831575E+04  0.85793368921E+03  0.15101959682E+04  0.50400001928E-02 0.  1.
       -1    1    3    3    0  502 -0.49963584786E+03 -0.11379831575E+04 -0.11750640985E+04  0.17103851271E+04  0.50400001928E-02 0. -1.
</event>
<event>
 5   0  0.3445959E-06  0.3087221E+04  0.7818609E-02  0.8219254E-01
        2   -1    0    0  501    0  0.00000000000E+00  0.00000000000E+00  0.15457741553E+04  0.15457741553E+04  0.25500000920E-02 0. -1.
       -2   -1    0    0    0  501  0.00000000000E+00  0.00000000000E+00 -0.15414498141E+04  0.15414498141E+04  0.25500000920E-02 0.  1.
    10030    2    1    2    0    0  0.00000000000E+00  0.00000000000E+00  0.43243412577E+01  0.30872239694E+04  0.30872209408E+04 0.  0.
        4    1    3    3  502    0 -0.12616101497E+04 -0.34620865975E+03 -0.81711335227E+03  0.15424644078E+04  0.12699999809E+01 0.  1.
       -4    1    3    3    0  502  0.12616101497E+04  0.34620865975E+03  0.82143769353E+03  0.15447595616E+04  0.12699999809E+01 0. -1.
</event>
<event>
 5   0  0.3445959E-06  0.3090637E+04  0.7818609E-02  0.8218312E-01
       -2   -1    0    0    0  501  0.00000000000E+00  0.00000000000E+00  0.14880203679E+04  0.14880203680E+04  0.25500000920E-02 0.  1.
        2   -1    0    0  501    0  0.00000000000E+00  0.00000000000E+00 -0.16048232691E+04  0.16048232691E+04  0.25500000920E-02 0. -1.
    10030    2    1    2    0    0  0.00000000000E+00  0.00000000000E+00 -0.11680290118E+03  0.30928436371E+04  0.30906372880E+04 0.  0.
        4    1    3    3  502    0 -0.23344310386E+03 -0.61731961459E+02  0.14690241712E+04  0.14887377695E+04  0.12699999809E+01 0.  1.
       -4    1    3    3    0  502  0.23344310386E+03  0.61731961459E+02 -0.15858270724E+04  0.16041058676E+04  0.12699999809E+01 0. -1.
</event>
<event>
 5   0  0.1250276E-06  0.3038033E+04  0.7818609E-02  0.8232953E-01
       -1   -1    0    0    0  501  0.00000000000E+00  0.00000000000E+00  0.13335005930E+04  0.13335005931E+04  0.50400001928E-02 0. -1.
        1   -1    0    0  501    0  0.00000000000E+00  0.00000000000E+00 -0.17303416835E+04  0.17303416835E+04  0.50400001928E-02 0.  1.
    10030    2    1    2    0    0  0.00000000000E+00  0.00000000000E+00 -0.39684109047E+03  0.30638422766E+04  0.30380333515E+04 0.  0.
        5    1    3    3  502    0  0.43349990598E+03  0.83513860596E+03  0.10041908973E+04  0.13761541003E+04  0.46999998093E+01 0. -1.
       -5    1    3    3    0  502 -0.43349990598E+03 -0.83513860596E+03 -0.14010319877E+04  0.16876881763E+04  0.46999998093E+01 0.  1.
</event>
<event>
 5   0  0.1211008E-06  0.3110014E+04  0.7818609E-02  0.8212995E-01
        1   -1    0    0  501    0  0.00000000000E+00  0.00000000000E+00  0.22514614339E+04  0.22514614339E+04  0.50400001928E-02 0. -1.
       -1   -1    0    0    0  501  0.00000000000E+00  0.00000000000E+00 -0.10739896459E+04  0.10739896459E+04  0.50400001928E-02 0.  1.
    10030    2    1    2    0    0  0.00000000000E+00  0.00000000000E+00  0.11774717880E+04  0.33254510798E+04  0.31100136772E+04 0.  0.
        3    1    3    3  502    0 -0.40265447486E+03  0.13564225593E+04  0.12784234678E+04  0.19069293009E+04  0.10100000352E+00 0. -1.
       -3    1    3    3    0  502  0.40265447486E+03 -0.13564225593E+04 -0.10095167981E+03  0.14185217789E+04  0.10100000352E+00 0.  1.
</event>
<event>
 5   0  0.1171915E-06  0.3103287E+04  0.7818609E-02  0.8214836E-01
        1   -1    0    0  501    0  0.00000000000E+00  0.00000000000E+00  0.24439932939E+04  0.24439932939E+04  0.50400001928E-02 0. -1.
       -1   -1    0    0    0  501  0.00000000000E+00  0.00000000000E+00 -0.98510816658E+03  0.98510816659E+03  0.50400001928E-02 0.  1.
    10030    2    1    2    0    0  0.00000000000E+00  0.00000000000E+00  0.14588851273E+04  0.34291014604E+04  0.31032871300E+04 0.  0.
        2    1    3    3  502    0  0.90338562059E+03  0.68347880331E+03 -0.44223718698E+03  0.12160684946E+04  0.25500000920E-02 0.  1.
       -2    1    3    3    0  502 -0.90338562059E+03 -0.68347880331E+03  0.19011223143E+04  0.22130329658E+04  0.25500000920E-02 0. -1.
</event>
<event>
 5   0  0.3445959E-06  0.3064937E+04  0.7818609E-02  0.8225427E-01
       -2   -1    0    0    0  501  0.00000000000E+00  0.00000000000E+00  0.15165256811E+04  0.15165256811E+04  0.25500000920E-02 0.  1.
        2   -1    0    0  501    0  0.00000000000E+00  0.00000000000E+00 -0.15485791198E+04  0.15485791198E+04  0.25500000920E-02 0. -1.
    10030    2    1    2    0    0  0.00000000000E+00  0.00000000000E+00 -0.32053438657E+02  0.30651048009E+04  0.30649371964E+04 0.  0.
        4    1    3    3  502    0  0.32982905117E+03  0.12612405434E+04 -0.82164105421E+03  0.15409771400E+04  0.12699999809E+01 0. -1.
       -4    1    3    3    0  502 -0.32982905117E+03 -0.12612405434E+04  0.78958761555E+03  0.15241276609E+04  0.12699999809E+01 0.  1.
</event>
<event>
 5   0  0.1211008E-06  0.2954871E+04  0.7818609E-02  0.8256736E-01
       -1   -1    0    0    0  501  0.00000000000E+00  0.00000000000E+00  0.10462333341E+04  0.10462333341E+04  0.50400001928E-02 0.  1.
        1   -1    0    0  501    0  0.00000000000E+00  0.00000000000E+00 -0.20863568595E+04  0.20863568595E+04  0.50400001928E-02 0. -1.
    10030    2    1    2    0    0  0.00000000000E+00  0.00000000000E+00 -0.10401235254E+04  0.31325901937E+04  0.29548712956E+04 0.  0.
        3    1    3    3  502    0  0.11708592206E+04  0.84561215793E+03 -0.84997768328E+03  0.16758380914E+04  0.10100000352E+00 0. -1.
       -3    1    3    3    0  502 -0.11708592206E+04 -0.84561215793E+03 -0.19014584209E+03  0.14567521023E+04  0.10100000352E+00 0.  1.
</event>
<event>
 5   0  0.3374790E-06  0.3119523E+04  0.7818609E-02  0.8210400E-01
       -2   -1    0    0    0  501  0.00000000000E+00  0.00000000000E+00  0.14548721579E+04  0.14548721579E+04  0.25500000920E-02 0. -1.
        2   -1    0    0  501    0  0.00000000000E+00  0.00000000000E+00 -0.16722131284E+04  0.16722131284E+04  0.25500000920E-02 0.  1.
    10030    2    1    2    0    0  0.00000000000E+00  0.00000000000E+00 -0.21734097047E+03  0.31270852863E+04  0.31195232473E+04 0.  0.
        2    1    3    3  502    0  0.49387700095E+03  0.94275614809E+03 -0.12516769237E+04  0.16429847133E+04  0.25500000920E-02 0.  1.
       -2    1    3    3    0  502 -0.49387700095E+03 -0.94275614809E+03  0.10343359532E+04  0.14841005731E+04  0.25500000920E-02 0. -1.
</event>
<event>
 5   0  0.3445959E-06  0.2741825E+04  0.7818609E-02  0.8321561E-01
       -2   -1    0    0    0  501  0.00000000000E+00  0.00000000000E+00  0.83173049277E+03  0.83173049278E+03  0.25500000920E-02 0.  1.
        2   -1    0    0  501    0  0.00000000000E+00  0.00000000000E+00 -0.22596268521E+04  0.22596268521E+04  0.25500000920E-02 0. -1.
    10030    2    1    2    0    0  0.00000000000E+00  0.00000000000E+00 -0.14278963593E+04  0.30913573448E+04  0.27418246152E+04 0.  0.
        4    1    3    3  502    0  0.28945170537E+03 -0.12931108709E+04 -0.11101436278E+04  0.17286811451E+04  0.12699999809E+01 0. -1.
       -4    1    3    3    0  502 -0.28945170537E+03  0.12931108709E+04 -0.31775273153E+03  0.13626761998E+04  0.12699999809E+01 0.  1.
</event>
<event>
 5   0  0.1250276E-06  0.3100947E+04  0.7818609E-02  0.8215478E-01
       -1   -1    0    0    0  501  0.00000000000E+00  0.00000000000E+00  0.16600433599E+04  0.16600433599E+04  0.50400001928E-02 0. -1.
        1   -1    0    0  501    0  0.00000000000E+00  0.00000000000E+00 -0.14481358112E+04  0.14481358112E+04  0.50400001928E-02 0.  1.
    10030    2    1    2    0    0  0.00000000000E+00  0.00000000000E+00  0.21190754871E+03  0.31081791711E+04  0.31009471054E+04 0.  0.
        5    1    3    3  502    0 -0.33369382002E+03 -0.91258208599E+03 -0.11050811264E+04  0.14715243848E+04  0.46999998093E+01 0.  1.
       -5    1    3    3    0  502  0.33369382002E+03  0.91258208599E+03  0.13169886751E+04  0.16366547863E+04  0.46999998093E+01 0. -1.
</event>
<event>
 5   0  0.1171915E-06  0.3147193E+04  0.7818609E-02  0.8202904E-01
       -1   -1    0    0    0  501  0.00000000000E+00  0.00000000000E+00  0.23221298592E+04  0.23221298592E+04  0.50400001928E-02 0. -1.
        1   -1    0    0  501    0  0.00000000000E+00  0.00000000000E+00 -0.10663512472E+04  0.10663512472E+04  0.50400001928E-02 0.  1.
    10030    2    1    2    0    0  0.00000000000E+00  0.00000000000E+00  0.12557786120E+04  0.33884811064E+04  0.31471930805E+04 0.  0.
        2    1    3    3  502    0 -0.11889929196E+04 -0.88493262010E+03  0.11969936521E+04  0.19051518858E+04  0.25500000920E-02 0. -1.
       -2    1    3    3    0  502  0.11889929196E+04  0.88493262010E+03  0.58784959956E+02  0.14833292206E+04  0.25500000920E-02 0.  1.
</event>
<event>
 5   0  0.3374790E-06  0.3117776E+04  0.7818609E-02  0.8210876E-01
       -2   -1    0    0    0  501  0.00000000000E+00  0.00000000000E+00  0.93798690768E+03  0.93798690768E+03  0.25500000920E-02 0. -1.
        2   -1    0    0  501    0  0.00000000000E+00  0.00000000000E+00 -0.25907942208E+04  0.25907942208E+04  0.25500000920E-02 0.  1.
    10030    2    1    2    0    0  0.00000000000E+00  0.00000000000E+00 -0.16528073132E+04  0.35287811285E+04  0.31177755273E+04 0.  0.
        2    1    3    3  502    0 -0.17438687153E+02  0.56494080089E+03 -0.24707372450E+04  0.25345620431E+04  0.25500000920E-02 0.  1.
       -2    1    3    3    0  502  0.17438687153E+02 -0.56494080089E+03  0.81792993188E+03  0.99421908541E+03  0.25500000920E-02 0. -1.
</event>
<event>
 5   0  0.3340899E-06  0.3112358E+04  0.7818609E-02  0.8212354E-01
        2   -1    0    0  501    0  0.00000000000E+00  0.00000000000E+00  0.19576537018E+04  0.19576537018E+04  0.25500000920E-02 0.  1.
       -2   -1    0    0    0  501  0.00000000000E+00  0.00000000000E+00 -0.12370388141E+04  0.12370388141E+04  0.25500000920E-02 0. -1.
    10030    2    1    2    0    0  0.00000000000E+00  0.00000000000E+00  0.72061488765E+03  0.31946925159E+04  0.31123583429E+04 0.  0.
        3    1    3    3  502    0  0.10211231929E+04  0.10134323109E+04 -0.24864537413E+03  0.14599870397E+04  0.10100000352E+00 0. -1.
       -3    1    3    3    0  502 -0.10211231929E+04 -0.10134323109E+04  0.96926026178E+03  0.17347054762E+04  0.10100000352E+00 0.  1.
</event>
<event>
 5   0  0.3441897E-06  0.3133039E+04  0.7818609E-02  0.8206729E-01
        2   -1    0    0  501    0  0.00000000000E+00  0.00000000000E+00  0.18048287506E+04  0.18048287506E+04  0.25500000920E-02 0. -1.
       -2   -1    0    0    0  501  0.00000000000E+00  0.00000000000E+00 -0.13596764666E+04  0.13596764666E+04  0.25500000920E-02 0.  1.
    10030    2    1    2    0    0  0.00000000000E+00  0.00000000000E+00  0.44515228405E+03  0.31645052172E+04  0.31330388944E+04 0.  0.
        5    1    3    3  502    0 -0.55612207787E+03 -0.72171308758E+03  0.15096661284E+04  0.17633081000E+04  0.46999998093E+01 0. -1.
       -5    1    3    3    0  502  0.55612207787E+03  0.72171308758E+03 -0.10645138444E+04  0.14011971172E+04  0.46999998093E+01 0.  1.
</event>
<event>
 5   0  0.1171915E-06  0.3097795E+04  0.7818609E-02  0.8216343E-01
       -1   -1    0    0    0  501  0.00000000000E+00  0.00000000000E+00  0.84787237085E+03  0.84787237087E+03  0.50400001928E-02 0.  1.
        1   -1    0    0  501    0  0.00000000000E+00  0.00000000000E+00 -0.28295344289E+04  0.28295344289E+04  0.50400001928E-02 0. -1.
    10030    2    1    2    0    0  0.00000000000E+00  0.00000000000E+00 -0.19816620580E+04  0.36774067997E+04  0.30977953868E+04 0.  0.
        2    1    3    3  502    0 -0.46809929782E+03  0.81935739379E+03 -0.24489029920E+04  0.26244217183E+04  0.25500000920E-02 0. -1.
       -2    1    3    3    0  502  0.46809929782E+03 -0.81935739379E+03  0.46724093396E+03  0.10529850814E+04  0.25500000920E-02 0.  1.
</event>
<event>
 5   0  0.3374790E-06  0.3091753E+04  0.7818609E-02  0.8218005E-01
       -2   -1    0    0    0  501  0.00000000000E+00  0.00000000000E+00  0.11556132640E+04  0.11556132640E+04  0.25500000920E-02 0. -1.
        2   -1    0    0  501    0  0.00000000000E+00  0.00000000000E+00 -0.20679358736E+04  0.20679358736E+04  0.25500000920E-02 0.  1.
    10030    2    1    2    0    0  0.00000000000E+00  0.00000000000E+00 -0.91232260962E+03  0.32235491375E+04  0.30917529814E+04 0.  0.
        2    1    3    3  502    0 -0.13033487623E+04 -0.21488576812E+03 -0.12934121029E+04  0.18487316618E+04  0.25500000920E-02 0.  1.
       -2    1    3    3    0  502  0.13033487623E+04  0.21488576812E+03  0.38108949324E+03  0.13748174757E+04  0.25500000920E-02 0. -1.
</event>
<event>
 5   0  0.1171915E-06  0.3124437E+04  0.7818609E-02  0.8209063E-01
       -1   -1    0    0    0  501  0.00000000000E+00  0.00000000000E+00  0.11227183548E+04  0.11227183549E+04  0.50400001928E-02 0.  1.
        1   -1    0    0  501    0  0.00000000000E+00  0.00000000000E+00 -0.21737656362E+04  0.21737656363E+04  0.50400001928E-02 0. -1.
    10030    2    1    2    0    0  0.00000000000E+00  0.00000000000E+00 -0.10510472814E+04  0.32964839911E+04  0.31244369598E+04 0.  0.
        2    1    3    3  502    0 -0.25675292726E+03  0.24634296932E+03 -0.21304434665E+04  0.21599528439E+04  0.25500000920E-02 0. -1.
       -2    1    3    3    0  502  0.25675292726E+03 -0.24634296932E+03  0.10793961851E+04  0.11365311472E+04  0.25500000920E-02 0.  1.
</event>
<event>
 5   0  0.3441897E-06  0.2938353E+04  0.7818609E-02  0.8261557E-01
        2   -1    0    0  501    0  0.00000000000E+00  0.00000000000E+00  0.12285656084E+04  0.12285656084E+04  0.25500000920E-02 0.  1.
       -2   -1    0    0    0  501  0.00000000000E+00  0.00000000000E+00 -0.17569098779E+04  0.17569098779E+04  0.25500000920E-02 0. -1.
    10030    2    1    2    0    0  0.00000000000E+00  0.00000000000E+00 -0.52834426957E+03  0.29854754863E+04  0.29383526358E+04 0.  0.
        5    1    3    3  502    0 -0.98366785756E+03  0.52609499082E+03  0.70723515502E+03  0.13208262747E+04  0.46999998093E+01 0.  1.
       -5    1    3    3    0  502  0.98366785756E+03 -0.52609499082E+03 -0.12355794246E+04  0.16646492117E+04  0.46999998093E+01 0. -1.
</event>
<event>
 5   0  0.1198763E-06  0.3105813E+04  0.7818609E-02  0.8214144E-01
        1   -1    0    0  501    0  0.00000000000E+00  0.00000000000E+00  0.20506342719E+04  0.20506342719E+04  0.50400001928E-02 0.  1.
       -1   -1    0    0    0  501  0.00000000000E+00  0.00000000000E+00 -0.11759870025E+04  0.11759870025E+04  0.50400001928E-02 0. -1.
    10030    2    1    2    0    0  0.00000000000E+00  0.00000000000E+00  0.87464726935E+03  0.32266212744E+04  0.31058134205E+04 0.  0.
        1    1    3    3  502    0 -0.16406253518E+02  0.13466646852E+04  0.12405359460E+04  0.18310391510E+04  0.50400001928E-02 0.  1.
       -1    1    3    3    0  502  0.16406253518E+02 -0.13466646852E+04 -0.36588867662E+03  0.13955821234E+04  0.50400001928E-02 0. -1.
</event>
<event>
 5   0  0.1235960E-06  0.3134308E+04  0.7818609E-02  0.8206385E-01
        1   -1    0    0  501    0  0.00000000000E+00  0.00000000000E+00  0.24489079897E+04  0.24489079897E+04  0.50400001928E-02 0. -1.
       -1   -1    0    0    0  501  0.00000000000E+00  0.00000000000E+00 -0.10028845557E+04  0.10028845558E+04  0.50400001928E-02 0.  1.
    10030    2    1    2    0    0  0.00000000000E+00  0.00000000000E+00  0.14460234339E+04  0.34517925455E+04  0.31343082180E+04 0.  0.
        4    1    3    3  502    0 -0.45012980665E+03 -0.14259119100E+04  0.20630823391E+03  0.15094390740E+04  0.12699999809E+01 0. -1.
       -4    1    3    3    0  502  0.45012980665E+03  0.14259119100E+04  0.12397152000E+04  0.19423534714E+04  0.12699999809E+01 0.  1.
</event>
<event>
 5   0  0.1198763E-06  0.3099306E+04  0.7818609E-02  0.8215928E-01
        1   -1    0    0  501    0  0.00000000000E+00  0.00000000000E+00  0.11056877826E+04  0.11056877826E+04  0.50400001928E-02 0. -1.
       -1   -1    0    0    0  501  0.00000000000E+00  0.00000000000E+00 -0.21718827412E+04  0.21718827412E+04  0.50400001928E-02 0.  1.
    10030    2    1    2    0    0  0.00000000000E+00  0.00000000000E+00 -0.10661949586E+04  0.32775705238E+04  0.30993058656E+04 0.  0.
        1    1    3    3  502    0  0.60729221576E+03 -0.22069687690E+03 -0.20226264267E+04  0.21233296044E+04  0.50400001928E-02 0.  1.
       -1    1    3    3    0  502 -0.60729221576E+03  0.22069687690E+03  0.95643146811E+03  0.11542409194E+04  0.50400001928E-02 0. -1.
</event>
<event>
 5   0  0.3441897E-06  0.3107974E+04  0.7818609E-02  0.8213553E-01
        2   -1    0    0  501    0  0.00000000000E+00  0.00000000000E+00  0.29158356810E+04  0.29158356810E+04  0.25500000920E-02 0.  1.
       -2   -1    0    0    0  501  0.00000000000E+00  0.00000000000E+00 -0.82819323375E+03  0.82819323375E+03  0.25500000920E-02 0. -1.
    10030    2    1    2    0    0  0.00000000000E+00  0.00000000000E+00  0.20876424473E+04  0.37440289148E+04  0.31079738620E+04 0.  0.
        5    1    3    3  502    0  0.13944649733E+04 -0.66352081994E+03  0.83495776017E+03  0.17555537564E+04  0.46999998093E+01 0.  1.
       -5    1    3    3    0  502 -0.13944649733E+04  0.66352081994E+03  0.12526846871E+04  0.19884751584E+04  0.46999998093E+01 0. -1.
</event>
<event>
 5   0  0.1250276E-06  0.3110356E+04  0.7818609E-02  0.8212902E-01
        1   -1    0    0  501    0  0.00000000000E+00  0.00000000000E+00  0.12597237208E+04  0.12597237208E+04  0.50400001928E-02 0.  1.
       -1   -1    0    0    0  501  0.00000000000E+00  0.00000000000E+00 -0.19199279262E+04  0.19199279262E+04  0.50400001928E-02 0. -1.
    10030    2    1    2    0    0  0.00000000000E+00  0.00000000000E+00 -0.66020420545E+03  0.31796516470E+04  0.31103560895E+04 0.  0.
        5    1    3    3  502    0 -0.89294788809E+03  0.12688075980E+04 -0.22129776068E+03  0.15672343285E+04  0.46999998093E+01 0. -1.
       -5    1    3    3    0  502  0.89294788809E+03 -0.12688075980E+04 -0.43890644476E+03  0.16124173185E+04  0.46999998093E+01 0.  1.
</event>
<event>
 5   0  0.1211008E-06  0.3065374E+04  0.7818609E-02  0.8225306E-01
        1   -1    0    0  501    0  0.00000000000E+00  0.00000000000E+00  0.21015630528E+04  0.21015630528E+04  0.50400001928E-02 0. -1.
       -1   -1    0    0    0  501  0.00000000000E+00  0.00000000000E+00 -0.11178008473E+04  0.11178008473E+04  0.50400001928E-02 0.  1.
    10030    2    1    2    0    0  0.00000000000E+00  0.00000000000E+00  0.98376220553E+03  0.32193639001E+04  0.30653736875E+04 0.  0.
        3    1    3    3  502    0 -0.39556965681E+02 -0.13914087920E+04  0.11656263526E+04  0.18155627183E+04  0.10100000352E+00 0. -1.
       -3    1    3    3    0  502  0.39556965681E+02  0.13914087920E+04 -0.18186414705E+03  0.14038011818E+04  0.10100000352E+00 0.  1.
</event>
<event>
 5   0  0.3445410E-06  0.3058308E+04  0.7818609E-02  0.8227274E-01
       -2   -1    0    0    0  501  0.00000000000E+00  0.00000000000E+00  0.13714817094E+04  0.13714817094E+04  0.25500000920E-02 0. -1.
        2   -1    0    0  501    0  0.00000000000E+00  0.00000000000E+00 -0.17049529472E+04  0.17049529472E+04  0.25500000920E-02 0.  1.
    10030    2    1    2    0    0  0.00000000000E+00  0.00000000000E+00 -0.33347123781E+03  0.30764346566E+04  0.30583078867E+04 0.  0.
        1    1    3    3  502    0  0.14287832507E+04  0.38908780055E+03 -0.55044225739E+03  0.15798093470E+04  0.50400001928E-02 0.  1.
       -1    1    3    3    0  502 -0.14287832507E+04 -0.38908780055E+03  0.21697101958E+03  0.14966253096E+04  0.50400001928E-02 0. -1.
</event>
<event>
 5   0  0.1211008E-06  0.3076191E+04  0.7818609E-02  0.8222303E-01
        1   -1    0    0  501    0  0.00000000000E+00  0.00000000000E+00  0.15020841484E+04  0.15020841484E+04  0.50400001928E-02 0.  1.
       -1   -1    0    0    0  501  0.00000000000E+00  0.00000000000E+00 -0.15749702003E+04  0.15749702003E+04  0.50400001928E-02 0. -1.
    10030    2    1    2    0    0  0.00000000000E+00  0.00000000000E+00 -0.72886051931E+02  0.30770543487E+04  0.30761910032E+04 0.  0.
        3    1    3    3  502    0 -0.14745671951E+04  0.30323189060E+03  0.27898619526E+03  0.15310556162E+04  0.10100000352E+00 0. -1.
       -3    1    3    3    0  502  0.14745671951E+04 -0.30323189060E+03 -0.35187224719E+03  0.15459987325E+04  0.10100000352E+00 0.  1.
</event>
<event>
 5   0  0.3340899E-06  0.3065669E+04  0.7818609E-02  0.8225223E-01
        2   -1    0    0  501    0  0.00000000000E+00  0.00000000000E+00  0.14772980003E+04  0.14772980003E+04  0.25500000920E-02 0.  1.
       -2   -1    0    0    0  501  0.00000000000E+00  0.00000000000E+00 -0.15904590884E+04  0.15904590884E+04  0.25500000920E-02 0. -1.
    10030    2    1    2    0    0  0.00000000000E+00  0.00000000000E+00 -0.11316108814E+03  0.30677570887E+04  0.30656692782E+04 0.  0.
        3    1    3    3  502    0  0.85459498665E+03 -0.57816362450E+03  0.10777593792E+04  0.14920358768E+04  0.10100000352E+00 0.  1.
       -3    1    3    3    0  502 -0.85459498665E+03  0.57816362450E+03 -0.11909204674E+04  0.15757212119E+04  0.10100000352E+00 0. -1.
</event>
<event>
 5   0  0.1198763E-06  0.2957226E+04  0.7818609E-02  0.8256052E-01
       -1   -1    0    0    0  501  0.00000000000E+00  0.00000000000E+00  0.12696566799E+04  0.12696566800E+04  0.50400001928E-02 0.  1.
        1   -1    0    0  501    0  0.00000000000E+00  0.00000000000E+00 -0.17219586614E+04  0.17219586614E+04  0.50400001928E-02 0. -1.
    10030    2    1    2    0    0  0.00000000000E+00  0.00000000000E+00 -0.45230198148E+03  0.29916153414E+04  0.29572259414E+04 0.  0.
        1    1    3    3  502    0 -0.12292086259E+04  0.10798351210E+03  0.59798954279E+03  0.13712059576E+04  0.50400001928E-02 0.  1.
       -1    1    3    3    0  502  0.12292086259E+04 -0.10798351210E+03 -0.10502915243E+04  0.16204093837E+04  0.50400001928E-02 0. -1.
</event>
<event>
 5   0  0.1198763E-06  0.3205133E+04  0.7818609E-02  0.8187463E-01
       -1   -1    0    0    0  501  0.00000000000E+00  0.00000000000E+00  0.19156151015E+04  0.19156151015E+04  0.50400001928E-02 0.  1.
        1   -1    0    0  501    0  0.00000000000E+00  0.00000000000E+00 -0.13406762183E+04  0.13406762184E+04  0.50400001928E-02 0. -1.
    10030    2    1    2    0    0  0.00000000000E+00  0.00000000000E+00  0.57493888312E+03  0.32562913198E+04  0.32051331392E+04 0.  0.
        1    1    3    3  502    0  0.24701458814E+03  0.11677032737E+04  0.13739651372E+04  0.18199800385E+04  0.50400001928E-02 0.  1.
       -1    1    3    3    0  502 -0.24701458814E+03 -0.11677032737E+04 -0.79902625411E+03  0.14363112813E+04  0.50400001928E-02 0. -1.
</event>
<event>
 5   0  0.3445410E-06  0.3107572E+04  0.7818609E-02  0.8213663E-01
        2   -1    0    0  501    0  0.00000000000E+00  0.00000000000E+00  0.20944920046E+04  0.20944920046E+04  0.25500000920E-02 0.  1.
       -2   -1    0    0    0  501  0.00000000000E+00  0.00000000000E+00 -0.11526665720E+04  0.11526665720E+04  0.25500000920E-02 0. -1.
    10030    2    1    2    0    0  0.00000000000E+00  0.00000000000E+00  0.94182543264E+03  0.32471585766E+04  0.31075719905E+04 0.  0.
        1    1    3    3  502    0 -0.86210672380E+03 -0.91224180018E+02 -0.87646508295E+03  0.12327777155E+04  0.50400001928E-02 0. -1.
       -1    1    3    3    0  502  0.86210672380E+03  0.91224180018E+02  0.18182905156E+04  0.20143808611E+04  0.50400001928E-02 0.  1.
</event>
<event>
 5   0  0.1211008E-06  0.3149678E+04  0.7818609E-02  0.8202235E-01
       -1   -1    0    0    0  501  0.00000000000E+00  0.00000000000E+00  0.15601464429E+04  0.15601464429E+04  0.50400001928E-02 0. -1.
        1   -1    0    0  501    0  0.00000000000E+00  0.00000000000E+00 -0.15896698504E+04  0.15896698504E+04  0.50400001928E-02 0.  1.
    10030    2    1    2    0    0  0.00000000000E+00  0.00000000000E+00 -0.29523407471E+02  0.31498162933E+04  0.31496779280E+04 0.  0.
        3    1    3    3  502    0  0.79460746977E+03 -0.11719628259E+04  0.67463049942E+03  0.15684464343E+04  0.10100000352E+00 0. -1.
       -3    1    3    3    0  502 -0.79460746977E+03  0.11719628259E+04 -0.70415390689E+03  0.15813698590E+04  0.10100000352E+00 0.  1.
</event>
<event>
 5   0  0.1198763E-06  0.3117149E+04  0.7818609E-02  0.8211047E-01
       -1   -1    0    0    0  501  0.00000000000E+00  0.00000000000E+00  0.14080341915E+04  0.14080341915E+04  0.50400001928E-02 0.  1.
        1   -1    0    0  501    0  0.00000000000E+00  0.00000000000E+00 -0.17252099198E+04  0.17252099198E+04  0.50400001928E-02 0. -1.
    10030    2    1    2    0    0  0.00000000000E+00  0.00000000000E+00 -0.31717572836E+03  0.31332441113E+04  0.31171490529E+04 0.  0.
        1    1    3    3  502    0  0.11268759743E+04 -0.87973565193E+03  0.46539946313E+03  0.15034563309E+04  0.50400001928E-02 0.  1.
       -1    1    3    3    0  502 -0.11268759743E+04  0.87973565193E+03 -0.78257519148E+03  0.16297877804E+04  0.50400001928E-02 0. -1.
</event>
<event>
 5   0  0.3340899E-06  0.3089067E+04  0.7818609E-02  0.8218745E-01
        2   -1    0    0  501    0  0.00000000000E+00  0.00000000000E+00  0.22008950083E+04  0.22008950083E+04  0.25500000920E-02 0. -1.
       -2   -1    0    0    0  501  0.00000000000E+00  0.00000000000E+00 -0.10839155669E+04  0.10839155669E+04  0.25500000920E-02 0.  1.
    10030    2    1    2    0    0  0.00000000000E+00  0.00000000000E+00  0.11169794414E+04  0.32848105752E+04  0.30890674066E+04 0.  0.
        3    1    3    3  502    0  0.26334237152E+03 -0.86038711741E+03  0.18934145211E+04  0.20963381777E+04  0.10100000352E+00 0. -1.
       -3    1    3    3    0  502 -0.26334237152E+03  0.86038711741E+03 -0.77643507970E+03  0.11884723975E+04  0.10100000352E+00 0.  1.
</event>
<event>
 5   0  0.3441897E-06  0.2707859E+04  0.7818609E-02  0.8332460E-01
        2   -1    0    0  501    0  0.00000000000E+00  0.00000000000E+00  0.19888588922E+04  0.19888588922E+04  0.25500000920E-02 0. -1.
       -2   -1    0    0    0  501  0.00000000000E+00  0.00000000000E+00 -0.92169674076E+03  0.92169674076E+03  0.25500000920E-02 0.  1.
    10030    2    1    2    0    0  0.00000000000E+00  0.00000000000E+00  0.10671621514E+04  0.29105556329E+04  0.27078587546E+04 0.  0.
        5    1    3    3  502    0 -0.29071459548E+03  0.72279145111E+03  0.17237908355E+04  0.18916710582E+04  0.46999998093E+01 0. -1.
       -5    1    3    3    0  502  0.29071459548E+03 -0.72279145111E+03 -0.65662868411E+03  0.10188845747E+04  0.46999998093E+01 0.  1.
</event>
<event>
 5   0  0.3374790E-06  0.3129822E+04  0.7818609E-02  0.8207601E-01
       -2   -1    0    0    0  501  0.00000000000E+00  0.00000000000E+00  0.10614404077E+04  0.10614404078E+04  0.25500000920E-02 0. -1.
        2   -1    0    0  501    0  0.00000000000E+00  0.00000000000E+00 -0.23071918759E+04  0.23071918759E+04  0.25500000920E-02 0.  1.
    10030    2    1    2    0    0  0.00000000000E+00  0.00000000000E+00 -0.12457514682E+04  0.33686322837E+04  0.31298221582E+04 0.  0.
        2    1    3    3  502    0 -0.61511422860E+03 -0.12222110531E+04 -0.14402849619E+04  0.19866016571E+04  0.25500000920E-02 0. -1.
       -2    1    3    3    0  502  0.61511422860E+03  0.12222110531E+04  0.19453349370E+03  0.13820306266E+04  0.25500000920E-02 0.  1.
</event>
<event>
 5   0  0.3374790E-06  0.3094743E+04  0.7818609E-02  0.8217182E-01
        2   -1    0    0  501    0  0.00000000000E+00  0.00000000000E+00  0.25538973307E+04  0.25538973307E+04  0.25500000920E-02 0. -1.
       -2   -1    0    0    0  501  0.00000000000E+00  0.00000000000E+00 -0.93753106718E+03  0.93753106718E+03  0.25500000920E-02 0.  1.
    10030    2    1    2    0    0  0.00000000000E+00  0.00000000000E+00  0.16163662635E+04  0.34914283979E+04  0.30947426968E+04 0.  0.
        2    1    3    3  502    0 -0.71788011626E+03 -0.13704549597E+04  0.84125695061E+03  0.17610258132E+04  0.25500000920E-02 0. -1.
       -2    1    3    3    0  502  0.71788011626E+03  0.13704549597E+04  0.77510931290E+03  0.17304025846E+04  0.25500000920E-02 0.  1.
</event>
<event>
 5   0  0.3340899E-06  0.3052735E+04  0.7818609E-02  0.8228830E-01
        2   -1    0    0  501    0  0.00000000000E+00  0.00000000000E+00  0.19512836443E+04  0.19512836443E+04  0.25500000920E-02 0.  1.
       -2   -1    0    0    0  501  0.00000000000E+00  0.00000000000E+00 -0.11939824624E+04  0.11939824624E+04  0.25500000920E-02 0. -1.
    10030    2    1    2    0    0  0.00000000000E+00  0.00000000000E+00  0.75730118185E+03  0.31452661067E+04  0.30527354622E+04 0.  0.
        3    1    3    3  502    0 -0.11429605533E+04  0.69516180655E+02 -0.66120151560E+03  0.13222627500E+04  0.10100000352E+00 0. -1.
       -3    1    3    3    0  502  0.11429605533E+04 -0.69516180655E+02  0.14185026975E+04  0.18230033567E+04  0.10100000352E+00 0.  1.
</event>
<event>
 5   0  0.1171915E-06  0.3096173E+04  0.7818609E-02  0.8216789E-01
        1   -1    0    0  501    0  0.00000000000E+00  0.00000000000E+00  0.18010882575E+04  0.18010882575E+04  0.50400001928E-02 0.  1.
       -1   -1    0    0    0  501  0.00000000000E+00  0.00000000000E+00 -0.13306243439E+04  0.13306243439E+04  0.50400001928E-02 0. -1.
    10030    2    1    2    0    0  0.00000000000E+00  0.00000000000E+00  0.47046391357E+03  0.31317126015E+04  0.30961730449E+04 0.  0.
        2    1    3    3  502    0 -0.11200539993E+04  0.64198705499E+03  0.10993825048E+04  0.16956739757E+04  0.25500000920E-02 0.  1.
       -2    1    3    3    0  502  0.11200539993E+04 -0.64198705499E+03 -0.62891859119E+03  0.14360386257E+04  0.25500000920E-02 0. -1.
</event>
<event>
 5   0  0.3445410E-06  0.3144333E+04  0.7818609E-02  0.8203675E-01
       -2   -1    0    0    0  501  0.00000000000E+00  0.00000000000E+00  0.12257530227E+04  0.12257530227E+04  0.25500000920E-02 0.  1.
        2   -1    0    0  501    0  0.00000000000E+00  0.00000000000E+00 -0.20164812963E+04  0.20164812963E+04  0.25500000920E-02 0. -1.
    10030    2    1    2    0    0  0.00000000000E+00  0.00000000000E+00 -0.79072827368E+03  0.32422343190E+04  0.31443333438E+04 0.  0.
        1    1    3    3  502    0 -0.12835708474E+04 -0.79586309837E+03  0.54990618678E+02  0.15112829516E+04  0.50400001928E-02 0.  1.
       -1    1    3    3    0  502  0.12835708474E+04  0.79586309837E+03 -0.84571889236E+03  0.17309513674E+04  0.50400001928E-02 0. -1.
</event>
<event>
 5   0  0.1211008E-06  0.3103807E+04  0.7818609E-02  0.8214694E-01
        1   -1    0    0  501    0  0.00000000000E+00  0.00000000000E+00  0.31859585879E+04  0.31859585879E+04  0.50400001928E-02 0. -1.
       -1   -1    0    0    0  501  0.00000000000E+00  0.00000000000E+00 -0.75594340245E+03  0.75594340247E+03  0.50400001928E-02 0.  1.
    10030    2    1    2    0    0  0.00000000000E+00  0.00000000000E+00  0.24300151854E+04  0.39419019903E+04  0.31038069367E+04 0.  0.
        3    1    3    3  502    0 -0.12662308892E+04 -0.60652448633E+03  0.37526322367E+03  0.14532842511E+04  0.10100000352E+00 0.  1.
       -3    1    3    3    0  502  0.12662308892E+04  0.60652448633E+03  0.20547519618E+04  0.24886177392E+04  0.10100000352E+00 0. -1.
</event>
<event>
 5   0  0.1211008E-06  0.3131660E+04  0.7818609E-02  0.8207103E-01
        1   -1    0    0  501    0  0.00000000000E+00  0.00000000000E+00  0.24225034156E+04  0.24225034156E+04  0.50400001928E-02 0.  1.
       -1   -1    0    0    0  501  0.00000000000E+00  0.00000000000E+00 -0.10121029530E+04  0.10121029530E+04  0.50400001928E-02 0. -1.
    10030    2    1    2    0    0  0.00000000000E+00  0.00000000000E+00  0.14104004626E+04  0.34346063686E+04  0.31316595349E+04 0.  0.
        3    1    3    3  502    0  0.34387240885E+01 -0.33037060459E+03  0.23838405275E+04  0.24066267330E+04  0.10100000352E+00 0.  1.
       -3    1    3    3    0  502 -0.34387240885E+01  0.33037060459E+03 -0.97344006485E+03  0.10279796356E+04  0.10100000352E+00 0. -1.
</event>
<event>
 5   0  0.1235960E-06  0.3077868E+04  0.7818609E-02  0.8221838E-01
       -1   -1    0    0    0  501  0.00000000000E+00  0.00000000000E+00  0.10660993622E+04  0.10660993622E+04  0.50400001928E-02 0. -1.
        1   -1    0    0  501    0  0.00000000000E+00  0.00000000000E+00 -0.22214800560E+04  0.22214800560E+04  0.50400001928E-02 0.  1.
    10030    2    1    2    0    0  0.00000000000E+00  0.00000000000E+00 -0.11553806938E+04  0.32875794182E+04  0.30778683993E+04 0.  0.
        4    1    3    3  502    0 -0.53461171451E+03  0.14257684294E+04 -0.81579479795E+03  0.17274686871E+04  0.12699999809E+01 0.  1.
       -4    1    3    3    0  502  0.53461171451E+03 -0.14257684294E+04 -0.33958589586E+03  0.15601107311E+04  0.12699999809E+01 0. -1.
</event>
<event>
 5   0  0.3445959E-06  0.3106359E+04  0.7818609E-02  0.8213995E-01
        2   -1    0    0  501    0  0.00000000000E+00  0.00000000000E+00  0.25989004523E+04  0.25989004523E+04  0.25500000920E-02 0.  1.
       -2   -1    0    0    0  501  0.00000000000E+00  0.00000000000E+00 -0.92822596574E+03  0.92822596574E+03  0.25500000920E-02 0. -1.
    10030    2    1    2    0    0  0.00000000000E+00  0.00000000000E+00  0.16706744866E+04  0.35271264181E+04  0.31063592080E+04 0.  0.
        4    1    3    3  502    0  0.35263640169E+03  0.11484536044E+04 -0.28241690048E+03  0.12341227782E+04  0.12699999809E+01 0. -1.
       -4    1    3    3    0  502 -0.35263640169E+03 -0.11484536044E+04  0.19530913871E+04  0.22930036398E+04  0.12699999809E+01 0.  1.
</event>
<event>
 5   0  0.1211008E-06  0.3134706E+04  0.7818609E-02  0.8206277E-01
        1   -1    0    0  501    0  0.00000000000E+00  0.00000000000E+00  0.19750217018E+04  0.19750217018E+04  0.50400001928E-02 0.  1.
       -1   -1    0    0    0  501  0.00000000000E+00  0.00000000000E+00 -0.12438320453E+04  0.12438320454E+04  0.50400001928E-02 0. -1.
    10030    2    1    2    0    0  0.00000000000E+00  0.00000000000E+00  0.73118965649E+03  0.32188537472E+04  0.31347059084E+04 0.  0.
        3    1    3    3  502    0  0.72999107144E+03  0.12658745554E+03  0.17838606984E+04  0.19315978748E+04  0.10100000352E+00 0.  1.
       -3    1    3    3    0  502 -0.72999107144E+03 -0.12658745554E+03 -0.10526710419E+04  0.12872558724E+04  0.10100000352E+00 0. -1.
</event>
<event>
 5   0  0.3441897E-06  0.3112113E+04  0.7818609E-02  0.8212421E-01
       -2   -1    0    0    0  501  0.00000000000E+00  0.00000000000E+00  0.19939317802E+04  0.19939317802E+04  0.25500000920E-02 0.  1.
        2   -1    0    0  501    0  0.00000000000E+00  0.00000000000E+00 -0.12143402545E+04  0.12143402545E+04  0.25500000920E-02 0. -1.
    10030    2    1    2    0    0  0.00000000000E+00  0.00000000000E+00  0.77959152570E+03  0.32082720348E+04  0.31121128679E+04 0.  0.
        5    1    3    3  502    0 -0.14902214723E+04 -0.38477746199E+03  0.15364171374E+03  0.15467519510E+04  0.46999998093E+01 0.  1.
       -5    1    3    3    0  502  0.14902214723E+04  0.38477746199E+03  0.62594981196E+03  0.16615200838E+04  0.46999998093E+01 0. -1.
</event>
<event>
 5   0  0.1211008E-06  0.3064171E+04  0.7818609E-02  0.8225640E-01
       -1   -1    0    0    0  501  0.00000000000E+00  0.00000000000E+00  0.18916247504E+04  0.18916247504E+04  0.50400001928E-02 0.  1.
        1   -1    0    0  501    0  0.00000000000E+00  0.00000000000E+00 -0.12408837123E+04  0.12408837123E+04  0.50400001928E-02 0. -1.
    10030    2    1    2    0    0  0.00000000000E+00  0.00000000000E+00  0.65074103814E+03  0.31325084627E+04  0.30641712371E+04 0.  0.
        3    1    3    3  502    0 -0.61479361490E+02 -0.13424392744E+04 -0.42681275660E+03  0.14099971832E+04  0.10100000352E+00 0. -1.
       -3    1    3    3    0  502  0.61479361490E+02  0.13424392744E+04  0.10775537947E+04  0.17225112795E+04  0.10100000352E+00 0.  1.
</event>
<event>
 5   0  0.3445410E-06  0.3012178E+04  0.7818609E-02  0.8240262E-01
       -2   -1    0    0    0  501  0.00000000000E+00  0.00000000000E+00  0.93837343104E+03  0.93837343104E+03  0.25500000920E-02 0. -1.
        2   -1    0    0  501    0  0.00000000000E+00  0.00000000000E+00 -0.24172728499E+04  0.24172728499E+04  0.25500000920E-02 0.  1.
    10030    2    1    2    0    0  0.00000000000E+00  0.00000000000E+00 -0.14788994189E+04  0.33556462810E+04  0.30121783599E+04 0.  0.
        1    1    3    3  502    0  0.58762647692E+03  0.93752766054E+03 -0.18777435841E+04  0.21794916743E+04  0.50400001928E-02 0.  1.
       -1    1    3    3    0  502 -0.58762647692E+03 -0.93752766054E+03  0.39884416521E+03  0.11761546067E+04  0.50400001928E-02 0. -1.
</event>
<event>
 5   0  0.1211008E-06  0.3128299E+04  0.7818609E-02  0.8208014E-01
       -1   -1    0    0    0  501  0.00000000000E+00  0.00000000000E+00  0.11885927494E+04  0.11885927495E+04  0.50400001928E-02 0.  1.
        1   -1    0    0  501    0  0.00000000000E+00  0.00000000000E+00 -0.20583702625E+04  0.20583702625E+04  0.50400001928E-02 0. -1.
    10030    2    1    2    0    0  0.00000000000E+00  0.00000000000E+00 -0.86977751304E+03  0.32469630119E+04  0.31282991990E+04 0.  0.
        3    1    3    3  502    0 -0.35495942538E+03 -0.40387785055E+03 -0.19594310350E+04  0.20318669993E+04  0.10100000352E+00 0. -1.
       -3    1    3    3    0  502  0.35495942538E+03  0.40387785055E+03  0.10896535219E+04  0.12150960126E+04  0.10100000352E+00 0.  1.
</event>
<event>
 5   0  0.3441897E-06  0.3059864E+04  0.7818609E-02  0.8226840E-01
       -2   -1    0    0    0  501  0.00000000000E+00  0.00000000000E+00  0.13442592734E+04  0.13442592734E+04  0.25500000920E-02 0. -1.
        2   -1    0    0  501    0  0.00000000000E+00  0.00000000000E+00 -0.17412504082E+04  0.17412504082E+04  0.25500000920E-02 0.  1.
    10030    2    1    2    0    0  0.00000000000E+00  0.00000000000E+00 -0.39699113488E+03  0.30855096816E+04  0.30598640549E+04 0.  0.
        5    1    3    3  502    0 -0.12440326864E+04 -0.65446490412E+03 -0.80748464383E+03  0.16211092424E+04  0.46999998093E+01 0.  1.
       -5    1    3    3    0  502  0.12440326864E+04  0.65446490412E+03  0.41049350895E+03  0.14644004393E+04  0.46999998093E+01 0. -1.
</event>
<event>
 5   0  0.3340899E-06  0.3116618E+04  0.7818609E-02  0.8211192E-01
        2   -1    0    0  501    0  0.00000000000E+00  0.00000000000E+00  0.23948511891E+04  0.23948511891E+04  0.25500000920E-02 0.  1.
       -2   -1    0    0    0  501  0.00000000000E+00  0.00000000000E+00 -0.10139782193E+04  0.10139782193E+04  0.25500000920E-02 0. -1.
    10030    2    1    2    0    0  0.00000000000E+00  0.00000000000E+00  0.13808729698E+04  0.34088294085E+04  0.31166180031E+04 0.  0.
        3    1    3    3  502    0  0.10978342141E+03 -0.15096611568E+04  0.28530578923E+03  0.15403014677E+04  0.10100000352E+00 0. -1.
       -3    1    3    3    0  502 -0.10978342141E+03  0.15096611568E+04  0.10955671805E+04  0.18685279407E+04  0.10100000352E+00 0.  1.
</event>
<event>
 5   0  0.3340899E-06  0.3312304E+04  0.7818609E-02  0.8159772E-01
        2   -1    0    0  501    0  0.00000000000E+00  0.00000000000E+00  0.28121252019E+04  0.28121252019E+04  0.25500000920E-02 0. -1.
       -2   -1    0    0    0  501  0.00000000000E+00  0.00000000000E+00 -0.97536184273E+03  0.97536184274E+03  0.25500000920E-02 0.  1.
    10030    2    1    2    0    0  0.00000000000E+00  0.00000000000E+00  0.18367633592E+04  0.37874870446E+04  0.33123041038E+04 0.  0.
        3    1    3    3  502    0  0.26764747476E+03 -0.13287648892E+04  0.20065256414E+04  0.24214451184E+04  0.10100000352E+00 0.  1.
       -3    1    3    3    0  502 -0.26764747476E+03  0.13287648892E+04 -0.16976228223E+03  0.13660419263E+04  0.10100000352E+00 0. -1.
</event>
<event>
 5   0  0.1198763E-06  0.3019713E+04  0.7818609E-02  0.8238124E-01
       -1   -1    0    0    0  501  0.00000000000E+00  0.00000000000E+00  0.11718671979E+04  0.11718671979E+04  0.50400001928E-02 0. -1.
        1   -1    0    0  501    0  0.00000000000E+00  0.00000000000E+00 -0.19453280710E+04  0.19453280710E+04  0.50400001928E-02 0.  1.
    10030    2    1    2    0    0  0.00000000000E+00  0.00000000000E+00 -0.77346087304E+03  0.31171952689E+04  0.30197126721E+04 0.  0.
        1    1    3    3  502    0  0.59265241699E+03  0.12754921700E+04  0.18013154141E+03  0.14179437701E+04  0.50400001928E-02 0. -1.
       -1    1    3    3    0  502 -0.59265241699E+03 -0.12754921700E+04 -0.95359241446E+03  0.16992514987E+04  0.50400001928E-02 0.  1.
</event>
<event>
 5   0  0.1235960E-06  0.3070900E+04  0.7818609E-02  0.8223770E-01
       -1   -1    0    0    0  501  0.00000000000E+00  0.00000000000E+00  0.15584051084E+04  0.15584051084E+04  0.50400001928E-02 0. -1.
        1   -1    0    0  501    0  0.00000000000E+00  0.00000000000E+00 -0.15128334566E+04  0.15128334566E+04  0.50400001928E-02 0.  1.
    10030    2    1    2    0    0  0.00000000000E+00  0.00000000000E+00  0.45571651885E+02  0.30712385650E+04  0.30709004458E+04 0.  0.
        4    1    3    3  502    0 -0.42632241969E+03  0.12194818331E+04  0.85276817359E+03  0.15479347265E+04  0.12699999809E+01 0. -1.
       -4    1    3    3    0  502  0.42632241969E+03 -0.12194818331E+04 -0.80719652170E+03  0.15233038385E+04  0.12699999809E+01 0.  1.
</event>
<event>
 5   0  0.1198763E-06  0.3118782E+04  0.7818609E-02  0.8210602E-01
        1   -1    0    0  501    0  0.00000000000E+00  0.00000000000E+00  0.21697302954E+04  0.21697302954E+04  0.50400001928E-02 0.  1.
       -1   -1    0    0    0  501  0.00000000000E+00  0.00000000000E+00 -0.11207382935E+04  0.11207382935E+04  0.50400001928E-02 0. -1.
    10030    2    1    2    0    0  0.00000000000E+00  0.00000000000E+00  0.10489920019E+04  0.32904685890E+04  0.31187817036E+04 0.  0.
        1    1    3    3  502    0 -0.12651825707E+04  0.79947544192E+03  0.62374862754E+02  0.14979113936E+04  0.50400001928E-02 0. -1.
       -1    1    3    3    0  502  0.12651825707E+04 -0.79947544192E+03  0.98661713915E+03  0.17925571954E+04  0.50400001928E-02 0.  1.
</event>
<event>
 5   0  0.1109562E-06  0.3116642E+04  0.7818609E-02  0.8211185E-01
        3   -1    0    0  501    0  0.00000000000E+00  0.00000000000E+00  0.16634929779E+04  0.16634929810E+04  0.10100000352E+00 0.  1.
       -3   -1    0    0    0  501  0.00000000000E+00  0.00000000000E+00 -0.14597985089E+04  0.14597985124E+04  0.10100000352E+00 0. -1.
    10030    2    1    2    0    0  0.00000000000E+00  0.00000000000E+00  0.20369446902E+03  0.31232914934E+04  0.31166421540E+04 0.  0.
        3    1    3    3  502    0 -0.77851688182E+03  0.11531656916E+04  0.80511716196E+03  0.16075115247E+04  0.10100000352E+00 0.  1.
       -3    1    3    3    0  502  0.77851688182E+03 -0.11531656916E+04 -0.60142269294E+03  0.15157799686E+04  0.10100000352E+00 0. -1.
</event>
<event>
 5   0  0.1250276E-06  0.3029909E+04  0.7818609E-02  0.8235241E-01
        1   -1    0    0  501    0  0.00000000000E+00  0.00000000000E+00  0.19723952720E+04  0.19723952720E+04  0.50400001928E-02 0. -1.
       -1   -1    0    0    0  501  0.00000000000E+00  0.00000000000E+00 -0.11636041036E+04  0.11636041036E+04  0.50400001928E-02 0.  1.
    10030    2    1    2    0    0  0.00000000000E+00  0.00000000000E+00  0.80879116843E+03  0.31359993757E+04  0.30299090630E+04 0.  0.
        5    1    3    3  502    0  0.46827005564E+01 -0.89737198660E+03 -0.85890154538E+03  0.12421885383E+04  0.46999998093E+01 0.  1.
       -5    1    3    3    0  502 -0.46827005564E+01  0.89737198660E+03  0.16676927138E+04  0.18938108374E+04  0.46999998093E+01 0. -1.
</event>
<event>
 5   0  0.1235960E-06  0.3088162E+04  0.7818609E-02  0.8218994E-01
       -1   -1    0    0    0  501  0.00000000000E+00  0.00000000000E+00  0.29091287156E+04  0.29091287156E+04  0.50400001928E-02 0.  1.
        1   -1    0    0  501    0  0.00000000000E+00  0.00000000000E+00 -0.81955331053E+03  0.81955331054E+03  0.50400001928E-02 0. -1.
    10030    2    1    2    0    0  0.00000000000E+00  0.00000000000E+00  0.20895754051E+04  0.37286820262E+04  0.30881619580E+04 0.  0.
        4    1    3    3  502    0  0.98773194726E+03  0.11178367865E+04  0.15262572595E+04  0.21341593933E+04  0.12699999809E+01 0.  1.
       -4    1    3    3    0  502 -0.98773194726E+03 -0.11178367865E+04  0.56331814561E+03  0.15945226329E+04  0.12699999809E+01 0. -1.
</event>
<event>
 5   0  0.1171915E-06  0.3066169E+04  0.7818609E-02  0.8225084E-01
        1   -1    0    0  501    0  0.00000000000E+00  0.00000000000E+00  0.23814707812E+04  0.23814707812E+04  0.50400001928E-02 0.  1.
       -1   -1    0    0    0  501  0.00000000000E+00  0.00000000000E+00 -0.98693123292E+03  0.98693123294E+03  0.50400001928E-02 0. -1.
    10030    2    1    2    0    0  0.00000000000E+00  0.00000000000E+00  0.13945395483E+04  0.33684020142E+04  0.30661688762E+04 0.  0.
        2    1    3    3  502    0 -0.10179665076E+03 -0.12683855671E+04  0.16366491172E+04  0.20731099435E+04  0.25500000920E-02 0.  1.
       -2    1    3    3    0  502  0.10179665076E+03  0.12683855671E+04 -0.24210956889E+03  0.12952920707E+04  0.25500000920E-02 0. -1.
</event>
<event>
 5   0  0.3374790E-06  0.3105164E+04  0.7818609E-02  0.8214322E-01
       -2   -1    0    0    0  501  0.00000000000E+00  0.00000000000E+00  0.15059520922E+04  0.15059520922E+04  0.25500000920E-02 0. -1.
        2   -1    0    0  501    0  0.00000000000E+00  0.00000000000E+00 -0.16006552968E+04  0.16006552968E+04  0.25500000920E-02 0.  1.
    10030    2    1    2    0    0  0.00000000000E+00  0.00000000000E+00 -0.94703204582E+02  0.31066073890E+04  0.31051635661E+04 0.  0.
        2    1    3    3  502    0 -0.13717457425E+04 -0.13234241808E+02  0.68006876909E+03  0.15311286876E+04  0.25500000920E-02 0. -1.
       -2    1    3    3    0  502  0.13717457425E+04  0.13234241808E+02 -0.77477197367E+03  0.15754787014E+04  0.25500000920E-02 0.  1.
</event>
<event>
 5   0  0.1250276E-06  0.2508557E+04  0.7818609E-02  0.8399944E-01
       -1   -1    0    0    0  501  0.00000000000E+00  0.00000000000E+00  0.10227399511E+04  0.10227399511E+04  0.50400001928E-02 0.  1.
        1   -1    0    0  501    0  0.00000000000E+00  0.00000000000E+00 -0.15382347651E+04  0.15382347651E+04  0.50400001928E-02 0. -1.
    10030    2    1    2    0    0  0.00000000000E+00  0.00000000000E+00 -0.51549481397E+03  0.25609747162E+04  0.25085566755E+04 0.  0.
        5    1    3    3  502    0 -0.35775847896E+03  0.84323147558E+03  0.61698901176E+03  0.11044129578E+04  0.46999998093E+01 0.  1.
       -5    1    3    3    0  502  0.35775847896E+03 -0.84323147558E+03 -0.11324838257E+04  0.14565617585E+04  0.46999998093E+01 0. -1.
</event>
<event>
 5   0  0.1211008E-06  0.3107114E+04  0.7818609E-02  0.8213788E-01
        1   -1    0    0  501    0  0.00000000000E+00  0.00000000000E+00  0.15385932329E+04  0.15385932329E+04  0.50400001928E-02 0. -1.
       -1   -1    0    0    0  501  0.00000000000E+00  0.00000000000E+00 -0.15686658919E+04  0.15686658919E+04  0.50400001928E-02 0.  1.
    10030    2    1    2    0    0  0.00000000000E+00  0.00000000000E+00 -0.30072659000E+02  0.31072591248E+04  0.31071135968E+04 0.  0.
        3    1    3    3  502    0 -0.22251532515E+03  0.15161160829E+04 -0.27081708916E+03  0.15561050584E+04  0.10100000352E+00 0.  1.
       -3    1    3    3    0  502  0.22251532515E+03 -0.15161160829E+04  0.24074443016E+03  0.15511540664E+04  0.10100000352E+00 0. -1.
</event>
<event>
 5   0  0.3374790E-06  0.3090171E+04  0.7818609E-02  0.8218441E-01
        2   -1    0    0  501    0  0.00000000000E+00  0.00000000000E+00  0.16353280750E+04  0.16353280750E+04  0.25500000920E-02 0. -1.
       -2   -1    0    0    0  501  0.00000000000E+00  0.00000000000E+00 -0.14598228488E+04  0.14598228488E+04  0.25500000920E-02 0.  1.
    10030    2    1    2    0    0  0.00000000000E+00  0.00000000000E+00  0.17550522615E+03  0.30951509238E+04  0.30901710562E+04 0.  0.
        2    1    3    3  502    0  0.61646916678E+03 -0.12662663224E+04  0.72424868280E+03  0.15836668802E+04  0.25500000920E-02 0. -1.
       -2    1    3    3    0  502 -0.61646916678E+03  0.12662663224E+04 -0.54874345666E+03  0.15114840436E+04  0.25500000920E-02 0.  1.
</event>
<event>
 5   0  0.1171915E-06  0.3088841E+04  0.7818609E-02  0.8218807E-01
       -1   -1    0    0    0  501  0.00000000000E+00  0.00000000000E+00  0.19848969036E+04  0.19848969036E+04  0.50400001928E-02 0.  1.
        1   -1    0    0  501    0  0.00000000000E+00  0.00000000000E+00 -0.12016917024E+04  0.12016917024E+04  0.50400001928E-02 0. -1.
    10030    2    1    2    0    0  0.00000000000E+00  0.00000000000E+00  0.78320520118E+03  0.31865886060E+04  0.30888406493E+04 0.  0.
        2    1    3    3  502    0 -0.76994346013E+03  0.36454760985E+03  0.17205951855E+04  0.19199363750E+04  0.25500000920E-02 0.  1.
       -2    1    3    3    0  502  0.76994346013E+03 -0.36454760985E+03 -0.93738998430E+03  0.12666522310E+04  0.25500000920E-02 0. -1.
</event>
<event>
 5   0  0.1250276E-06  0.3150118E+04  0.7818609E-02  0.8202116E-01
       -1   -1    0    0    0  501  0.00000000000E+00  0.00000000000E+00  0.21437150306E+04  0.21437150306E+04  0.50400001928E-02 0. -1.
        1   -1    0    0  501    0  0.00000000000E+00  0.00000000000E+00 -0.11572487196E+04  0.11572487196E+04  0.50400001928E-02 0.  1.
    10030    2    1    2    0    0  0.00000000000E+00  0.00000000000E+00  0.98646631101E+03  0.33009637502E+04  0.31501183942E+04 0.  0.
        5    1    3    3  502    0 -0.15184376309E+04  0.14178671602E+02  0.54951930254E+02  0.15195050768E+04  0.46999998093E+01 0.  1.
       -5    1    3    3    0  502  0.15184376309E+04 -0.14178671602E+02  0.93151438076E+03  0.17814586735E+04  0.46999998093E+01 0. -1.
</event>
<event>
 5   0  0.3445410E-06  0.3081961E+04  0.7818609E-02  0.8220706E-01
        2   -1    0    0  501    0  0.00000000000E+00  0.00000000000E+00  0.17201341438E+04  0.17201341438E+04  0.25500000920E-02 0. -1.
       -2   -1    0    0    0  501  0.00000000000E+00  0.00000000000E+00 -0.13804856548E+04  0.13804856548E+04  0.25500000920E-02 0.  1.
    10030    2    1    2    0    0  0.00000000000E+00  0.00000000000E+00  0.33964848904E+03  0.31006197986E+04  0.30819607459E+04 0.  0.
        1    1    3    3  502    0  0.83073811639E+03  0.60189015850E+03 -0.98701697589E+03  0.14235870509E+04  0.50400001928E-02 0.  1.
       -1    1    3    3    0  502 -0.83073811639E+03 -0.60189015850E+03  0.13266654649E+04  0.16770327477E+04  0.50400001928E-02 0. -1.
</event>
<event>
 5   0  0.3374790E-06  0.3073169E+04  0.7818609E-02  0.8223140E-01
        2   -1    0    0  501    0  0.00000000000E+00  0.00000000000E+00  0.11371299813E+04  0.11371299813E+04  0.25500000920E-02 0.  1.
       -2   -1    0    0    0  501  0.00000000000E+00  0.00000000000E+00 -0.20763600835E+04  0.20763600835E+04  0.25500000920E-02 0. -1.
    10030    2    1    2    0    0  0.00000000000E+00  0.00000000000E+00 -0.93923010216E+03  0.32134900648E+04  0.30731685947E+04 0.  0.
        2    1    3    3  502    0  0.64973736295E+03 -0.16168746952E+03 -0.19158012127E+04  0.20294323751E+04  0.25500000920E-02 0. -1.
       -2    1    3    3    0  502 -0.64973736295E+03  0.16168746952E+03  0.97657111050E+03  0.11840576897E+04  0.25500000920E-02 0.  1.
</event>
<event>
 5   0  0.3445959E-06  0.3109662E+04  0.7818609E-02  0.8213091E-01
        2   -1    0    0  501    0  0.00000000000E+00  0.00000000000E+00  0.21556639501E+04  0.21556639501E+04  0.25500000920E-02 0.  1.
       -2   -1    0    0    0  501  0.00000000000E+00  0.00000000000E+00 -0.11214640633E+04  0.11214640633E+04  0.25500000920E-02 0. -1.
    10030    2    1    2    0    0  0.00000000000E+00  0.00000000000E+00  0.10341998868E+04  0.32771280133E+04  0.31096621376E+04 0.  0.
        4    1    3    3  502    0 -0.12374889623E+04  0.85621252023E+03  0.92934286158E+03  0.17686601084E+04  0.12699999809E+01 0.  1.
       -4    1    3    3    0  502  0.12374889623E+04 -0.85621252023E+03  0.10485702520E+03  0.15084679050E+04  0.12699999809E+01 0. -1.
</event>
<event>
 5   0  0.3441897E-06  0.3185699E+04  0.7818609E-02  0.8192604E-01
        2   -1    0    0  501    0  0.00000000000E+00  0.00000000000E+00  0.16379620917E+04  0.16379620917E+04  0.25500000920E-02 0.  1.
       -2   -1    0    0    0  501  0.00000000000E+00  0.00000000000E+00 -0.15489798716E+04  0.15489798716E+04  0.25500000920E-02 0. -1.
    10030    2    1    2    0    0  0.00000000000E+00  0.00000000000E+00  0.88982220120E+02  0.31869419632E+04  0.31856994901E+04 0.  0.
        5    1    3    3  502    0  0.62721677388E+03 -0.10135498862E+04  0.11015317971E+04  0.16229844865E+04  0.46999998093E+01 0.  1.
       -5    1    3    3    0  502 -0.62721677388E+03  0.10135498862E+04 -0.10125495770E+04  0.15639574768E+04  0.46999998093E+01 0. -1.
</event>
<event>
 5   0  0.3445959E-06  0.3110885E+04  0.7818609E-02  0.8212757E-01
        2   -1    0    0  501    0  0.00000000000E+00  0.00000000000E+00  0.18812749984E+04  0.18812749984E+04  0.25500000920E-02 0.  1.
       -2   -1    0    0    0  501  0.00000000000E+00  0.00000000000E+00 -0.12860436999E+04  0.12860436999E+04  0.25500000920E-02 0. -1.
    10030    2    1    2    0    0  0.00000000000E+00  0.00000000000E+00  0.59523129853E+03  0.31673186983E+04  0.31108853142E+04 0.  0.
        4    1    3    3  502    0 -0.10571227921E+04  0.24766303552E+03 -0.83639130501E+03  0.13705464621E+04  0.12699999809E+01 0. -1.
       -4    1    3    3    0  502  0.10571227921E+04 -0.24766303552E+03  0.14316226035E+04  0.17967722362E+04  0.12699999809E+01 0.  1.
</event>
<event>
 5   0  0.3445410E-06  0.3103663E+04  0.7818609E-02  0.8214733E-01
        2   -1    0    0  501    0  0.00000000000E+00  0.00000000000E+00  0.22695491462E+04  0.22695491462E+04  0.25500000920E-02 0. -1.
       -2   -1    0    0    0  501  0.00000000000E+00  0.00000000000E+00 -0.10610834971E+04  0.10610834971E+04  0.25500000920E-02 0.  1.
    10030    2    1    2    0    0  0.00000000000E+00  0.00000000000E+00  0.12084656491E+04  0.33306326433E+04  0.31036630905E+04 0.  0.
        1    1    3    3  502    0  0.51412201760E+02 -0.47215644567E+03  0.21896364868E+04  0.22405541431E+04  0.50400001928E-02 0. -1.
       -1    1    3    3    0  502 -0.51412201760E+02  0.47215644567E+03 -0.98117083775E+03  0.10900785002E+04  0.50400001928E-02 0.  1.
</event>
<event>
 5   0  0.1235960E-06  0.3078917E+04  0.7818609E-02  0.8221548E-01
        1   -1    0    0  501    0  0.00000000000E+00  0.00000000000E+00  0.18052840008E+04  0.18052840008E+04  0.50400001928E-02 0. -1.
       -1   -1    0    0    0  501  0.00000000000E+00  0.00000000000E+00 -0.13127754919E+04  0.13127754919E+04  0.50400001928E-02 0.  1.
    10030    2    1    2    0    0  0.00000000000E+00  0.00000000000E+00  0.49250850893E+03  0.31180594927E+04  0.30789170772E+04 0.  0.
        4    1    3    3  502    0 -0.13328943599E+04 -0.73509463837E+03  0.13199348733E+02  0.15222179009E+04  0.12699999809E+01 0. -1.
       -4    1    3    3    0  502  0.13328943599E+04  0.73509463837E+03  0.47930916020E+03  0.15958415918E+04  0.12699999809E+01 0.  1.
</event>
<event>
 5   0  0.3374790E-06  0.3081925E+04  0.7818609E-02  0.8220716E-01
       -2   -1    0    0    0  501  0.00000000000E+00  0.00000000000E+00  0.11351662883E+04  0.11351662883E+04  0.25500000920E-02 0.  1.
        2   -1    0    0  501    0  0.00000000000E+00  0.00000000000E+00 -0.20918214305E+04  0.20918214305E+04  0.25500000920E-02 0. -1.
    10030    2    1    2    0    0  0.00000000000E+00  0.00000000000E+00 -0.95665514215E+03  0.32269877188E+04  0.30819248330E+04 0.  0.
        2    1    3    3  502    0  0.78391355644E+03 -0.91280277297E+03  0.52970988869E+03  0.13146565835E+04  0.25500000920E-02 0.  1.
       -2    1    3    3    0  502 -0.78391355644E+03  0.91280277297E+03 -0.14863650308E+04  0.19123311353E+04  0.25500000920E-02 0. -1.
</event>
<event>
 5   0  0.3340899E-06  0.3111167E+04  0.7818609E-02  0.8212680E-01
       -2   -1    0    0    0  501  0.00000000000E+00  0.00000000000E+00  0.90624305985E+03  0.90624305985E+03  0.25500000920E-02 0.  1.
        2   -1    0    0  501    0  0.00000000000E+00  0.00000000000E+00 -0.26701892325E+04  0.26701892325E+04  0.25500000920E-02 0. -1.
    10030    2    1    2    0    0  0.00000000000E+00  0.00000000000E+00 -0.17639461727E+04  0.35764322923E+04  0.31111672796E+04 0.  0.
        3    1    3    3  502    0  0.57280831814E+03  0.12592025923E+04 -0.64145157375E+02  0.13848520315E+04  0.10100000352E+00 0.  1.
       -3    1    3    3    0  502 -0.57280831814E+03 -0.12592025923E+04 -0.16998010153E+04  0.21915802608E+04  0.10100000352E+00 0. -1.
</event>
<event>
 5   0  0.1109562E-06  0.3074618E+04  0.7818609E-02  0.8222738E-01
       -4   -1    0    0    0  501  0.00000000000E+00  0.00000000000E+00  0.22579240321E+04  0.22579243893E+04  0.12699999809E+01 0. -1.
        4   -1    0    0  501    0  0.00000000000E+00  0.00000000000E+00 -0.10466771487E+04  0.10466779192E+04  0.12699999809E+01 0.  1.
    10030    2    1    2    0    0  0.00000000000E+00  0.00000000000E+00  0.12112468834E+04  0.33046023084E+04  0.30746182534E+04 0.  0.
        2    1    3    3  502    0 -0.40575379126E+03  0.12528622155E+04  0.14580560384E+04  0.19647461112E+04  0.25500000920E-02 0. -1.
       -2    1    3    3    0  502  0.40575379126E+03 -0.12528622155E+04 -0.24680915502E+03  0.13398561972E+04  0.25500000920E-02 0.  1.
</event>
<event>
 5   0  0.3445410E-06  0.3072504E+04  0.7818609E-02  0.8223325E-01
        2   -1    0    0  501    0  0.00000000000E+00  0.00000000000E+00  0.19475356072E+04  0.19475356072E+04  0.25500000920E-02 0.  1.
       -2   -1    0    0    0  501  0.00000000000E+00  0.00000000000E+00 -0.12118240772E+04  0.12118240772E+04  0.25500000920E-02 0. -1.
    10030    2    1    2    0    0  0.00000000000E+00  0.00000000000E+00  0.73571152999E+03  0.31593596843E+04  0.30725042164E+04 0.  0.
        1    1    3    3  502    0 -0.12245879681E+04 -0.30089137721E+03 -0.53439896432E+03  0.13695742278E+04  0.50400001928E-02 0. -1.
       -1    1    3    3    0  502  0.12245879681E+04  0.30089137721E+03  0.12701104943E+04  0.17897854565E+04  0.50400001928E-02 0.  1.
</event>
<event>
 5   0  0.1198763E-06  0.3061479E+04  0.7818609E-02  0.8226390E-01
       -1   -1    0    0    0  501  0.00000000000E+00  0.00000000000E+00  0.15082318589E+04  0.15082318589E+04  0.50400001928E-02 0. -1.
        1   -1    0    0  501    0  0.00000000000E+00  0.00000000000E+00 -0.15535834724E+04  0.15535834724E+04  0.50400001928E-02 0.  1.
    10030    2    1    2    0    0  0.00000000000E+00  0.00000000000E+00 -0.45351613546E+02  0.30618153313E+04  0.30614794388E+04 0.  0.
        1    1    3    3  502    0 -0.43603139269E+03 -0.11928341166E+04  0.83192803032E+03  0.15182492723E+04  0.50400001928E-02 0. -1.
       -1    1    3    3    0  502  0.43603139269E+03  0.11928341166E+04 -0.87727964387E+03  0.15435660591E+04  0.50400001928E-02 0.  1.
</event>
<event>
 5   0  0.3374790E-06  0.3078794E+04  0.7818609E-02  0.8221582E-01
        2   -1    0    0  501    0  0.00000000000E+00  0.00000000000E+00  0.22778349892E+04  0.22778349892E+04  0.25500000920E-02 0.  1.
       -2   -1    0    0    0  501  0.00000000000E+00  0.00000000000E+00 -0.10403486398E+04  0.10403486398E+04  0.25500000920E-02 0. -1.
    10030    2    1    2    0    0  0.00000000000E+00  0.00000000000E+00  0.12374863493E+04  0.33181836290E+04  0.30787936162E+04 0.  0.
        2    1    3    3  502    0  0.91955624176E+03  0.12345299776E+04  0.60826146741E+03  0.16551827573E+04  0.25500000920E-02 0.  1.
       -2    1    3    3    0  502 -0.91955624176E+03 -0.12345299776E+04  0.62922488194E+03  0.16630008717E+04  0.25500000920E-02 0. -1.
</event>
<event>
 5   0  0.1250276E-06  0.3081218E+04  0.7818609E-02  0.8220911E-01
       -1   -1    0    0    0  501  0.00000000000E+00  0.00000000000E+00  0.14069587258E+04  0.14069587258E+04  0.50400001928E-02 0.  1.
        1   -1    0    0  501    0  0.00000000000E+00  0.00000000000E+00 -0.16869550816E+04  0.16869550816E+04  0.50400001928E-02 0. -1.
    10030    2    1    2    0    0  0.00000000000E+00  0.00000000000E+00 -0.27999635575E+03  0.30939138074E+04  0.30812180527E+04 0.  0.
        5    1    3    3  502    0  0.13535756261E+04 -0.70991005918E+03 -0.33396453953E+03  0.15645106811E+04  0.46999998093E+01 0.  1.
       -5    1    3    3    0  502 -0.13535756261E+04  0.70991005918E+03  0.53968183777E+02  0.15294031262E+04  0.46999998093E+01 0. -1.
</event>
<event>
 5   0  0.3441897E-06  0.3087566E+04  0.7818609E-02  0.8219159E-01
       -2   -1    0    0    0  501  0.00000000000E+00  0.00000000000E+00  0.96097121985E+03  0.96097121986E+03  0.25500000920E-02 0. -1.
        2   -1    0    0  501    0  0.00000000000E+00  0.00000000000E+00 -0.24800591252E+04  0.24800591252E+04  0.25500000920E-02 0.  1.
    10030    2    1    2    0    0  0.00000000000E+00  0.00000000000E+00 -0.15190879054E+04  0.34410303451E+04  0.30875656708E+04 0.  0.
        5    1    3    3  502    0  0.14815083459E+04  0.90001870388E+02 -0.28634769588E+03  0.15116164886E+04  0.46999998093E+01 0. -1.
       -5    1    3    3    0  502 -0.14815083459E+04 -0.90001870388E+02 -0.12327402095E+04  0.19294138565E+04  0.46999998093E+01 0.  1.
</event>
<event>
 5   0  0.1235960E-06  0.3072257E+04  0.7818609E-02  0.8223393E-01
       -1   -1    0    0    0  501  0.00000000000E+00  0.00000000000E+00  0.92692093299E+03  0.92692093300E+03  0.50400001928E-02 0. -1.
        1   -1    0    0  501    0  0.00000000000E+00  0.00000000000E+00 -0.25457309385E+04  0.25457309385E+04  0.50400001928E-02 0.  1.
    10030    2    1    2    0    0  0.00000000000E+00  0.00000000000E+00 -0.16188100055E+04  0.34726518715E+04  0.30722573438E+04 0.  0.
        4    1    3    3  502    0  0.59487264248E+03  0.47208608151E+03 -0.23186972994E+04  0.24398970282E+04  0.12699999809E+01 0.  1.
       -4    1    3    3    0  502 -0.59487264248E+03 -0.47208608151E+03  0.69988729394E+03  0.10327548432E+04  0.12699999809E+01 0. -1.
</event>
<event>
 5   0  0.3445959E-06  0.3096899E+04  0.7818609E-02  0.8216589E-01
        2   -1    0    0  501    0  0.00000000000E+00  0.00000000000E+00  0.18426095348E+04  0.18426095348E+04  0.25500000920E-02 0. -1.
       -2   -1    0    0    0  501  0.00000000000E+00  0.00000000000E+00 -0.13012502626E+04  0.13012502626E+04  0.25500000920E-02 0.  1.
    10030    2    1    2    0    0  0.00000000000E+00  0.00000000000E+00  0.54135927221E+03  0.31438597975E+04  0.30968991854E+04 0.  0.
        4    1    3    3  502    0 -0.21211296105E+03 -0.43397785853E+03  0.17641666049E+04  0.18291019963E+04  0.12699999809E+01 0. -1.
       -4    1    3    3    0  502  0.21211296105E+03  0.43397785853E+03 -0.12228073327E+04  0.13147578012E+04  0.12699999809E+01 0.  1.
</event>
<event>
 5   0  0.1198763E-06  0.3084366E+04  0.7818609E-02  0.8220042E-01
        1   -1    0    0  501    0  0.00000000000E+00  0.00000000000E+00  0.19224112227E+04  0.19224112227E+04  0.50400001928E-02 0. -1.
       -1   -1    0    0    0  501  0.00000000000E+00  0.00000000000E+00 -0.12371590352E+04  0.12371590352E+04  0.50400001928E-02 0.  1.
    10030    2    1    2    0    0  0.00000000000E+00  0.00000000000E+00  0.68525218748E+03  0.31595702579E+04  0.30843660052E+04 0.  0.
        1    1    3    3  502    0 -0.58147525695E+03 -0.13768611536E+04  0.73198345929E+03  0.16642295200E+04  0.50400001928E-02 0. -1.
       -1    1    3    3    0  502  0.58147525695E+03  0.13768611536E+04 -0.46731271811E+02  0.14953407379E+04  0.50400001928E-02 0.  1.
</event>
<event>
 5   0  0.3445410E-06  0.3121060E+04  0.7818609E-02  0.8209982E-01
        2   -1    0    0  501    0  0.00000000000E+00  0.00000000000E+00  0.19951174066E+04  0.19951174066E+04  0.25500000920E-02 0. -1.
       -2   -1    0    0    0  501  0.00000000000E+00  0.00000000000E+00 -0.12206070518E+04  0.12206070518E+04  0.25500000920E-02 0.  1.
    10030    2    1    2    0    0  0.00000000000E+00  0.00000000000E+00  0.77451035477E+03  0.32157244584E+04  0.31210603171E+04 0.  0.
        1    1    3    3  502    0  0.93256227485E+03 -0.15343164046E+03  0.16667089134E+04  0.19160199025E+04  0.50400001928E-02 0. -1.
       -1    1    3    3    0  502 -0.93256227485E+03  0.15343164046E+03 -0.89219855859E+03  0.12997045559E+04  0.50400001928E-02 0.  1.
</event>
<event>
 5   0  0.1235960E-06  0.3048595E+04  0.7818609E-02  0.8229989E-01
        1   -1    0    0  501    0  0.00000000000E+00  0.00000000000E+00  0.18426114681E+04  0.18426114681E+04  0.50400001928E-02 0.  1.
       -1   -1    0    0    0  501  0.00000000000E+00  0.00000000000E+00 -0.12609729059E+04  0.12609729060E+04  0.50400001928E-02 0. -1.
    10030    2    1    2    0    0  0.00000000000E+00  0.00000000000E+00  0.58163856216E+03  0.31035843741E+04  0.30485951765E+04 0.  0.
        4    1    3    3  502    0 -0.92767949862E+03 -0.11014900772E+03  0.15170198275E+04  0.17815927778E+04  0.12699999809E+01 0.  1.
       -4    1    3    3    0  502  0.92767949862E+03  0.11014900772E+03 -0.93538126535E+03  0.13219915962E+04  0.12699999809E+01 0. -1.
</event>
<event>
 5   0  0.3340899E-06  0.3073136E+04  0.7818609E-02  0.8223149E-01
        2   -1    0    0  501    0  0.00000000000E+00  0.00000000000E+00  0.15378456308E+04  0.15378456308E+04  0.25500000920E-02 0.  1.
       -2   -1    0    0    0  501  0.00000000000E+00  0.00000000000E+00 -0.15352919185E+04  0.15352919185E+04  0.25500000920E-02 0. -1.
    10030    2    1    2    0    0  0.00000000000E+00  0.00000000000E+00  0.25537123231E+01  0.30731375493E+04  0.30731364883E+04 0.  0.
        3    1    3    3  502    0  0.12233416870E+04  0.67906110253E+02  0.92856668654E+03  0.15373393329E+04  0.10100000352E+00 0.  1.
       -3    1    3    3    0  502 -0.12233416870E+04 -0.67906110253E+02 -0.92601297421E+03  0.15357982164E+04  0.10100000352E+00 0. -1.
</event>
<event>
 5   0  0.1211008E-06  0.3103766E+04  0.7818609E-02  0.8214705E-01
        1   -1    0    0  501    0  0.00000000000E+00  0.00000000000E+00  0.24558948392E+04  0.24558948393E+04  0.50400001928E-02 0.  1.
       -1   -1    0    0    0  501  0.00000000000E+00  0.00000000000E+00 -0.98063655180E+03  0.98063655181E+03  0.50400001928E-02 0. -1.
    10030    2    1    2    0    0  0.00000000000E+00  0.00000000000E+00  0.14752582874E+04  0.34365313911E+04  0.31037656141E+04 0.  0.
        3    1    3    3  502    0 -0.42509343045E+03 -0.10008381706E+04 -0.48831117970E+03  0.11919854390E+04  0.10100000352E+00 0. -1.
       -3    1    3    3    0  502  0.42509343045E+03  0.10008381706E+04  0.19635694672E+04  0.22445459521E+04  0.10100000352E+00 0.  1.
</event>
<event>
 5   0  0.3445410E-06  0.3161842E+04  0.7818609E-02  0.8198968E-01
        2   -1    0    0  501    0  0.00000000000E+00  0.00000000000E+00  0.15367283284E+04  0.15367283284E+04  0.25500000920E-02 0.  1.
       -2   -1    0    0    0  501  0.00000000000E+00  0.00000000000E+00 -0.16263840687E+04  0.16263840687E+04  0.25500000920E-02 0. -1.
    10030    2    1    2    0    0  0.00000000000E+00  0.00000000000E+00 -0.89655740244E+02  0.31631123971E+04  0.31618415338E+04 0.  0.
        1    1    3    3  502    0  0.84575808745E+02  0.99966029373E+03 -0.12671359315E+04  0.16162014847E+04  0.50400001928E-02 0. -1.
       -1    1    3    3    0  502 -0.84575808745E+02 -0.99966029373E+03  0.11774801912E+04  0.15469109124E+04  0.50400001928E-02 0.  1.
</event>
<event>
 5   0  0.1235960E-06  0.3059618E+04  0.7818609E-02  0.8226909E-01
       -1   -1    0    0    0  501  0.00000000000E+00  0.00000000000E+00  0.15507389389E+04  0.15507389389E+04  0.50400001928E-02 0. -1.
        1   -1    0    0  501    0  0.00000000000E+00  0.00000000000E+00 -0.15091613043E+04  0.15091613043E+04  0.50400001928E-02 0.  1.
    10030    2    1    2    0    0  0.00000000000E+00  0.00000000000E+00  0.41577634559E+02  0.30599002432E+04  0.30596177537E+04 0.  0.
        4    1    3    3  502    0  0.83391138719E+03  0.42201079973E+03  0.12320208922E+04  0.15464082283E+04  0.12699999809E+01 0. -1.
       -4    1    3    3    0  502 -0.83391138719E+03 -0.42201079973E+03 -0.11904432576E+04  0.15134920150E+04  0.12699999809E+01 0.  1.
</event>
<event>
 5   0  0.3340899E-06  0.3033170E+04  0.7818609E-02  0.8234322E-01
        2   -1    0    0  501    0  0.00000000000E+00  0.00000000000E+00  0.31104025673E+04  0.31104025673E+04  0.25500000920E-02 0.  1.
       -2   -1    0    0    0  501  0.00000000000E+00  0.00000000000E+00 -0.73946387818E+03  0.73946387818E+03  0.25500000920E-02 0. -1.
    10030    2    1    2    0    0  0.00000000000E+00  0.00000000000E+00  0.23709386892E+04  0.38498664455E+04  0.30331701866E+04 0.  0.
        3    1    3    3  502    0 -0.11580850697E+03 -0.11524585726E+04  0.24280809923E+04  0.26901951021E+04  0.10100000352E+00 0.  1.
       -3    1    3    3    0  502  0.11580850697E+03  0.11524585726E+04 -0.57142303150E+02  0.11596713434E+04  0.10100000352E+00 0. -1.
</event>
<event>
 5   0  0.1235960E-06  0.3123374E+04  0.7818609E-02  0.8209352E-01
        1   -1    0    0  501    0  0.00000000000E+00  0.00000000000E+00  0.24494200077E+04  0.24494200077E+04  0.50400001928E-02 0. -1.
       -1   -1    0    0    0  501  0.00000000000E+00  0.00000000000E+00 -0.99569162073E+03  0.99569162074E+03  0.50400001928E-02 0.  1.
    10030    2    1    2    0    0  0.00000000000E+00  0.00000000000E+00  0.14537283870E+04  0.34451116284E+04  0.31233744427E+04 0.  0.
        4    1    3    3  502    0 -0.64558033802E+02  0.15460856570E+04  0.49466362632E+03  0.16245745026E+04  0.12699999809E+01 0. -1.
       -4    1    3    3    0  502  0.64558033802E+02 -0.15460856570E+04  0.95906476065E+03  0.18205371258E+04  0.12699999809E+01 0.  1.
</event>
<event>
 5   0  0.1109562E-06  0.3100903E+04  0.7818609E-02  0.8215490E-01
       -3   -1    0    0    0  501  0.00000000000E+00  0.00000000000E+00  0.11480769240E+04  0.11480769284E+04  0.10100000352E+00 0.  1.
        3   -1    0    0  501    0  0.00000000000E+00  0.00000000000E+00 -0.20938485688E+04  0.20938485712E+04  0.10100000352E+00 0. -1.
    10030    2    1    2    0    0  0.00000000000E+00  0.00000000000E+00 -0.94577164482E+03  0.32419254996E+04  0.31009026010E+04 0.  0.
        3    1    3    3  502    0 -0.14552664921E+04  0.54614028074E+02 -0.10291704885E+04  0.17832484851E+04  0.10100000352E+00 0. -1.
       -3    1    3    3    0  502  0.14552664921E+04 -0.54614028074E+02  0.83398843661E+02  0.14586770145E+04  0.10100000352E+00 0.  1.
</event>
<event>
 5   0  0.1235960E-06  0.3104745E+04  0.7818609E-02  0.8214437E-01
       -1   -1    0    0    0  501  0.00000000000E+00  0.00000000000E+00  0.15136403908E+04  0.15136403908E+04  0.50400001928E-02 0.  1.
        1   -1    0    0  501    0  0.00000000000E+00  0.00000000000E+00 -0.15920952739E+04  0.15920952739E+04  0.50400001928E-02 0. -1.
    10030    2    1    2    0    0  0.00000000000E+00  0.00000000000E+00 -0.78454883066E+02  0.31057356647E+04  0.31047445708E+04 0.  0.
        4    1    3    3  502    0  0.15538722155E+03 -0.32542005161E+03  0.14711600764E+04  0.15147134983E+04  0.12699999809E+01 0.  1.
       -4    1    3    3    0  502 -0.15538722155E+03  0.32542005161E+03 -0.15496149594E+04  0.15910221664E+04  0.12699999809E+01 0. -1.
</event>
<event>
 5   0  0.1250276E-06  0.3024504E+04  0.7818609E-02  0.8236768E-01
       -1   -1    0    0    0  501  0.00000000000E+00  0.00000000000E+00  0.95639625383E+03  0.95639625384E+03  0.50400001928E-02 0.  1.
        1   -1    0    0  501    0  0.00000000000E+00  0.00000000000E+00 -0.23911701044E+04  0.23911701044E+04  0.50400001928E-02 0. -1.
    10030    2    1    2    0    0  0.00000000000E+00  0.00000000000E+00 -0.14347738505E+04  0.33475663582E+04  0.30245040123E+04 0.  0.
        5    1    3    3  502    0 -0.74988244415E+03 -0.10176306686E+04 -0.16361021557E+04  0.20675464231E+04  0.46999998093E+01 0. -1.
       -5    1    3    3    0  502  0.74988244415E+03  0.10176306686E+04  0.20132830517E+03  0.12800199351E+04  0.46999998093E+01 0.  1.
</event>
<event>
 5   0  0.3374790E-06  0.3098554E+04  0.7818609E-02  0.8216135E-01
        2   -1    0    0  501    0  0.00000000000E+00  0.00000000000E+00  0.13866773614E+04  0.13866773614E+04  0.25500000920E-02 0. -1.
       -2   -1    0    0    0  501  0.00000000000E+00  0.00000000000E+00 -0.17309428039E+04  0.17309428039E+04  0.25500000920E-02 0.  1.
    10030    2    1    2    0    0  0.00000000000E+00  0.00000000000E+00 -0.34426544252E+03  0.31176201653E+04  0.30985539853E+04 0.  0.
        2    1    3    3  502    0  0.12196285396E+04 -0.26119495979E+03 -0.10967774963E+04  0.16609146450E+04  0.25500000920E-02 0.  1.
       -2    1    3    3    0  502 -0.12196285396E+04  0.26119495979E+03  0.75251205381E+03  0.14567055202E+04  0.25500000920E-02 0. -1.
</event>
<event>
 5   0  0.3445959E-06  0.3027599E+04  0.7818609E-02  0.8235893E-01
       -2   -1    0    0    0  501  0.00000000000E+00  0.00000000000E+00  0.89550169216E+03  0.89550169217E+03  0.25500000920E-02 0. -1.
        2   -1    0    0  501    0  0.00000000000E+00  0.00000000000E+00 -0.25590007241E+04  0.25590007241E+04  0.25500000920E-02 0.  1.
    10030    2    1    2    0    0  0.00000000000E+00  0.00000000000E+00 -0.16634990319E+04  0.34545024163E+04  0.30275993650E+04 0.  0.
        4    1    3    3  502    0 -0.13306836629E+04  0.30478664825E+03 -0.15781909954E+04  0.20866965142E+04  0.12699999809E+01 0.  1.
       -4    1    3    3    0  502  0.13306836629E+04 -0.30478664825E+03 -0.85308036583E+02  0.13678059021E+04  0.12699999809E+01 0. -1.
</event>
<event>
 5   0  0.3441897E-06  0.3124136E+04  0.7818609E-02  0.8209145E-01
        2   -1    0    0  501    0  0.00000000000E+00  0.00000000000E+00  0.23282034652E+04  0.23282034652E+04  0.25500000920E-02 0.  1.
       -2   -1    0    0    0  501  0.00000000000E+00  0.00000000000E+00 -0.10480426481E+04  0.10480426481E+04  0.25500000920E-02 0. -1.
    10030    2    1    2    0    0  0.00000000000E+00  0.00000000000E+00  0.12801608172E+04  0.33762461133E+04  0.31241360565E+04 0.  0.
        5    1    3    3  502    0 -0.58756372291E+03 -0.11950089095E+04  0.15225260331E+04  0.20227172402E+04  0.46999998093E+01 0. -1.
       -5    1    3    3    0  502  0.58756372291E+03  0.11950089095E+04 -0.24236521599E+03  0.13535288731E+04  0.46999998093E+01 0.  1.
</event>
<event>
 5   0  0.3441897E-06  0.3117835E+04  0.7818609E-02  0.8210860E-01
       -2   -1    0    0    0  501  0.00000000000E+00  0.00000000000E+00  0.10703362167E+04  0.10703362167E+04  0.25500000920E-02 0.  1.
        2   -1    0    0  501    0  0.00000000000E+00  0.00000000000E+00 -0.22705230447E+04  0.22705230447E+04  0.25500000920E-02 0. -1.
    10030    2    1    2    0    0  0.00000000000E+00  0.00000000000E+00 -0.12001868280E+04  0.33408592615E+04  0.31178345342E+04 0.  0.
        5    1    3    3  502    0  0.73519027584E+03  0.10301726357E+04 -0.15753879542E+04  0.20207992719E+04  0.46999998093E+01 0. -1.
       -5    1    3    3    0  502 -0.73519027584E+03 -0.10301726357E+04  0.37520112619E+03  0.13200599896E+04  0.46999998093E+01 0.  1.
</event>
<event>
 5   0  0.1235960E-06  0.3099699E+04  0.7818609E-02  0.8215820E-01
        1   -1    0    0  501    0  0.00000000000E+00  0.00000000000E+00  0.15257609480E+04  0.15257609480E+04  0.50400001928E-02 0.  1.
       -1   -1    0    0    0  501  0.00000000000E+00  0.00000000000E+00 -0.15743188617E+04  0.15743188617E+04  0.50400001928E-02 0. -1.
    10030    2    1    2    0    0  0.00000000000E+00  0.00000000000E+00 -0.48557913729E+02  0.31000798097E+04  0.30996994944E+04 0.  0.
        4    1    3    3  502    0  0.14956412214E+04 -0.35658305185E+03 -0.21908090824E+03  0.15530911735E+04  0.12699999809E+01 0. -1.
       -4    1    3    3    0  502 -0.14956412214E+04  0.35658305185E+03  0.17052299451E+03  0.15469886362E+04  0.12699999809E+01 0.  1.
</event>
<event>
 5   0  0.1198763E-06  0.3087571E+04  0.7818609E-02  0.8219157E-01
        1   -1    0    0  501    0  0.00000000000E+00  0.00000000000E+00  0.11023158108E+04  0.11023158108E+04  0.50400001928E-02 0. -1.
       -1   -1    0    0    0  501  0.00000000000E+00  0.00000000000E+00 -0.21620605971E+04  0.21620605971E+04  0.50400001928E-02 0.  1.
    10030    2    1    2    0    0  0.00000000000E+00  0.00000000000E+00 -0.10597447862E+04  0.32643764079E+04  0.30875709418E+04 0.  0.
        1    1    3    3  502    0 -0.11091904298E+04  0.68815416793E+03  0.34159378183E+03  0.13492760579E+04  0.50400001928E-02 0. -1.
       -1    1    3    3    0  502  0.11091904298E+04 -0.68815416793E+03 -0.14013385681E+04  0.19151003501E+04  0.50400001928E-02 0.  1.
</event>
<event>
 5   0  0.3340899E-06  0.3179830E+04  0.7818609E-02  0.8194164E-01
       -2   -1    0    0    0  501  0.00000000000E+00  0.00000000000E+00  0.14358358643E+04  0.14358358643E+04  0.25500000920E-02 0.  1.
        2   -1    0    0  501    0  0.00000000000E+00  0.00000000000E+00 -0.17605281829E+04  0.17605281829E+04  0.25500000920E-02 0. -1.
    10030    2    1    2    0    0  0.00000000000E+00  0.00000000000E+00 -0.32469231852E+03  0.31963640472E+04  0.31798298729E+04 0.  0.
        3    1    3    3  502    0  0.13378946071E+04  0.85564359982E+03 -0.86179176028E+02  0.15904448466E+04  0.10100000352E+00 0. -1.
       -3    1    3    3    0  502 -0.13378946071E+04 -0.85564359982E+03 -0.23851314249E+03  0.16059192006E+04  0.10100000352E+00 0.  1.
</event>
<event>
 5   0  0.3445410E-06  0.2876479E+04  0.7818609E-02  0.8279910E-01
        2   -1    0    0  501    0  0.00000000000E+00  0.00000000000E+00  0.82569160693E+03  0.82569160694E+03  0.25500000920E-02 0. -1.
       -2   -1    0    0    0  501  0.00000000000E+00  0.00000000000E+00 -0.25052131987E+04  0.25052131987E+04  0.25500000920E-02 0.  1.
    10030    2    1    2    0    0  0.00000000000E+00  0.00000000000E+00 -0.16795215918E+04  0.33309048056E+04  0.28764794536E+04 0.  0.
        1    1    3    3  502    0 -0.20427863756E+03 -0.57685789227E+03 -0.23469320815E+04  0.24254040870E+04  0.50400001928E-02 0.  1.
       -1    1    3    3    0  502  0.20427863756E+03  0.57685789227E+03  0.66741048978E+03  0.90550071868E+03  0.50400001928E-02 0. -1.
</event>
<event>
 5   0  0.3441897E-06  0.3088594E+04  0.7818609E-02  0.8218875E-01
       -2   -1    0    0    0  501  0.00000000000E+00  0.00000000000E+00  0.10106244020E+04  0.10106244020E+04  0.25500000920E-02 0. -1.
        2   -1    0    0  501    0  0.00000000000E+00  0.00000000000E+00 -0.23597823318E+04  0.23597823318E+04  0.25500000920E-02 0.  1.
    10030    2    1    2    0    0  0.00000000000E+00  0.00000000000E+00 -0.13491579298E+04  0.33704067338E+04  0.30885942484E+04 0.  0.
        5    1    3    3  502    0  0.55264534756E+03  0.10851648534E+04  0.36171804950E+03  0.12703785564E+04  0.46999998093E+01 0. -1.
       -5    1    3    3    0  502 -0.55264534756E+03 -0.10851648534E+04 -0.17108759793E+04  0.21000281774E+04  0.46999998093E+01 0.  1.
</event>
<event>
 5   0  0.1211008E-06  0.3078960E+04  0.7818609E-02  0.8221536E-01
       -1   -1    0    0    0  501  0.00000000000E+00  0.00000000000E+00  0.11024854446E+04  0.11024854447E+04  0.50400001928E-02 0.  1.
        1   -1    0    0  501    0  0.00000000000E+00  0.00000000000E+00 -0.21496863789E+04  0.21496863789E+04  0.50400001928E-02 0. -1.
    10030    2    1    2    0    0  0.00000000000E+00  0.00000000000E+00 -0.10472009342E+04  0.32521718235E+04  0.30789595277E+04 0.  0.
        3    1    3    3  502    0  0.14176964114E+04 -0.59508081348E+03 -0.60551073504E+03  0.16524610585E+04  0.10100000352E+00 0.  1.
       -3    1    3    3    0  502 -0.14176964114E+04  0.59508081348E+03 -0.44169019920E+03  0.15997107650E+04  0.10100000352E+00 0. -1.
</event>
<event>
 5   0  0.3374790E-06  0.2601044E+04  0.7818609E-02  0.8367847E-01
        2   -1    0    0  501    0  0.00000000000E+00  0.00000000000E+00  0.17905808267E+04  0.17905808267E+04  0.25500000920E-02 0.  1.
       -2   -1    0    0    0  501  0.00000000000E+00  0.00000000000E+00 -0.94458610984E+03  0.94458610984E+03  0.25500000920E-02 0. -1.
    10030    2    1    2    0    0  0.00000000000E+00  0.00000000000E+00  0.84599471683E+03  0.27351669365E+04  0.26010442345E+04 0.  0.
        2    1    3    3  502    0  0.95181798162E+01 -0.55092254444E+03  0.16617710046E+04  0.17507395916E+04  0.25500000920E-02 0.  1.
       -2    1    3    3    0  502 -0.95181798162E+01  0.55092254444E+03 -0.81577628779E+03  0.98442734493E+03  0.25500000920E-02 0. -1.
</event>
<event>
 5   0  0.1198763E-06  0.3105644E+04  0.7818609E-02  0.8214191E-01
       -1   -1    0    0    0  501  0.00000000000E+00  0.00000000000E+00  0.90157568545E+03  0.90157568546E+03  0.50400001928E-02 0.  1.
        1   -1    0    0  501    0  0.00000000000E+00  0.00000000000E+00 -0.26744917693E+04  0.26744917693E+04  0.50400001928E-02 0. -1.
    10030    2    1    2    0    0  0.00000000000E+00  0.00000000000E+00 -0.17729160838E+04  0.35760674548E+04  0.31056443777E+04 0.  0.
        1    1    3    3  502    0  0.14271358183E+04 -0.54427992406E+03 -0.56425221447E+03  0.16282929224E+04  0.50400001928E-02 0.  1.
       -1    1    3    3    0  502 -0.14271358183E+04  0.54427992406E+03 -0.12086638694E+04  0.19477745323E+04  0.50400001928E-02 0. -1.
</event>
<event>
 5   0  0.3340899E-06  0.3109768E+04  0.7818609E-02  0.8213062E-01
       -2   -1    0    0    0  501  0.00000000000E+00  0.00000000000E+00  0.13946328453E+04  0.13946328453E+04  0.25500000920E-02 0. -1.
        2   -1    0    0  501    0  0.00000000000E+00  0.00000000000E+00 -0.17335486105E+04  0.17335486105E+04  0.25500000920E-02 0.  1.
    10030    2    1    2    0    0  0.00000000000E+00  0.00000000000E+00 -0.33891576526E+03  0.31281814558E+04  0.31097677284E+04 0.  0.
        3    1    3    3  502    0 -0.54196987810E+03 -0.12148763790E+04 -0.97921378124E+03  0.16518219046E+04  0.10100000352E+00 0.  1.
       -3    1    3    3    0  502  0.54196987810E+03  0.12148763790E+04  0.64029801598E+03  0.14763595512E+04  0.10100000352E+00 0. -1.
</event>
<event>
 5   0  0.3374790E-06  0.3177335E+04  0.7818609E-02  0.8194829E-01
        2   -1    0    0  501    0  0.00000000000E+00  0.00000000000E+00  0.24037383543E+04  0.24037383543E+04  0.25500000920E-02 0.  1.
       -2   -1    0    0    0  501  0.00000000000E+00  0.00000000000E+00 -0.10499746320E+04  0.10499746320E+04  0.25500000920E-02 0. -1.
    10030    2    1    2    0    0  0.00000000000E+00  0.00000000000E+00  0.13537637223E+04  0.34537129864E+04  0.31773349172E+04 0.  0.
        2    1    3    3  502    0 -0.28495841459E+03  0.76809562970E+03 -0.80265187699E+03  0.11469185804E+04  0.25500000920E-02 0. -1.
       -2    1    3    3    0  502  0.28495841459E+03 -0.76809562970E+03  0.21564155993E+04  0.23067944060E+04  0.25500000920E-02 0.  1.
</event>
<event>
 5   0  0.1198763E-06  0.2937800E+04  0.7818609E-02  0.8261719E-01
       -1   -1    0    0    0  501  0.00000000000E+00  0.00000000000E+00  0.16944571849E+04  0.16944571849E+04  0.50400001928E-02 0. -1.
        1   -1    0    0  501    0  0.00000000000E+00  0.00000000000E+00 -0.12733681756E+04  0.12733681756E+04  0.50400001928E-02 0.  1.
    10030    2    1    2    0    0  0.00000000000E+00  0.00000000000E+00  0.42108900934E+03  0.29678253605E+04  0.29378004386E+04 0.  0.
        1    1    3    3  502    0  0.39861176273E+03  0.40060013478E+03 -0.11591502013E+04  0.12895739586E+04  0.50400001928E-02 0.  1.
       -1    1    3    3    0  502 -0.39861176273E+03 -0.40060013478E+03  0.15802392106E+04  0.16782514020E+04  0.50400001928E-02 0. -1.
</event>
<event>
 5   0  0.3441897E-06  0.2690027E+04  0.7818609E-02  0.8338248E-01
        2   -1    0    0  501    0  0.00000000000E+00  0.00000000000E+00  0.20853281469E+04  0.20853281469E+04  0.25500000920E-02 0. -1.
       -2   -1    0    0    0  501  0.00000000000E+00  0.00000000000E+00 -0.86751888127E+03  0.86751888128E+03  0.25500000920E-02 0.  1.
    10030    2    1    2    0    0  0.00000000000E+00  0.00000000000E+00  0.12178092656E+04  0.29528470282E+04  0.26900271680E+04 0.  0.
        5    1    3    3  502    0  0.65627641985E+02 -0.72690139643E+03 -0.63122942228E+03  0.96496906742E+03  0.46999998093E+01 0.  1.
       -5    1    3    3    0  502 -0.65627641985E+02  0.72690139643E+03  0.18490386879E+04  0.19878779608E+04  0.46999998093E+01 0. -1.
</event>
<event>
 5   0  0.3374790E-06  0.3098863E+04  0.7818609E-02  0.8216050E-01
        2   -1    0    0  501    0  0.00000000000E+00  0.00000000000E+00  0.20531971684E+04  0.20531971684E+04  0.25500000920E-02 0. -1.
       -2   -1    0    0    0  501  0.00000000000E+00  0.00000000000E+00 -0.11692681849E+04  0.11692681849E+04  0.25500000920E-02 0.  1.
    10030    2    1    2    0    0  0.00000000000E+00  0.00000000000E+00  0.88392898349E+03  0.32224653534E+04  0.30988630989E+04 0.  0.
        2    1    3    3  502    0  0.31977745151E+03 -0.60316812026E+03 -0.10044380355E+04  0.12144814395E+04  0.25500000920E-02 0.  1.
       -2    1    3    3    0  502 -0.31977745151E+03  0.60316812026E+03  0.18883670190E+04  0.20079839138E+04  0.25500000920E-02 0. -1.
</event>
<event>
 5   0  0.3441897E-06  0.3145536E+04  0.7818609E-02  0.8203351E-01
        2   -1    0    0  501    0  0.00000000000E+00  0.00000000000E+00  0.20487265043E+04  0.20487265043E+04  0.25500000920E-02 0.  1.
       -2   -1    0    0    0  501  0.00000000000E+00  0.00000000000E+00 -0.12073840469E+04  0.12073840469E+04  0.25500000920E-02 0. -1.
    10030    2    1    2    0    0  0.00000000000E+00  0.00000000000E+00  0.84134245742E+03  0.32561105512E+04  0.31455363280E+04 0.  0.
        5    1    3    3  502    0  0.21625835897E+03  0.40439275182E+03  0.19779746470E+04  0.20304450177E+04  0.46999998093E+01 0.  1.
       -5    1    3    3    0  502 -0.21625835897E+03 -0.40439275182E+03 -0.11366321896E+04  0.12256655335E+04  0.46999998093E+01 0. -1.
</event>
<event>
 5   0  0.1198763E-06  0.2930155E+04  0.7818609E-02  0.8263962E-01
       -1   -1    0    0    0  501  0.00000000000E+00  0.00000000000E+00  0.19753143435E+04  0.19753143435E+04  0.50400001928E-02 0.  1.
        1   -1    0    0  501    0  0.00000000000E+00  0.00000000000E+00 -0.10866382247E+04  0.10866382247E+04  0.50400001928E-02 0. -1.
    10030    2    1    2    0    0  0.00000000000E+00  0.00000000000E+00  0.88867611877E+03  0.30619525682E+04  0.29301549935E+04 0.  0.
        1    1    3    3  502    0  0.84425653316E+03 -0.28261476825E+02 -0.80653552846E+03  0.11679329448E+04  0.50400001928E-02 0. -1.
       -1    1    3    3    0  502 -0.84425653316E+03  0.28261476825E+02  0.16952116472E+04  0.18940196234E+04  0.50400001928E-02 0.  1.
</event>
<event>
 5   0  0.3445959E-06  0.2918766E+04  0.7818609E-02  0.8267316E-01
        2   -1    0    0  501    0  0.00000000000E+00  0.00000000000E+00  0.13941912128E+04  0.13941912128E+04  0.25500000920E-02 0. -1.
       -2   -1    0    0    0  501  0.00000000000E+00  0.00000000000E+00 -0.15276232001E+04  0.15276232001E+04  0.25500000920E-02 0.  1.
    10030    2    1    2    0    0  0.00000000000E+00  0.00000000000E+00 -0.13343198728E+03  0.29218144129E+04  0.29187660694E+04 0.  0.
        4    1    3    3  502    0  0.48035611681E+03  0.31247729418E+03 -0.14102850868E+04  0.15222646607E+04  0.12699999809E+01 0.  1.
       -4    1    3    3    0  502 -0.48035611681E+03 -0.31247729418E+03  0.12768530995E+04  0.13995497522E+04  0.12699999809E+01 0. -1.
</event>
<event>
 5   0  0.3340899E-06  0.3667961E+04  0.7818609E-02  0.8075099E-01
        2   -1    0    0  501    0  0.00000000000E+00  0.00000000000E+00  0.13268687182E+04  0.13268687182E+04  0.25500000920E-02 0. -1.
       -2   -1    0    0    0  501  0.00000000000E+00  0.00000000000E+00 -0.25349038754E+04  0.25349038754E+04  0.25500000920E-02 0.  1.
    10030    2    1    2    0    0  0.00000000000E+00  0.00000000000E+00 -0.12080351572E+04  0.38617725936E+04  0.36679610989E+04 0.  0.
        3    1    3    3  502    0 -0.12896273035E+04 -0.23589948577E+03 -0.19542389903E+04  0.23532609695E+04  0.10100000352E+00 0.  1.
       -3    1    3    3    0  502  0.12896273035E+04  0.23589948577E+03  0.74620383310E+03  0.15085116241E+04  0.10100000352E+00 0. -1.
</event>
<event>
 5   0  0.3441897E-06  0.3053447E+04  0.7818609E-02  0.8228631E-01
        2   -1    0    0  501    0  0.00000000000E+00  0.00000000000E+00  0.18699856870E+04  0.18699856870E+04  0.25500000920E-02 0. -1.
       -2   -1    0    0    0  501  0.00000000000E+00  0.00000000000E+00 -0.12464719385E+04  0.12464719385E+04  0.25500000920E-02 0.  1.
    10030    2    1    2    0    0  0.00000000000E+00  0.00000000000E+00  0.62351374850E+03  0.31164576255E+04  0.30534470254E+04 0.  0.
        5    1    3    3  502    0 -0.92917811382E+03  0.11215804606E+04  0.77896726205E+03  0.16517042054E+04  0.46999998093E+01 0. -1.
       -5    1    3    3    0  502  0.92917811382E+03 -0.11215804606E+04 -0.15545351355E+03  0.14647534201E+04  0.46999998093E+01 0.  1.
</event>
<event>
 5   0  0.3340899E-06  0.2989345E+04  0.7818609E-02  0.8246780E-01
       -2   -1    0    0    0  501  0.00000000000E+00  0.00000000000E+00  0.11480529824E+04  0.11480529824E+04  0.25500000920E-02 0. -1.
        2   -1    0    0  501    0  0.00000000000E+00  0.00000000000E+00 -0.19459428918E+04  0.19459428918E+04  0.25500000920E-02 0.  1.
    10030    2    1    2    0    0  0.00000000000E+00  0.00000000000E+00 -0.79788990939E+03  0.30939958742E+04  0.29893447714E+04 0.  0.
        3    1    3    3  502    0  0.14556754149E+03  0.12073353332E+04 -0.12983883888E+04  0.17789493906E+04  0.10100000352E+00 0.  1.
       -3    1    3    3    0  502 -0.14556754149E+03 -0.12073353332E+04  0.50049847946E+03  0.13150464836E+04  0.10100000352E+00 0. -1.
</event>
<event>
 5   0  0.1211008E-06  0.3132775E+04  0.7818609E-02  0.8206800E-01
       -1   -1    0    0    0  501  0.00000000000E+00  0.00000000000E+00  0.71933031951E+03  0.71933031953E+03  0.50400001928E-02 0.  1.
        1   -1    0    0  501    0  0.00000000000E+00  0.00000000000E+00 -0.34109084944E+04  0.34109084944E+04  0.50400001928E-02 0. -1.
    10030    2    1    2    0    0  0.00000000000E+00  0.00000000000E+00 -0.26915781748E+04  0.41302388139E+04  0.31327750619E+04 0.  0.
        3    1    3    3  502    0 -0.12661529090E+04 -0.91256158745E+03 -0.11705958708E+04  0.19509501641E+04  0.10100000352E+00 0. -1.
       -3    1    3    3    0  502  0.12661529090E+04  0.91256158745E+03 -0.15209823041E+04  0.21792886498E+04  0.10100000352E+00 0.  1.
</event>
<event>
 5   0  0.1211008E-06  0.3060826E+04  0.7818609E-02  0.8226572E-01
        1   -1    0    0  501    0  0.00000000000E+00  0.00000000000E+00  0.17525248927E+04  0.17525248928E+04  0.50400001928E-02 0. -1.
       -1   -1    0    0    0  501  0.00000000000E+00  0.00000000000E+00 -0.13364509365E+04  0.13364509365E+04  0.50400001928E-02 0.  1.
    10030    2    1    2    0    0  0.00000000000E+00  0.00000000000E+00  0.41607395623E+03  0.30889758293E+04  0.30608257279E+04 0.  0.
        3    1    3    3  502    0  0.68947537885E+03  0.13108626991E+04  0.59684140949E+03  0.15968584759E+04  0.10100000352E+00 0. -1.
       -3    1    3    3    0  502 -0.68947537885E+03 -0.13108626991E+04 -0.18076745325E+03  0.14921173534E+04  0.10100000352E+00 0.  1.
</event>
<event>
 5   0  0.3445959E-06  0.3087847E+04  0.7818609E-02  0.8219081E-01
       -2   -1    0    0    0  501  0.00000000000E+00  0.00000000000E+00  0.11145047231E+04  0.11145047231E+04  0.25500000920E-02 0. -1.
        2   -1    0    0  501    0  0.00000000000E+00  0.00000000000E+00 -0.21387971520E+04  0.21387971520E+04  0.25500000920E-02 0.  1.
    10030    2    1    2    0    0  0.00000000000E+00  0.00000000000E+00 -0.10242924290E+04  0.32533018751E+04  0.30878468405E+04 0.  0.
        4    1    3    3  502    0  0.10007263220E+04  0.52540071129E+03  0.59596974850E+03  0.12777639191E+04  0.12699999809E+01 0. -1.
       -4    1    3    3    0  502 -0.10007263220E+04 -0.52540071129E+03 -0.16202621775E+04  0.19755379560E+04  0.12699999809E+01 0.  1.
</event>
<event>
 5   0  0.1250276E-06  0.3103683E+04  0.7818609E-02  0.8214728E-01
        1   -1    0    0  501    0  0.00000000000E+00  0.00000000000E+00  0.10540671776E+04  0.10540671776E+04  0.50400001928E-02 0. -1.
       -1   -1    0    0    0  501  0.00000000000E+00  0.00000000000E+00 -0.22846852054E+04  0.22846852054E+04  0.50400001928E-02 0.  1.
    10030    2    1    2    0    0  0.00000000000E+00  0.00000000000E+00 -0.12306180278E+04  0.33387523830E+04  0.31036827713E+04 0.  0.
        5    1    3    3  502    0  0.22468280820E+03 -0.18093567118E+03  0.10249616474E+04  0.10647950742E+04  0.46999998093E+01 0. -1.
       -5    1    3    3    0  502 -0.22468280820E+03  0.18093567118E+03 -0.22555796752E+04  0.22739573088E+04  0.46999998093E+01 0.  1.
</event>
<event>
 5   0  0.1250276E-06  0.3106517E+04  0.7818609E-02  0.8213952E-01
       -1   -1    0    0    0  501  0.00000000000E+00  0.00000000000E+00  0.11525474332E+04  0.11525474332E+04  0.50400001928E-02 0.  1.
        1   -1    0    0  501    0  0.00000000000E+00  0.00000000000E+00 -0.20932866904E+04  0.20932866905E+04  0.50400001928E-02 0. -1.
    10030    2    1    2    0    0  0.00000000000E+00  0.00000000000E+00 -0.94073925722E+03  0.32458341237E+04  0.31065171508E+04 0.  0.
        5    1    3    3  502    0 -0.62440068521E+03 -0.11157192935E+04  0.45116165792E+03  0.13558298895E+04  0.46999998093E+01 0.  1.
       -5    1    3    3    0  502  0.62440068521E+03  0.11157192935E+04 -0.13919009151E+04  0.18900042342E+04  0.46999998093E+01 0. -1.
</event>
<event>
 5   0  0.1109562E-06  0.3100739E+04  0.7818609E-02  0.8215535E-01
        3   -1    0    0  501    0  0.00000000000E+00  0.00000000000E+00  0.23647787702E+04  0.23647787723E+04  0.10100000352E+00 0. -1.
       -3   -1    0    0    0  501  0.00000000000E+00  0.00000000000E+00 -0.10164357356E+04  0.10164357407E+04  0.10100000352E+00 0.  1.
    10030    2    1    2    0    0  0.00000000000E+00  0.00000000000E+00  0.13483430345E+04  0.33812145130E+04  0.31007390480E+04 0.  0.
        5    1    3    3  502    0 -0.11887470502E+04 -0.93790848397E+03  0.31114403956E+03  0.15458410581E+04  0.46999998093E+01 0. -1.
       -5    1    3    3    0  502  0.11887470502E+04  0.93790848397E+03  0.10371989949E+04  0.18353734548E+04  0.46999998093E+01 0.  1.
</event>
<event>
 5   0  0.1211008E-06  0.3124654E+04  0.7818609E-02  0.8209004E-01
       -1   -1    0    0    0  501  0.00000000000E+00  0.00000000000E+00  0.12801524905E+04  0.12801524905E+04  0.50400001928E-02 0. -1.
        1   -1    0    0  501    0  0.00000000000E+00  0.00000000000E+00 -0.19066990321E+04  0.19066990321E+04  0.50400001928E-02 0.  1.
    10030    2    1    2    0    0  0.00000000000E+00  0.00000000000E+00 -0.62654654157E+03  0.31868515226E+04  0.31246539101E+04 0.  0.
        3    1    3    3  502    0  0.89768459872E+02  0.10099398881E+04 -0.15255580145E+04  0.18317653288E+04  0.10100000352E+00 0.  1.
       -3    1    3    3    0  502 -0.89768459872E+02 -0.10099398881E+04  0.89901147292E+03  0.13550861938E+04  0.10100000352E+00 0. -1.
</event>
<event>
 5   0  0.3445410E-06  0.3050967E+04  0.7818609E-02  0.8229325E-01
        2   -1    0    0  501    0  0.00000000000E+00  0.00000000000E+00  0.14819073537E+04  0.14819073537E+04  0.25500000920E-02 0.  1.
       -2   -1    0    0    0  501  0.00000000000E+00  0.00000000000E+00 -0.15703409116E+04  0.15703409116E+04  0.25500000920E-02 0. -1.
    10030    2    1    2    0    0  0.00000000000E+00  0.00000000000E+00 -0.88433557824E+02  0.30522482653E+04  0.30509668925E+04 0.  0.
        1    1    3    3  502    0  0.41285531799E+03 -0.10786925811E+04  0.95273200667E+03  0.14972392844E+04  0.50400001928E-02 0.  1.
       -1    1    3    3    0  502 -0.41285531799E+03  0.10786925811E+04 -0.10411655645E+04  0.15550089809E+04  0.50400001928E-02 0. -1.
</event>
<event>
 5   0  0.1171915E-06  0.3112373E+04  0.7818609E-02  0.8212351E-01
       -1   -1    0    0    0  501  0.00000000000E+00  0.00000000000E+00  0.12650418310E+04  0.12650418310E+04  0.50400001928E-02 0.  1.
        1   -1    0    0  501    0  0.00000000000E+00  0.00000000000E+00 -0.19143367691E+04  0.19143367691E+04  0.50400001928E-02 0. -1.
    10030    2    1    2    0    0  0.00000000000E+00  0.00000000000E+00 -0.64929493807E+03  0.31793786001E+04  0.31123727872E+04 0.  0.
        2    1    3    3  502    0  0.71574642205E+03 -0.45073914729E+03  0.10097122023E+04  0.13171854277E+04  0.25500000920E-02 0.  1.
       -2    1    3    3    0  502 -0.71574642205E+03  0.45073914729E+03 -0.16590071404E+04  0.18621931724E+04  0.25500000920E-02 0. -1.
</event>
<event>
 5   0  0.1211008E-06  0.2724314E+04  0.7818609E-02  0.8327159E-01
        1   -1    0    0  501    0  0.00000000000E+00  0.00000000000E+00  0.14100358459E+04  0.14100358459E+04  0.50400001928E-02 0.  1.
       -1   -1    0    0    0  501  0.00000000000E+00  0.00000000000E+00 -0.13159039176E+04  0.13159039177E+04  0.50400001928E-02 0. -1.
    10030    2    1    2    0    0  0.00000000000E+00  0.00000000000E+00  0.94131928262E+02  0.27259397636E+04  0.27243140007E+04 0.  0.
        3    1    3    3  502    0  0.22657991491E+03  0.96493990367E+03 -0.88784926809E+03  0.13306854657E+04  0.10100000352E+00 0. -1.
       -3    1    3    3    0  502 -0.22657991491E+03 -0.96493990367E+03  0.98198119635E+03  0.13952542979E+04  0.10100000352E+00 0.  1.
</event>
<event>
 5   0  0.1171915E-06  0.3148076E+04  0.7818609E-02  0.8202666E-01
       -1   -1    0    0    0  501  0.00000000000E+00  0.00000000000E+00  0.19844857939E+04  0.19844857939E+04  0.50400001928E-02 0.  1.
        1   -1    0    0  501    0  0.00000000000E+00  0.00000000000E+00 -0.12484821910E+04  0.12484821910E+04  0.50400001928E-02 0. -1.
    10030    2    1    2    0    0  0.00000000000E+00  0.00000000000E+00  0.73600360290E+03  0.32329679849E+04  0.31480757119E+04 0.  0.
        2    1    3    3  502    0 -0.14914472647E+04 -0.40686638680E+03  0.67202543815E+03  0.16856967075E+04  0.25500000920E-02 0. -1.
       -2    1    3    3    0  502  0.14914472647E+04  0.40686638680E+03  0.63978164744E+02  0.15472712774E+04  0.25500000920E-02 0.  1.
</event>
<event>
 5   0  0.1211008E-06  0.3077518E+04  0.7818609E-02  0.8221935E-01
       -1   -1    0    0    0  501  0.00000000000E+00  0.00000000000E+00  0.14124606656E+04  0.14124606656E+04  0.50400001928E-02 0. -1.
        1   -1    0    0  501    0  0.00000000000E+00  0.00000000000E+00 -0.16763503391E+04  0.16763503391E+04  0.50400001928E-02 0.  1.
    10030    2    1    2    0    0  0.00000000000E+00  0.00000000000E+00 -0.26388967348E+03  0.30888110047E+04  0.30775177762E+04 0.  0.
        3    1    3    3  502    0 -0.12890154499E+04  0.17085063781E+03  0.69389175914E+03  0.14738509267E+04  0.10100000352E+00 0. -1.
       -3    1    3    3    0  502  0.12890154499E+04 -0.17085063781E+03 -0.95778143262E+03  0.16149600780E+04  0.10100000352E+00 0.  1.
</event>
<event>
 5   0  0.3441897E-06  0.2953384E+04  0.7818609E-02  0.8257169E-01
        2   -1    0    0  501    0  0.00000000000E+00  0.00000000000E+00  0.16222839913E+04  0.16222839913E+04  0.25500000920E-02 0. -1.
       -2   -1    0    0    0  501  0.00000000000E+00  0.00000000000E+00 -0.13441663565E+04  0.13441663565E+04  0.25500000920E-02 0.  1.
    10030    2    1    2    0    0  0.00000000000E+00  0.00000000000E+00  0.27811763476E+03  0.29664503478E+04  0.29533842024E+04 0.  0.
        5    1    3    3  502    0  0.10940641588E+04  0.37439230810E+03  0.10615180679E+04  0.15697097446E+04  0.46999998093E+01 0. -1.
       -5    1    3    3    0  502 -0.10940641588E+04 -0.37439230810E+03 -0.78340043310E+03  0.13967406031E+04  0.46999998093E+01 0.  1.
</event>
<event>
 5   0  0.3445410E-06  0.2792679E+04  0.7818609E-02  0.8305545E-01
       -2   -1    0    0    0  501  0.00000000000E+00  0.00000000000E+00  0.10226976235E+04  0.10226976235E+04  0.25500000920E-02 0.  1.
        2   -1    0    0  501    0  0.00000000000E+00  0.00000000000E+00 -0.19064917379E+04  0.19064917379E+04  0.25500000920E-02 0. -1.
    10030    2    1    2    0    0  0.00000000000E+00  0.00000000000E+00 -0.88379411439E+03  0.29291893614E+04  0.27926794084E+04 0.  0.
        1    1    3    3  502    0 -0.97396603959E+03 -0.98361139797E+03 -0.63434132251E+03  0.15226589053E+04  0.50400001928E-02 0.  1.
       -1    1    3    3    0  502  0.97396603959E+03  0.98361139797E+03 -0.24945279188E+03  0.14065304561E+04  0.50400001928E-02 0. -1.
</event>
<event>
 5   0  0.1198763E-06  0.2847301E+04  0.7818609E-02  0.8288732E-01
        1   -1    0    0  501    0  0.00000000000E+00  0.00000000000E+00  0.16346914708E+04  0.16346914708E+04  0.50400001928E-02 0. -1.
       -1   -1    0    0    0  501  0.00000000000E+00  0.00000000000E+00 -0.12398548012E+04  0.12398548012E+04  0.50400001928E-02 0.  1.
    10030    2    1    2    0    0  0.00000000000E+00  0.00000000000E+00  0.39483666960E+03  0.28745462720E+04  0.28473005241E+04 0.  0.
        1    1    3    3  502    0  0.14185737338E+04  0.90258652802E+02  0.27743586931E+03  0.14482640382E+04  0.50400001928E-02 0. -1.
       -1    1    3    3    0  502 -0.14185737338E+04 -0.90258652802E+02  0.11740080029E+03  0.14262822338E+04  0.50400001928E-02 0.  1.
</event>
<event>
 5   0  0.3374790E-06  0.3097569E+04  0.7818609E-02  0.8216405E-01
        2   -1    0    0  501    0  0.00000000000E+00  0.00000000000E+00  0.17495342679E+04  0.17495342679E+04  0.25500000920E-02 0.  1.
       -2   -1    0    0    0  501  0.00000000000E+00  0.00000000000E+00 -0.13710695410E+04  0.13710695410E+04  0.25500000920E-02 0. -1.
    10030    2    1    2    0    0  0.00000000000E+00  0.00000000000E+00  0.37846472692E+03  0.31206038089E+04  0.30975688180E+04 0.  0.
        2    1    3    3  502    0  0.45359335636E+03  0.34210486128E+03  0.16407628604E+04  0.17363425449E+04  0.25500000920E-02 0.  1.
       -2    1    3    3    0  502 -0.45359335636E+03 -0.34210486128E+03 -0.12622981335E+04  0.13842612640E+04  0.25500000920E-02 0. -1.
</event>
<event>
 5   0  0.3441897E-06  0.3117307E+04  0.7818609E-02  0.8211004E-01
       -2   -1    0    0    0  501  0.00000000000E+00  0.00000000000E+00  0.23333056290E+04  0.23333056290E+04  0.25500000920E-02 0.  1.
        2   -1    0    0  501    0  0.00000000000E+00  0.00000000000E+00 -0.10411840140E+04  0.10411840140E+04  0.25500000920E-02 0. -1.
    10030    2    1    2    0    0  0.00000000000E+00  0.00000000000E+00  0.12921216149E+04  0.33744896430E+04  0.31173068638E+04 0.  0.
        5    1    3    3  502    0 -0.83767885041E+03 -0.73710781410E+03  0.18241213064E+04  0.21383344959E+04  0.46999998093E+01 0.  1.
       -5    1    3    3    0  502  0.83767885041E+03  0.73710781410E+03 -0.53199969144E+03  0.12361551471E+04  0.46999998093E+01 0. -1.
</event>
<event>
 5   0  0.1171915E-06  0.3102157E+04  0.7818609E-02  0.8215146E-01
       -1   -1    0    0    0  501  0.00000000000E+00  0.00000000000E+00  0.10577717815E+04  0.10577717816E+04  0.50400001928E-02 0.  1.
        1   -1    0    0  501    0  0.00000000000E+00  0.00000000000E+00 -0.22744450861E+04  0.22744450861E+04  0.50400001928E-02 0. -1.
    10030    2    1    2    0    0  0.00000000000E+00  0.00000000000E+00 -0.12166733045E+04  0.33322168676E+04  0.31021565600E+04 0.  0.
        2    1    3    3  502    0 -0.13707981074E+04  0.30500325243E+03 -0.13157593251E+04  0.19244056321E+04  0.25500000920E-02 0. -1.
       -2    1    3    3    0  502  0.13707981074E+04 -0.30500325243E+03  0.99086020566E+02  0.14078112355E+04  0.25500000920E-02 0.  1.
</event>
<event>
 5   0  0.3374790E-06  0.3085340E+04  0.7818609E-02  0.8219773E-01
        2   -1    0    0  501    0  0.00000000000E+00  0.00000000000E+00  0.24886512557E+04  0.24886512557E+04  0.25500000920E-02 0.  1.
       -2   -1    0    0    0  501  0.00000000000E+00  0.00000000000E+00 -0.95627313344E+03  0.95627313344E+03  0.25500000920E-02 0. -1.
    10030    2    1    2    0    0  0.00000000000E+00  0.00000000000E+00  0.15323781223E+04  0.34449243892E+04  0.30853397442E+04 0.  0.
        2    1    3    3  502    0 -0.46046886943E+03 -0.13000445230E+03 -0.87133076848E+03  0.99405736526E+03  0.25500000920E-02 0. -1.
       -2    1    3    3    0  502  0.46046886943E+03  0.13000445230E+03  0.24037088908E+04  0.24508670239E+04  0.25500000920E-02 0.  1.
</event>
<event>
 5   0  0.3340899E-06  0.3057696E+04  0.7818609E-02  0.8227445E-01
       -2   -1    0    0    0  501  0.00000000000E+00  0.00000000000E+00  0.12833548372E+04  0.12833548372E+04  0.25500000920E-02 0. -1.
        2   -1    0    0  501    0  0.00000000000E+00  0.00000000000E+00 -0.18213014509E+04  0.18213014509E+04  0.25500000920E-02 0.  1.
    10030    2    1    2    0    0  0.00000000000E+00  0.00000000000E+00 -0.53794661372E+03  0.31046562881E+04  0.30576958822E+04 0.  0.
        3    1    3    3  502    0  0.10722496291E+04  0.10727579703E+04 -0.46387733659E+03  0.15860993422E+04  0.10100000352E+00 0.  1.
       -3    1    3    3    0  502 -0.10722496291E+04 -0.10727579703E+04 -0.74069277131E+02  0.15185569459E+04  0.10100000352E+00 0. -1.
</event>
<event>
 5   0  0.1109562E-06  0.2925154E+04  0.7818609E-02  0.8265433E-01
       -3   -1    0    0    0  501  0.00000000000E+00  0.00000000000E+00  0.12883115285E+04  0.12883115324E+04  0.10100000352E+00 0. -1.
        3   -1    0    0  501    0  0.00000000000E+00  0.00000000000E+00 -0.16604148896E+04  0.16604148927E+04  0.10100000352E+00 0.  1.
    10030    2    1    2    0    0  0.00000000000E+00  0.00000000000E+00 -0.37210336115E+03  0.29487264251E+04  0.29251541188E+04 0.  0.
        1    1    3    3  502    0  0.45330574545E+03  0.13247334306E+04 -0.61221952965E+03  0.15281418499E+04  0.50400001928E-02 0. -1.
       -1    1    3    3    0  502 -0.45330574545E+03 -0.13247334306E+04  0.24011616850E+03  0.14205845752E+04  0.50400001928E-02 0.  1.
</event>
<event>
 5   0  0.1250276E-06  0.3094799E+04  0.7818609E-02  0.8217167E-01
       -1   -1    0    0    0  501  0.00000000000E+00  0.00000000000E+00  0.10540968555E+04  0.10540968555E+04  0.50400001928E-02 0.  1.
        1   -1    0    0  501    0  0.00000000000E+00  0.00000000000E+00 -0.22715615008E+04  0.22715615008E+04  0.50400001928E-02 0. -1.
    10030    2    1    2    0    0  0.00000000000E+00  0.00000000000E+00 -0.12174646453E+04  0.33256583563E+04  0.30947994022E+04 0.  0.
        5    1    3    3  502    0  0.80526382475E+03  0.10913749747E+04 -0.14091976841E+04  0.19558653752E+04  0.46999998093E+01 0. -1.
       -5    1    3    3    0  502 -0.80526382475E+03 -0.10913749747E+04  0.19173303883E+03  0.13697929811E+04  0.46999998093E+01 0.  1.
</event>
<event>
 5   0  0.3445410E-06  0.3083101E+04  0.7818609E-02  0.8220391E-01
        2   -1    0    0  501    0  0.00000000000E+00  0.00000000000E+00  0.14588593139E+04  0.14588593139E+04  0.25500000920E-02 0.  1.
       -2   -1    0    0    0  501  0.00000000000E+00  0.00000000000E+00 -0.16289284154E+04  0.16289284154E+04  0.25500000920E-02 0. -1.
    10030    2    1    2    0    0  0.00000000000E+00  0.00000000000E+00 -0.17006910149E+03  0.30877877292E+04  0.30831006408E+04 0.  0.
        1    1    3    3  502    0 -0.18400035007E+03 -0.69180730427E+03 -0.14523660722E+04  0.16192037187E+04  0.50400001928E-02 0. -1.
       -1    1    3    3    0  502  0.18400035007E+03  0.69180730427E+03  0.12822969707E+04  0.14685840106E+04  0.50400001928E-02 0.  1.
</event>
<event>
 5   0  0.1235960E-06  0.3047850E+04  0.7818609E-02  0.8230198E-01
        1   -1    0    0  501    0  0.00000000000E+00  0.00000000000E+00  0.15887203256E+04  0.15887203256E+04  0.50400001928E-02 0.  1.
       -1   -1    0    0    0  501  0.00000000000E+00  0.00000000000E+00 -0.14617719708E+04  0.14617719708E+04  0.50400001928E-02 0. -1.
    10030    2    1    2    0    0  0.00000000000E+00  0.00000000000E+00  0.12694835475E+03  0.30504922964E+04  0.30478496298E+04 0.  0.
        4    1    3    3  502    0 -0.12252667133E+04  0.89503418239E+02 -0.83900374172E+03  0.14876889030E+04  0.12699999809E+01 0. -1.
       -4    1    3    3    0  502  0.12252667133E+04 -0.89503418239E+02  0.96595209647E+03  0.15628033934E+04  0.12699999809E+01 0.  1.
</event>
<event>
 5   0  0.1171915E-06  0.3087443E+04  0.7818609E-02  0.8219192E-01
        1   -1    0    0  501    0  0.00000000000E+00  0.00000000000E+00  0.25568198127E+04  0.25568198127E+04  0.50400001928E-02 0.  1.
       -1   -1    0    0    0  501  0.00000000000E+00  0.00000000000E+00 -0.93204707468E+03  0.93204707470E+03  0.50400001928E-02 0. -1.
    10030    2    1    2    0    0  0.00000000000E+00  0.00000000000E+00  0.16247727380E+04  0.34888668874E+04  0.30874432315E+04 0.  0.
        2    1    3    3  502    0  0.14211183322E+04  0.86865618296E+01  0.14936136248E+04  0.20616824272E+04  0.25500000920E-02 0.  1.
       -2    1    3    3    0  502 -0.14211183322E+04 -0.86865618296E+01  0.13115911319E+03  0.14271844602E+04  0.25500000920E-02 0. -1.
</event>
<event>
 5   0  0.3445959E-06  0.3013791E+04  0.7818609E-02  0.8239804E-01
        2   -1    0    0  501    0  0.00000000000E+00  0.00000000000E+00  0.13202816389E+04  0.13202816389E+04  0.25500000920E-02 0. -1.
       -2   -1    0    0    0  501  0.00000000000E+00  0.00000000000E+00 -0.17198863373E+04  0.17198863373E+04  0.25500000920E-02 0.  1.
    10030    2    1    2    0    0  0.00000000000E+00  0.00000000000E+00 -0.39960469838E+03  0.30401679762E+04  0.30137912019E+04 0.  0.
        4    1    3    3  502    0 -0.72093217617E+03 -0.11595812935E+04 -0.84284577336E+03  0.16046066775E+04  0.12699999809E+01 0.  1.
       -4    1    3    3    0  502  0.72093217617E+03  0.11595812935E+04  0.44324107497E+03  0.14355612987E+04  0.12699999809E+01 0. -1.
</event>
<event>
 5   0  0.3374790E-06  0.3130210E+04  0.7818609E-02  0.8207496E-01
        2   -1    0    0  501    0  0.00000000000E+00  0.00000000000E+00  0.13927090919E+04  0.13927090919E+04  0.25500000920E-02 0. -1.
       -2   -1    0    0    0  501  0.00000000000E+00  0.00000000000E+00 -0.17588412423E+04  0.17588412423E+04  0.25500000920E-02 0.  1.
    10030    2    1    2    0    0  0.00000000000E+00  0.00000000000E+00 -0.36613215042E+03  0.31515503343E+04  0.31302103376E+04 0.  0.
        2    1    3    3  502    0 -0.78019362097E+02  0.11087938851E+04  0.92628194506E+03  0.14468963827E+04  0.25500000920E-02 0. -1.
       -2    1    3    3    0  502  0.78019362097E+02 -0.11087938851E+04 -0.12924140955E+04  0.17046539516E+04  0.25500000920E-02 0.  1.
</event>
<event>
 5   0  0.3340899E-06  0.2939684E+04  0.7818609E-02  0.8261167E-01
       -2   -1    0    0    0  501  0.00000000000E+00  0.00000000000E+00  0.10870899361E+04  0.10870899361E+04  0.25500000920E-02 0.  1.
        2   -1    0    0  501    0  0.00000000000E+00  0.00000000000E+00 -0.19873568536E+04  0.19873568536E+04  0.25500000920E-02 0. -1.
    10030    2    1    2    0    0  0.00000000000E+00  0.00000000000E+00 -0.90026691753E+03  0.30744467897E+04  0.29396840885E+04 0.  0.
        3    1    3    3  502    0 -0.13017028395E+04 -0.91304742777E+02 -0.11576587460E+04  0.17444026544E+04  0.10100000352E+00 0. -1.
       -3    1    3    3    0  502  0.13017028395E+04  0.91304742777E+02  0.25739182847E+03  0.13300441353E+04  0.10100000352E+00 0.  1.
</event>
<event>
 5   0  0.1171915E-06  0.3107914E+04  0.7818609E-02  0.8213569E-01
        1   -1    0    0  501    0  0.00000000000E+00  0.00000000000E+00  0.15789964396E+04  0.15789964396E+04  0.50400001928E-02 0. -1.
       -1   -1    0    0    0  501  0.00000000000E+00  0.00000000000E+00 -0.15293142940E+04  0.15293142940E+04  0.50400001928E-02 0.  1.
    10030    2    1    2    0    0  0.00000000000E+00  0.00000000000E+00  0.49682145575E+02  0.31083107335E+04  0.31079136572E+04 0.  0.
        2    1    3    3  502    0 -0.24343858115E+03  0.10854723535E+04  0.11100000908E+04  0.15715001669E+04  0.25500000920E-02 0. -1.
       -2    1    3    3    0  502  0.24343858115E+03 -0.10854723535E+04 -0.10603179452E+04  0.15368105667E+04  0.25500000920E-02 0.  1.
</event>
<event>
 5   0  0.3445959E-06  0.3093915E+04  0.7818609E-02  0.8217410E-01
       -2   -1    0    0    0  501  0.00000000000E+00  0.00000000000E+00  0.13432161067E+04  0.13432161067E+04  0.25500000920E-02 0.  1.
        2   -1    0    0  501    0  0.00000000000E+00  0.00000000000E+00 -0.17816033068E+04  0.17816033068E+04  0.25500000920E-02 0. -1.
    10030    2    1    2    0    0  0.00000000000E+00  0.00000000000E+00 -0.43838720010E+03  0.31248194135E+04  0.30939154852E+04 0.  0.
        4    1    3    3  502    0  0.70422631013E+03 -0.80397022207E+03  0.91035746918E+03  0.14039427155E+04  0.12699999809E+01 0.  1.
       -4    1    3    3    0  502 -0.70422631013E+03  0.80397022207E+03 -0.13487446693E+04  0.17208766980E+04  0.12699999809E+01 0. -1.
</event>
<event>
 5   0  0.3340899E-06  0.3060215E+04  0.7818609E-02  0.8226742E-01
        2   -1    0    0  501    0  0.00000000000E+00  0.00000000000E+00  0.17093898996E+04  0.17093898996E+04  0.25500000920E-02 0.  1.
       -2   -1    0    0    0  501  0.00000000000E+00  0.00000000000E+00 -0.13696286566E+04  0.13696286566E+04  0.25500000920E-02 0. -1.
    10030    2    1    2    0    0  0.00000000000E+00  0.00000000000E+00  0.33976124304E+03  0.30790185563E+04  0.30602152812E+04 0.  0.
        3    1    3    3  502    0  0.24822802570E+03  0.33453090119E+03 -0.13114774437E+04  0.13760454833E+04  0.10100000352E+00 0. -1.
       -3    1    3    3    0  502 -0.24822802570E+03 -0.33453090119E+03  0.16512386867E+04  0.17029730730E+04  0.10100000352E+00 0.  1.
</event>
<event>
 5   0  0.1211008E-06  0.3143347E+04  0.7818609E-02  0.8203941E-01
       -1   -1    0    0    0  501  0.00000000000E+00  0.00000000000E+00  0.17081029431E+04  0.17081029431E+04  0.50400001928E-02 0.  1.
        1   -1    0    0  501    0  0.00000000000E+00  0.00000000000E+00 -0.14461410489E+04  0.14461410489E+04  0.50400001928E-02 0. -1.
    10030    2    1    2    0    0  0.00000000000E+00  0.00000000000E+00  0.26196189415E+03  0.31542439920E+04  0.31433471217E+04 0.  0.
        3    1    3    3  502    0 -0.11939116567E+04 -0.10221143022E+04  0.13487783183E+03  0.15774456347E+04  0.10100000352E+00 0.  1.
       -3    1    3    3    0  502  0.11939116567E+04  0.10221143022E+04  0.12708406232E+03  0.15767983574E+04  0.10100000352E+00 0. -1.
</event>
<event>
 5   0  0.3340899E-06  0.3097882E+04  0.7818609E-02  0.8216319E-01
        2   -1    0    0  501    0  0.00000000000E+00  0.00000000000E+00  0.24458241365E+04  0.24458241365E+04  0.25500000920E-02 0. -1.
       -2   -1    0    0    0  501  0.00000000000E+00  0.00000000000E+00 -0.98094497520E+03  0.98094497521E+03  0.25500000920E-02 0.  1.
    10030    2    1    2    0    0  0.00000000000E+00  0.00000000000E+00  0.14648791613E+04  0.34267691118E+04  0.30978824361E+04 0.  0.
        3    1    3    3  502    0  0.14874754547E+04  0.42658399058E+03  0.80796527948E+03  0.17456703676E+04  0.10100000352E+00 0. -1.
       -3    1    3    3    0  502 -0.14874754547E+04 -0.42658399058E+03  0.65691388187E+03  0.16810987442E+04  0.10100000352E+00 0.  1.
</event>
<event>
 5   0  0.1171915E-06  0.3074176E+04  0.7818609E-02  0.8222861E-01
        1   -1    0    0  501    0  0.00000000000E+00  0.00000000000E+00  0.14341499042E+04  0.14341499042E+04  0.50400001928E-02 0. -1.
       -1   -1    0    0    0  501  0.00000000000E+00  0.00000000000E+00 -0.16474149885E+04  0.16474149885E+04  0.50400001928E-02 0.  1.
    10030    2    1    2    0    0  0.00000000000E+00  0.00000000000E+00 -0.21326508426E+03  0.30815648927E+04  0.30741763436E+04 0.  0.
        2    1    3    3  502    0 -0.15262383809E+04  0.46425453797E+01 -0.28932011771E+03  0.15534256593E+04  0.25500000920E-02 0. -1.
       -2    1    3    3    0  502  0.15262383809E+04 -0.46425453797E+01  0.76055033448E+02  0.15281392334E+04  0.25500000920E-02 0.  1.
</event>
<event>
 5   0  0.1198763E-06  0.3124030E+04  0.7818609E-02  0.8209174E-01
       -1   -1    0    0    0  501  0.00000000000E+00  0.00000000000E+00  0.13877329716E+04  0.13877329716E+04  0.50400001928E-02 0. -1.
        1   -1    0    0  501    0  0.00000000000E+00  0.00000000000E+00 -0.17581844628E+04  0.17581844628E+04  0.50400001928E-02 0.  1.
    10030    2    1    2    0    0  0.00000000000E+00  0.00000000000E+00 -0.37045149120E+03  0.31459174344E+04  0.31240298009E+04 0.  0.
        1    1    3    3  502    0 -0.60486250200E+03  0.12853932375E+04 -0.83923432646E+03  0.16499723258E+04  0.50400001928E-02 0.  1.
       -1    1    3    3    0  502  0.60486250200E+03 -0.12853932375E+04  0.46878283525E+03  0.14959451086E+04  0.50400001928E-02 0. -1.
</event>
<event>
 5   0  0.3445959E-06  0.3147677E+04  0.7818609E-02  0.8202774E-01
       -2   -1    0    0    0  501  0.00000000000E+00  0.00000000000E+00  0.16018257943E+04  0.16018257943E+04  0.25500000920E-02 0. -1.
        2   -1    0    0  501    0  0.00000000000E+00  0.00000000000E+00 -0.15463401627E+04  0.15463401627E+04  0.25500000920E-02 0.  1.
    10030    2    1    2    0    0  0.00000000000E+00  0.00000000000E+00  0.55485631538E+02  0.31481659570E+04  0.31476769589E+04 0.  0.
        4    1    3    3  502    0 -0.59610255726E+02  0.17553335033E+03 -0.15353821287E+04  0.15465332953E+04  0.12699999809E+01 0.  1.
       -4    1    3    3    0  502  0.59610255726E+02 -0.17553335033E+03  0.15908677602E+04  0.16016326617E+04  0.12699999809E+01 0. -1.
</event>
<event>
 5   0  0.3445959E-06  0.3064457E+04  0.7818609E-02  0.8225561E-01
       -2   -1    0    0    0  501  0.00000000000E+00  0.00000000000E+00  0.14443257991E+04  0.14443257991E+04  0.25500000920E-02 0.  1.
        2   -1    0    0  501    0  0.00000000000E+00  0.00000000000E+00 -0.16254808248E+04  0.16254808248E+04  0.25500000920E-02 0. -1.
    10030    2    1    2    0    0  0.00000000000E+00  0.00000000000E+00 -0.18115502574E+03  0.30698066239E+04  0.30644568140E+04 0.  0.
        4    1    3    3  502    0 -0.33124087418E+03 -0.48874255706E+03  0.13257976434E+04  0.14513203671E+04  0.12699999809E+01 0.  1.
       -4    1    3    3    0  502  0.33124087418E+03  0.48874255706E+03 -0.15069526691E+04  0.16184862569E+04  0.12699999809E+01 0. -1.
</event>
<event>
 5   0  0.3445959E-06  0.3143608E+04  0.7818609E-02  0.8203871E-01
       -2   -1    0    0    0  501  0.00000000000E+00  0.00000000000E+00  0.11829484460E+04  0.11829484460E+04  0.25500000920E-02 0.  1.
        2   -1    0    0  501    0  0.00000000000E+00  0.00000000000E+00 -0.20884835457E+04  0.20884835457E+04  0.25500000920E-02 0. -1.
    10030    2    1    2    0    0  0.00000000000E+00  0.00000000000E+00 -0.90553509968E+03  0.32714319917E+04  0.31436083502E+04 0.  0.
        4    1    3    3  502    0  0.15644024825E+04  0.14598152008E+03 -0.40739398679E+03  0.16231565558E+04  0.12699999809E+01 0. -1.
       -4    1    3    3    0  502 -0.15644024825E+04 -0.14598152008E+03 -0.49814111289E+03  0.16482754359E+04  0.12699999809E+01 0.  1.
</event>
<event>
 5   0  0.1198763E-06  0.3086018E+04  0.7818609E-02  0.8219586E-01
       -1   -1    0    0    0  501  0.00000000000E+00  0.00000000000E+00  0.20966218607E+04  0.20966218607E+04  0.50400001928E-02 0.  1.
        1   -1    0    0  501    0  0.00000000000E+00  0.00000000000E+00 -0.11355774537E+04  0.11355774537E+04  0.50400001928E-02 0. -1.
    10030    2    1    2    0    0  0.00000000000E+00  0.00000000000E+00  0.96104440701E+03  0.32321993144E+04  0.30860178314E+04 0.  0.
        1    1    3    3  502    0 -0.93807269599E+03  0.31651608719E+03 -0.75905731119E+03  0.12475298867E+04  0.50400001928E-02 0. -1.
       -1    1    3    3    0  502  0.93807269599E+03 -0.31651608719E+03  0.17201017182E+04  0.19846694277E+04  0.50400001928E-02 0.  1.
</event>
<event>
 5   0  0.3340899E-06  0.3101006E+04  0.7818609E-02  0.8215462E-01
        2   -1    0    0  501    0  0.00000000000E+00  0.00000000000E+00  0.16261248809E+04  0.16261248809E+04  0.25500000920E-02 0.  1.
       -2   -1    0    0    0  501  0.00000000000E+00  0.00000000000E+00 -0.14783980824E+04  0.14783980824E+04  0.25500000920E-02 0. -1.
    10030    2    1    2    0    0  0.00000000000E+00  0.00000000000E+00  0.14772679851E+03  0.31045229633E+04  0.31010062275E+04 0.  0.
        3    1    3    3  502    0  0.12422542505E+04  0.40640529067E+03  0.90889503931E+03  0.15919959440E+04  0.10100000352E+00 0.  1.
       -3    1    3    3    0  502 -0.12422542505E+04 -0.40640529067E+03 -0.76116824080E+03  0.15125270193E+04  0.10100000352E+00 0. -1.
</event>
<event>
 5   0  0.3445410E-06  0.3104088E+04  0.7818609E-02  0.8214617E-01
       -2   -1    0    0    0  501  0.00000000000E+00  0.00000000000E+00  0.16572131942E+04  0.16572131942E+04  0.25500000920E-02 0. -1.
        2   -1    0    0  501    0  0.00000000000E+00  0.00000000000E+00 -0.14535485910E+04  0.14535485910E+04  0.25500000920E-02 0.  1.
    10030    2    1    2    0    0  0.00000000000E+00  0.00000000000E+00  0.20366460324E+03  0.31107617852E+04  0.31040875654E+04 0.  0.
        1    1    3    3  502    0  0.63953396547E+03 -0.14134686912E+04  0.57664084483E+02  0.15524891564E+04  0.50400001928E-02 0. -1.
       -1    1    3    3    0  502 -0.63953396547E+03  0.14134686912E+04  0.14600051876E+03  0.15582726288E+04  0.50400001928E-02 0.  1.
</event>
<event>
 5   0  0.1171915E-06  0.3082948E+04  0.7818609E-02  0.8220433E-01
       -1   -1    0    0    0  501  0.00000000000E+00  0.00000000000E+00  0.12266748632E+04  0.12266748632E+04  0.50400001928E-02 0.  1.
        1   -1    0    0  501    0  0.00000000000E+00  0.00000000000E+00 -0.19370600235E+04  0.19370600235E+04  0.50400001928E-02 0. -1.
    10030    2    1    2    0    0  0.00000000000E+00  0.00000000000E+00 -0.71038516033E+03  0.31637348867E+04  0.30829484844E+04 0.  0.
        2    1    3    3  502    0 -0.46079252281E+03 -0.12546783713E+04 -0.11431646300E+04  0.17587987195E+04  0.25500000920E-02 0. -1.
       -2    1    3    3    0  502  0.46079252281E+03  0.12546783713E+04  0.43277946965E+03  0.14049361672E+04  0.25500000920E-02 0.  1.
</event>
<event>
 5   0  0.1198763E-06  0.3081860E+04  0.7818609E-02  0.8220734E-01
       -1   -1    0    0    0  501  0.00000000000E+00  0.00000000000E+00  0.10641113573E+04  0.10641113573E+04  0.50400001928E-02 0. -1.
        1   -1    0    0  501    0  0.00000000000E+00  0.00000000000E+00 -0.22314065388E+04  0.22314065388E+04  0.50400001928E-02 0.  1.
    10030    2    1    2    0    0  0.00000000000E+00  0.00000000000E+00 -0.11672951815E+04  0.32955178961E+04  0.30818598545E+04 0.  0.
        1    1    3    3  502    0 -0.52822654100E+03  0.16962089932E+03 -0.21209043465E+04  0.21922658997E+04  0.50400001928E-02 0.  1.
       -1    1    3    3    0  502  0.52822654100E+03 -0.16962089932E+03  0.95360916494E+03  0.11032519964E+04  0.50400001928E-02 0. -1.
</event>
<event>
 5   0  0.1171915E-06  0.3091643E+04  0.7818609E-02  0.8218035E-01
        1   -1    0    0  501    0  0.00000000000E+00  0.00000000000E+00  0.21870205068E+04  0.21870205068E+04  0.50400001928E-02 0. -1.
       -1   -1    0    0    0  501  0.00000000000E+00  0.00000000000E+00 -0.10926114763E+04  0.10926114763E+04  0.50400001928E-02 0.  1.
    10030    2    1    2    0    0  0.00000000000E+00  0.00000000000E+00  0.10944090305E+04  0.32796319831E+04  0.30916427379E+04 0.  0.
        2    1    3    3  502    0  0.76282299398E+03  0.10963382512E+04 -0.27839073793E+03  0.13643159034E+04  0.25500000920E-02 0.  1.
       -2    1    3    3    0  502 -0.76282299398E+03 -0.10963382512E+04  0.13727997684E+04  0.19153160798E+04  0.25500000920E-02 0. -1.
</event>
<event>
 5   0  0.3340899E-06  0.3130490E+04  0.7818609E-02  0.8207420E-01
        2   -1    0    0  501    0  0.00000000000E+00  0.00000000000E+00  0.17198168302E+04  0.17198168302E+04  0.25500000920E-02 0.  1.
       -2   -1    0    0    0  501  0.00000000000E+00  0.00000000000E+00 -0.14245656268E+04  0.14245656268E+04  0.25500000920E-02 0. -1.
    10030    2    1    2    0    0  0.00000000000E+00  0.00000000000E+00  0.29525120336E+03  0.31443824571E+04  0.31304900196E+04 0.  0.
        3    1    3    3  502    0  0.66910349064E+03 -0.13422697713E+04 -0.30225075713E+03  0.15299487411E+04  0.10100000352E+00 0. -1.
       -3    1    3    3    0  502 -0.66910349064E+03  0.13422697713E+04  0.59750196049E+03  0.16144337159E+04  0.10100000352E+00 0.  1.
</event>
<event>
 5   0  0.1171915E-06  0.3105246E+04  0.7818609E-02  0.8214300E-01
        1   -1    0    0  501    0  0.00000000000E+00  0.00000000000E+00  0.21888313184E+04  0.21888313184E+04  0.50400001928E-02 0.  1.
       -1   -1    0    0    0  501  0.00000000000E+00  0.00000000000E+00 -0.11013357934E+04  0.11013357934E+04  0.50400001928E-02 0. -1.
    10030    2    1    2    0    0  0.00000000000E+00  0.00000000000E+00  0.10874955249E+04  0.32901671118E+04  0.31052460622E+04 0.  0.
        2    1    3    3  502    0  0.11040101503E+04  0.63723892231E+03  0.14829467497E+04  0.19555160236E+04  0.25500000920E-02 0.  1.
       -2    1    3    3    0  502 -0.11040101503E+04 -0.63723892231E+03 -0.39545122479E+03  0.13346510882E+04  0.25500000920E-02 0. -1.
</event>
<event>
 5   0  0.3374790E-06  0.3095552E+04  0.7818609E-02  0.8216960E-01
        2   -1    0    0  501    0  0.00000000000E+00  0.00000000000E+00  0.12324417406E+04  0.12324417406E+04  0.25500000920E-02 0.  1.
       -2   -1    0    0    0  501  0.00000000000E+00  0.00000000000E+00 -0.19437921587E+04  0.19437921587E+04  0.25500000920E-02 0. -1.
    10030    2    1    2    0    0  0.00000000000E+00  0.00000000000E+00 -0.71135041805E+03  0.31762338993E+04  0.30955520293E+04 0.  0.
        2    1    3    3  502    0 -0.12271751455E+04  0.32713096078E+03  0.55205038532E+03  0.13848224186E+04  0.25500000920E-02 0.  1.
       -2    1    3    3    0  502  0.12271751455E+04 -0.32713096078E+03 -0.12634008034E+04  0.17914114807E+04  0.25500000920E-02 0. -1.
</event>
<event>
 5   0  0.1211008E-06  0.3078612E+04  0.7818609E-02  0.8221632E-01
       -1   -1    0    0    0  501  0.00000000000E+00  0.00000000000E+00  0.15676683829E+04  0.15676683829E+04  0.50400001928E-02 0. -1.
        1   -1    0    0  501    0  0.00000000000E+00  0.00000000000E+00 -0.15114563306E+04  0.15114563306E+04  0.50400001928E-02 0.  1.
    10030    2    1    2    0    0  0.00000000000E+00  0.00000000000E+00  0.56212052307E+02  0.30791247135E+04  0.30786115712E+04 0.  0.
        3    1    3    3  502    0  0.72352106830E+03 -0.10831023362E+04  0.84852860659E+03  0.15545398719E+04  0.10100000352E+00 0. -1.
       -3    1    3    3    0  502 -0.72352106830E+03  0.10831023362E+04 -0.79231655428E+03  0.15245848416E+04  0.10100000352E+00 0.  1.
</event>
<event>
 5   0  0.1198763E-06  0.3051649E+04  0.7818609E-02  0.8229134E-01
        1   -1    0    0  501    0  0.00000000000E+00  0.00000000000E+00  0.79190730430E+03  0.79190730431E+03  0.50400001928E-02 0. -1.
       -1   -1    0    0    0  501  0.00000000000E+00  0.00000000000E+00 -0.29399151617E+04  0.29399151617E+04  0.50400001928E-02 0.  1.
    10030    2    1    2    0    0  0.00000000000E+00  0.00000000000E+00 -0.21480078574E+04  0.37318224660E+04  0.30516489252E+04 0.  0.
        1    1    3    3  502    0 -0.96261964827E+03  0.11788325796E+04 -0.94084137877E+03  0.17892639096E+04  0.50400001928E-02 0.  1.
       -1    1    3    3    0  502  0.96261964827E+03 -0.11788325796E+04 -0.12071664786E+04  0.19425585564E+04  0.50400001928E-02 0. -1.
</event>
<event>
 5   0  0.3445959E-06  0.3103008E+04  0.7818609E-02  0.8214913E-01
        2   -1    0    0  501    0  0.00000000000E+00  0.00000000000E+00  0.23408609511E+04  0.23408609511E+04  0.25500000920E-02 0. -1.
       -2   -1    0    0    0  501  0.00000000000E+00  0.00000000000E+00 -0.10283245003E+04  0.10283245003E+04  0.25500000920E-02 0.  1.
    10030    2    1    2    0    0  0.00000000000E+00  0.00000000000E+00  0.13125364508E+04  0.33691854514E+04  0.31030080038E+04 0.  0.
        4    1    3    3  502    0  0.97919545723E+03  0.64501941130E+03  0.17594389484E+04  0.21143558855E+04  0.12699999809E+01 0. -1.
       -4    1    3    3    0  502 -0.97919545723E+03 -0.64501941130E+03 -0.44690249758E+03  0.12548295660E+04  0.12699999809E+01 0.  1.
</event>
<event>
 5   0  0.3441897E-06  0.3102553E+04  0.7818609E-02  0.8215038E-01
        2   -1    0    0  501    0  0.00000000000E+00  0.00000000000E+00  0.76469005136E+03  0.76469005136E+03  0.25500000920E-02 0. -1.
       -2   -1    0    0    0  501  0.00000000000E+00  0.00000000000E+00 -0.31469725831E+04  0.31469725831E+04  0.25500000920E-02 0.  1.
    10030    2    1    2    0    0  0.00000000000E+00  0.00000000000E+00 -0.23822825318E+04  0.39116626345E+04  0.31025529012E+04 0.  0.
        5    1    3    3  502    0  0.99366824453E+03 -0.11475756901E+04 -0.78822124833E+03  0.17104447875E+04  0.46999998093E+01 0. -1.
       -5    1    3    3    0  502 -0.99366824453E+03  0.11475756901E+04 -0.15940612834E+04  0.22012178470E+04  0.46999998093E+01 0.  1.
</event>
<event>
 5   0  0.1171915E-06  0.3089171E+04  0.7818609E-02  0.8218716E-01
        1   -1    0    0  501    0  0.00000000000E+00  0.00000000000E+00  0.20038002918E+04  0.20038002918E+04  0.50400001928E-02 0.  1.
       -1   -1    0    0    0  501  0.00000000000E+00  0.00000000000E+00 -0.11906099827E+04  0.11906099827E+04  0.50400001928E-02 0. -1.
    10030    2    1    2    0    0  0.00000000000E+00  0.00000000000E+00  0.81319030914E+03  0.31944102745E+04  0.30891711709E+04 0.  0.
        2    1    3    3  502    0 -0.26693260014E+03 -0.70393379230E+03  0.18012326904E+04  0.19522333370E+04  0.25500000920E-02 0.  1.
       -2    1    3    3    0  502  0.26693260014E+03  0.70393379230E+03 -0.98804238125E+03  0.12421769375E+04  0.25500000920E-02 0. -1.
</event>
<event>
 5   0  0.1171915E-06  0.3128355E+04  0.7818609E-02  0.8207999E-01
       -1   -1    0    0    0  501  0.00000000000E+00  0.00000000000E+00  0.88630922537E+03  0.88630922538E+03  0.50400001928E-02 0.  1.
        1   -1    0    0  501    0  0.00000000000E+00  0.00000000000E+00 -0.27604946015E+04  0.27604946015E+04  0.50400001928E-02 0. -1.
    10030    2    1    2    0    0  0.00000000000E+00  0.00000000000E+00 -0.18741853761E+04  0.36468038268E+04  0.31283553710E+04 0.  0.
        2    1    3    3  502    0  0.47081249182E+03 -0.75036311414E+03  0.56571820276E+03  0.10510691178E+04  0.25500000920E-02 0.  1.
       -2    1    3    3    0  502 -0.47081249182E+03  0.75036311414E+03 -0.24399035788E+04  0.25957347090E+04  0.25500000920E-02 0. -1.
</event>
<event>
 5   0  0.1198763E-06  0.3119101E+04  0.7818609E-02  0.8210515E-01
        1   -1    0    0  501    0  0.00000000000E+00  0.00000000000E+00  0.18150720529E+04  0.18150720529E+04  0.50400001928E-02 0. -1.
       -1   -1    0    0    0  501  0.00000000000E+00  0.00000000000E+00 -0.13400010030E+04  0.13400010030E+04  0.50400001928E-02 0.  1.
    10030    2    1    2    0    0  0.00000000000E+00  0.00000000000E+00  0.47507104990E+03  0.31550730558E+04  0.31191013906E+04 0.  0.
        1    1    3    3  502    0  0.11127716741E+03  0.98497590905E+03  0.14554302323E+04  0.17609194503E+04  0.50400001928E-02 0. -1.
       -1    1    3    3    0  502 -0.11127716741E+03 -0.98497590905E+03 -0.98035918236E+03  0.13941536055E+04  0.50400001928E-02 0.  1.
</event>
<event>
 5   0  0.1250276E-06  0.3128161E+04  0.7818609E-02  0.8208052E-01
        1   -1    0    0  501    0  0.00000000000E+00  0.00000000000E+00  0.20858278995E+04  0.20858278995E+04  0.50400001928E-02 0.  1.
       -1   -1    0    0    0  501  0.00000000000E+00  0.00000000000E+00 -0.11728423477E+04  0.11728423477E+04  0.50400001928E-02 0. -1.
    10030    2    1    2    0    0  0.00000000000E+00  0.00000000000E+00  0.91298555186E+03  0.32586702472E+04  0.31281606676E+04 0.  0.
        5    1    3    3  502    0 -0.11527215807E+04  0.50774108252E+03 -0.50942300762E+03  0.13587133399E+04  0.46999998093E+01 0. -1.
       -5    1    3    3    0  502  0.11527215807E+04 -0.50774108252E+03  0.14224085595E+04  0.18999569073E+04  0.46999998093E+01 0.  1.
</event>
<event>
 5   0  0.1211008E-06  0.3119075E+04  0.7818609E-02  0.8210523E-01
       -1   -1    0    0    0  501  0.00000000000E+00  0.00000000000E+00  0.15549678567E+04  0.15549678567E+04  0.50400001928E-02 0. -1.
        1   -1    0    0  501    0  0.00000000000E+00  0.00000000000E+00 -0.15641200908E+04  0.15641200908E+04  0.50400001928E-02 0.  1.
    10030    2    1    2    0    0  0.00000000000E+00  0.00000000000E+00 -0.91522340546E+01  0.31190879475E+04  0.31190745199E+04 0.  0.
        3    1    3    3  502    0 -0.45886372357E+03 -0.23081211006E+03  0.14679540108E+04  0.15552231785E+04  0.10100000352E+00 0. -1.
       -3    1    3    3    0  502  0.45886372357E+03  0.23081211006E+03 -0.14771062448E+04  0.15638647690E+04  0.10100000352E+00 0.  1.
</event>
<event>
 5   0  0.3445410E-06  0.3048751E+04  0.7818609E-02  0.8229945E-01
       -2   -1    0    0    0  501  0.00000000000E+00  0.00000000000E+00  0.17835619015E+04  0.17835619015E+04  0.25500000920E-02 0.  1.
        2   -1    0    0  501    0  0.00000000000E+00  0.00000000000E+00 -0.13028541123E+04  0.13028541123E+04  0.25500000920E-02 0. -1.
    10030    2    1    2    0    0  0.00000000000E+00  0.00000000000E+00  0.48070778917E+03  0.30864160138E+04  0.30487511921E+04 0.  0.
        1    1    3    3  502    0  0.15990245882E+03  0.31174889824E+03 -0.12615392245E+04  0.13092888859E+04  0.50400001928E-02 0. -1.
       -1    1    3    3    0  502 -0.15990245882E+03 -0.31174889824E+03  0.17422470137E+04  0.17771271278E+04  0.50400001928E-02 0.  1.
</event>
<event>
 5   0  0.1250276E-06  0.3081145E+04  0.7818609E-02  0.8220932E-01
        1   -1    0    0  501    0  0.00000000000E+00  0.00000000000E+00  0.17468577260E+04  0.17468577260E+04  0.50400001928E-02 0. -1.
       -1   -1    0    0    0  501  0.00000000000E+00  0.00000000000E+00 -0.13586474495E+04  0.13586474495E+04  0.50400001928E-02 0.  1.
    10030    2    1    2    0    0  0.00000000000E+00  0.00000000000E+00  0.38821027645E+03  0.31055051755E+04  0.30811451079E+04 0.  0.
        5    1    3    3  502    0 -0.11716414887E+04  0.61371128392E+03 -0.60204911988E+03  0.14532276322E+04  0.46999998093E+01 0.  1.
       -5    1    3    3    0  502  0.11716414887E+04 -0.61371128392E+03  0.99025939633E+03  0.16522775433E+04  0.46999998093E+01 0. -1.
</event>
<event>
 5   0  0.1198763E-06  0.3079204E+04  0.7818609E-02  0.8221468E-01
       -1   -1    0    0    0  501  0.00000000000E+00  0.00000000000E+00  0.13563038030E+04  0.13563038030E+04  0.50400001928E-02 0.  1.
        1   -1    0    0  501    0  0.00000000000E+00  0.00000000000E+00 -0.17476725694E+04  0.17476725694E+04  0.50400001928E-02 0. -1.
    10030    2    1    2    0    0  0.00000000000E+00  0.00000000000E+00 -0.39136876648E+03  0.31039763724E+04  0.30792044117E+04 0.  0.
        1    1    3    3  502    0 -0.11843510429E+03 -0.13145185135E+04  0.60340291484E+03  0.14512342588E+04  0.50400001928E-02 0.  1.
       -1    1    3    3    0  502  0.11843510429E+03  0.13145185135E+04 -0.99477168132E+03  0.16527421136E+04  0.50400001928E-02 0. -1.
</event>
<event>
 5   0  0.1211008E-06  0.3086128E+04  0.7818609E-02  0.8219555E-01
       -1   -1    0    0    0  501  0.00000000000E+00  0.00000000000E+00  0.96877415887E+03  0.96877415888E+03  0.50400001928E-02 0.  1.
        1   -1    0    0  501    0  0.00000000000E+00  0.00000000000E+00 -0.24577930841E+04  0.24577930841E+04  0.50400001928E-02 0. -1.
    10030    2    1    2    0    0  0.00000000000E+00  0.00000000000E+00 -0.14890189252E+04  0.34265672429E+04  0.30861279479E+04 0.  0.
        3    1    3    3  502    0  0.12103722896E+04 -0.82842616580E+03 -0.21230535809E+03  0.14820136864E+04  0.10100000352E+00 0. -1.
       -3    1    3    3    0  502 -0.12103722896E+04  0.82842616580E+03 -0.12767135671E+04  0.19445535565E+04  0.10100000352E+00 0.  1.
</event>
<event>
 5   0  0.1235960E-06  0.3102326E+04  0.7818609E-02  0.8215100E-01
        1   -1    0    0  501    0  0.00000000000E+00  0.00000000000E+00  0.22210017016E+04  0.22210017016E+04  0.50400001928E-02 0.  1.
       -1   -1    0    0    0  501  0.00000000000E+00  0.00000000000E+00 -0.10833428688E+04  0.10833428689E+04  0.50400001928E-02 0. -1.
    10030    2    1    2    0    0  0.00000000000E+00  0.00000000000E+00  0.11376588328E+04  0.33043445705E+04  0.31023258083E+04 0.  0.
        4    1    3    3  502    0  0.95296777050E+03 -0.96347929009E+03  0.13727397771E+04  0.19289520530E+04  0.12699999809E+01 0.  1.
       -4    1    3    3    0  502 -0.95296777050E+03  0.96347929009E+03 -0.23508094432E+03  0.13753925175E+04  0.12699999809E+01 0. -1.
</event>
<event>
 5   0  0.1211008E-06  0.3130715E+04  0.7818609E-02  0.8207359E-01
        1   -1    0    0  501    0  0.00000000000E+00  0.00000000000E+00  0.15187654925E+04  0.15187654925E+04  0.50400001928E-02 0.  1.
       -1   -1    0    0    0  501  0.00000000000E+00  0.00000000000E+00 -0.16133784385E+04  0.16133784385E+04  0.50400001928E-02 0. -1.
    10030    2    1    2    0    0  0.00000000000E+00  0.00000000000E+00 -0.94612945970E+02  0.31321439310E+04  0.31307146141E+04 0.  0.
        3    1    3    3  502    0  0.31643968387E+03  0.40182462962E+02  0.14859057628E+04  0.15197580893E+04  0.10100000352E+00 0.  1.
       -3    1    3    3    0  502 -0.31643968387E+03 -0.40182462962E+02 -0.15805187087E+04  0.16123858418E+04  0.10100000352E+00 0. -1.
</event>
<event>
 5   0  0.3445410E-06  0.3112064E+04  0.7818609E-02  0.8212435E-01
        2   -1    0    0  501    0  0.00000000000E+00  0.00000000000E+00  0.23658117895E+04  0.23658117895E+04  0.25500000920E-02 0.  1.
       -2   -1    0    0    0  501  0.00000000000E+00  0.00000000000E+00 -0.10234269059E+04  0.10234269059E+04  0.25500000920E-02 0. -1.
    10030    2    1    2    0    0  0.00000000000E+00  0.00000000000E+00  0.13423848836E+04  0.33892386954E+04  0.31120639065E+04 0.  0.
        1    1    3    3  502    0 -0.98367839944E+03  0.11904309542E+04  0.87921914828E+03  0.17770130447E+04  0.50400001928E-02 0.  1.
       -1    1    3    3    0  502  0.98367839944E+03 -0.11904309542E+04  0.46316573532E+03  0.16122256507E+04  0.50400001928E-02 0. -1.
</event>
<event>
 5   0  0.3340899E-06  0.3110359E+04  0.7818609E-02  0.8212901E-01
        2   -1    0    0  501    0  0.00000000000E+00  0.00000000000E+00  0.11018516779E+04  0.11018516779E+04  0.25500000920E-02 0.  1.
       -2   -1    0    0    0  501  0.00000000000E+00  0.00000000000E+00 -0.21950175779E+04  0.21950175779E+04  0.25500000920E-02 0. -1.
    10030    2    1    2    0    0  0.00000000000E+00  0.00000000000E+00 -0.10931659000E+04  0.32968692557E+04  0.31103593369E+04 0.  0.
        3    1    3    3  502    0  0.59469616614E+02  0.76573860110E+03  0.88679720750E+03  0.11731587863E+04  0.10100000352E+00 0.  1.
       -3    1    3    3    0  502 -0.59469616614E+02 -0.76573860110E+03 -0.19799631075E+04  0.21237104694E+04  0.10100000352E+00 0. -1.
</event>
<event>
 5   0  0.1211008E-06  0.3107567E+04  0.7818609E-02  0.8213664E-01
        1   -1    0    0  501    0  0.00000000000E+00  0.00000000000E+00  0.15216860178E+04  0.15216860178E+04  0.50400001928E-02 0.  1.
       -1   -1    0    0    0  501  0.00000000000E+00  0.00000000000E+00 -0.15865578470E+04  0.15865578470E+04  0.50400001928E-02 0. -1.
    10030    2    1    2    0    0  0.00000000000E+00  0.00000000000E+00 -0.64871829183E+02  0.31082438648E+04  0.31075668246E+04 0.  0.
        3    1    3    3  502    0  0.97866791507E+03 -0.88228771421E+03 -0.85603524310E+03  0.15713111870E+04  0.10100000352E+00 0. -1.
       -3    1    3    3    0  502 -0.97866791507E+03  0.88228771421E+03  0.79116341391E+03  0.15369326779E+04  0.10100000352E+00 0.  1.
</event>
<event>
 5   0  0.1109562E-06  0.3109006E+04  0.7818609E-02  0.8213271E-01
       -4   -1    0    0    0  501  0.00000000000E+00  0.00000000000E+00  0.11568707845E+04  0.11568714816E+04  0.12699999809E+01 0. -1.
        4   -1    0    0  501    0  0.00000000000E+00  0.00000000000E+00 -0.20888055481E+04  0.20888059341E+04  0.12699999809E+01 0.  1.
    10030    2    1    2    0    0  0.00000000000E+00  0.00000000000E+00 -0.93193476361E+03  0.32456774157E+04  0.31090061890E+04 0.  0.
        3    1    3    3  502    0 -0.10445620943E+04  0.53026925855E+03  0.60080648585E+03  0.13165348074E+04  0.10100000352E+00 0. -1.
       -3    1    3    3    0  502  0.10445620943E+04 -0.53026925855E+03 -0.15327412495E+04  0.19291426083E+04  0.10100000352E+00 0.  1.
</event>
<event>
 5   0  0.1235960E-06  0.3103936E+04  0.7818609E-02  0.8214659E-01
        1   -1    0    0  501    0  0.00000000000E+00  0.00000000000E+00  0.13569990952E+04  0.13569990952E+04  0.50400001928E-02 0. -1.
       -1   -1    0    0    0  501  0.00000000000E+00  0.00000000000E+00 -0.17749489375E+04  0.17749489375E+04  0.50400001928E-02 0.  1.
    10030    2    1    2    0    0  0.00000000000E+00  0.00000000000E+00 -0.41794984231E+03  0.31319480327E+04  0.31039356323E+04 0.  0.
        4    1    3    3  502    0  0.10857593675E+03 -0.13547065181E+04 -0.96512709635E+03  0.16668804424E+04  0.12699999809E+01 0.  1.
       -4    1    3    3    0  502 -0.10857593675E+03  0.13547065181E+04  0.54717725404E+03  0.14650675904E+04  0.12699999809E+01 0. -1.
</event>
<event>
 5   0  0.1171915E-06  0.3459442E+04  0.7818609E-02  0.8123469E-01
       -1   -1    0    0    0  501  0.00000000000E+00  0.00000000000E+00  0.18844120344E+04  0.18844120344E+04  0.50400001928E-02 0. -1.
        1   -1    0    0  501    0  0.00000000000E+00  0.00000000000E+00 -0.15877288737E+04  0.15877288737E+04  0.50400001928E-02 0.  1.
    10030    2    1    2    0    0  0.00000000000E+00  0.00000000000E+00  0.29668316065E+03  0.34721409081E+04  0.34594423811E+04 0.  0.
        2    1    3    3  502    0 -0.10392662171E+04  0.28282833348E+03  0.15067753760E+04  0.18521442088E+04  0.25500000920E-02 0. -1.
       -2    1    3    3    0  502  0.10392662171E+04 -0.28282833348E+03 -0.12100922154E+04  0.16199966994E+04  0.25500000920E-02 0.  1.
</event>
<event>
 5   0  0.1198763E-06  0.3171675E+04  0.7818609E-02  0.8196338E-01
        1   -1    0    0  501    0  0.00000000000E+00  0.00000000000E+00  0.20707626621E+04  0.20707626622E+04  0.50400001928E-02 0.  1.
       -1   -1    0    0    0  501  0.00000000000E+00  0.00000000000E+00 -0.12144707071E+04  0.12144707071E+04  0.50400001928E-02 0. -1.
    10030    2    1    2    0    0  0.00000000000E+00  0.00000000000E+00  0.85629195508E+03  0.32852333692E+04  0.31716750114E+04 0.  0.
        1    1    3    3  502    0 -0.46221533818E+03 -0.57006171111E+03 -0.10279847905E+04  0.12630780272E+04  0.50400001928E-02 0. -1.
       -1    1    3    3    0  502  0.46221533818E+03  0.57006171111E+03  0.18842767456E+04  0.20221553420E+04  0.50400001928E-02 0.  1.
</event>
<event>
 5   0  0.1250276E-06  0.2994130E+04  0.7818609E-02  0.8245409E-01
        1   -1    0    0  501    0  0.00000000000E+00  0.00000000000E+00  0.15215437029E+04  0.15215437029E+04  0.50400001928E-02 0. -1.
       -1   -1    0    0    0  501  0.00000000000E+00  0.00000000000E+00 -0.14729802712E+04  0.14729802712E+04  0.50400001928E-02 0.  1.
    10030    2    1    2    0    0  0.00000000000E+00  0.00000000000E+00  0.48563431726E+02  0.29945239742E+04  0.29941301617E+04 0.  0.
        5    1    3    3  502    0  0.81338477863E+03  0.35591071550E+03  0.12298092992E+04  0.15168125257E+04  0.46999998093E+01 0. -1.
       -5    1    3    3    0  502 -0.81338477863E+03 -0.35591071550E+03 -0.11812458675E+04  0.14777114485E+04  0.46999998093E+01 0.  1.
</event>
<event>
 5   0  0.3441897E-06  0.3083864E+04  0.7818609E-02  0.8220180E-01
        2   -1    0    0  501    0  0.00000000000E+00  0.00000000000E+00  0.18476919224E+04  0.18476919224E+04  0.25500000920E-02 0. -1.
       -2   -1    0    0    0  501  0.00000000000E+00  0.00000000000E+00 -0.12867697171E+04  0.12867697171E+04  0.25500000920E-02 0.  1.
    10030    2    1    2    0    0  0.00000000000E+00  0.00000000000E+00  0.56092220531E+03  0.31344616394E+04  0.30838638181E+04 0.  0.
        5    1    3    3  502    0  0.36333547831E+03 -0.11330167476E+04  0.12772619901E+04  0.17456116124E+04  0.46999998093E+01 0. -1.
       -5    1    3    3    0  502 -0.36333547831E+03  0.11330167476E+04 -0.71633978476E+03  0.13888500270E+04  0.46999998093E+01 0.  1.
</event>
<event>
 5   0  0.3445959E-06  0.3105315E+04  0.7818609E-02  0.8214281E-01
       -2   -1    0    0    0  501  0.00000000000E+00  0.00000000000E+00  0.11746423086E+04  0.11746423086E+04  0.25500000920E-02 0.  1.
        2   -1    0    0  501    0  0.00000000000E+00  0.00000000000E+00 -0.20523225009E+04  0.20523225009E+04  0.25500000920E-02 0. -1.
    10030    2    1    2    0    0  0.00000000000E+00  0.00000000000E+00 -0.87768019223E+03  0.32269648095E+04  0.31053146961E+04 0.  0.
        4    1    3    3  502    0  0.34274148458E+03  0.26747899841E+03  0.11100974499E+04  0.11921974254E+04  0.12699999809E+01 0.  1.
       -4    1    3    3    0  502 -0.34274148458E+03 -0.26747899841E+03 -0.19877776422E+04  0.20347673841E+04  0.12699999809E+01 0. -1.
</event>
<event>
 5   0  0.1250276E-06  0.3115921E+04  0.7818609E-02  0.8211382E-01
       -1   -1    0    0    0  501  0.00000000000E+00  0.00000000000E+00  0.12951671501E+04  0.12951671501E+04  0.50400001928E-02 0. -1.
        1   -1    0    0  501    0  0.00000000000E+00  0.00000000000E+00 -0.18740757067E+04  0.18740757067E+04  0.50400001928E-02 0.  1.
    10030    2    1    2    0    0  0.00000000000E+00  0.00000000000E+00 -0.57890855656E+03  0.31692428568E+04  0.31159212392E+04 0.  0.
        5    1    3    3  502    0  0.31937341370E+02  0.62798883890E+02  0.12935388323E+04  0.12954645862E+04  0.46999998093E+01 0. -1.
       -5    1    3    3    0  502 -0.31937341370E+02 -0.62798883890E+02 -0.18724473888E+04  0.18737782706E+04  0.46999998093E+01 0.  1.
</event>
<event>
 5   0  0.1109562E-06  0.3111636E+04  0.7818609E-02  0.8212552E-01
        3   -1    0    0  501    0  0.00000000000E+00  0.00000000000E+00  0.20961829345E+04  0.20961829370E+04  0.10100000352E+00 0.  1.
       -3   -1    0    0    0  501  0.00000000000E+00  0.00000000000E+00 -0.11547514544E+04  0.11547514588E+04  0.10100000352E+00 0. -1.
    10030    2    1    2    0    0  0.00000000000E+00  0.00000000000E+00  0.94143148010E+03  0.32509343958E+04  0.31116364206E+04 0.  0.
        5    1    3    3  502    0  0.49923689221E+03 -0.98716243282E+03 -0.67225199958E+03  0.12944774947E+04  0.46999998093E+01 0. -1.
       -5    1    3    3    0  502 -0.49923689221E+03  0.98716243282E+03  0.16136834797E+04  0.19564569011E+04  0.46999998093E+01 0.  1.
</event>
<event>
 5   0  0.3445410E-06  0.3154840E+04  0.7818609E-02  0.8200847E-01
        2   -1    0    0  501    0  0.00000000000E+00  0.00000000000E+00  0.21106216599E+04  0.21106216599E+04  0.25500000920E-02 0. -1.
       -2   -1    0    0    0  501  0.00000000000E+00  0.00000000000E+00 -0.11789200795E+04  0.11789200795E+04  0.25500000920E-02 0.  1.
    10030    2    1    2    0    0  0.00000000000E+00  0.00000000000E+00  0.93170158040E+03  0.32895417394E+04  0.31548402528E+04 0.  0.
        1    1    3    3  502    0  0.83020644195E+03 -0.76292434288E+02  0.18621268802E+04  0.20402401304E+04  0.50400001928E-02 0. -1.
       -1    1    3    3    0  502 -0.83020644195E+03  0.76292434288E+02 -0.93042529979E+03  0.12493016090E+04  0.50400001928E-02 0.  1.
</event>
<event>
 5   0  0.3445959E-06  0.3137321E+04  0.7818609E-02  0.8205570E-01
       -2   -1    0    0    0  501  0.00000000000E+00  0.00000000000E+00  0.11627272009E+04  0.11627272009E+04  0.25500000920E-02 0.  1.
        2   -1    0    0  501    0  0.00000000000E+00  0.00000000000E+00 -0.21163138581E+04  0.21163138581E+04  0.25500000920E-02 0. -1.
    10030    2    1    2    0    0  0.00000000000E+00  0.00000000000E+00 -0.95358665724E+03  0.32790410590E+04  0.31373209517E+04 0.  0.
        4    1    3    3  502    0  0.92733811143E+03  0.40808016720E+03  0.77488887714E+03  0.12755154960E+04  0.12699999809E+01 0.  1.
       -4    1    3    3    0  502 -0.92733811143E+03 -0.40808016720E+03 -0.17284755344E+04  0.20035255630E+04  0.12699999809E+01 0. -1.
</event>
<event>
 5   0  0.3445959E-06  0.3032668E+04  0.7818609E-02  0.8234463E-01
       -2   -1    0    0    0  501  0.00000000000E+00  0.00000000000E+00  0.12911664072E+04  0.12911664072E+04  0.25500000920E-02 0.  1.
        2   -1    0    0  501    0  0.00000000000E+00  0.00000000000E+00 -0.17807692706E+04  0.17807692706E+04  0.25500000920E-02 0. -1.
    10030    2    1    2    0    0  0.00000000000E+00  0.00000000000E+00 -0.48960286347E+03  0.30719356778E+04  0.30326684363E+04 0.  0.
        4    1    3    3  502    0 -0.32345295428E+03 -0.39899062129E+03  0.12003643660E+04  0.13056383701E+04  0.12699999809E+01 0.  1.
       -4    1    3    3    0  502  0.32345295428E+03  0.39899062129E+03 -0.16899672295E+04  0.17662973077E+04  0.12699999809E+01 0. -1.
</event>
<event>
 5   0  0.1198763E-06  0.3117808E+04  0.7818609E-02  0.8210868E-01
        1   -1    0    0  501    0  0.00000000000E+00  0.00000000000E+00  0.12435018888E+04  0.12435018888E+04  0.50400001928E-02 0.  1.
       -1   -1    0    0    0  501  0.00000000000E+00  0.00000000000E+00 -0.19543049268E+04  0.19543049268E+04  0.50400001928E-02 0. -1.
    10030    2    1    2    0    0  0.00000000000E+00  0.00000000000E+00 -0.71080303802E+03  0.31978068156E+04  0.31178081197E+04 0.  0.
        1    1    3    3  502    0 -0.10285626463E+04 -0.80875862436E+03  0.51378002179E+03  0.14057032192E+04  0.50400001928E-02 0.  1.
       -1    1    3    3    0  502  0.10285626463E+04  0.80875862436E+03 -0.12245830598E+04  0.17921035964E+04  0.50400001928E-02 0. -1.
</event>
<event>
 5   0  0.1211008E-06  0.3121379E+04  0.7818609E-02  0.8209895E-01
        1   -1    0    0  501    0  0.00000000000E+00  0.00000000000E+00  0.17939312922E+04  0.17939312922E+04  0.50400001928E-02 0. -1.
       -1   -1    0    0    0  501  0.00000000000E+00  0.00000000000E+00 -0.13577729437E+04  0.13577729437E+04  0.50400001928E-02 0.  1.
    10030    2    1    2    0    0  0.00000000000E+00  0.00000000000E+00  0.43615834852E+03  0.31517042359E+04  0.31213787796E+04 0.  0.
        3    1    3    3  502    0 -0.32039066243E+03 -0.88722531160E+02 -0.13216058786E+04  0.13627780350E+04  0.10100000352E+00 0.  1.
       -3    1    3    3    0  502  0.32039066243E+03  0.88722531160E+02  0.17577642271E+04  0.17889262009E+04  0.10100000352E+00 0. -1.
</event>
<event>
 5   0  0.1211008E-06  0.3189038E+04  0.7818609E-02  0.8191718E-01
        1   -1    0    0  501    0  0.00000000000E+00  0.00000000000E+00  0.20452400285E+04  0.20452400285E+04  0.50400001928E-02 0. -1.
       -1   -1    0    0    0  501  0.00000000000E+00  0.00000000000E+00 -0.12431261275E+04  0.12431261276E+04  0.50400001928E-02 0.  1.
    10030    2    1    2    0    0  0.00000000000E+00  0.00000000000E+00  0.80211390093E+03  0.32883661560E+04  0.31890382980E+04 0.  0.
        3    1    3    3  502    0 -0.12619929657E+04 -0.90754244305E+03  0.34699709670E+02  0.15548194787E+04  0.10100000352E+00 0.  1.
       -3    1    3    3    0  502  0.12619929657E+04  0.90754244305E+03  0.76741419126E+03  0.17335466773E+04  0.10100000352E+00 0. -1.
</event>
<event>
 5   0  0.3445959E-06  0.3103167E+04  0.7818609E-02  0.8214869E-01
        2   -1    0    0  501    0  0.00000000000E+00  0.00000000000E+00  0.23826610487E+04  0.23826610487E+04  0.25500000920E-02 0.  1.
       -2   -1    0    0    0  501  0.00000000000E+00  0.00000000000E+00 -0.10103878520E+04  0.10103878520E+04  0.25500000920E-02 0. -1.
    10030    2    1    2    0    0  0.00000000000E+00  0.00000000000E+00  0.13722731967E+04  0.33930489007E+04  0.31031672717E+04 0.  0.
        4    1    3    3  502    0 -0.14265751520E+02 -0.15247509092E+04  0.37237929560E+03  0.15696295103E+04  0.12699999809E+01 0. -1.
       -4    1    3    3    0  502  0.14265751520E+02  0.15247509092E+04  0.99989390113E+03  0.18234193904E+04  0.12699999809E+01 0.  1.
</event>
<event>
 5   0  0.1235960E-06  0.3095813E+04  0.7818609E-02  0.8216888E-01
       -1   -1    0    0    0  501  0.00000000000E+00  0.00000000000E+00  0.33347168957E+04  0.33347168957E+04  0.50400001928E-02 0.  1.
        1   -1    0    0  501    0  0.00000000000E+00  0.00000000000E+00 -0.71850618908E+03  0.71850618910E+03  0.50400001928E-02 0. -1.
    10030    2    1    2    0    0  0.00000000000E+00  0.00000000000E+00  0.26162107067E+04  0.40532230848E+04  0.30958131264E+04 0.  0.
        4    1    3    3  502    0 -0.12133156940E+04 -0.58020858144E+03  0.23114084655E+04  0.26742078600E+04  0.12699999809E+01 0.  1.
       -4    1    3    3    0  502  0.12133156940E+04  0.58020858144E+03  0.30480224115E+03  0.13790152248E+04  0.12699999809E+01 0. -1.
</event>
<event>
 5   0  0.3340899E-06  0.3116720E+04  0.7818609E-02  0.8211164E-01
        2   -1    0    0  501    0  0.00000000000E+00  0.00000000000E+00  0.17353758086E+04  0.17353758086E+04  0.25500000920E-02 0.  1.
       -2   -1    0    0    0  501  0.00000000000E+00  0.00000000000E+00 -0.13994002711E+04  0.13994002711E+04  0.25500000920E-02 0. -1.
    10030    2    1    2    0    0  0.00000000000E+00  0.00000000000E+00  0.33597553743E+03  0.31347760797E+04  0.31167196711E+04 0.  0.
        3    1    3    3  502    0 -0.11659684189E+04 -0.44009282934E+03 -0.77301853789E+03  0.14665339145E+04  0.10100000352E+00 0. -1.
       -3    1    3    3    0  502  0.11659684189E+04  0.44009282934E+03  0.11089940753E+04  0.16682421652E+04  0.10100000352E+00 0.  1.
</event>
<event>
 5   0  0.1250276E-06  0.3103092E+04  0.7818609E-02  0.8214890E-01
       -1   -1    0    0    0  501  0.00000000000E+00  0.00000000000E+00  0.17079323919E+04  0.17079323919E+04  0.50400001928E-02 0.  1.
        1   -1    0    0  501    0  0.00000000000E+00  0.00000000000E+00 -0.14094790728E+04  0.14094790728E+04  0.50400001928E-02 0. -1.
    10030    2    1    2    0    0  0.00000000000E+00  0.00000000000E+00  0.29845331905E+03  0.31174114647E+04  0.31030919833E+04 0.  0.
        5    1    3    3  502    0 -0.44164561490E+03  0.11176349658E+04  0.11351391104E+04  0.16530945696E+04  0.46999998093E+01 0.  1.
       -5    1    3    3    0  502  0.44164561490E+03 -0.11176349658E+04 -0.83668579134E+03  0.14643168951E+04  0.46999998093E+01 0. -1.
</event>
<event>
 5   0  0.3340899E-06  0.3087694E+04  0.7818609E-02  0.8219123E-01
       -2   -1    0    0    0  501  0.00000000000E+00  0.00000000000E+00  0.10251516118E+04  0.10251516118E+04  0.25500000920E-02 0. -1.
        2   -1    0    0  501    0  0.00000000000E+00  0.00000000000E+00 -0.23249865806E+04  0.23249865806E+04  0.25500000920E-02 0.  1.
    10030    2    1    2    0    0  0.00000000000E+00  0.00000000000E+00 -0.12998349688E+04  0.33501381924E+04  0.30876941173E+04 0.  0.
        3    1    3    3  502    0 -0.74664963640E+03  0.95443233144E+03  0.38796402181E+03  0.12723768495E+04  0.10100000352E+00 0. -1.
       -3    1    3    3    0  502  0.74664963640E+03 -0.95443233144E+03 -0.16877989906E+04  0.20777613428E+04  0.10100000352E+00 0.  1.
</event>
<event>
 5   0  0.3445410E-06  0.3090666E+04  0.7818609E-02  0.8218304E-01
       -2   -1    0    0    0  501  0.00000000000E+00  0.00000000000E+00  0.14652219401E+04  0.14652219401E+04  0.25500000920E-02 0.  1.
        2   -1    0    0  501    0  0.00000000000E+00  0.00000000000E+00 -0.16298242320E+04  0.16298242320E+04  0.25500000920E-02 0. -1.
    10030    2    1    2    0    0  0.00000000000E+00  0.00000000000E+00 -0.16460229186E+03  0.30950461721E+04  0.30906660921E+04 0.  0.
        1    1    3    3  502    0 -0.96525813563E+03  0.10276758444E+04  0.55121955531E+03  0.15138308716E+04  0.50400001928E-02 0.  1.
       -1    1    3    3    0  502  0.96525813563E+03 -0.10276758444E+04 -0.71582184717E+03  0.15812153005E+04  0.50400001928E-02 0. -1.
</event>
<event>
 5   0  0.1250276E-06  0.3113403E+04  0.7818609E-02  0.8212069E-01
       -1   -1    0    0    0  501  0.00000000000E+00  0.00000000000E+00  0.12320294978E+04  0.12320294978E+04  0.50400001928E-02 0.  1.
        1   -1    0    0  501    0  0.00000000000E+00  0.00000000000E+00 -0.19669326912E+04  0.19669326912E+04  0.50400001928E-02 0. -1.
    10030    2    1    2    0    0  0.00000000000E+00  0.00000000000E+00 -0.73490319337E+03  0.31989621891E+04  0.31134027018E+04 0.  0.
        5    1    3    3  502    0 -0.10144416344E+04 -0.10340820730E+04  0.21819405705E+03  0.14649396915E+04  0.46999998093E+01 0. -1.
       -5    1    3    3    0  502  0.10144416344E+04  0.10340820730E+04 -0.95309725043E+03  0.17340224975E+04  0.46999998093E+01 0.  1.
</event>
<event>
 5   0  0.1171915E-06  0.3098522E+04  0.7818609E-02  0.8216144E-01
       -1   -1    0    0    0  501  0.00000000000E+00  0.00000000000E+00  0.10008473888E+04  0.10008473888E+04  0.50400001928E-02 0. -1.
        1   -1    0    0  501    0  0.00000000000E+00  0.00000000000E+00 -0.23981770294E+04  0.23981770294E+04  0.50400001928E-02 0.  1.
    10030    2    1    2    0    0  0.00000000000E+00  0.00000000000E+00 -0.13973296407E+04  0.33990244182E+04  0.30985217235E+04 0.  0.
        2    1    3    3  502    0  0.20628698303E+03 -0.13747615432E+03  0.97894949270E+03  0.10098495540E+04  0.25500000920E-02 0. -1.
       -2    1    3    3    0  502 -0.20628698303E+03  0.13747615432E+03 -0.23762791334E+04  0.23891748643E+04  0.25500000920E-02 0.  1.
</event>
<event>
 5   0  0.3374790E-06  0.2879729E+04  0.7818609E-02  0.8278934E-01
       -2   -1    0    0    0  501  0.00000000000E+00  0.00000000000E+00  0.14237317635E+04  0.14237317635E+04  0.25500000920E-02 0. -1.
        2   -1    0    0  501    0  0.00000000000E+00  0.00000000000E+00 -0.14561803470E+04  0.14561803470E+04  0.25500000920E-02 0.  1.
    10030    2    1    2    0    0  0.00000000000E+00  0.00000000000E+00 -0.32448583542E+02  0.28799121105E+04  0.28797293021E+04 0.  0.
        2    1    3    3  502    0 -0.72081249148E+03 -0.58884389735E+03 -0.11148851429E+04  0.14523349012E+04  0.25500000920E-02 0.  1.
       -2    1    3    3    0  502  0.72081249148E+03  0.58884389735E+03  0.10824365594E+04  0.14275772093E+04  0.25500000920E-02 0. -1.
</event>
<event>
 5   0  0.3374790E-06  0.3148870E+04  0.7818609E-02  0.8202453E-01
       -2   -1    0    0    0  501  0.00000000000E+00  0.00000000000E+00  0.97057500929E+03  0.97057500929E+03  0.25500000920E-02 0. -1.
        2   -1    0    0  501    0  0.00000000000E+00  0.00000000000E+00 -0.25539961868E+04  0.25539961868E+04  0.25500000920E-02 0.  1.
    10030    2    1    2    0    0  0.00000000000E+00  0.00000000000E+00 -0.15834211775E+04  0.35245711961E+04  0.31488695576E+04 0.  0.
        2    1    3    3  502    0  0.62617690395E+03 -0.56486298368E+03 -0.22798824673E+04  0.24308500098E+04  0.25500000920E-02 0. -1.
       -2    1    3    3    0  502 -0.62617690395E+03  0.56486298368E+03  0.69646128974E+03  0.10937211864E+04  0.25500000920E-02 0.  1.
</event>
<event>
 5   0  0.1211008E-06  0.2959106E+04  0.7818609E-02  0.8255506E-01
       -1   -1    0    0    0  501  0.00000000000E+00  0.00000000000E+00  0.15488576663E+04  0.15488576663E+04  0.50400001928E-02 0. -1.
        1   -1    0    0  501    0  0.00000000000E+00  0.00000000000E+00 -0.14133492669E+04  0.14133492669E+04  0.50400001928E-02 0.  1.
    10030    2    1    2    0    0  0.00000000000E+00  0.00000000000E+00  0.13550839941E+03  0.29622069331E+04  0.29591058427E+04 0.  0.
        3    1    3    3  502    0 -0.11538578162E+04 -0.76243706106E+03  0.59402246616E+03  0.15051780070E+04  0.10100000352E+00 0. -1.
       -3    1    3    3    0  502  0.11538578162E+04  0.76243706106E+03 -0.45851406675E+03  0.14570289262E+04  0.10100000352E+00 0.  1.
</event>
<event>
 5   0  0.1171915E-06  0.3089385E+04  0.7818609E-02  0.8218657E-01
       -1   -1    0    0    0  501  0.00000000000E+00  0.00000000000E+00  0.16285020139E+04  0.16285020139E+04  0.50400001928E-02 0. -1.
        1   -1    0    0  501    0  0.00000000000E+00  0.00000000000E+00 -0.14651966261E+04  0.14651966261E+04  0.50400001928E-02 0.  1.
    10030    2    1    2    0    0  0.00000000000E+00  0.00000000000E+00  0.16330538779E+03  0.30936986400E+04  0.30893854770E+04 0.  0.
        2    1    3    3  502    0 -0.74614779744E+02 -0.96729168663E+03 -0.11220467253E+04  0.14833102933E+04  0.25500000920E-02 0.  1.
       -2    1    3    3    0  502  0.74614779744E+02  0.96729168663E+03  0.12853521131E+04  0.16103883467E+04  0.25500000920E-02 0. -1.
</event>
<event>
 5   0  0.3445410E-06  0.3064206E+04  0.7818609E-02  0.8225631E-01
        2   -1    0    0  501    0  0.00000000000E+00  0.00000000000E+00  0.21577508094E+04  0.21577508094E+04  0.25500000920E-02 0.  1.
       -2   -1    0    0    0  501  0.00000000000E+00  0.00000000000E+00 -0.10878638921E+04  0.10878638921E+04  0.25500000920E-02 0. -1.
    10030    2    1    2    0    0  0.00000000000E+00  0.00000000000E+00  0.10698869172E+04  0.32456147015E+04  0.30642057331E+04 0.  0.
        1    1    3    3  502    0  0.11410002123E+04  0.95694498361E+03  0.91642407863E+03  0.17485589146E+04  0.50400001928E-02 0. -1.
       -1    1    3    3    0  502 -0.11410002123E+04 -0.95694498361E+03  0.15346283860E+03  0.14970557868E+04  0.50400001928E-02 0.  1.
</event>
<event>
 5   0  0.1235960E-06  0.3082175E+04  0.7818609E-02  0.8220647E-01
       -1   -1    0    0    0  501  0.00000000000E+00  0.00000000000E+00  0.13223661158E+04  0.13223661158E+04  0.50400001928E-02 0. -1.
        1   -1    0    0  501    0  0.00000000000E+00  0.00000000000E+00 -0.17959853283E+04  0.17959853283E+04  0.50400001928E-02 0.  1.
    10030    2    1    2    0    0  0.00000000000E+00  0.00000000000E+00 -0.47361921254E+03  0.31183514441E+04  0.30821746496E+04 0.  0.
        4    1    3    3  502    0  0.53421883784E+03 -0.13026033465E+04  0.39727077218E+03  0.14628707818E+04  0.12699999809E+01 0.  1.
       -4    1    3    3    0  502 -0.53421883784E+03  0.13026033465E+04 -0.87088998472E+03  0.16554806623E+04  0.12699999809E+01 0. -1.
</event>
<event>
 5   0  0.3445410E-06  0.3101592E+04  0.7818609E-02  0.8215301E-01
       -2   -1    0    0    0  501  0.00000000000E+00  0.00000000000E+00  0.11856958737E+04  0.11856958737E+04  0.25500000920E-02 0. -1.
        2   -1    0    0  501    0  0.00000000000E+00  0.00000000000E+00 -0.20283182232E+04  0.20283182232E+04  0.25500000920E-02 0.  1.
    10030    2    1    2    0    0  0.00000000000E+00  0.00000000000E+00 -0.84262234950E+03  0.32140140969E+04  0.31015922026E+04 0.  0.
        1    1    3    3  502    0  0.66320901607E+03 -0.75248291768E+03  0.80430686439E+03  0.12856851374E+04  0.50400001928E-02 0. -1.
       -1    1    3    3    0  502 -0.66320901607E+03  0.75248291768E+03 -0.16469292139E+04  0.19283289595E+04  0.50400001928E-02 0.  1.
</event>
<event>
 5   0  0.1198763E-06  0.2705765E+04  0.7818609E-02  0.8333137E-01
        1   -1    0    0  501    0  0.00000000000E+00  0.00000000000E+00  0.13117372234E+04  0.13117372234E+04  0.50400001928E-02 0. -1.
       -1   -1    0    0    0  501  0.00000000000E+00  0.00000000000E+00 -0.13953180811E+04  0.13953180811E+04  0.50400001928E-02 0.  1.
    10030    2    1    2    0    0  0.00000000000E+00  0.00000000000E+00 -0.83580857696E+02  0.27070553045E+04  0.27057647093E+04 0.  0.
        1    1    3    3  502    0 -0.81489299424E+03 -0.86451776407E+03 -0.68928465237E+03  0.13735191620E+04  0.50400001928E-02 0.  1.
       -1    1    3    3    0  502  0.81489299424E+03  0.86451776407E+03  0.60570379468E+03  0.13335361425E+04  0.50400001928E-02 0. -1.
</event>
<event>
 5   0  0.3445959E-06  0.3104945E+04  0.7818609E-02  0.8214382E-01
        2   -1    0    0  501    0  0.00000000000E+00  0.00000000000E+00  0.17334080530E+04  0.17334080530E+04  0.25500000920E-02 0.  1.
       -2   -1    0    0    0  501  0.00000000000E+00  0.00000000000E+00 -0.13904232720E+04  0.13904232720E+04  0.25500000920E-02 0. -1.
    10030    2    1    2    0    0  0.00000000000E+00  0.00000000000E+00  0.34298478099E+03  0.31238313249E+04  0.31049450215E+04 0.  0.
        4    1    3    3  502    0  0.74227505098E+03 -0.91649233863E+03 -0.84422208148E+03  0.14503940822E+04  0.12699999809E+01 0. -1.
       -4    1    3    3    0  502 -0.74227505098E+03  0.91649233863E+03  0.11872068625E+04  0.16734372427E+04  0.12699999809E+01 0.  1.
</event>
<event>
 5   0  0.1109562E-06  0.3106547E+04  0.7818609E-02  0.8213944E-01
        3   -1    0    0  501    0  0.00000000000E+00  0.00000000000E+00  0.11534760918E+04  0.11534760962E+04  0.10100000352E+00 0. -1.
       -3   -1    0    0    0  501  0.00000000000E+00  0.00000000000E+00 -0.20916409463E+04  0.20916409487E+04  0.10100000352E+00 0.  1.
    10030    2    1    2    0    0  0.00000000000E+00  0.00000000000E+00 -0.93816485450E+03  0.32451170449E+04  0.31065465296E+04 0.  0.
        3    1    3    3  502    0  0.22065541740E+03 -0.35540678824E+03  0.10935220682E+04  0.11708088324E+04  0.10100000352E+00 0. -1.
       -3    1    3    3    0  502 -0.22065541740E+03  0.35540678824E+03 -0.20316869227E+04  0.20743082125E+04  0.10100000352E+00 0.  1.
</event>
<event>
 5   0  0.3340899E-06  0.2911792E+04  0.7818609E-02  0.8269378E-01
        2   -1    0    0  501    0  0.00000000000E+00  0.00000000000E+00  0.27712591699E+04  0.27712591699E+04  0.25500000920E-02 0.  1.
       -2   -1    0    0    0  501  0.00000000000E+00  0.00000000000E+00 -0.76486285870E+03  0.76486285871E+03  0.25500000920E-02 0. -1.
    10030    2    1    2    0    0  0.00000000000E+00  0.00000000000E+00  0.20063963112E+04  0.35361220286E+04  0.29117920330E+04 0.  0.
        3    1    3    3  502    0  0.39304038285E+03 -0.49015530621E+02  0.27045705278E+04  0.27334200217E+04  0.10100000352E+00 0.  1.
       -3    1    3    3    0  502 -0.39304038285E+03  0.49015530621E+02 -0.69817421668E+03  0.80270200687E+03  0.10100000352E+00 0. -1.
</event>
<event>
 5   0  0.3374790E-06  0.2996236E+04  0.7818609E-02  0.8244806E-01
       -2   -1    0    0    0  501  0.00000000000E+00  0.00000000000E+00  0.17287308646E+04  0.17287308646E+04  0.25500000920E-02 0.  1.
        2   -1    0    0  501    0  0.00000000000E+00  0.00000000000E+00 -0.12982693292E+04  0.12982693292E+04  0.25500000920E-02 0. -1.
    10030    2    1    2    0    0  0.00000000000E+00  0.00000000000E+00  0.43046153537E+03  0.30270001938E+04  0.29962364793E+04 0.  0.
        2    1    3    3  502    0 -0.10428865921E+04  0.11098717541E+03  0.12959939339E+04  0.16671925125E+04  0.25500000920E-02 0.  1.
       -2    1    3    3    0  502  0.10428865921E+04 -0.11098717541E+03 -0.86553239858E+03  0.13598076813E+04  0.25500000920E-02 0. -1.
</event>
<event>
 5   0  0.3445410E-06  0.3171616E+04  0.7818609E-02  0.8196354E-01
        2   -1    0    0  501    0  0.00000000000E+00  0.00000000000E+00  0.22713653056E+04  0.22713653056E+04  0.25500000920E-02 0.  1.
       -2   -1    0    0    0  501  0.00000000000E+00  0.00000000000E+00 -0.11071700226E+04  0.11071700226E+04  0.25500000920E-02 0. -1.
    10030    2    1    2    0    0  0.00000000000E+00  0.00000000000E+00  0.11641952830E+04  0.33785353282E+04  0.31716163556E+04 0.  0.
        1    1    3    3  502    0  0.14483939660E+04 -0.43842270711E+03  0.77115018116E+02  0.15152578252E+04  0.50400001928E-02 0. -1.
       -1    1    3    3    0  502 -0.14483939660E+04  0.43842270711E+03  0.10870802648E+04  0.18632775030E+04  0.50400001928E-02 0.  1.
</event>
<event>
 5   0  0.1235960E-06  0.3088578E+04  0.7818609E-02  0.8218880E-01
       -1   -1    0    0    0  501  0.00000000000E+00  0.00000000000E+00  0.12383503900E+04  0.12383503900E+04  0.50400001928E-02 0. -1.
        1   -1    0    0  501    0  0.00000000000E+00  0.00000000000E+00 -0.19258110848E+04  0.19258110848E+04  0.50400001928E-02 0.  1.
    10030    2    1    2    0    0  0.00000000000E+00  0.00000000000E+00 -0.68746069475E+03  0.31641614748E+04  0.30885782541E+04 0.  0.
        4    1    3    3  502    0 -0.97429366998E+02  0.20260112867E+03 -0.19089569129E+04  0.19221492676E+04  0.12699999809E+01 0.  1.
       -4    1    3    3    0  502  0.97429366998E+02 -0.20260112867E+03  0.12214962181E+04  0.12420122072E+04  0.12699999809E+01 0. -1.
</event>
<event>
 5   0  0.3374790E-06  0.3096795E+04  0.7818609E-02  0.8216618E-01
       -2   -1    0    0    0  501  0.00000000000E+00  0.00000000000E+00  0.10623176805E+04  0.10623176805E+04  0.25500000920E-02 0. -1.
        2   -1    0    0  501    0  0.00000000000E+00  0.00000000000E+00 -0.22568899966E+04  0.22568899967E+04  0.25500000920E-02 0.  1.
    10030    2    1    2    0    0  0.00000000000E+00  0.00000000000E+00 -0.11945723162E+04  0.33192076771E+04  0.30967945662E+04 0.  0.
        2    1    3    3  502    0  0.61029847108E+03  0.93779080640E+03  0.54992141743E+03  0.12467274705E+04  0.25500000920E-02 0. -1.
       -2    1    3    3    0  502 -0.61029847108E+03 -0.93779080640E+03 -0.17444937336E+04  0.20724802066E+04  0.25500000920E-02 0.  1.
</event>
<event>
 5   0  0.1250276E-06  0.3089760E+04  0.7818609E-02  0.8218554E-01
       -1   -1    0    0    0  501  0.00000000000E+00  0.00000000000E+00  0.15929047905E+04  0.15929047905E+04  0.50400001928E-02 0.  1.
        1   -1    0    0  501    0  0.00000000000E+00  0.00000000000E+00 -0.14983027272E+04  0.14983027272E+04  0.50400001928E-02 0. -1.
    10030    2    1    2    0    0  0.00000000000E+00  0.00000000000E+00  0.94602063335E+02  0.30912075178E+04  0.30897595970E+04 0.  0.
        5    1    3    3  502    0 -0.87443992043E+03  0.59273090093E+03 -0.10804611745E+04  0.15110901809E+04  0.46999998093E+01 0. -1.
       -5    1    3    3    0  502  0.87443992043E+03 -0.59273090093E+03  0.11750632378E+04  0.15801173368E+04  0.46999998093E+01 0.  1.
</event>
<event>
 5   0  0.1235960E-06  0.3077475E+04  0.7818609E-02  0.8221947E-01
        1   -1    0    0  501    0  0.00000000000E+00  0.00000000000E+00  0.16283614277E+04  0.16283614277E+04  0.50400001928E-02 0.  1.
       -1   -1    0    0    0  501  0.00000000000E+00  0.00000000000E+00 -0.14540467928E+04  0.14540467928E+04  0.50400001928E-02 0. -1.
    10030    2    1    2    0    0  0.00000000000E+00  0.00000000000E+00  0.17431463493E+03  0.30824082205E+04  0.30774754013E+04 0.  0.
        4    1    3    3  502    0 -0.13091438965E+04 -0.64694280749E+03 -0.39871750389E+03  0.15137271876E+04  0.12699999809E+01 0. -1.
       -4    1    3    3    0  502  0.13091438965E+04  0.64694280749E+03  0.57303213882E+03  0.15686810329E+04  0.12699999809E+01 0.  1.
</event>
<event>
 5   0  0.1171915E-06  0.3123780E+04  0.7818609E-02  0.8209242E-01
        1   -1    0    0  501    0  0.00000000000E+00  0.00000000000E+00  0.14679415987E+04  0.14679415987E+04  0.50400001928E-02 0. -1.
       -1   -1    0    0    0  501  0.00000000000E+00  0.00000000000E+00 -0.16618513729E+04  0.16618513729E+04  0.50400001928E-02 0.  1.
    10030    2    1    2    0    0  0.00000000000E+00  0.00000000000E+00 -0.19390977419E+03  0.31297929717E+04  0.31237802491E+04 0.  0.
        2    1    3    3  502    0  0.44583406578E+03  0.10796695523E+04 -0.11357950745E+04  0.16292589750E+04  0.25500000920E-02 0.  1.
       -2    1    3    3    0  502 -0.44583406578E+03 -0.10796695523E+04  0.94188530029E+03  0.15005339967E+04  0.25500000920E-02 0. -1.
</event>
<event>
 5   0  0.1250276E-06  0.3129949E+04  0.7818609E-02  0.8207566E-01
        1   -1    0    0  501    0  0.00000000000E+00  0.00000000000E+00  0.24076614737E+04  0.24076614737E+04  0.50400001928E-02 0. -1.
       -1   -1    0    0    0  501  0.00000000000E+00  0.00000000000E+00 -0.10172301212E+04  0.10172301212E+04  0.50400001928E-02 0.  1.
    10030    2    1    2    0    0  0.00000000000E+00  0.00000000000E+00  0.13904313525E+04  0.34248915949E+04  0.31299493751E+04 0.  0.
        5    1    3    3  502    0 -0.27010609380E+03  0.88700875846E+03  0.20747218240E+04  0.22724952313E+04  0.46999998093E+01 0. -1.
       -5    1    3    3    0  502  0.27010609380E+03 -0.88700875846E+03 -0.68429047149E+03  0.11523963636E+04  0.46999998093E+01 0.  1.
</event>
<event>
 5   0  0.3340899E-06  0.3030121E+04  0.7818609E-02  0.8235182E-01
       -2   -1    0    0    0  501  0.00000000000E+00  0.00000000000E+00  0.17109802169E+04  0.17109802169E+04  0.25500000920E-02 0.  1.
        2   -1    0    0  501    0  0.00000000000E+00  0.00000000000E+00 -0.13415752412E+04  0.13415752412E+04  0.25500000920E-02 0. -1.
    10030    2    1    2    0    0  0.00000000000E+00  0.00000000000E+00  0.36940497570E+03  0.30525554580E+04  0.30301212498E+04 0.  0.
        3    1    3    3  502    0  0.98551224180E+03 -0.90172296236E+03  0.90488695959E+03  0.16134308474E+04  0.10100000352E+00 0.  1.
       -3    1    3    3    0  502 -0.98551224180E+03  0.90172296236E+03 -0.53548198389E+03  0.14391246106E+04  0.10100000352E+00 0. -1.
</event>
<event>
 5   0  0.3445959E-06  0.3076163E+04  0.7818609E-02  0.8222310E-01
       -2   -1    0    0    0  501  0.00000000000E+00  0.00000000000E+00  0.25159961580E+04  0.25159961580E+04  0.25500000920E-02 0. -1.
        2   -1    0    0  501    0  0.00000000000E+00  0.00000000000E+00 -0.94026166781E+03  0.94026166782E+03  0.25500000920E-02 0.  1.
    10030    2    1    2    0    0  0.00000000000E+00  0.00000000000E+00  0.15757344902E+04  0.34562578258E+04  0.30761630280E+04 0.  0.
        4    1    3    3  502    0 -0.13083877000E+04 -0.12023617511E+03  0.16862653815E+04  0.21377155239E+04  0.12699999809E+01 0. -1.
       -4    1    3    3    0  502  0.13083877000E+04  0.12023617511E+03 -0.11053089129E+03  0.13185423020E+04  0.12699999809E+01 0.  1.
</event>
<event>
 5   0  0.3340899E-06  0.3116910E+04  0.7818609E-02  0.8211112E-01
        2   -1    0    0  501    0  0.00000000000E+00  0.00000000000E+00  0.13210361173E+04  0.13210361173E+04  0.25500000920E-02 0. -1.
       -2   -1    0    0    0  501  0.00000000000E+00  0.00000000000E+00 -0.18385427991E+04  0.18385427991E+04  0.25500000920E-02 0.  1.
    10030    2    1    2    0    0  0.00000000000E+00  0.00000000000E+00 -0.51750668182E+03  0.31595789164E+04  0.31169096495E+04 0.  0.
        3    1    3    3  502    0 -0.10332992072E+04 -0.43154059803E+03 -0.13574950973E+04  0.17597521100E+04  0.10100000352E+00 0.  1.
       -3    1    3    3    0  502  0.10332992072E+04  0.43154059803E+03  0.83998841547E+03  0.13998268063E+04  0.10100000352E+00 0. -1.
</event>
<event>
 5   0  0.1171915E-06  0.3130972E+04  0.7818609E-02  0.8207289E-01
       -1   -1    0    0    0  501  0.00000000000E+00  0.00000000000E+00  0.18897116390E+04  0.18897116390E+04  0.50400001928E-02 0. -1.
        1   -1    0    0  501    0  0.00000000000E+00  0.00000000000E+00 -0.12968892572E+04  0.12968892572E+04  0.50400001928E-02 0.  1.
    10030    2    1    2    0    0  0.00000000000E+00  0.00000000000E+00  0.59282238178E+03  0.31866008962E+04  0.31309721965E+04 0.  0.
        2    1    3    3  502    0 -0.12822322451E+03  0.28193378479E+03 -0.12653952751E+04  0.13027482706E+04  0.25500000920E-02 0.  1.
       -2    1    3    3    0  502  0.12822322451E+03 -0.28193378479E+03  0.18582176569E+04  0.18838526255E+04  0.25500000920E-02 0. -1.
</event>
<event>
 5   0  0.1171915E-06  0.2989224E+04  0.7818609E-02  0.8246815E-01
        1   -1    0    0  501    0  0.00000000000E+00  0.00000000000E+00  0.10732206603E+04  0.10732206603E+04  0.50400001928E-02 0.  1.
       -1   -1    0    0    0  501  0.00000000000E+00  0.00000000000E+00 -0.20814594448E+04  0.20814594448E+04  0.50400001928E-02 0. -1.
    10030    2    1    2    0    0  0.00000000000E+00  0.00000000000E+00 -0.10082387845E+04  0.31546801051E+04  0.29892241668E+04 0.  0.
        2    1    3    3  502    0 -0.69209926508E+03 -0.71953903340E+03 -0.16779463165E+04  0.19524962624E+04  0.25500000920E-02 0. -1.
       -2    1    3    3    0  502  0.69209926508E+03  0.71953903340E+03  0.66970753205E+03  0.12021838428E+04  0.25500000920E-02 0.  1.
</event>
<event>
 5   0  0.1109562E-06  0.3102066E+04  0.7818609E-02  0.8215171E-01
       -3   -1    0    0    0  501  0.00000000000E+00  0.00000000000E+00  0.19944745665E+04  0.19944745690E+04  0.10100000352E+00 0.  1.
        3   -1    0    0  501    0  0.00000000000E+00  0.00000000000E+00 -0.12061837785E+04  0.12061837827E+04  0.10100000352E+00 0. -1.
    10030    2    1    2    0    0  0.00000000000E+00  0.00000000000E+00  0.78829078799E+03  0.32006583518E+04  0.31020656857E+04 0.  0.
        5    1    3    3  502    0  0.14667758593E+04  0.34011467709E+03  0.77822839973E+03  0.16949250565E+04  0.46999998093E+01 0.  1.
       -5    1    3    3    0  502 -0.14667758593E+04 -0.34011467709E+03  0.10062388261E+02  0.15057332953E+04  0.46999998093E+01 0. -1.
</event>
<event>
 5   0  0.1235960E-06  0.3113874E+04  0.7818609E-02  0.8211941E-01
        1   -1    0    0  501    0  0.00000000000E+00  0.00000000000E+00  0.24519406803E+04  0.24519406803E+04  0.50400001928E-02 0. -1.
       -1   -1    0    0    0  501  0.00000000000E+00  0.00000000000E+00 -0.98862629787E+03  0.98862629788E+03  0.50400001928E-02 0.  1.
    10030    2    1    2    0    0  0.00000000000E+00  0.00000000000E+00  0.14633143824E+04  0.34405669782E+04  0.31138741384E+04 0.  0.
        4    1    3    3  502    0  0.54703496837E+03 -0.14527936547E+04  0.86329876408E+03  0.17762722282E+04  0.12699999809E+01 0. -1.
       -4    1    3    3    0  502 -0.54703496837E+03  0.14527936547E+04  0.60001561837E+03  0.16642947500E+04  0.12699999809E+01 0.  1.
</event>
<event>
 5   0  0.1211008E-06  0.3097282E+04  0.7818609E-02  0.8216484E-01
        1   -1    0    0  501    0  0.00000000000E+00  0.00000000000E+00  0.16145646368E+04  0.16145646368E+04  0.50400001928E-02 0. -1.
       -1   -1    0    0    0  501  0.00000000000E+00  0.00000000000E+00 -0.14854090924E+04  0.14854090924E+04  0.50400001928E-02 0.  1.
    10030    2    1    2    0    0  0.00000000000E+00  0.00000000000E+00  0.12915554442E+03  0.30999737293E+04  0.30972820290E+04 0.  0.
        3    1    3    3  502    0 -0.88572974001E+03 -0.33607057830E+03  0.12907254412E+04  0.16010723846E+04  0.10100000352E+00 0. -1.
       -3    1    3    3    0  502  0.88572974001E+03  0.33607057830E+03 -0.11615698967E+04  0.14989013447E+04  0.10100000352E+00 0.  1.
</event>
<event>
 5   0  0.3445959E-06  0.3095112E+04  0.7818609E-02  0.8217081E-01
        2   -1    0    0  501    0  0.00000000000E+00  0.00000000000E+00  0.13606006200E+04  0.13606006200E+04  0.25500000920E-02 0.  1.
       -2   -1    0    0    0  501  0.00000000000E+00  0.00000000000E+00 -0.17602004090E+04  0.17602004090E+04  0.25500000920E-02 0. -1.
    10030    2    1    2    0    0  0.00000000000E+00  0.00000000000E+00 -0.39959978897E+03  0.31208010291E+04  0.30951121259E+04 0.  0.
        4    1    3    3  502    0  0.12066142721E+04  0.54830719110E+03 -0.10054115050E+04  0.16635542326E+04  0.12699999809E+01 0. -1.
       -4    1    3    3    0  502 -0.12066142721E+04 -0.54830719110E+03  0.60581171604E+03  0.14572467964E+04  0.12699999809E+01 0.  1.
</event>
<event>
 5   0  0.3441897E-06  0.3089791E+04  0.7818609E-02  0.8218545E-01
       -2   -1    0    0    0  501  0.00000000000E+00  0.00000000000E+00  0.80760667952E+03  0.80760667952E+03  0.25500000920E-02 0. -1.
        2   -1    0    0  501    0  0.00000000000E+00  0.00000000000E+00 -0.29552771339E+04  0.29552771339E+04  0.25500000920E-02 0.  1.
    10030    2    1    2    0    0  0.00000000000E+00  0.00000000000E+00 -0.21476704544E+04  0.37628838135E+04  0.30897906422E+04 0.  0.
        5    1    3    3  502    0 -0.14220855916E+04 -0.22956677944E+03 -0.17537055846E+04  0.22694787295E+04  0.46999998093E+01 0.  1.
       -5    1    3    3    0  502  0.14220855916E+04  0.22956677944E+03 -0.39396486984E+03  0.14934050840E+04  0.46999998093E+01 0. -1.
</event>
<event>
 5   0  0.1250276E-06  0.3048614E+04  0.7818609E-02  0.8229984E-01
       -1   -1    0    0    0  501  0.00000000000E+00  0.00000000000E+00  0.13434444990E+04  0.13434444990E+04  0.50400001928E-02 0. -1.
        1   -1    0    0  501    0  0.00000000000E+00  0.00000000000E+00 -0.17295183083E+04  0.17295183083E+04  0.50400001928E-02 0.  1.
    10030    2    1    2    0    0  0.00000000000E+00  0.00000000000E+00 -0.38607380924E+03  0.30729628073E+04  0.30486140177E+04 0.  0.
        5    1    3    3  502    0 -0.14366112202E+04 -0.25895108674E+03  0.24931005931E+03  0.14809068367E+04  0.46999998093E+01 0. -1.
       -5    1    3    3    0  502  0.14366112202E+04  0.25895108674E+03 -0.63538386855E+03  0.15920559706E+04  0.46999998093E+01 0.  1.
</event>
<event>
 5   0  0.3445410E-06  0.3007175E+04  0.7818609E-02  0.8241685E-01
       -2   -1    0    0    0  501  0.00000000000E+00  0.00000000000E+00  0.14970827048E+04  0.14970827048E+04  0.25500000920E-02 0.  1.
        2   -1    0    0  501    0  0.00000000000E+00  0.00000000000E+00 -0.15101205898E+04  0.15101205898E+04  0.25500000920E-02 0. -1.
    10030    2    1    2    0    0  0.00000000000E+00  0.00000000000E+00 -0.13037885025E+02  0.30072032946E+04  0.30071750312E+04 0.  0.
        1    1    3    3  502    0  0.85747172057E+03  0.41280424012E+03  0.11575840587E+04  0.14985546187E+04  0.50400001928E-02 0.  1.
       -1    1    3    3    0  502 -0.85747172057E+03 -0.41280424012E+03 -0.11706219437E+04  0.15086486759E+04  0.50400001928E-02 0. -1.
</event>
<event>
 5   0  0.3374790E-06  0.3086848E+04  0.7818609E-02  0.8219357E-01
        2   -1    0    0  501    0  0.00000000000E+00  0.00000000000E+00  0.24026839126E+04  0.24026839126E+04  0.25500000920E-02 0. -1.
       -2   -1    0    0    0  501  0.00000000000E+00  0.00000000000E+00 -0.99145705691E+03  0.99145705691E+03  0.25500000920E-02 0.  1.
    10030    2    1    2    0    0  0.00000000000E+00  0.00000000000E+00  0.14112268557E+04  0.33941409695E+04  0.30868481794E+04 0.  0.
        2    1    3    3  502    0 -0.53350135502E+03  0.58829998633E+03 -0.74955046337E+03  0.10920377589E+04  0.25500000920E-02 0.  1.
       -2    1    3    3    0  502  0.53350135502E+03 -0.58829998633E+03  0.21607773190E+04  0.23021032106E+04  0.25500000920E-02 0. -1.
</event>
<event>
 5   0  0.3374790E-06  0.3081954E+04  0.7818609E-02  0.8220708E-01
        2   -1    0    0  501    0  0.00000000000E+00  0.00000000000E+00  0.19091886333E+04  0.19091886334E+04  0.25500000920E-02 0. -1.
       -2   -1    0    0    0  501  0.00000000000E+00  0.00000000000E+00 -0.12437800628E+04  0.12437800628E+04  0.25500000920E-02 0.  1.
    10030    2    1    2    0    0  0.00000000000E+00  0.00000000000E+00  0.66540857056E+03  0.31529686961E+04  0.30819544178E+04 0.  0.
        2    1    3    3  502    0 -0.64163414962E+03  0.16197753509E+03 -0.10910083613E+04  0.12760212962E+04  0.25500000920E-02 0.  1.
       -2    1    3    3    0  502  0.64163414962E+03 -0.16197753509E+03  0.17564169318E+04  0.18769474000E+04  0.25500000920E-02 0. -1.
</event>
<event>
 5   0  0.1235960E-06  0.3111468E+04  0.7818609E-02  0.8212598E-01
       -1   -1    0    0    0  501  0.00000000000E+00  0.00000000000E+00  0.17555168590E+04  0.17555168590E+04  0.50400001928E-02 0. -1.
        1   -1    0    0  501    0  0.00000000000E+00  0.00000000000E+00 -0.13786871900E+04  0.13786871900E+04  0.50400001928E-02 0.  1.
    10030    2    1    2    0    0  0.00000000000E+00  0.00000000000E+00  0.37682966902E+03  0.31342040490E+04  0.31114682099E+04 0.  0.
        4    1    3    3  502    0 -0.24026988705E+03  0.33947200486E+03 -0.13216511204E+04  0.13855447152E+04  0.12699999809E+01 0.  1.
       -4    1    3    3    0  502  0.24026988705E+03 -0.33947200486E+03  0.16984807895E+04  0.17486593338E+04  0.12699999809E+01 0. -1.
</event>
<event>
 5   0  0.1198763E-06  0.3103487E+04  0.7818609E-02  0.8214782E-01
        1   -1    0    0  501    0  0.00000000000E+00  0.00000000000E+00  0.14727334348E+04  0.14727334348E+04  0.50400001928E-02 0.  1.
       -1   -1    0    0    0  501  0.00000000000E+00  0.00000000000E+00 -0.16349923181E+04  0.16349923181E+04  0.50400001928E-02 0. -1.
    10030    2    1    2    0    0  0.00000000000E+00  0.00000000000E+00 -0.16225888329E+03  0.31077257530E+04  0.31034869760E+04 0.  0.
        1    1    3    3  502    0 -0.14443449759E+04  0.38163176891E+03  0.33912535300E+03  0.15319207622E+04  0.50400001928E-02 0.  1.
       -1    1    3    3    0  502  0.14443449759E+04 -0.38163176891E+03 -0.50138423629E+03  0.15758049908E+04  0.50400001928E-02 0. -1.
</event>
<event>
 5   0  0.3441897E-06  0.3102097E+04  0.7818609E-02  0.8215163E-01
        2   -1    0    0  501    0  0.00000000000E+00  0.00000000000E+00  0.14526320455E+04  0.14526320455E+04  0.25500000920E-02 0. -1.
       -2   -1    0    0    0  501  0.00000000000E+00  0.00000000000E+00 -0.16561325108E+04  0.16561325108E+04  0.25500000920E-02 0.  1.
    10030    2    1    2    0    0  0.00000000000E+00  0.00000000000E+00 -0.20350046522E+03  0.31087645563E+04  0.31020968114E+04 0.  0.
        5    1    3    3  502    0  0.10605238780E+04  0.11354275980E+03  0.10267813675E+04  0.14805083319E+04  0.46999998093E+01 0. -1.
       -5    1    3    3    0  502 -0.10605238780E+04 -0.11354275980E+03 -0.12302818328E+04  0.16282562244E+04  0.46999998093E+01 0.  1.
</event>
<event>
 5   0  0.1250276E-06  0.3101164E+04  0.7818609E-02  0.8215419E-01
        1   -1    0    0  501    0  0.00000000000E+00  0.00000000000E+00  0.16631012382E+04  0.16631012382E+04  0.50400001928E-02 0.  1.
       -1   -1    0    0    0  501  0.00000000000E+00  0.00000000000E+00 -0.14456754870E+04  0.14456754871E+04  0.50400001928E-02 0. -1.
    10030    2    1    2    0    0  0.00000000000E+00  0.00000000000E+00  0.21742575119E+03  0.31087767253E+04  0.31011640993E+04 0.  0.
        5    1    3    3  502    0  0.78049893317E+03 -0.10693647237E+03 -0.12301061294E+04  0.14607522628E+04  0.46999998093E+01 0. -1.
       -5    1    3    3    0  502 -0.78049893317E+03  0.10693647237E+03  0.14475318805E+04  0.16480244625E+04  0.46999998093E+01 0.  1.
</event>
<event>
 5   0  0.3374790E-06  0.3075864E+04  0.7818609E-02  0.8222393E-01
        2   -1    0    0  501    0  0.00000000000E+00  0.00000000000E+00  0.19841449492E+04  0.19841449492E+04  0.25500000920E-02 0. -1.
       -2   -1    0    0    0  501  0.00000000000E+00  0.00000000000E+00 -0.11920677052E+04  0.11920677052E+04  0.25500000920E-02 0.  1.
    10030    2    1    2    0    0  0.00000000000E+00  0.00000000000E+00  0.79207724397E+03  0.31762126544E+04  0.30758641819E+04 0.  0.
        2    1    3    3  502    0 -0.62649305722E+03 -0.40479151012E+03 -0.99278771450E+03  0.12417637309E+04  0.25500000920E-02 0.  1.
       -2    1    3    3    0  502  0.62649305722E+03  0.40479151012E+03  0.17848649585E+04  0.19344489234E+04  0.25500000920E-02 0. -1.
</event>
<event>
 5   0  0.3445959E-06  0.3201412E+04  0.7818609E-02  0.8188444E-01
       -2   -1    0    0    0  501  0.00000000000E+00  0.00000000000E+00  0.11084581000E+04  0.11084581000E+04  0.25500000920E-02 0.  1.
        2   -1    0    0  501    0  0.00000000000E+00  0.00000000000E+00 -0.23115527168E+04  0.23115527168E+04  0.25500000920E-02 0. -1.
    10030    2    1    2    0    0  0.00000000000E+00  0.00000000000E+00 -0.12030946168E+04  0.34200108168E+04  0.32014117714E+04 0.  0.
        4    1    3    3  502    0 -0.14161280635E+03 -0.93496129331E+03 -0.19812661441E+04  0.21953641961E+04  0.12699999809E+01 0. -1.
       -4    1    3    3    0  502  0.14161280635E+03  0.93496129331E+03  0.77817152722E+03  0.12246466207E+04  0.12699999809E+01 0.  1.
</event>
<event>
 5   0  0.1235960E-06  0.3141866E+04  0.7818609E-02  0.8204341E-01
        1   -1    0    0  501    0  0.00000000000E+00  0.00000000000E+00  0.20322761816E+04  0.20322761816E+04  0.50400001928E-02 0.  1.
       -1   -1    0    0    0  501  0.00000000000E+00  0.00000000000E+00 -0.12143186523E+04  0.12143186523E+04  0.50400001928E-02 0. -1.
    10030    2    1    2    0    0  0.00000000000E+00  0.00000000000E+00  0.81795752926E+03  0.32465948339E+04  0.31418662441E+04 0.  0.
        4    1    3    3  502    0  0.40241033348E+03 -0.93291849471E+03 -0.82910723679E+03  0.13113700535E+04  0.12699999809E+01 0. -1.
       -4    1    3    3    0  502 -0.40241033348E+03  0.93291849471E+03  0.16470647661E+04  0.19352247804E+04  0.12699999809E+01 0.  1.
</event>
<event>
 5   0  0.3441897E-06  0.3098262E+04  0.7818609E-02  0.8216215E-01
       -2   -1    0    0    0  501  0.00000000000E+00  0.00000000000E+00  0.15475130669E+04  0.15475130669E+04  0.25500000920E-02 0.  1.
        2   -1    0    0  501    0  0.00000000000E+00  0.00000000000E+00 -0.15507510518E+04  0.15507510518E+04  0.25500000920E-02 0. -1.
    10030    2    1    2    0    0  0.00000000000E+00  0.00000000000E+00 -0.32379848763E+01  0.30982641186E+04  0.30982624266E+04 0.  0.
        5    1    3    3  502    0  0.45783630468E+03 -0.13108930186E+02 -0.14814844904E+04  0.15506786615E+04  0.46999998093E+01 0. -1.
       -5    1    3    3    0  502 -0.45783630468E+03  0.13108930186E+02  0.14782465055E+04  0.15475854571E+04  0.46999998093E+01 0.  1.
</event>
<event>
 5   0  0.3340899E-06  0.3104045E+04  0.7818609E-02  0.8214629E-01
        2   -1    0    0  501    0  0.00000000000E+00  0.00000000000E+00  0.14624986049E+04  0.14624986049E+04  0.25500000920E-02 0.  1.
       -2   -1    0    0    0  501  0.00000000000E+00  0.00000000000E+00 -0.16470259984E+04  0.16470259984E+04  0.25500000920E-02 0. -1.
    10030    2    1    2    0    0  0.00000000000E+00  0.00000000000E+00 -0.18452739342E+03  0.31095246033E+04  0.31040446034E+04 0.  0.
        3    1    3    3  502    0 -0.10045445372E+04  0.23184395031E+03  0.10699188683E+04  0.14857953222E+04  0.10100000352E+00 0.  1.
       -3    1    3    3    0  502  0.10045445372E+04 -0.23184395031E+03 -0.12544462617E+04  0.16237292811E+04  0.10100000352E+00 0. -1.
</event>
<event>
 5   0  0.3445959E-06  0.3156062E+04  0.7818609E-02  0.8200518E-01
        2   -1    0    0  501    0  0.00000000000E+00  0.00000000000E+00  0.17772480435E+04  0.17772480435E+04  0.25500000920E-02 0. -1.
       -2   -1    0    0    0  501  0.00000000000E+00  0.00000000000E+00 -0.14011445250E+04  0.14011445250E+04  0.25500000920E-02 0.  1.
    10030    2    1    2    0    0  0.00000000000E+00  0.00000000000E+00  0.37610351850E+03  0.31783925685E+04  0.31560617013E+04 0.  0.
        4    1    3    3  502    0 -0.10554987086E+04 -0.58513938615E+03 -0.83585940261E+03  0.14680354829E+04  0.12699999809E+01 0.  1.
       -4    1    3    3    0  502  0.10554987086E+04  0.58513938615E+03  0.12119629211E+04  0.17103570856E+04  0.12699999809E+01 0. -1.
</event>
<event>
 5   0  0.1171915E-06  0.3100147E+04  0.7818609E-02  0.8215698E-01
        1   -1    0    0  501    0  0.00000000000E+00  0.00000000000E+00  0.16667446340E+04  0.16667446340E+04  0.50400001928E-02 0.  1.
       -1   -1    0    0    0  501  0.00000000000E+00  0.00000000000E+00 -0.14415694197E+04  0.14415694197E+04  0.50400001928E-02 0. -1.
    10030    2    1    2    0    0  0.00000000000E+00  0.00000000000E+00  0.22517521431E+03  0.31083140537E+04  0.31001471544E+04 0.  0.
        2    1    3    3  502    0  0.17665587747E+02 -0.15099082425E+04  0.46364298757E+03  0.15795884888E+04  0.25500000920E-02 0.  1.
       -2    1    3    3    0  502 -0.17665587747E+02  0.15099082425E+04 -0.23846777325E+03  0.15287255649E+04  0.25500000920E-02 0. -1.
</event>
<event>
 5   0  0.3441897E-06  0.3160745E+04  0.7818609E-02  0.8199262E-01
       -2   -1    0    0    0  501  0.00000000000E+00  0.00000000000E+00  0.17355451111E+04  0.17355451111E+04  0.25500000920E-02 0. -1.
        2   -1    0    0  501    0  0.00000000000E+00  0.00000000000E+00 -0.14390740461E+04  0.14390740461E+04  0.25500000920E-02 0.  1.
    10030    2    1    2    0    0  0.00000000000E+00  0.00000000000E+00  0.29647106501E+03  0.31746191573E+04  0.31607454344E+04 0.  0.
        5    1    3    3  502    0 -0.24060858338E+03 -0.61933359502E+03  0.15884364852E+04  0.17218069432E+04  0.46999998093E+01 0. -1.
       -5    1    3    3    0  502  0.24060858338E+03  0.61933359502E+03 -0.12919654202E+04  0.14528122140E+04  0.46999998093E+01 0.  1.
</event>
<event>
 5   0  0.1250276E-06  0.3119638E+04  0.7818609E-02  0.8210369E-01
        1   -1    0    0  501    0  0.00000000000E+00  0.00000000000E+00  0.13900745297E+04  0.13900745297E+04  0.50400001928E-02 0. -1.
       -1   -1    0    0    0  501  0.00000000000E+00  0.00000000000E+00 -0.17502915304E+04  0.17502915304E+04  0.50400001928E-02 0.  1.
    10030    2    1    2    0    0  0.00000000000E+00  0.00000000000E+00 -0.36021700076E+03  0.31403660601E+04  0.31196382328E+04 0.  0.
        5    1    3    3  502    0  0.18845252971E+02  0.91539635436E+03  0.10910995115E+04  0.14243685840E+04  0.46999998093E+01 0. -1.
       -5    1    3    3    0  502 -0.18845252971E+02 -0.91539635436E+03 -0.14513165123E+04  0.17159974761E+04  0.46999998093E+01 0.  1.
</event>
<event>
 5   0  0.3445959E-06  0.3082455E+04  0.7818609E-02  0.8220569E-01
        2   -1    0    0  501    0  0.00000000000E+00  0.00000000000E+00  0.26181346641E+04  0.26181346641E+04  0.25500000920E-02 0. -1.
       -2   -1    0    0    0  501  0.00000000000E+00  0.00000000000E+00 -0.90728052396E+03  0.90728052397E+03  0.25500000920E-02 0.  1.
    10030    2    1    2    0    0  0.00000000000E+00  0.00000000000E+00  0.17108541401E+04  0.35254151880E+04  0.30824552485E+04 0.  0.
        4    1    3    3  502    0  0.35255949765E+02 -0.50129674308E+02  0.26167399130E+04  0.26174578032E+04  0.12699999809E+01 0. -1.
       -4    1    3    3    0  502 -0.35255949765E+02  0.50129674308E+02 -0.90588577291E+03  0.90795738484E+03  0.12699999809E+01 0.  1.
</event>
<event>
 5   0  0.1198763E-06  0.3173056E+04  0.7818609E-02  0.8195970E-01
        1   -1    0    0  501    0  0.00000000000E+00  0.00000000000E+00  0.22377275850E+04  0.22377275850E+04  0.50400001928E-02 0.  1.
       -1   -1    0    0    0  501  0.00000000000E+00  0.00000000000E+00 -0.11248332988E+04  0.11248332989E+04  0.50400001928E-02 0. -1.
    10030    2    1    2    0    0  0.00000000000E+00  0.00000000000E+00  0.11128942861E+04  0.33625608838E+04  0.31730556259E+04 0.  0.
        1    1    3    3  502    0 -0.30248405037E+03  0.65292890198E+03 -0.94194975387E+03  0.11853615864E+04  0.50400001928E-02 0. -1.
       -1    1    3    3    0  502  0.30248405037E+03 -0.65292890198E+03  0.20548440400E+04  0.21771992974E+04  0.50400001928E-02 0.  1.
</event>
<event>
 5   0  0.3441897E-06  0.3092835E+04  0.7818609E-02  0.8217707E-01
       -2   -1    0    0    0  501  0.00000000000E+00  0.00000000000E+00  0.15977282022E+04  0.15977282022E+04  0.25500000920E-02 0. -1.
        2   -1    0    0  501    0  0.00000000000E+00  0.00000000000E+00 -0.14967543555E+04  0.14967543555E+04  0.25500000920E-02 0.  1.
    10030    2    1    2    0    0  0.00000000000E+00  0.00000000000E+00  0.10097384667E+03  0.30944825577E+04  0.30928347163E+04 0.  0.
        5    1    3    3  502    0  0.17666829818E+03 -0.14171511675E+04 -0.54300315127E+03  0.15278755288E+04  0.46999998093E+01 0.  1.
       -5    1    3    3    0  502 -0.17666829818E+03  0.14171511675E+04  0.64397699794E+03  0.15666070289E+04  0.46999998093E+01 0. -1.
</event>
<event>
 5   0  0.1250276E-06  0.3103938E+04  0.7818609E-02  0.8214658E-01
        1   -1    0    0  501    0  0.00000000000E+00  0.00000000000E+00  0.13200302496E+04  0.13200302496E+04  0.50400001928E-02 0.  1.
       -1   -1    0    0    0  501  0.00000000000E+00  0.00000000000E+00 -0.18246616122E+04  0.18246616122E+04  0.50400001928E-02 0. -1.
    10030    2    1    2    0    0  0.00000000000E+00  0.00000000000E+00 -0.50463136263E+03  0.31446918618E+04  0.31039384810E+04 0.  0.
        5    1    3    3  502    0 -0.80941587730E+03 -0.53355380843E+03 -0.14801487654E+04  0.17693773443E+04  0.46999998093E+01 0. -1.
       -5    1    3    3    0  502  0.80941587730E+03  0.53355380843E+03  0.97551740277E+03  0.13753145175E+04  0.46999998093E+01 0.  1.
</event>
<event>
 5   0  0.1250276E-06  0.3294291E+04  0.7818609E-02  0.8164350E-01
       -1   -1    0    0    0  501  0.00000000000E+00  0.00000000000E+00  0.15863891645E+04  0.15863891645E+04  0.50400001928E-02 0. -1.
        1   -1    0    0  501    0  0.00000000000E+00  0.00000000000E+00 -0.17102282158E+04  0.17102282158E+04  0.50400001928E-02 0.  1.
    10030    2    1    2    0    0  0.00000000000E+00  0.00000000000E+00 -0.12383905130E+03  0.32966173803E+04  0.32942905218E+04 0.  0.
        5    1    3    3  502    0  0.11194977366E+04 -0.11782729895E+04  0.20559493941E+03  0.16382593779E+04  0.46999998093E+01 0. -1.
       -5    1    3    3    0  502 -0.11194977366E+04  0.11782729895E+04 -0.32943399071E+03  0.16583580025E+04  0.46999998093E+01 0.  1.
</event>
<event>
 5   0  0.3441897E-06  0.3072737E+04  0.7818609E-02  0.8223260E-01
        2   -1    0    0  501    0  0.00000000000E+00  0.00000000000E+00  0.13223048613E+04  0.13223048613E+04  0.25500000920E-02 0. -1.
       -2   -1    0    0    0  501  0.00000000000E+00  0.00000000000E+00 -0.17850862299E+04  0.17850862299E+04  0.25500000920E-02 0.  1.
    10030    2    1    2    0    0  0.00000000000E+00  0.00000000000E+00 -0.46278136866E+03  0.31073910912E+04  0.30727370207E+04 0.  0.
        5    1    3    3  502    0 -0.58389095280E+03  0.16412671157E+03  0.11961024739E+04  0.13411000859E+04  0.46999998093E+01 0. -1.
       -5    1    3    3    0  502  0.58389095280E+03 -0.16412671157E+03 -0.16588838426E+04  0.17662910053E+04  0.46999998093E+01 0.  1.
</event>
<event>
 5   0  0.1235960E-06  0.3092313E+04  0.7818609E-02  0.8217851E-01
        1   -1    0    0  501    0  0.00000000000E+00  0.00000000000E+00  0.18737702403E+04  0.18737702404E+04  0.50400001928E-02 0.  1.
       -1   -1    0    0    0  501  0.00000000000E+00  0.00000000000E+00 -0.12758233237E+04  0.12758233237E+04  0.50400001928E-02 0. -1.
    10030    2    1    2    0    0  0.00000000000E+00  0.00000000000E+00  0.59794691667E+03  0.31495935640E+04  0.30923129052E+04 0.  0.
        4    1    3    3  502    0  0.33698332913E+03  0.77957918550E+03 -0.10169718737E+04  0.13249659903E+04  0.12699999809E+01 0. -1.
       -4    1    3    3    0  502 -0.33698332913E+03 -0.77957918550E+03  0.16149187904E+04  0.18246275738E+04  0.12699999809E+01 0.  1.
</event>
<event>
 5   0  0.1235960E-06  0.3098433E+04  0.7818609E-02  0.8216168E-01
       -1   -1    0    0    0  501  0.00000000000E+00  0.00000000000E+00  0.20855473127E+04  0.20855473127E+04  0.50400001928E-02 0. -1.
        1   -1    0    0  501    0  0.00000000000E+00  0.00000000000E+00 -0.11508114020E+04  0.11508114020E+04  0.50400001928E-02 0.  1.
    10030    2    1    2    0    0  0.00000000000E+00  0.00000000000E+00  0.93473591071E+03  0.32363587147E+04  0.30984329115E+04 0.  0.
        4    1    3    3  502    0  0.13632506012E+04 -0.19139893865E+03  0.12096235428E+04  0.18325600900E+04  0.12699999809E+01 0. -1.
       -4    1    3    3    0  502 -0.13632506012E+04  0.19139893865E+03 -0.27488763210E+03  0.14037986246E+04  0.12699999809E+01 0.  1.
</event>
<event>
 5   0  0.1250276E-06  0.3220318E+04  0.7818609E-02  0.8183472E-01
        1   -1    0    0  501    0  0.00000000000E+00  0.00000000000E+00  0.14268191721E+04  0.14268191721E+04  0.50400001928E-02 0.  1.
       -1   -1    0    0    0  501  0.00000000000E+00  0.00000000000E+00 -0.18170577216E+04  0.18170577216E+04  0.50400001928E-02 0. -1.
    10030    2    1    2    0    0  0.00000000000E+00  0.00000000000E+00 -0.39023854943E+03  0.32438768937E+04  0.32203184899E+04 0.  0.
        5    1    3    3  502    0 -0.76429468807E+03  0.48010585170E+03  0.11480304252E+04  0.14603574721E+04  0.46999998093E+01 0.  1.
       -5    1    3    3    0  502  0.76429468807E+03 -0.48010585170E+03 -0.15382689746E+04  0.17835194216E+04  0.46999998093E+01 0. -1.
</event>
<event>
 5   0  0.1235960E-06  0.3079989E+04  0.7818609E-02  0.8221251E-01
        1   -1    0    0  501    0  0.00000000000E+00  0.00000000000E+00  0.75563973823E+03  0.75563973824E+03  0.50400001928E-02 0.  1.
       -1   -1    0    0    0  501  0.00000000000E+00  0.00000000000E+00 -0.31385107242E+04  0.31385107242E+04  0.50400001928E-02 0. -1.
    10030    2    1    2    0    0  0.00000000000E+00  0.00000000000E+00 -0.23828709860E+04  0.38941504625E+04  0.30799892351E+04 0.  0.
        4    1    3    3  502    0 -0.98038089466E+03  0.11696326024E+04 -0.14517625089E+04  0.21063720276E+04  0.12699999809E+01 0. -1.
       -4    1    3    3    0  502  0.98038089466E+03 -0.11696326024E+04 -0.93110847705E+03  0.17877784349E+04  0.12699999809E+01 0.  1.
</event>
<event>
 5   0  0.1235960E-06  0.3097739E+04  0.7818609E-02  0.8216359E-01
        1   -1    0    0  501    0  0.00000000000E+00  0.00000000000E+00  0.20386762965E+04  0.20386762965E+04  0.50400001928E-02 0.  1.
       -1   -1    0    0    0  501  0.00000000000E+00  0.00000000000E+00 -0.11767423836E+04  0.11767423836E+04  0.50400001928E-02 0. -1.
    10030    2    1    2    0    0  0.00000000000E+00  0.00000000000E+00  0.86193391288E+03  0.32154186801E+04  0.30977390494E+04 0.  0.
        4    1    3    3  502    0  0.10454027979E+04 -0.30682498124E+03 -0.71175773486E+03  0.13013874385E+04  0.12699999809E+01 0. -1.
       -4    1    3    3    0  502 -0.10454027979E+04  0.30682498124E+03  0.15736916477E+04  0.19140312417E+04  0.12699999809E+01 0.  1.
</event>
<event>
 5   0  0.1235960E-06  0.3113068E+04  0.7818609E-02  0.8212161E-01
        1   -1    0    0  501    0  0.00000000000E+00  0.00000000000E+00  0.20023596728E+04  0.20023596729E+04  0.50400001928E-02 0. -1.
       -1   -1    0    0    0  501  0.00000000000E+00  0.00000000000E+00 -0.12099713973E+04  0.12099713974E+04  0.50400001928E-02 0.  1.
    10030    2    1    2    0    0  0.00000000000E+00  0.00000000000E+00  0.79238827550E+03  0.32123310702E+04  0.31130678961E+04 0.  0.
        4    1    3    3  502    0  0.29927620502E+03  0.13586373137E+04 -0.32415888512E+03  0.14284754786E+04  0.12699999809E+01 0.  1.
       -4    1    3    3    0  502 -0.29927620502E+03 -0.13586373137E+04  0.11165471606E+04  0.17838555917E+04  0.12699999809E+01 0. -1.
</event>
<event>
 5   0  0.1198763E-06  0.3094419E+04  0.7818609E-02  0.8217271E-01
        1   -1    0    0  501    0  0.00000000000E+00  0.00000000000E+00  0.18511931273E+04  0.18511931273E+04  0.50400001928E-02 0. -1.
       -1   -1    0    0    0  501  0.00000000000E+00  0.00000000000E+00 -0.12931432830E+04  0.12931432830E+04  0.50400001928E-02 0.  1.
    10030    2    1    2    0    0  0.00000000000E+00  0.00000000000E+00  0.55804984432E+03  0.31443364102E+04  0.30944194661E+04 0.  0.
        1    1    3    3  502    0  0.12100549591E+04  0.99499931913E+02  0.12535179796E+04  0.17451190692E+04  0.50400001928E-02 0. -1.
       -1    1    3    3    0  502 -0.12100549591E+04 -0.99499931913E+02 -0.69546813523E+03  0.13992173411E+04  0.50400001928E-02 0.  1.
</event>
<event>
 5   0  0.3374790E-06  0.3127311E+04  0.7818609E-02  0.8208282E-01
        2   -1    0    0  501    0  0.00000000000E+00  0.00000000000E+00  0.15962244952E+04  0.15962244952E+04  0.25500000920E-02 0. -1.
       -2   -1    0    0    0  501  0.00000000000E+00  0.00000000000E+00 -0.15317512354E+04  0.15317512354E+04  0.25500000920E-02 0.  1.
    10030    2    1    2    0    0  0.00000000000E+00  0.00000000000E+00  0.64473259826E+02  0.31279757306E+04  0.31273112045E+04 0.  0.
        2    1    3    3  502    0  0.12369881572E+04  0.50675629891E+03  0.84362857949E+03  0.15807121268E+04  0.25500000920E-02 0. -1.
       -2    1    3    3    0  502 -0.12369881572E+04 -0.50675629891E+03 -0.77915531966E+03  0.15472636038E+04  0.25500000920E-02 0.  1.
</event>
<event>
 5   0  0.1198763E-06  0.3124771E+04  0.7818609E-02  0.8208972E-01
        1   -1    0    0  501    0  0.00000000000E+00  0.00000000000E+00  0.13272538413E+04  0.13272538413E+04  0.50400001928E-02 0. -1.
       -1   -1    0    0    0  501  0.00000000000E+00  0.00000000000E+00 -0.18391722652E+04  0.18391722652E+04  0.50400001928E-02 0.  1.
    10030    2    1    2    0    0  0.00000000000E+00  0.00000000000E+00 -0.51191842390E+03  0.31664261065E+04  0.31247710020E+04 0.  0.
        1    1    3    3  502    0  0.61257094968E+02 -0.32312207717E+03  0.12917811917E+04  0.13329887305E+04  0.50400001928E-02 0. -1.
       -1    1    3    3    0  502 -0.61257094968E+02  0.32312207717E+03 -0.18036996156E+04  0.18334373760E+04  0.50400001928E-02 0.  1.
</event>
<event>
 5   0  0.1198763E-06  0.3041533E+04  0.7818609E-02  0.8231969E-01
        1   -1    0    0  501    0  0.00000000000E+00  0.00000000000E+00  0.12392400642E+04  0.12392400642E+04  0.50400001928E-02 0. -1.
       -1   -1    0    0    0  501  0.00000000000E+00  0.00000000000E+00 -0.18662497568E+04  0.18662497569E+04  0.50400001928E-02 0.  1.
    10030    2    1    2    0    0  0.00000000000E+00  0.00000000000E+00 -0.62700969264E+03  0.31054898211E+04  0.30415334741E+04 0.  0.
        1    1    3    3  502    0 -0.10743935320E+04  0.26822226291E+02 -0.14120900828E+04  0.17745532664E+04  0.50400001928E-02 0.  1.
       -1    1    3    3    0  502  0.10743935320E+04 -0.26822226291E+02  0.78508039017E+03  0.13309365546E+04  0.50400001928E-02 0. -1.
</event>
<event>
 5   0  0.3441897E-06  0.3075648E+04  0.7818609E-02  0.8222453E-01
       -2   -1    0    0    0  501  0.00000000000E+00  0.00000000000E+00  0.20505351616E+04  0.20505351616E+04  0.25500000920E-02 0. -1.
        2   -1    0    0  501    0  0.00000000000E+00  0.00000000000E+00 -0.11533096227E+04  0.11533096227E+04  0.25500000920E-02 0.  1.
    10030    2    1    2    0    0  0.00000000000E+00  0.00000000000E+00  0.89722553892E+03  0.32038447844E+04  0.30756475309E+04 0.  0.
        5    1    3    3  502    0  0.23873361883E+03  0.65345947746E+03 -0.98000181808E+03  0.12018438679E+04  0.46999998093E+01 0.  1.
       -5    1    3    3    0  502 -0.23873361883E+03 -0.65345947746E+03  0.18772273570E+04  0.20020009164E+04  0.46999998093E+01 0. -1.
</event>
<event>
 5   0  0.1171915E-06  0.2884981E+04  0.7818609E-02  0.8277360E-01
       -1   -1    0    0    0  501  0.00000000000E+00  0.00000000000E+00  0.18263439699E+04  0.18263439699E+04  0.50400001928E-02 0. -1.
        1   -1    0    0  501    0  0.00000000000E+00  0.00000000000E+00 -0.11393138995E+04  0.11393138995E+04  0.50400001928E-02 0.  1.
    10030    2    1    2    0    0  0.00000000000E+00  0.00000000000E+00  0.68703007035E+03  0.29656578694E+04  0.28849811578E+04 0.  0.
        2    1    3    3  502    0 -0.10319380715E+04  0.24297426092E+03 -0.66202456594E+03  0.12498836749E+04  0.25500000920E-02 0.  1.
       -2    1    3    3    0  502  0.10319380715E+04 -0.24297426092E+03  0.13490546363E+04  0.17157741945E+04  0.25500000920E-02 0. -1.
</event>
<event>
 5   0  0.1211008E-06  0.3095309E+04  0.7818609E-02  0.8217026E-01
        1   -1    0    0  501    0  0.00000000000E+00  0.00000000000E+00  0.12757097183E+04  0.12757097183E+04  0.50400001928E-02 0. -1.
       -1   -1    0    0    0  501  0.00000000000E+00  0.00000000000E+00 -0.18775704801E+04  0.18775704801E+04  0.50400001928E-02 0.  1.
    10030    2    1    2    0    0  0.00000000000E+00  0.00000000000E+00 -0.60186076186E+03  0.31532801984E+04  0.30953092952E+04 0.  0.
        3    1    3    3  502    0 -0.10939202476E+04  0.55167256518E+03  0.66241787770E+03  0.13927675981E+04  0.10100000352E+00 0. -1.
       -3    1    3    3    0  502  0.10939202476E+04 -0.55167256518E+03 -0.12642786396E+04  0.17605126003E+04  0.10100000352E+00 0.  1.
</event>
<event>
 5   0  0.1235960E-06  0.3130357E+04  0.7818609E-02  0.8207456E-01
       -1   -1    0    0    0  501  0.00000000000E+00  0.00000000000E+00  0.12115071671E+04  0.12115071671E+04  0.50400001928E-02 0.  1.
        1   -1    0    0  501    0  0.00000000000E+00  0.00000000000E+00 -0.20220965468E+04  0.20220965468E+04  0.50400001928E-02 0. -1.
    10030    2    1    2    0    0  0.00000000000E+00  0.00000000000E+00 -0.81058937976E+03  0.32336037139E+04  0.31303574614E+04 0.  0.
        4    1    3    3  502    0 -0.51396723769E+03  0.70963612413E+03  0.93441483939E+03  0.12809677806E+04  0.12699999809E+01 0.  1.
       -4    1    3    3    0  502  0.51396723769E+03 -0.70963612413E+03 -0.17450042192E+04  0.19526359333E+04  0.12699999809E+01 0. -1.
</event>
<event>
 5   0  0.1235960E-06  0.3124401E+04  0.7818609E-02  0.8209073E-01
       -1   -1    0    0    0  501  0.00000000000E+00  0.00000000000E+00  0.11131100818E+04  0.11131100818E+04  0.50400001928E-02 0. -1.
        1   -1    0    0  501    0  0.00000000000E+00  0.00000000000E+00 -0.21924794029E+04  0.21924794029E+04  0.50400001928E-02 0.  1.
    10030    2    1    2    0    0  0.00000000000E+00  0.00000000000E+00 -0.10793693211E+04  0.33055894847E+04  0.31244013362E+04 0.  0.
        4    1    3    3  502    0  0.41620318343E+03 -0.51701776558E+03  0.95651738881E+03  0.11642420658E+04  0.12699999809E+01 0. -1.
       -4    1    3    3    0  502 -0.41620318343E+03  0.51701776558E+03 -0.20358867099E+04  0.21413474189E+04  0.12699999809E+01 0.  1.
</event>
<event>
 5   0  0.3445959E-06  0.3110530E+04  0.7818609E-02  0.8212854E-01
       -2   -1    0    0    0  501  0.00000000000E+00  0.00000000000E+00  0.15666194164E+04  0.15666194164E+04  0.25500000920E-02 0. -1.
        2   -1    0    0  501    0  0.00000000000E+00  0.00000000000E+00 -0.15439925973E+04  0.15439925973E+04  0.25500000920E-02 0.  1.
    10030    2    1    2    0    0  0.00000000000E+00  0.00000000000E+00  0.22626819011E+02  0.31106120137E+04  0.31105297181E+04 0.  0.
        4    1    3    3  502    0  0.48927343384E+03  0.13720625826E+03  0.14812615202E+04  0.15659985168E+04  0.12699999809E+01 0. -1.
       -4    1    3    3    0  502 -0.48927343384E+03 -0.13720625826E+03 -0.14586347012E+04  0.15446134969E+04  0.12699999809E+01 0.  1.
</event>
<event>
 5   0  0.1211008E-06  0.3095654E+04  0.7818609E-02  0.8216932E-01
       -1   -1    0    0    0  501  0.00000000000E+00  0.00000000000E+00  0.17041749544E+04  0.17041749544E+04  0.50400001928E-02 0. -1.
        1   -1    0    0  501    0  0.00000000000E+00  0.00000000000E+00 -0.14058227116E+04  0.14058227117E+04  0.50400001928E-02 0.  1.
    10030    2    1    2    0    0  0.00000000000E+00  0.00000000000E+00  0.29835224274E+03  0.31099976660E+04  0.30956536341E+04 0.  0.
        3    1    3    3  502    0  0.44784977077E+03  0.13854970132E+04  0.67658145052E+03  0.16055945503E+04  0.10100000352E+00 0. -1.
       -3    1    3    3    0  502 -0.44784977077E+03 -0.13854970132E+04 -0.37822920778E+03  0.15044031157E+04  0.10100000352E+00 0.  1.
</event>
<event>
 5   0  0.3374790E-06  0.3092330E+04  0.7818609E-02  0.8217846E-01
        2   -1    0    0  501    0  0.00000000000E+00  0.00000000000E+00  0.15517270969E+04  0.15517270969E+04  0.25500000920E-02 0.  1.
       -2   -1    0    0    0  501  0.00000000000E+00  0.00000000000E+00 -0.15406226426E+04  0.15406226426E+04  0.25500000920E-02 0. -1.
    10030    2    1    2    0    0  0.00000000000E+00  0.00000000000E+00  0.11104454304E+02  0.30923497395E+04  0.30923298017E+04 0.  0.
        2    1    3    3  502    0 -0.48639556936E+03 -0.10648545847E+04  0.10155735729E+04  0.15498017997E+04  0.25500000920E-02 0.  1.
       -2    1    3    3    0  502  0.48639556936E+03  0.10648545847E+04 -0.10044691186E+04  0.15425479398E+04  0.25500000920E-02 0. -1.
</event>
<event>
 5   0  0.3441897E-06  0.3111017E+04  0.7818609E-02  0.8212721E-01
        2   -1    0    0  501    0  0.00000000000E+00  0.00000000000E+00  0.27361429823E+04  0.27361429823E+04  0.25500000920E-02 0.  1.
       -2   -1    0    0    0  501  0.00000000000E+00  0.00000000000E+00 -0.88431296809E+03  0.88431296809E+03  0.25500000920E-02 0. -1.
    10030    2    1    2    0    0  0.00000000000E+00  0.00000000000E+00  0.18518300142E+04  0.36204559504E+04  0.31110170181E+04 0.  0.
        5    1    3    3  502    0 -0.93992767320E+03 -0.58998493577E+03  0.21943730772E+04  0.24590326446E+04  0.46999998093E+01 0.  1.
       -5    1    3    3    0  502  0.93992767320E+03  0.58998493577E+03 -0.34254306297E+03  0.11614233058E+04  0.46999998093E+01 0. -1.
</event>
<event>
 5   0  0.3340899E-06  0.3058539E+04  0.7818609E-02  0.8227210E-01
       -2   -1    0    0    0  501  0.00000000000E+00  0.00000000000E+00  0.30235352230E+04  0.30235352230E+04  0.25500000920E-02 0. -1.
        2   -1    0    0  501    0  0.00000000000E+00  0.00000000000E+00 -0.77348683104E+03  0.77348683105E+03  0.25500000920E-02 0.  1.
    10030    2    1    2    0    0  0.00000000000E+00  0.00000000000E+00  0.22500483919E+04  0.37970220540E+04  0.30585386564E+04 0.  0.
        3    1    3    3  502    0 -0.33421522380E+03 -0.94692870736E+03 -0.30684205164E+03  0.10500123083E+04  0.10100000352E+00 0.  1.
       -3    1    3    3    0  502  0.33421522380E+03  0.94692870736E+03  0.25568904436E+04  0.27470097457E+04  0.10100000352E+00 0. -1.
</event>
<event>
 5   0  0.1171915E-06  0.3082732E+04  0.7818609E-02  0.8220493E-01
       -1   -1    0    0    0  501  0.00000000000E+00  0.00000000000E+00  0.16871628665E+04  0.16871628665E+04  0.50400001928E-02 0. -1.
        1   -1    0    0  501    0  0.00000000000E+00  0.00000000000E+00 -0.14081679762E+04  0.14081679762E+04  0.50400001928E-02 0.  1.
    10030    2    1    2    0    0  0.00000000000E+00  0.00000000000E+00  0.27899489035E+03  0.30953308427E+04  0.30827317232E+04 0.  0.
        2    1    3    3  502    0 -0.17112866082E+03 -0.90145692195E+03  0.13830660306E+04  0.16597533689E+04  0.25500000920E-02 0. -1.
       -2    1    3    3    0  502  0.17112866082E+03  0.90145692195E+03 -0.11040711402E+04  0.14355774738E+04  0.25500000920E-02 0.  1.
</event>
<event>
 5   0  0.3340899E-06  0.3114813E+04  0.7818609E-02  0.8211684E-01
       -2   -1    0    0    0  501  0.00000000000E+00  0.00000000000E+00  0.10374274362E+04  0.10374274362E+04  0.25500000920E-02 0. -1.
        2   -1    0    0  501    0  0.00000000000E+00  0.00000000000E+00 -0.23380097969E+04  0.23380097969E+04  0.25500000920E-02 0.  1.
    10030    2    1    2    0    0  0.00000000000E+00  0.00000000000E+00 -0.13005823606E+04  0.33754372331E+04  0.31148133231E+04 0.  0.
        3    1    3    3  502    0 -0.96252570050E+03  0.79939811389E+03 -0.16552607282E+04  0.20749412418E+04  0.10100000352E+00 0.  1.
       -3    1    3    3    0  502  0.96252570050E+03 -0.79939811389E+03  0.35467836755E+03  0.13004959912E+04  0.10100000352E+00 0. -1.
</event>
<event>
 5   0  0.1250276E-06  0.3123099E+04  0.7818609E-02  0.8209427E-01
        1   -1    0    0  501    0  0.00000000000E+00  0.00000000000E+00  0.18370475547E+04  0.18370475547E+04  0.50400001928E-02 0. -1.
       -1   -1    0    0    0  501  0.00000000000E+00  0.00000000000E+00 -0.13273675013E+04  0.13273675013E+04  0.50400001928E-02 0.  1.
    10030    2    1    2    0    0  0.00000000000E+00  0.00000000000E+00  0.50968005331E+03  0.31644150560E+04  0.31230992443E+04 0.  0.
        5    1    3    3  502    0 -0.74534362031E+02  0.17532676640E+03  0.18252210277E+04  0.18351427019E+04  0.46999998093E+01 0. -1.
       -5    1    3    3    0  502  0.74534362031E+02 -0.17532676640E+03 -0.13155409744E+04  0.13292723541E+04  0.46999998093E+01 0.  1.
</event>
<event>
 5   0  0.1211008E-06  0.3117152E+04  0.7818609E-02  0.8211046E-01
        1   -1    0    0  501    0  0.00000000000E+00  0.00000000000E+00  0.12998941068E+04  0.12998941069E+04  0.50400001928E-02 0.  1.
       -1   -1    0    0    0  501  0.00000000000E+00  0.00000000000E+00 -0.18687364864E+04  0.18687364865E+04  0.50400001928E-02 0. -1.
    10030    2    1    2    0    0  0.00000000000E+00  0.00000000000E+00 -0.56884237961E+03  0.31686305933E+04  0.31171522555E+04 0.  0.
        3    1    3    3  502    0 -0.83326250191E+03 -0.87069931662E+03 -0.12890316842E+04  0.17646660846E+04  0.10100000352E+00 0. -1.
       -3    1    3    3    0  502  0.83326250191E+03  0.87069931662E+03  0.72018930460E+03  0.14039645087E+04  0.10100000352E+00 0.  1.
</event>
<event>
 5   0  0.1198763E-06  0.3284795E+04  0.7818609E-02  0.8166775E-01
        1   -1    0    0  501    0  0.00000000000E+00  0.00000000000E+00  0.17389636414E+04  0.17389636414E+04  0.50400001928E-02 0.  1.
       -1   -1    0    0    0  501  0.00000000000E+00  0.00000000000E+00 -0.15511935604E+04  0.15511935604E+04  0.50400001928E-02 0. -1.
    10030    2    1    2    0    0  0.00000000000E+00  0.00000000000E+00  0.18777008102E+03  0.32901572018E+04  0.32847947895E+04 0.  0.
        1    1    3    3  502    0  0.22632442145E+03 -0.11925304591E+04  0.12020896956E+04  0.17083241132E+04  0.50400001928E-02 0.  1.
       -1    1    3    3    0  502 -0.22632442145E+03  0.11925304591E+04 -0.10143196146E+04  0.15818330886E+04  0.50400001928E-02 0. -1.
</event>
<event>
 5   0  0.3445959E-06  0.3105936E+04  0.7818609E-02  0.8214111E-01
        2   -1    0    0  501    0  0.00000000000E+00  0.00000000000E+00  0.11134778379E+04  0.11134778379E+04  0.25500000920E-02 0. -1.
       -2   -1    0    0    0  501  0.00000000000E+00  0.00000000000E+00 -0.21659246523E+04  0.21659246523E+04  0.25500000920E-02 0.  1.
    10030    2    1    2    0    0  0.00000000000E+00  0.00000000000E+00 -0.10524468144E+04  0.32794024903E+04  0.31059356716E+04 0.  0.
        4    1    3    3  502    0 -0.11697642946E+04  0.19972650921E+03  0.53145611212E+03  0.13002639714E+04  0.12699999809E+01 0. -1.
       -4    1    3    3    0  502  0.11697642946E+04 -0.19972650921E+03 -0.15839029265E+04  0.19791385189E+04  0.12699999809E+01 0.  1.
</event>
<event>
 5   0  0.1235960E-06  0.3055829E+04  0.7818609E-02  0.8227966E-01
       -1   -1    0    0    0  501  0.00000000000E+00  0.00000000000E+00  0.24971481090E+04  0.24971481090E+04  0.50400001928E-02 0.  1.
        1   -1    0    0  501    0  0.00000000000E+00  0.00000000000E+00 -0.93487578309E+03  0.93487578311E+03  0.50400001928E-02 0. -1.
    10030    2    1    2    0    0  0.00000000000E+00  0.00000000000E+00  0.15622723259E+04  0.34320238921E+04  0.30558293761E+04 0.  0.
        4    1    3    3  502    0  0.42167365554E+03 -0.34803412342E+03  0.23835173947E+04  0.24454229095E+04  0.12699999809E+01 0.  1.
       -4    1    3    3    0  502 -0.42167365554E+03  0.34803412342E+03 -0.82124506880E+03  0.98660098255E+03  0.12699999809E+01 0. -1.
</event>
<event>
 5   0  0.3441897E-06  0.3107988E+04  0.7818609E-02  0.8213549E-01
       -2   -1    0    0    0  501  0.00000000000E+00  0.00000000000E+00  0.11616449166E+04  0.11616449166E+04  0.25500000920E-02 0. -1.
        2   -1    0    0  501    0  0.00000000000E+00  0.00000000000E+00 -0.20788607374E+04  0.20788607374E+04  0.25500000920E-02 0.  1.
    10030    2    1    2    0    0  0.00000000000E+00  0.00000000000E+00 -0.91721582072E+03  0.32405056540E+04  0.31079884221E+04 0.  0.
        5    1    3    3  502    0  0.31540181126E+03  0.74935610892E+03 -0.18394093430E+04  0.20110847077E+04  0.46999998093E+01 0.  1.
       -5    1    3    3    0  502 -0.31540181126E+03 -0.74935610892E+03  0.92219352230E+03  0.12294209463E+04  0.46999998093E+01 0. -1.
</event>
<event>
 5   0  0.1211008E-06  0.2964370E+04  0.7818609E-02  0.8253979E-01
       -1   -1    0    0    0  501  0.00000000000E+00  0.00000000000E+00  0.21520580789E+04  0.21520580789E+04  0.50400001928E-02 0. -1.
        1   -1    0    0  501    0  0.00000000000E+00  0.00000000000E+00 -0.10208237457E+04  0.10208237457E+04  0.50400001928E-02 0.  1.
    10030    2    1    2    0    0  0.00000000000E+00  0.00000000000E+00  0.11312343332E+04  0.31728818246E+04  0.29643697402E+04 0.  0.
        3    1    3    3  502    0 -0.11121493463E+03  0.86241537912E+03  0.18503557711E+04  0.20444915108E+04  0.10100000352E+00 0. -1.
       -3    1    3    3    0  502  0.11121493463E+03 -0.86241537912E+03 -0.71912143786E+03  0.11283903139E+04  0.10100000352E+00 0.  1.
</event>
<event>
 5   0  0.3374790E-06  0.3089162E+04  0.7818609E-02  0.8218719E-01
        2   -1    0    0  501    0  0.00000000000E+00  0.00000000000E+00  0.17160093371E+04  0.17160093371E+04  0.25500000920E-02 0. -1.
       -2   -1    0    0    0  501  0.00000000000E+00  0.00000000000E+00 -0.13902784397E+04  0.13902784397E+04  0.25500000920E-02 0.  1.
    10030    2    1    2    0    0  0.00000000000E+00  0.00000000000E+00  0.32573089748E+03  0.31062877768E+04  0.30891622060E+04 0.  0.
        2    1    3    3  502    0  0.13486079106E+04 -0.19755696023E+03 -0.56777037884E+03  0.14765281075E+04  0.25500000920E-02 0.  1.
       -2    1    3    3    0  502 -0.13486079106E+04  0.19755696023E+03  0.89350127632E+03  0.16297596693E+04  0.25500000920E-02 0. -1.
</event>
<event>
 5   0  0.3445959E-06  0.3144579E+04  0.7818609E-02  0.8203609E-01
       -2   -1    0    0    0  501  0.00000000000E+00  0.00000000000E+00  0.11356224593E+04  0.11356224593E+04  0.25500000920E-02 0. -1.
        2   -1    0    0  501    0  0.00000000000E+00  0.00000000000E+00 -0.21768623367E+04  0.21768623367E+04  0.25500000920E-02 0.  1.
    10030    2    1    2    0    0  0.00000000000E+00  0.00000000000E+00 -0.10412398774E+04  0.33124847960E+04  0.31445786747E+04 0.  0.
        4    1    3    3  502    0  0.15588858424E+04  0.18501971529E+03 -0.42797632417E+03  0.16271209886E+04  0.12699999809E+01 0. -1.
       -4    1    3    3    0  502 -0.15588858424E+04 -0.18501971529E+03 -0.61326355324E+03  0.16853638074E+04  0.12699999809E+01 0.  1.
</event>
<event>
 5   0  0.3374790E-06  0.3109347E+04  0.7818609E-02  0.8213177E-01
       -2   -1    0    0    0  501  0.00000000000E+00  0.00000000000E+00  0.11028857031E+04  0.11028857031E+04  0.25500000920E-02 0.  1.
        2   -1    0    0  501    0  0.00000000000E+00  0.00000000000E+00 -0.21915319201E+04  0.21915319201E+04  0.25500000920E-02 0. -1.
    10030    2    1    2    0    0  0.00000000000E+00  0.00000000000E+00 -0.10886462170E+04  0.32944176232E+04  0.31093466983E+04 0.  0.
        2    1    3    3  502    0 -0.70290703578E+03 -0.92288581729E+03 -0.16409208761E+04  0.20095815123E+04  0.25500000920E-02 0. -1.
       -2    1    3    3    0  502  0.70290703578E+03  0.92288581729E+03  0.55227465914E+03  0.12848361109E+04  0.25500000920E-02 0.  1.
</event>
<event>
 5   0  0.1235960E-06  0.3116506E+04  0.7818609E-02  0.8211222E-01
        1   -1    0    0  501    0  0.00000000000E+00  0.00000000000E+00  0.12442673459E+04  0.12442673459E+04  0.50400001928E-02 0.  1.
       -1   -1    0    0    0  501  0.00000000000E+00  0.00000000000E+00 -0.19514719223E+04  0.19514719223E+04  0.50400001928E-02 0. -1.
    10030    2    1    2    0    0  0.00000000000E+00  0.00000000000E+00 -0.70720457640E+03  0.31957392681E+04  0.31165062421E+04 0.  0.
        4    1    3    3  502    0 -0.53068687819E+03 -0.29841073172E+03  0.11172548040E+04  0.12723747236E+04  0.12699999809E+01 0.  1.
       -4    1    3    3    0  502  0.53068687819E+03  0.29841073172E+03 -0.18244593804E+04  0.19233645445E+04  0.12699999809E+01 0. -1.
</event>
<event>
 5   0  0.3441897E-06  0.3157025E+04  0.7818609E-02  0.8200260E-01
       -2   -1    0    0    0  501  0.00000000000E+00  0.00000000000E+00  0.12740521489E+04  0.12740521489E+04  0.25500000920E-02 0.  1.
        2   -1    0    0  501    0  0.00000000000E+00  0.00000000000E+00 -0.19557302540E+04  0.19557302540E+04  0.25500000920E-02 0. -1.
    10030    2    1    2    0    0  0.00000000000E+00  0.00000000000E+00 -0.68167810512E+03  0.32297824029E+04  0.31570253928E+04 0.  0.
        5    1    3    3  502    0 -0.63008379495E+03  0.91524659656E+03  0.80615862313E+03  0.13728057899E+04  0.46999998093E+01 0.  1.
       -5    1    3    3    0  502  0.63008379495E+03 -0.91524659656E+03 -0.14878367283E+04  0.18569766130E+04  0.46999998093E+01 0. -1.
</event>
<event>
 5   0  0.1171915E-06  0.3046868E+04  0.7818609E-02  0.8230473E-01
        1   -1    0    0  501    0  0.00000000000E+00  0.00000000000E+00  0.16779496729E+04  0.16779496729E+04  0.50400001928E-02 0. -1.
       -1   -1    0    0    0  501  0.00000000000E+00  0.00000000000E+00 -0.13831472481E+04  0.13831472481E+04  0.50400001928E-02 0.  1.
    10030    2    1    2    0    0  0.00000000000E+00  0.00000000000E+00  0.29480242482E+03  0.30610969211E+04  0.30468682102E+04 0.  0.
        2    1    3    3  502    0  0.96023341583E+03  0.39921926500E+03 -0.97109348374E+03  0.14228305551E+04  0.25500000920E-02 0.  1.
       -2    1    3    3    0  502 -0.96023341583E+03 -0.39921926500E+03  0.12658959086E+04  0.16382663659E+04  0.25500000920E-02 0. -1.
</event>
<event>
 5   0  0.1198763E-06  0.3114034E+04  0.7818609E-02  0.8211897E-01
        1   -1    0    0  501    0  0.00000000000E+00  0.00000000000E+00  0.15648512573E+04  0.15648512573E+04  0.50400001928E-02 0.  1.
       -1   -1    0    0    0  501  0.00000000000E+00  0.00000000000E+00 -0.15492217751E+04  0.15492217751E+04  0.50400001928E-02 0. -1.
    10030    2    1    2    0    0  0.00000000000E+00  0.00000000000E+00  0.15629482219E+02  0.31140730324E+04  0.31140338101E+04 0.  0.
        1    1    3    3  502    0 -0.10398812172E+04  0.83864088937E+03 -0.79196414592E+03  0.15530224389E+04  0.50400001928E-02 0. -1.
       -1    1    3    3    0  502  0.10398812172E+04 -0.83864088937E+03  0.80759362814E+03  0.15610505935E+04  0.50400001928E-02 0.  1.
</event>
<event>
 5   0  0.1250276E-06  0.3123005E+04  0.7818609E-02  0.8209453E-01
       -1   -1    0    0    0  501  0.00000000000E+00  0.00000000000E+00  0.12573252489E+04  0.12573252489E+04  0.50400001928E-02 0. -1.
        1   -1    0    0  501    0  0.00000000000E+00  0.00000000000E+00 -0.19392673017E+04  0.19392673017E+04  0.50400001928E-02 0.  1.
    10030    2    1    2    0    0  0.00000000000E+00  0.00000000000E+00 -0.68194205279E+03  0.31965925506E+04  0.31230047985E+04 0.  0.
        5    1    3    3  502    0 -0.74348066536E+03 -0.23092574280E+03 -0.17264450860E+04  0.18938650753E+04  0.46999998093E+01 0.  1.
       -5    1    3    3    0  502  0.74348066536E+03  0.23092574280E+03  0.10445030333E+04  0.13027274753E+04  0.46999998093E+01 0. -1.
</event>
<event>
 5   0  0.1235960E-06  0.3155388E+04  0.7818609E-02  0.8200699E-01
       -1   -1    0    0    0  501  0.00000000000E+00  0.00000000000E+00  0.18663338871E+04  0.18663338871E+04  0.50400001928E-02 0. -1.
        1   -1    0    0  501    0  0.00000000000E+00  0.00000000000E+00 -0.13336940252E+04  0.13336940252E+04  0.50400001928E-02 0.  1.
    10030    2    1    2    0    0  0.00000000000E+00  0.00000000000E+00  0.53263986191E+03  0.32000279123E+04  0.31553879979E+04 0.  0.
        4    1    3    3  502    0 -0.14262590343E+04  0.22540888881E+03  0.91099595955E+03  0.17073193173E+04  0.12699999809E+01 0. -1.
       -4    1    3    3    0  502  0.14262590343E+04 -0.22540888881E+03 -0.37835609763E+03  0.14927085950E+04  0.12699999809E+01 0.  1.
</event>
<event>
 5   0  0.3445410E-06  0.3097280E+04  0.7818609E-02  0.8216485E-01
       -2   -1    0    0    0  501  0.00000000000E+00  0.00000000000E+00  0.12705421136E+04  0.12705421136E+04  0.25500000920E-02 0. -1.
        2   -1    0    0  501    0  0.00000000000E+00  0.00000000000E+00 -0.18876086324E+04  0.18876086324E+04  0.25500000920E-02 0.  1.
    10030    2    1    2    0    0  0.00000000000E+00  0.00000000000E+00 -0.61706651876E+03  0.31581507460E+04  0.30972802659E+04 0.  0.
        1    1    3    3  502    0  0.31519446258E+03  0.95086060450E+03 -0.15127613661E+04  0.18143677657E+04  0.50400001928E-02 0.  1.
       -1    1    3    3    0  502 -0.31519446258E+03 -0.95086060450E+03  0.89569484734E+03  0.13437829802E+04  0.50400001928E-02 0. -1.
</event>
<event>
 5   0  0.1198763E-06  0.3094793E+04  0.7818609E-02  0.8217168E-01
        1   -1    0    0  501    0  0.00000000000E+00  0.00000000000E+00  0.18691860211E+04  0.18691860211E+04  0.50400001928E-02 0.  1.
       -1   -1    0    0    0  501  0.00000000000E+00  0.00000000000E+00 -0.12810050173E+04  0.12810050173E+04  0.50400001928E-02 0. -1.
    10030    2    1    2    0    0  0.00000000000E+00  0.00000000000E+00  0.58818100382E+03  0.31501910385E+04  0.30947934803E+04 0.  0.
        1    1    3    3  502    0  0.65443523260E+02 -0.69748131415E+03 -0.11103439218E+04  0.13128696291E+04  0.50400001928E-02 0. -1.
       -1    1    3    3    0  502 -0.65443523260E+02  0.69748131415E+03  0.16985249256E+04  0.18373214094E+04  0.50400001928E-02 0.  1.
</event>
<event>
 5   0  0.3340899E-06  0.3116786E+04  0.7818609E-02  0.8211146E-01
       -2   -1    0    0    0  501  0.00000000000E+00  0.00000000000E+00  0.14074981999E+04  0.14074982000E+04  0.25500000920E-02 0. -1.
        2   -1    0    0  501    0  0.00000000000E+00  0.00000000000E+00 -0.17254646295E+04  0.17254646295E+04  0.25500000920E-02 0.  1.
    10030    2    1    2    0    0  0.00000000000E+00  0.00000000000E+00 -0.31796642960E+03  0.31329628295E+04  0.31167857547E+04 0.  0.
        3    1    3    3  502    0  0.50156437912E+03  0.20890156971E+02  0.13239996072E+04  0.14159725263E+04  0.10100000352E+00 0. -1.
       -3    1    3    3    0  502 -0.50156437912E+03 -0.20890156971E+02 -0.16419660368E+04  0.17169903032E+04  0.10100000352E+00 0.  1.
</event>
<event>
 5   0  0.3445410E-06  0.3097721E+04  0.7818609E-02  0.8216364E-01
       -2   -1    0    0    0  501  0.00000000000E+00  0.00000000000E+00  0.14716746418E+04  0.14716746418E+04  0.25500000920E-02 0.  1.
        2   -1    0    0  501    0  0.00000000000E+00  0.00000000000E+00 -0.16300940809E+04  0.16300940809E+04  0.25500000920E-02 0. -1.
    10030    2    1    2    0    0  0.00000000000E+00  0.00000000000E+00 -0.15841943911E+03  0.31017687227E+04  0.30977205313E+04 0.  0.
        1    1    3    3  502    0  0.14592322663E+04  0.19455568635E+03  0.40283128587E+03  0.15262646451E+04  0.50400001928E-02 0. -1.
       -1    1    3    3    0  502 -0.14592322663E+04 -0.19455568635E+03 -0.56125072498E+03  0.15755040775E+04  0.50400001928E-02 0.  1.
</event>
<event>
 5   0  0.3445410E-06  0.3080311E+04  0.7818609E-02  0.8221162E-01
       -2   -1    0    0    0  501  0.00000000000E+00  0.00000000000E+00  0.22507134513E+04  0.22507134513E+04  0.25500000920E-02 0.  1.
        2   -1    0    0  501    0  0.00000000000E+00  0.00000000000E+00 -0.10539229786E+04  0.10539229786E+04  0.25500000920E-02 0. -1.
    10030    2    1    2    0    0  0.00000000000E+00  0.00000000000E+00  0.11967904727E+04  0.33046364299E+04  0.30803107795E+04 0.  0.
        1    1    3    3  502    0 -0.20642135818E+03 -0.55795444207E+02  0.22347113666E+04  0.22449182170E+04  0.50400001928E-02 0.  1.
       -1    1    3    3    0  502  0.20642135818E+03  0.55795444207E+02 -0.10379208939E+04  0.10597182129E+04  0.50400001928E-02 0. -1.
</event>
<event>
 5   0  0.3441897E-06  0.3066322E+04  0.7818609E-02  0.8225042E-01
        2   -1    0    0  501    0  0.00000000000E+00  0.00000000000E+00  0.15417536063E+04  0.15417536063E+04  0.25500000920E-02 0. -1.
       -2   -1    0    0    0  501  0.00000000000E+00  0.00000000000E+00 -0.15246165837E+04  0.15246165837E+04  0.25500000920E-02 0.  1.
    10030    2    1    2    0    0  0.00000000000E+00  0.00000000000E+00  0.17137022597E+02  0.30663701900E+04  0.30663223027E+04 0.  0.
        5    1    3    3  502    0 -0.49322388912E+03  0.30882415613E+03 -0.14098748972E+04  0.15252578405E+04  0.46999998093E+01 0.  1.
       -5    1    3    3    0  502  0.49322388912E+03 -0.30882415613E+03  0.14270119198E+04  0.15411123494E+04  0.46999998093E+01 0. -1.
</event>
<event>
 5   0  0.1250276E-06  0.3089561E+04  0.7818609E-02  0.8218609E-01
       -1   -1    0    0    0  501  0.00000000000E+00  0.00000000000E+00  0.16274078548E+04  0.16274078548E+04  0.50400001928E-02 0. -1.
        1   -1    0    0  501    0  0.00000000000E+00  0.00000000000E+00 -0.14663483802E+04  0.14663483802E+04  0.50400001928E-02 0.  1.
    10030    2    1    2    0    0  0.00000000000E+00  0.00000000000E+00  0.16105947458E+03  0.30937562349E+04  0.30895610508E+04 0.  0.
        5    1    3    3  502    0 -0.31977621517E+03 -0.15083202937E+04  0.17572640906E+03  0.15518340108E+04  0.46999998093E+01 0. -1.
       -5    1    3    3    0  502  0.31977621517E+03  0.15083202937E+04 -0.14666934476E+02  0.15419222241E+04  0.46999998093E+01 0.  1.
</event>
<event>
 5   0  0.3340899E-06  0.3070701E+04  0.7818609E-02  0.8223825E-01
       -2   -1    0    0    0  501  0.00000000000E+00  0.00000000000E+00  0.11186853315E+04  0.11186853315E+04  0.25500000920E-02 0. -1.
        2   -1    0    0  501    0  0.00000000000E+00  0.00000000000E+00 -0.21072070209E+04  0.21072070209E+04  0.25500000920E-02 0.  1.
    10030    2    1    2    0    0  0.00000000000E+00  0.00000000000E+00 -0.98852168941E+03  0.32258923525E+04  0.30707012781E+04 0.  0.
        3    1    3    3  502    0  0.23614122305E+02 -0.49428795559E+03  0.10326116876E+04  0.11450611850E+04  0.10100000352E+00 0. -1.
       -3    1    3    3    0  502 -0.23614122305E+02  0.49428795559E+03 -0.20211333770E+04  0.20808311675E+04  0.10100000352E+00 0.  1.
</event>
<event>
 5   0  0.1171915E-06  0.3082946E+04  0.7818609E-02  0.8220434E-01
       -1   -1    0    0    0  501  0.00000000000E+00  0.00000000000E+00  0.14500340810E+04  0.14500340810E+04  0.50400001928E-02 0. -1.
        1   -1    0    0  501    0  0.00000000000E+00  0.00000000000E+00 -0.16386784979E+04  0.16386784979E+04  0.50400001928E-02 0.  1.
    10030    2    1    2    0    0  0.00000000000E+00  0.00000000000E+00 -0.18864441695E+03  0.30887125789E+04  0.30829464282E+04 0.  0.
        2    1    3    3  502    0 -0.70023159842E+03 -0.10826605350E+04  0.75204273463E+03  0.14926641954E+04  0.25500000920E-02 0. -1.
       -2    1    3    3    0  502  0.70023159842E+03  0.10826605350E+04 -0.94068715157E+03  0.15960483835E+04  0.25500000920E-02 0.  1.
</event>
<event>
 5   0  0.1198763E-06  0.3105040E+04  0.7818609E-02  0.8214356E-01
       -1   -1    0    0    0  501  0.00000000000E+00  0.00000000000E+00  0.83477048224E+03  0.83477048225E+03  0.50400001928E-02 0.  1.
        1   -1    0    0  501    0  0.00000000000E+00  0.00000000000E+00 -0.28874029277E+04  0.28874029277E+04  0.50400001928E-02 0. -1.
    10030    2    1    2    0    0  0.00000000000E+00  0.00000000000E+00 -0.20526324454E+04  0.37221734099E+04  0.31050402473E+04 0.  0.
        1    1    3    3  502    0 -0.11024855796E+04  0.70032441619E+03 -0.20324041955E+04  0.24159047074E+04  0.50400001928E-02 0. -1.
       -1    1    3    3    0  502  0.11024855796E+04 -0.70032441619E+03 -0.20228249934E+02  0.13062687026E+04  0.50400001928E-02 0.  1.
</event>
<event>
 5   0  0.1211008E-06  0.3089849E+04  0.7818609E-02  0.8218529E-01
        1   -1    0    0  501    0  0.00000000000E+00  0.00000000000E+00  0.24299579526E+04  0.24299579526E+04  0.50400001928E-02 0. -1.
       -1   -1    0    0    0  501  0.00000000000E+00  0.00000000000E+00 -0.98223586214E+03  0.98223586215E+03  0.50400001928E-02 0.  1.
    10030    2    1    2    0    0  0.00000000000E+00  0.00000000000E+00  0.14477220905E+04  0.34121938147E+04  0.30898490866E+04 0.  0.
        3    1    3    3  502    0  0.12884899281E+04  0.44476876824E+03  0.15268846288E+04  0.20468029294E+04  0.10100000352E+00 0. -1.
       -3    1    3    3    0  502 -0.12884899281E+04 -0.44476876824E+03 -0.79162538311E+02  0.13653908853E+04  0.10100000352E+00 0.  1.
</event>
<event>
 5   0  0.1211008E-06  0.3072588E+04  0.7818609E-02  0.8223301E-01
       -1   -1    0    0    0  501  0.00000000000E+00  0.00000000000E+00  0.17298491607E+04  0.17298491607E+04  0.50400001928E-02 0.  1.
        1   -1    0    0  501    0  0.00000000000E+00  0.00000000000E+00 -0.13643958197E+04  0.13643958197E+04  0.50400001928E-02 0. -1.
    10030    2    1    2    0    0  0.00000000000E+00  0.00000000000E+00  0.36545334103E+03  0.30942449804E+04  0.30725878106E+04 0.  0.
        3    1    3    3  502    0 -0.13527138623E+04 -0.12461647901E+03  0.90530407821E+03  0.16324642551E+04  0.10100000352E+00 0.  1.
       -3    1    3    3    0  502  0.13527138623E+04  0.12461647901E+03 -0.53985073718E+03  0.14617807252E+04  0.10100000352E+00 0. -1.
</event>
<event>
 5   0  0.3374790E-06  0.3115146E+04  0.7818609E-02  0.8211593E-01
       -2   -1    0    0    0  501  0.00000000000E+00  0.00000000000E+00  0.91724641534E+03  0.91724641535E+03  0.25500000920E-02 0. -1.
        2   -1    0    0  501    0  0.00000000000E+00  0.00000000000E+00 -0.26449097750E+04  0.26449097750E+04  0.25500000920E-02 0.  1.
    10030    2    1    2    0    0  0.00000000000E+00  0.00000000000E+00 -0.17276633597E+04  0.35621561904E+04  0.31151462310E+04 0.  0.
        2    1    3    3  502    0  0.10928921262E+04  0.39254997038E+03 -0.20508249711E+04  0.23567757086E+04  0.25500000920E-02 0.  1.
       -2    1    3    3    0  502 -0.10928921262E+04 -0.39254997038E+03  0.32316161143E+03  0.12053804817E+04  0.25500000920E-02 0. -1.
</event>
<event>
 5   0  0.1250276E-06  0.3094221E+04  0.7818609E-02  0.8217326E-01
        1   -1    0    0  501    0  0.00000000000E+00  0.00000000000E+00  0.30139607081E+04  0.30139607081E+04  0.50400001928E-02 0. -1.
       -1   -1    0    0    0  501  0.00000000000E+00  0.00000000000E+00 -0.79415488369E+03  0.79415488371E+03  0.50400001928E-02 0.  1.
    10030    2    1    2    0    0  0.00000000000E+00  0.00000000000E+00  0.22198058244E+04  0.38081155918E+04  0.30942214631E+04 0.  0.
        5    1    3    3  502    0  0.12626962198E+04  0.85450768009E+03  0.78674987077E+03  0.17156871999E+04  0.46999998093E+01 0.  1.
       -5    1    3    3    0  502 -0.12626962198E+04 -0.85450768009E+03  0.14330559537E+04  0.20924283919E+04  0.46999998093E+01 0. -1.
</event>
<event>
 5   0  0.3441897E-06  0.3112276E+04  0.7818609E-02  0.8212377E-01
        2   -1    0    0  501    0  0.00000000000E+00  0.00000000000E+00  0.19397581949E+04  0.19397581949E+04  0.25500000920E-02 0.  1.
       -2   -1    0    0    0  501  0.00000000000E+00  0.00000000000E+00 -0.12483852005E+04  0.12483852005E+04  0.25500000920E-02 0. -1.
    10030    2    1    2    0    0  0.00000000000E+00  0.00000000000E+00  0.69137299444E+03  0.31881433954E+04  0.31122759666E+04 0.  0.
        5    1    3    3  502    0 -0.13751355890E+04 -0.62604606594E+03 -0.35695158073E+02  0.15113662029E+04  0.46999998093E+01 0.  1.
       -5    1    3    3    0  502  0.13751355890E+04  0.62604606594E+03  0.72706815251E+03  0.16767771925E+04  0.46999998093E+01 0. -1.
</event>
<event>
 5   0  0.1171915E-06  0.3099185E+04  0.7818609E-02  0.8215962E-01
       -1   -1    0    0    0  501  0.00000000000E+00  0.00000000000E+00  0.90478160431E+03  0.90478160432E+03  0.50400001928E-02 0. -1.
        1   -1    0    0  501    0  0.00000000000E+00  0.00000000000E+00 -0.26539410511E+04  0.26539410511E+04  0.50400001928E-02 0.  1.
    10030    2    1    2    0    0  0.00000000000E+00  0.00000000000E+00 -0.17491594468E+04  0.35587226555E+04  0.30991850813E+04 0.  0.
        2    1    3    3  502    0  0.55128810363E+03  0.86774232331E+03 -0.22059580111E+04  0.24337514375E+04  0.25500000920E-02 0.  1.
       -2    1    3    3    0  502 -0.55128810363E+03 -0.86774232331E+03  0.45679856429E+03  0.11249712179E+04  0.25500000920E-02 0. -1.
</event>
<event>
 5   0  0.1171915E-06  0.3356134E+04  0.7818609E-02  0.8148757E-01
        1   -1    0    0  501    0  0.00000000000E+00  0.00000000000E+00  0.17466244772E+04  0.17466244772E+04  0.50400001928E-02 0.  1.
       -1   -1    0    0    0  501  0.00000000000E+00  0.00000000000E+00 -0.16122005183E+04  0.16122005183E+04  0.50400001928E-02 0. -1.
    10030    2    1    2    0    0  0.00000000000E+00  0.00000000000E+00  0.13442395893E+03  0.33588249955E+04  0.33561340185E+04 0.  0.
        2    1    3    3  502    0  0.54835610115E+03  0.13205713837E+04  0.94615627197E+03  0.17145888382E+04  0.25500000920E-02 0.  1.
       -2    1    3    3    0  502 -0.54835610115E+03 -0.13205713837E+04 -0.81173231303E+03  0.16442361573E+04  0.25500000920E-02 0. -1.
</event>
<event>
 5   0  0.1198763E-06  0.3116875E+04  0.7818609E-02  0.8211122E-01
        1   -1    0    0  501    0  0.00000000000E+00  0.00000000000E+00  0.15210414673E+04  0.15210414673E+04  0.50400001928E-02 0. -1.
       -1   -1    0    0    0  501  0.00000000000E+00  0.00000000000E+00 -0.15967527602E+04  0.15967527602E+04  0.50400001928E-02 0.  1.
    10030    2    1    2    0    0  0.00000000000E+00  0.00000000000E+00 -0.75711292963E+02  0.31177942275E+04  0.31168748203E+04 0.  0.
        1    1    3    3  502    0 -0.12882644336E+03  0.12722119367E+04 -0.92896504410E+03  0.15805364651E+04  0.50400001928E-02 0.  1.
       -1    1    3    3    0  502  0.12882644336E+03 -0.12722119367E+04  0.85325375114E+03  0.15372577624E+04  0.50400001928E-02 0. -1.
</event>
<event>
 5   0  0.1171915E-06  0.3063039E+04  0.7818609E-02  0.8225955E-01
        1   -1    0    0  501    0  0.00000000000E+00  0.00000000000E+00  0.13256319270E+04  0.13256319270E+04  0.50400001928E-02 0. -1.
       -1   -1    0    0    0  501  0.00000000000E+00  0.00000000000E+00 -0.17693844602E+04  0.17693844602E+04  0.50400001928E-02 0.  1.
    10030    2    1    2    0    0  0.00000000000E+00  0.00000000000E+00 -0.44375253321E+03  0.30950163873E+04  0.30630393609E+04 0.  0.
        2    1    3    3  502    0 -0.90420535882E+03  0.99094144769E+03 -0.96850860302E+03  0.16545577046E+04  0.25500000920E-02 0.  1.
       -2    1    3    3    0  502  0.90420535882E+03 -0.99094144769E+03  0.52475606981E+03  0.14404586827E+04  0.25500000920E-02 0. -1.
</event>
<event>
 5   0  0.3445410E-06  0.3105548E+04  0.7818609E-02  0.8214217E-01
        2   -1    0    0  501    0  0.00000000000E+00  0.00000000000E+00  0.15857975294E+04  0.15857975294E+04  0.25500000920E-02 0. -1.
       -2   -1    0    0    0  501  0.00000000000E+00  0.00000000000E+00 -0.15204379826E+04  0.15204379826E+04  0.25500000920E-02 0.  1.
    10030    2    1    2    0    0  0.00000000000E+00  0.00000000000E+00  0.65359546790E+02  0.31062355121E+04  0.31055478077E+04 0.  0.
        1    1    3    3  502    0  0.12946176033E+04  0.80805912609E+03 -0.25393648077E+03  0.15470869485E+04  0.50400001928E-02 0.  1.
       -1    1    3    3    0  502 -0.12946176033E+04 -0.80805912609E+03  0.31929602756E+03  0.15591485635E+04  0.50400001928E-02 0. -1.
</event>
<event>
 5   0  0.3445410E-06  0.3178780E+04  0.7818609E-02  0.8194444E-01
        2   -1    0    0  501    0  0.00000000000E+00  0.00000000000E+00  0.96255142520E+03  0.96255142520E+03  0.25500000920E-02 0. -1.
       -2   -1    0    0    0  501  0.00000000000E+00  0.00000000000E+00 -0.26244427539E+04  0.26244427539E+04  0.25500000920E-02 0.  1.
    10030    2    1    2    0    0  0.00000000000E+00  0.00000000000E+00 -0.16618913287E+04  0.35869941791E+04  0.31787803404E+04 0.  0.
        1    1    3    3  502    0 -0.45998400410E+03 -0.10220970825E+04  0.44066389371E+03  0.12043472910E+04  0.50400001928E-02 0. -1.
       -1    1    3    3    0  502  0.45998400410E+03  0.10220970825E+04 -0.21025552224E+04  0.23826468881E+04  0.50400001928E-02 0.  1.
</event>
<event>
 5   0  0.1235960E-06  0.3295055E+04  0.7818609E-02  0.8164155E-01
       -1   -1    0    0    0  501  0.00000000000E+00  0.00000000000E+00  0.86812999471E+03  0.86812999472E+03  0.50400001928E-02 0.  1.
        1   -1    0    0  501    0  0.00000000000E+00  0.00000000000E+00 -0.31266600841E+04  0.31266600841E+04  0.50400001928E-02 0. -1.
    10030    2    1    2    0    0  0.00000000000E+00  0.00000000000E+00 -0.22585300894E+04  0.39947900788E+04  0.32950553272E+04 0.  0.
        4    1    3    3  502    0  0.82147396287E+03  0.38322102902E+03  0.53862903298E+03  0.10544195924E+04  0.12699999809E+01 0.  1.
       -4    1    3    3    0  502 -0.82147396287E+03 -0.38322102902E+03 -0.27971591223E+04  0.29403704864E+04  0.12699999809E+01 0. -1.
</event>
<event>
 5   0  0.3441897E-06  0.3086535E+04  0.7818609E-02  0.8219443E-01
       -2   -1    0    0    0  501  0.00000000000E+00  0.00000000000E+00  0.15472097440E+04  0.15472097440E+04  0.25500000920E-02 0.  1.
        2   -1    0    0  501    0  0.00000000000E+00  0.00000000000E+00 -0.15393354956E+04  0.15393354956E+04  0.25500000920E-02 0. -1.
    10030    2    1    2    0    0  0.00000000000E+00  0.00000000000E+00  0.78742484852E+01  0.30865452396E+04  0.30865351954E+04 0.  0.
        5    1    3    3  502    0 -0.21282176784E+03  0.81011891061E+03  0.13001153406E+04  0.15465793685E+04  0.46999998093E+01 0.  1.
       -5    1    3    3    0  502  0.21282176784E+03 -0.81011891061E+03 -0.12922410921E+04  0.15399658711E+04  0.46999998093E+01 0. -1.
</event>
<event>
 5   0  0.1250276E-06  0.3088651E+04  0.7818609E-02  0.8218860E-01
        1   -1    0    0  501    0  0.00000000000E+00  0.00000000000E+00  0.29171272978E+04  0.29171272978E+04  0.50400001928E-02 0. -1.
       -1   -1    0    0    0  501  0.00000000000E+00  0.00000000000E+00 -0.81756476941E+03  0.81756476942E+03  0.50400001928E-02 0.  1.
    10030    2    1    2    0    0  0.00000000000E+00  0.00000000000E+00  0.20995625283E+04  0.37346920672E+04  0.30886505186E+04 0.  0.
        5    1    3    3  502    0 -0.12622002798E+04 -0.30177789389E+03  0.20619473211E+04  0.24363637430E+04  0.46999998093E+01 0. -1.
       -5    1    3    3    0  502  0.12622002798E+04  0.30177789389E+03  0.37615207287E+02  0.12983283242E+04  0.46999998093E+01 0.  1.
</event>
<event>
 5   0  0.1171915E-06  0.2645828E+04  0.7818609E-02  0.8352799E-01
       -1   -1    0    0    0  501  0.00000000000E+00  0.00000000000E+00  0.10069945269E+04  0.10069945269E+04  0.50400001928E-02 0.  1.
        1   -1    0    0  501    0  0.00000000000E+00  0.00000000000E+00 -0.17379450724E+04  0.17379450724E+04  0.50400001928E-02 0. -1.
    10030    2    1    2    0    0  0.00000000000E+00  0.00000000000E+00 -0.73095054551E+03  0.27449395993E+04  0.26458277918E+04 0.  0.
        2    1    3    3  502    0 -0.79281188906E+02  0.11081117287E+04  0.37969529612E+03  0.11740381715E+04  0.25500000920E-02 0.  1.
       -2    1    3    3    0  502  0.79281188906E+02 -0.11081117287E+04 -0.11106458416E+04  0.15709014278E+04  0.25500000920E-02 0. -1.
</event>
<event>
 5   0  0.3441897E-06  0.3103262E+04  0.7818609E-02  0.8214843E-01
       -2   -1    0    0    0  501  0.00000000000E+00  0.00000000000E+00  0.11539524841E+04  0.11539524841E+04  0.25500000920E-02 0. -1.
        2   -1    0    0  501    0  0.00000000000E+00  0.00000000000E+00 -0.20863580288E+04  0.20863580288E+04  0.25500000920E-02 0.  1.
    10030    2    1    2    0    0  0.00000000000E+00  0.00000000000E+00 -0.93240554472E+03  0.32403105129E+04  0.31032615294E+04 0.  0.
        5    1    3    3  502    0  0.13578507549E+04 -0.26623210056E+03 -0.11992748267E+04  0.18310981415E+04  0.46999998093E+01 0.  1.
       -5    1    3    3    0  502 -0.13578507549E+04  0.26623210056E+03  0.26686928196E+03  0.14092123714E+04  0.46999998093E+01 0. -1.
</event>
<event>
 5   0  0.3445410E-06  0.3100582E+04  0.7818609E-02  0.8215578E-01
        2   -1    0    0  501    0  0.00000000000E+00  0.00000000000E+00  0.90824705297E+03  0.90824705297E+03  0.25500000920E-02 0. -1.
       -2   -1    0    0    0  501  0.00000000000E+00  0.00000000000E+00 -0.26461982012E+04  0.26461982012E+04  0.25500000920E-02 0.  1.
    10030    2    1    2    0    0  0.00000000000E+00  0.00000000000E+00 -0.17379511482E+04  0.35544452541E+04  0.31005816988E+04 0.  0.
        1    1    3    3  502    0  0.12316945430E+04 -0.73830732511E+03 -0.15386348443E+04  0.21046534958E+04  0.50400001928E-02 0.  1.
       -1    1    3    3    0  502 -0.12316945430E+04  0.73830732511E+03 -0.19931630394E+03  0.14497917583E+04  0.50400001928E-02 0. -1.
</event>
<event>
 5   0  0.1171915E-06  0.3093630E+04  0.7818609E-02  0.8217488E-01
        1   -1    0    0  501    0  0.00000000000E+00  0.00000000000E+00  0.16558772727E+04  0.16558772727E+04  0.50400001928E-02 0. -1.
       -1   -1    0    0    0  501  0.00000000000E+00  0.00000000000E+00 -0.14449358668E+04  0.14449358668E+04  0.50400001928E-02 0.  1.
    10030    2    1    2    0    0  0.00000000000E+00  0.00000000000E+00  0.21094140596E+03  0.31008131395E+04  0.30936298825E+04 0.  0.
        2    1    3    3  502    0 -0.65602557385E+03  0.10761736078E+04  0.10042787202E+04  0.16115504757E+04  0.25500000920E-02 0. -1.
       -2    1    3    3    0  502  0.65602557385E+03 -0.10761736078E+04 -0.79333731426E+03  0.14892626639E+04  0.25500000920E-02 0.  1.
</event>
<event>
 5   0  0.1109562E-06  0.3122491E+04  0.7818609E-02  0.8209593E-01
        3   -1    0    0  501    0  0.00000000000E+00  0.00000000000E+00  0.24441618294E+04  0.24441618315E+04  0.10100000352E+00 0.  1.
       -3   -1    0    0    0  501  0.00000000000E+00  0.00000000000E+00 -0.99726905661E+03  0.99726906172E+03  0.10100000352E+00 0. -1.
    10030    2    1    2    0    0  0.00000000000E+00  0.00000000000E+00  0.14468927728E+04  0.34414308932E+04  0.31224906560E+04 0.  0.
        2    1    3    3  502    0  0.34659368948E+03 -0.14630210300E+04  0.11870403036E+04  0.19156258514E+04  0.25500000920E-02 0.  1.
       -2    1    3    3    0  502 -0.34659368948E+03  0.14630210300E+04  0.25985246913E+03  0.15258050418E+04  0.25500000920E-02 0. -1.
</event>
<event>
 5   0  0.1211008E-06  0.3137051E+04  0.7818609E-02  0.8205643E-01
       -1   -1    0    0    0  501  0.00000000000E+00  0.00000000000E+00  0.12683958730E+04  0.12683958730E+04  0.50400001928E-02 0. -1.
        1   -1    0    0  501    0  0.00000000000E+00  0.00000000000E+00 -0.19396716685E+04  0.19396716685E+04  0.50400001928E-02 0.  1.
    10030    2    1    2    0    0  0.00000000000E+00  0.00000000000E+00 -0.67127579545E+03  0.32080675415E+04  0.31370505506E+04 0.  0.
        3    1    3    3  502    0  0.88452639243E+03  0.46992899441E+03 -0.15700478431E+04  0.18623293045E+04  0.10100000352E+00 0.  1.
       -3    1    3    3    0  502 -0.88452639243E+03 -0.46992899441E+03  0.89877204761E+03  0.13457382370E+04  0.10100000352E+00 0. -1.
</event>
<event>
 5   0  0.1211008E-06  0.3074823E+04  0.7818609E-02  0.8222682E-01
        1   -1    0    0  501    0  0.00000000000E+00  0.00000000000E+00  0.28293945182E+04  0.28293945182E+04  0.50400001928E-02 0.  1.
       -1   -1    0    0    0  501  0.00000000000E+00  0.00000000000E+00 -0.83538490515E+03  0.83538490517E+03  0.50400001928E-02 0. -1.
    10030    2    1    2    0    0  0.00000000000E+00  0.00000000000E+00  0.19940096130E+04  0.36647794234E+04  0.30748225778E+04 0.  0.
        3    1    3    3  502    0  0.83323606501E+03  0.12271215770E+04  0.51503680456E+03  0.15701505103E+04  0.10100000352E+00 0. -1.
       -3    1    3    3    0  502 -0.83323606501E+03 -0.12271215770E+04  0.14789728085E+04  0.20946289130E+04  0.10100000352E+00 0.  1.
</event>
<event>
 5   0  0.1250276E-06  0.3179281E+04  0.7818609E-02  0.8194310E-01
        1   -1    0    0  501    0  0.00000000000E+00  0.00000000000E+00  0.17564447260E+04  0.17564447260E+04  0.50400001928E-02 0. -1.
       -1   -1    0    0    0  501  0.00000000000E+00  0.00000000000E+00 -0.14386773899E+04  0.14386773899E+04  0.50400001928E-02 0.  1.
    10030    2    1    2    0    0  0.00000000000E+00  0.00000000000E+00  0.31776733608E+03  0.31951221159E+04  0.31792812483E+04 0.  0.
        5    1    3    3  502    0  0.89458376229E+03 -0.10386859473E+04 -0.64997845535E+03  0.15171165701E+04  0.46999998093E+01 0.  1.
       -5    1    3    3    0  502 -0.89458376229E+03  0.10386859473E+04  0.96774579143E+03  0.16780055458E+04  0.46999998093E+01 0. -1.
</event>
<event>
 5   0  0.1235960E-06  0.3080544E+04  0.7818609E-02  0.8221098E-01
       -1   -1    0    0    0  501  0.00000000000E+00  0.00000000000E+00  0.11317181059E+04  0.11317181059E+04  0.50400001928E-02 0.  1.
        1   -1    0    0  501    0  0.00000000000E+00  0.00000000000E+00 -0.20963156046E+04  0.20963156046E+04  0.50400001928E-02 0. -1.
    10030    2    1    2    0    0  0.00000000000E+00  0.00000000000E+00 -0.96459749864E+03  0.32280337105E+04  0.30805443191E+04 0.  0.
        4    1    3    3  502    0  0.10965925777E+04 -0.10038731347E+04 -0.90426982518E+03  0.17401097901E+04  0.12699999809E+01 0.  1.
       -4    1    3    3    0  502 -0.10965925777E+04  0.10038731347E+04 -0.60327673455E+02  0.14879239204E+04  0.12699999809E+01 0. -1.
</event>
<event>
 5   0  0.1250276E-06  0.3124064E+04  0.7818609E-02  0.8209165E-01
        1   -1    0    0  501    0  0.00000000000E+00  0.00000000000E+00  0.10672609605E+04  0.10672609605E+04  0.50400001928E-02 0. -1.
       -1   -1    0    0    0  501  0.00000000000E+00  0.00000000000E+00 -0.22861744249E+04  0.22861744249E+04  0.50400001928E-02 0.  1.
    10030    2    1    2    0    0  0.00000000000E+00  0.00000000000E+00 -0.12189134644E+04  0.33534353854E+04  0.31240644760E+04 0.  0.
        5    1    3    3  502    0 -0.15269399903E+04 -0.22130811432E+03 -0.87107118954E+03  0.17718098438E+04  0.46999998093E+01 0.  1.
       -5    1    3    3    0  502  0.15269399903E+04  0.22130811432E+03 -0.34784227491E+03  0.15816255415E+04  0.46999998093E+01 0. -1.
</event>
<event>
 5   0  0.3445959E-06  0.3076414E+04  0.7818609E-02  0.8222241E-01
       -2   -1    0    0    0  501  0.00000000000E+00  0.00000000000E+00  0.15550757437E+04  0.15550757437E+04  0.25500000920E-02 0. -1.
        2   -1    0    0  501    0  0.00000000000E+00  0.00000000000E+00 -0.15215216061E+04  0.15215216061E+04  0.25500000920E-02 0.  1.
    10030    2    1    2    0    0  0.00000000000E+00  0.00000000000E+00  0.33554137573E+02  0.30765973497E+04  0.30764143694E+04 0.  0.
        4    1    3    3  502    0  0.12332634936E+04  0.46407447686E+03 -0.77685425866E+03  0.15296431338E+04  0.12699999809E+01 0.  1.
       -4    1    3    3    0  502 -0.12332634936E+04 -0.46407447686E+03  0.81040839623E+03  0.15469542160E+04  0.12699999809E+01 0. -1.
</event>
<event>
 5   0  0.1250276E-06  0.3086601E+04  0.7818609E-02  0.8219425E-01
       -1   -1    0    0    0  501  0.00000000000E+00  0.00000000000E+00  0.12386883039E+04  0.12386883039E+04  0.50400001928E-02 0. -1.
        1   -1    0    0  501    0  0.00000000000E+00  0.00000000000E+00 -0.19228212747E+04  0.19228212748E+04  0.50400001928E-02 0.  1.
    10030    2    1    2    0    0  0.00000000000E+00  0.00000000000E+00 -0.68413297082E+03  0.31615095787E+04  0.30866008641E+04 0.  0.
        5    1    3    3  502    0 -0.47787743832E+03  0.12322987289E+04 -0.11581634601E+04  0.17573536052E+04  0.46999998093E+01 0.  1.
       -5    1    3    3    0  502  0.47787743832E+03 -0.12322987289E+04  0.47403048925E+03  0.14041559735E+04  0.46999998093E+01 0. -1.
</event>
<event>
 5   0  0.3340899E-06  0.3106098E+04  0.7818609E-02  0.8214066E-01
       -2   -1    0    0    0  501  0.00000000000E+00  0.00000000000E+00  0.13628579740E+04  0.13628579740E+04  0.25500000920E-02 0.  1.
        2   -1    0    0  501    0  0.00000000000E+00  0.00000000000E+00 -0.17697815842E+04  0.17697815842E+04  0.25500000920E-02 0. -1.
    10030    2    1    2    0    0  0.00000000000E+00  0.00000000000E+00 -0.40692361025E+03  0.31326395582E+04  0.31060978376E+04 0.  0.
        3    1    3    3  502    0  0.10397869898E+04  0.11523132987E+04 -0.14842433262E+03  0.15591705215E+04  0.10100000352E+00 0.  1.
       -3    1    3    3    0  502 -0.10397869898E+04 -0.11523132987E+04 -0.25849927762E+03  0.15734690366E+04  0.10100000352E+00 0. -1.
</event>
<event>
 5   0  0.3340899E-06  0.3124223E+04  0.7818609E-02  0.8209121E-01
        2   -1    0    0  501    0  0.00000000000E+00  0.00000000000E+00  0.15304229254E+04  0.15304229254E+04  0.25500000920E-02 0.  1.
       -2   -1    0    0    0  501  0.00000000000E+00  0.00000000000E+00 -0.15944561780E+04  0.15944561780E+04  0.25500000920E-02 0. -1.
    10030    2    1    2    0    0  0.00000000000E+00  0.00000000000E+00 -0.64033252595E+02  0.31248791035E+04  0.31242229680E+04 0.  0.
        3    1    3    3  502    0  0.96980531029E+03 -0.12090624077E+04  0.16254423157E+03  0.15584527208E+04  0.10100000352E+00 0.  1.
       -3    1    3    3    0  502 -0.96980531029E+03  0.12090624077E+04 -0.22657748417E+03  0.15664263826E+04  0.10100000352E+00 0. -1.
</event>
<event>
 5   0  0.1171915E-06  0.3063414E+04  0.7818609E-02  0.8225851E-01
       -1   -1    0    0    0  501  0.00000000000E+00  0.00000000000E+00  0.86684240434E+03  0.86684240435E+03  0.50400001928E-02 0. -1.
        1   -1    0    0  501    0  0.00000000000E+00  0.00000000000E+00 -0.27065205830E+04  0.27065205830E+04  0.50400001928E-02 0.  1.
    10030    2    1    2    0    0  0.00000000000E+00  0.00000000000E+00 -0.18396781786E+04  0.35733629873E+04  0.30634143106E+04 0.  0.
        2    1    3    3  502    0 -0.88714275397E+03  0.12848730051E+03 -0.23686023896E+04  0.25325498085E+04  0.25500000920E-02 0.  1.
       -2    1    3    3    0  502  0.88714275397E+03 -0.12848730051E+03  0.52892421098E+03  0.10408131789E+04  0.25500000920E-02 0. -1.
</event>
<event>
 5   0  0.3441897E-06  0.3082575E+04  0.7818609E-02  0.8220536E-01
        2   -1    0    0  501    0  0.00000000000E+00  0.00000000000E+00  0.13043937274E+04  0.13043937274E+04  0.25500000920E-02 0.  1.
       -2   -1    0    0    0  501  0.00000000000E+00  0.00000000000E+00 -0.18212046387E+04  0.18212046387E+04  0.25500000920E-02 0. -1.
    10030    2    1    2    0    0  0.00000000000E+00  0.00000000000E+00 -0.51681091138E+03  0.31255983661E+04  0.30825754862E+04 0.  0.
        5    1    3    3  502    0 -0.99063318411E+03 -0.37945443781E+03  0.87532613295E+03  0.13753391236E+04  0.46999998093E+01 0.  1.
       -5    1    3    3    0  502  0.99063318411E+03  0.37945443781E+03 -0.13921370443E+04  0.17502592425E+04  0.46999998093E+01 0. -1.
</event>
<event>
 5   0  0.1250276E-06  0.3092032E+04  0.7818609E-02  0.8217928E-01
       -1   -1    0    0    0  501  0.00000000000E+00  0.00000000000E+00  0.98085956628E+03  0.98085956629E+03  0.50400001928E-02 0. -1.
        1   -1    0    0  501    0  0.00000000000E+00  0.00000000000E+00 -0.24368067938E+04  0.24368067938E+04  0.50400001928E-02 0.  1.
    10030    2    1    2    0    0  0.00000000000E+00  0.00000000000E+00 -0.14559472275E+04  0.34176663601E+04  0.30920318594E+04 0.  0.
        5    1    3    3  502    0 -0.14930790059E+04 -0.66912925192E+02 -0.29087687303E+03  0.15226272369E+04  0.46999998093E+01 0. -1.
       -5    1    3    3    0  502  0.14930790059E+04  0.66912925192E+02 -0.11650703545E+04  0.18950391232E+04  0.46999998093E+01 0.  1.
</event>
<event>
 5   0  0.1171915E-06  0.3094364E+04  0.7818609E-02  0.8217286E-01
        1   -1    0    0  501    0  0.00000000000E+00  0.00000000000E+00  0.20359381282E+04  0.20359381282E+04  0.50400001928E-02 0.  1.
       -1   -1    0    0    0  501  0.00000000000E+00  0.00000000000E+00 -0.11757585347E+04  0.11757585347E+04  0.50400001928E-02 0. -1.
    10030    2    1    2    0    0  0.00000000000E+00  0.00000000000E+00  0.86017959344E+03  0.32116966629E+04  0.30943636699E+04 0.  0.
        2    1    3    3  502    0  0.12958529184E+03 -0.12895719037E+04 -0.44692572827E+03  0.13709597548E+04  0.25500000920E-02 0. -1.
       -2    1    3    3    0  502 -0.12958529184E+03  0.12895719037E+04  0.13071053217E+04  0.18407369081E+04  0.25500000920E-02 0.  1.
</event>
<event>
 5   0  0.3441897E-06  0.3086489E+04  0.7818609E-02  0.8219456E-01
        2   -1    0    0  501    0  0.00000000000E+00  0.00000000000E+00  0.16914212960E+04  0.16914212960E+04  0.25500000920E-02 0.  1.
       -2   -1    0    0    0  501  0.00000000000E+00  0.00000000000E+00 -0.14080483291E+04  0.14080483291E+04  0.25500000920E-02 0. -1.
    10030    2    1    2    0    0  0.00000000000E+00  0.00000000000E+00  0.28337296682E+03  0.30994696251E+04  0.30864885742E+04 0.  0.
        5    1    3    3  502    0 -0.12318497132E+04  0.24535717311E+03 -0.75870424301E+03  0.14674154411E+04  0.46999998093E+01 0. -1.
       -5    1    3    3    0  502  0.12318497132E+04 -0.24535717311E+03  0.10420772098E+04  0.16320541840E+04  0.46999998093E+01 0.  1.
</event>
<event>
 5   0  0.3445410E-06  0.3109303E+04  0.7818609E-02  0.8213189E-01
        2   -1    0    0  501    0  0.00000000000E+00  0.00000000000E+00  0.22017284373E+04  0.22017284373E+04  0.25500000920E-02 0.  1.
       -2   -1    0    0    0  501  0.00000000000E+00  0.00000000000E+00 -0.10977472560E+04  0.10977472560E+04  0.25500000920E-02 0. -1.
    10030    2    1    2    0    0  0.00000000000E+00  0.00000000000E+00  0.11039811813E+04  0.32994756933E+04  0.31093030412E+04 0.  0.
        1    1    3    3  502    0 -0.14939162580E+03 -0.90112945528E+03 -0.78296242319E+03  0.12030720299E+04  0.50400001928E-02 0. -1.
       -1    1    3    3    0  502  0.14939162580E+03  0.90112945528E+03  0.18869436045E+04  0.20964036633E+04  0.50400001928E-02 0.  1.
</event>
<event>
 5   0  0.1171915E-06  0.3064537E+04  0.7818609E-02  0.8225538E-01
        1   -1    0    0  501    0  0.00000000000E+00  0.00000000000E+00  0.17110315666E+04  0.17110315666E+04  0.50400001928E-02 0.  1.
       -1   -1    0    0    0  501  0.00000000000E+00  0.00000000000E+00 -0.13721822246E+04  0.13721822246E+04  0.50400001928E-02 0. -1.
    10030    2    1    2    0    0  0.00000000000E+00  0.00000000000E+00  0.33884934200E+03  0.30832137913E+04  0.30645372254E+04 0.  0.
        2    1    3    3  502    0  0.41862235253E+03  0.11665461827E+04 -0.73705044744E+03  0.14419840611E+04  0.25500000920E-02 0.  1.
       -2    1    3    3    0  502 -0.41862235253E+03 -0.11665461827E+04  0.10758997894E+04  0.16412297302E+04  0.25500000920E-02 0. -1.
</event>
<event>
 5   0  0.3445410E-06  0.3118466E+04  0.7818609E-02  0.8210688E-01
       -2   -1    0    0    0  501  0.00000000000E+00  0.00000000000E+00  0.98848930277E+03  0.98848930278E+03  0.25500000920E-02 0. -1.
        2   -1    0    0  501    0  0.00000000000E+00  0.00000000000E+00 -0.24595185499E+04  0.24595185499E+04  0.25500000920E-02 0.  1.
    10030    2    1    2    0    0  0.00000000000E+00  0.00000000000E+00 -0.14710292471E+04  0.34480078527E+04  0.31184661464E+04 0.  0.
        1    1    3    3  502    0 -0.15282892240E+04  0.28444673525E+03 -0.60177885411E+03  0.16669480156E+04  0.50400001928E-02 0.  1.
       -1    1    3    3    0  502  0.15282892240E+04 -0.28444673525E+03 -0.86925039303E+03  0.17810598371E+04  0.50400001928E-02 0. -1.
</event>
<event>
 5   0  0.1235960E-06  0.3132632E+04  0.7818609E-02  0.8206839E-01
        1   -1    0    0  501    0  0.00000000000E+00  0.00000000000E+00  0.16010789204E+04  0.16010789205E+04  0.50400001928E-02 0.  1.
       -1   -1    0    0    0  501  0.00000000000E+00  0.00000000000E+00 -0.15323073719E+04  0.15323073720E+04  0.50400001928E-02 0. -1.
    10030    2    1    2    0    0  0.00000000000E+00  0.00000000000E+00  0.68771548501E+02  0.31333862924E+04  0.31326315027E+04 0.  0.
        4    1    3    3  502    0 -0.65055462326E+03 -0.99940908360E+03 -0.98139009625E+03  0.15443989019E+04  0.12699999809E+01 0. -1.
       -4    1    3    3    0  502  0.65055462326E+03  0.99940908360E+03  0.10501616448E+04  0.15889873905E+04  0.12699999809E+01 0.  1.
</event>
<event>
 5   0  0.3340899E-06  0.3089908E+04  0.7818609E-02  0.8218513E-01
        2   -1    0    0  501    0  0.00000000000E+00  0.00000000000E+00  0.14651606518E+04  0.14651606518E+04  0.25500000920E-02 0.  1.
       -2   -1    0    0    0  501  0.00000000000E+00  0.00000000000E+00 -0.16290925211E+04  0.16290925211E+04  0.25500000920E-02 0. -1.
    10030    2    1    2    0    0  0.00000000000E+00  0.00000000000E+00 -0.16393186936E+03  0.30942531729E+04  0.30899076103E+04 0.  0.
        3    1    3    3  502    0  0.71919896582E+03 -0.75744857246E+03  0.10580140551E+04  0.14867310595E+04  0.10100000352E+00 0.  1.
       -3    1    3    3    0  502 -0.71919896582E+03  0.75744857246E+03 -0.12219459245E+04  0.16075221133E+04  0.10100000352E+00 0. -1.
</event>
<event>
 5   0  0.1235960E-06  0.2918626E+04  0.7818609E-02  0.8267357E-01
       -1   -1    0    0    0  501  0.00000000000E+00  0.00000000000E+00  0.12003724262E+04  0.12003724262E+04  0.50400001928E-02 0. -1.
        1   -1    0    0  501    0  0.00000000000E+00  0.00000000000E+00 -0.17741115268E+04  0.17741115268E+04  0.50400001928E-02 0.  1.
    10030    2    1    2    0    0  0.00000000000E+00  0.00000000000E+00 -0.57373910060E+03  0.29744839530E+04  0.29186260862E+04 0.  0.
        4    1    3    3  502    0 -0.60661140515E+03 -0.57783435384E+03  0.93087206960E+03  0.12523555247E+04  0.12699999809E+01 0. -1.
       -4    1    3    3    0  502  0.60661140515E+03  0.57783435384E+03 -0.15046111702E+04  0.17221284284E+04  0.12699999809E+01 0.  1.
</event>
<event>
 5   0  0.3340899E-06  0.3113052E+04  0.7818609E-02  0.8212165E-01
       -2   -1    0    0    0  501  0.00000000000E+00  0.00000000000E+00  0.12486148916E+04  0.12486148916E+04  0.25500000920E-02 0.  1.
        2   -1    0    0  501    0  0.00000000000E+00  0.00000000000E+00 -0.19403689600E+04  0.19403689600E+04  0.25500000920E-02 0. -1.
    10030    2    1    2    0    0  0.00000000000E+00  0.00000000000E+00 -0.69175406843E+03  0.31889838516E+04  0.31130522505E+04 0.  0.
        3    1    3    3  502    0  0.11840070784E+04  0.90335402538E+03  0.11776878115E+03  0.14939179204E+04  0.10100000352E+00 0. -1.
       -3    1    3    3    0  502 -0.11840070784E+04 -0.90335402538E+03 -0.80952284957E+03  0.16950659312E+04  0.10100000352E+00 0.  1.
</event>
<event>
 5   0  0.3445959E-06  0.3056353E+04  0.7818609E-02  0.8227820E-01
       -2   -1    0    0    0  501  0.00000000000E+00  0.00000000000E+00  0.11182908603E+04  0.11182908603E+04  0.25500000920E-02 0.  1.
        2   -1    0    0  501    0  0.00000000000E+00  0.00000000000E+00 -0.20882968927E+04  0.20882968927E+04  0.25500000920E-02 0. -1.
    10030    2    1    2    0    0  0.00000000000E+00  0.00000000000E+00 -0.97000603242E+03  0.32065877531E+04  0.30563529435E+04 0.  0.
        4    1    3    3  502    0  0.94733505328E+03  0.34944974531E+03 -0.16884540972E+04  0.19673427965E+04  0.12699999809E+01 0. -1.
       -4    1    3    3    0  502 -0.94733505328E+03 -0.34944974531E+03  0.71844806479E+03  0.12392449566E+04  0.12699999809E+01 0.  1.
</event>
<event>
 5   0  0.3374790E-06  0.3082907E+04  0.7818609E-02  0.8220445E-01
        2   -1    0    0  501    0  0.00000000000E+00  0.00000000000E+00  0.13341967039E+04  0.13341967039E+04  0.25500000920E-02 0. -1.
       -2   -1    0    0    0  501  0.00000000000E+00  0.00000000000E+00 -0.17809063831E+04  0.17809063831E+04  0.25500000920E-02 0.  1.
    10030    2    1    2    0    0  0.00000000000E+00  0.00000000000E+00 -0.44670967916E+03  0.31151030871E+04  0.30829073462E+04 0.  0.
        2    1    3    3  502    0 -0.37325400024E+03 -0.12898171809E+04 -0.98831615874E+03  0.16672479535E+04  0.25500000920E-02 0.  1.
       -2    1    3    3    0  502  0.37325400024E+03  0.12898171809E+04  0.54160647958E+03  0.14478551335E+04  0.25500000920E-02 0. -1.
</event>
<event>
 5   0  0.3374790E-06  0.3112460E+04  0.7818609E-02  0.8212327E-01
        2   -1    0    0  501    0  0.00000000000E+00  0.00000000000E+00  0.11966580114E+04  0.11966580114E+04  0.25500000920E-02 0. -1.
       -2   -1    0    0    0  501  0.00000000000E+00  0.00000000000E+00 -0.20238468390E+04  0.20238468390E+04  0.25500000920E-02 0.  1.
    10030    2    1    2    0    0  0.00000000000E+00  0.00000000000E+00 -0.82718882767E+03  0.32205048504E+04  0.31124604631E+04 0.  0.
        2    1    3    3  502    0  0.87371325960E+03 -0.30762229991E+03  0.88035450772E+03  0.12779007781E+04  0.25500000920E-02 0. -1.
       -2    1    3    3    0  502 -0.87371325960E+03  0.30762229991E+03 -0.17075433354E+04  0.19426040723E+04  0.25500000920E-02 0.  1.
</event>
<event>
 5   0  0.1235960E-06  0.3129814E+04  0.7818609E-02  0.8207603E-01
       -1   -1    0    0    0  501  0.00000000000E+00  0.00000000000E+00  0.12067310239E+04  0.12067310240E+04  0.50400001928E-02 0.  1.
        1   -1    0    0  501    0  0.00000000000E+00  0.00000000000E+00 -0.20293956223E+04  0.20293956223E+04  0.50400001928E-02 0. -1.
    10030    2    1    2    0    0  0.00000000000E+00  0.00000000000E+00 -0.82266459835E+03  0.32361266463E+04  0.31298144720E+04 0.  0.
        4    1    3    3  502    0  0.28764353065E+03 -0.10978342091E+04  0.70274282209E+03  0.13348512420E+04  0.12699999809E+01 0.  1.
       -4    1    3    3    0  502 -0.28764353065E+03  0.10978342091E+04 -0.15254074204E+04  0.19012754042E+04  0.12699999809E+01 0. -1.
</event>
<event>
 5   0  0.3374790E-06  0.3095283E+04  0.7818609E-02  0.8217034E-01
        2   -1    0    0  501    0  0.00000000000E+00  0.00000000000E+00  0.16719785393E+04  0.16719785393E+04  0.25500000920E-02 0. -1.
       -2   -1    0    0    0  501  0.00000000000E+00  0.00000000000E+00 -0.14325506235E+04  0.14325506235E+04  0.25500000920E-02 0.  1.
    10030    2    1    2    0    0  0.00000000000E+00  0.00000000000E+00  0.23942791579E+03  0.31045291628E+04  0.30952827974E+04 0.  0.
        2    1    3    3  502    0  0.10202010039E+04 -0.91415291544E+03 -0.60265153345E+03  0.14965542128E+04  0.25500000920E-02 0.  1.
       -2    1    3    3    0  502 -0.10202010039E+04  0.91415291544E+03  0.84207944924E+03  0.16079749500E+04  0.25500000920E-02 0. -1.
</event>
<event>
 5   0  0.3441897E-06  0.3121417E+04  0.7818609E-02  0.8209885E-01
        2   -1    0    0  501    0  0.00000000000E+00  0.00000000000E+00  0.92977159737E+03  0.92977159738E+03  0.25500000920E-02 0.  1.
       -2   -1    0    0    0  501  0.00000000000E+00  0.00000000000E+00 -0.26197955761E+04  0.26197955761E+04  0.25500000920E-02 0. -1.
    10030    2    1    2    0    0  0.00000000000E+00  0.00000000000E+00 -0.16900239787E+04  0.35495671735E+04  0.31214173176E+04 0.  0.
        5    1    3    3  502    0 -0.12053443380E+03  0.14942828815E+04 -0.13385725386E+04  0.20097781994E+04  0.46999998093E+01 0. -1.
       -5    1    3    3    0  502  0.12053443380E+03 -0.14942828815E+04 -0.35145144010E+03  0.15397889740E+04  0.46999998093E+01 0.  1.
</event>
<event>
 5   0  0.3441897E-06  0.3162597E+04  0.7818609E-02  0.8198766E-01
       -2   -1    0    0    0  501  0.00000000000E+00  0.00000000000E+00  0.11599168221E+04  0.11599168222E+04  0.25500000920E-02 0. -1.
        2   -1    0    0  501    0  0.00000000000E+00  0.00000000000E+00 -0.21557626953E+04  0.21557626953E+04  0.25500000920E-02 0.  1.
    10030    2    1    2    0    0  0.00000000000E+00  0.00000000000E+00 -0.99584587318E+03  0.33156795175E+04  0.31625972965E+04 0.  0.
        5    1    3    3  502    0 -0.72727779999E+03 -0.77521410868E+03  0.72946816711E+03  0.12891996779E+04  0.46999998093E+01 0. -1.
       -5    1    3    3    0  502  0.72727779999E+03  0.77521410868E+03 -0.17253140403E+04  0.20264798396E+04  0.46999998093E+01 0.  1.
</event>
<event>
 5   0  0.3340899E-06  0.3101148E+04  0.7818609E-02  0.8215423E-01
       -2   -1    0    0    0  501  0.00000000000E+00  0.00000000000E+00  0.11839032451E+04  0.11839032452E+04  0.25500000920E-02 0. -1.
        2   -1    0    0  501    0  0.00000000000E+00  0.00000000000E+00 -0.20308080798E+04  0.20308080798E+04  0.25500000920E-02 0.  1.
    10030    2    1    2    0    0  0.00000000000E+00  0.00000000000E+00 -0.84690483460E+03  0.32147113249E+04  0.31011483524E+04 0.  0.
        3    1    3    3  502    0 -0.14789644817E+04 -0.23854841006E+03 -0.83815078894E+03  0.17166065470E+04  0.10100000352E+00 0.  1.
       -3    1    3    3    0  502  0.14789644817E+04  0.23854841006E+03 -0.87540456669E+01  0.14981047779E+04  0.10100000352E+00 0. -1.
</event>
<event>
 5   0  0.1250276E-06  0.3105634E+04  0.7818609E-02  0.8214193E-01
        1   -1    0    0  501    0  0.00000000000E+00  0.00000000000E+00  0.30145519155E+04  0.30145519155E+04  0.50400001928E-02 0.  1.
       -1   -1    0    0    0  501  0.00000000000E+00  0.00000000000E+00 -0.79986715650E+03  0.79986715652E+03  0.50400001928E-02 0. -1.
    10030    2    1    2    0    0  0.00000000000E+00  0.00000000000E+00  0.22146847590E+04  0.38144190720E+04  0.31056342791E+04 0.  0.
        5    1    3    3  502    0  0.11716568373E+04  0.58467184077E+03  0.21324494474E+04  0.25023955805E+04  0.46999998093E+01 0.  1.
       -5    1    3    3    0  502 -0.11716568373E+04 -0.58467184077E+03  0.82235311638E+02  0.13120234915E+04  0.46999998093E+01 0. -1.
</event>
<event>
 5   0  0.1198763E-06  0.3151879E+04  0.7818609E-02  0.8201643E-01
        1   -1    0    0  501    0  0.00000000000E+00  0.00000000000E+00  0.21302076061E+04  0.21302076062E+04  0.50400001928E-02 0. -1.
       -1   -1    0    0    0  501  0.00000000000E+00  0.00000000000E+00 -0.11658885619E+04  0.11658885619E+04  0.50400001928E-02 0.  1.
    10030    2    1    2    0    0  0.00000000000E+00  0.00000000000E+00  0.96431904425E+03  0.32960961681E+04  0.31518786033E+04 0.  0.
        1    1    3    3  502    0  0.30459242901E+03  0.14868788567E+04  0.92583550623E+03  0.17778516999E+04  0.50400001928E-02 0. -1.
       -1    1    3    3    0  502 -0.30459242901E+03 -0.14868788567E+04  0.38483538020E+02  0.15182444681E+04  0.50400001928E-02 0.  1.
</event>
<event>
 5   0  0.3340899E-06  0.3170889E+04  0.7818609E-02  0.8196548E-01
        2   -1    0    0  501    0  0.00000000000E+00  0.00000000000E+00  0.21122200388E+04  0.21122200388E+04  0.25500000920E-02 0. -1.
       -2   -1    0    0    0  501  0.00000000000E+00  0.00000000000E+00 -0.11900436324E+04  0.11900436324E+04  0.25500000920E-02 0.  1.
    10030    2    1    2    0    0  0.00000000000E+00  0.00000000000E+00  0.92217640643E+03  0.33022636712E+04  0.31708888391E+04 0.  0.
        3    1    3    3  502    0 -0.67326445714E+03 -0.43511052621E+03 -0.96343933564E+03  0.12533242050E+04  0.10100000352E+00 0.  1.
       -3    1    3    3    0  502  0.67326445714E+03  0.43511052621E+03  0.18856157421E+04  0.20489394662E+04  0.10100000352E+00 0. -1.
</event>
<event>
 5   0  0.1171915E-06  0.3059709E+04  0.7818609E-02  0.8226883E-01
        1   -1    0    0  501    0  0.00000000000E+00  0.00000000000E+00  0.15720844684E+04  0.15720844684E+04  0.50400001928E-02 0. -1.
       -1   -1    0    0    0  501  0.00000000000E+00  0.00000000000E+00 -0.14887593208E+04  0.14887593208E+04  0.50400001928E-02 0.  1.
    10030    2    1    2    0    0  0.00000000000E+00  0.00000000000E+00  0.83325147661E+02  0.30608437892E+04  0.30597094015E+04 0.  0.
        2    1    3    3  502    0  0.12600599241E+04 -0.77017554708E+03 -0.35790261011E+03  0.15195445581E+04  0.25500000920E-02 0.  1.
       -2    1    3    3    0  502 -0.12600599241E+04  0.77017554708E+03  0.44122775777E+03  0.15412992311E+04  0.25500000920E-02 0. -1.
</event>
<event>
 5   0  0.3445959E-06  0.3111806E+04  0.7818609E-02  0.8212505E-01
       -2   -1    0    0    0  501  0.00000000000E+00  0.00000000000E+00  0.11202614355E+04  0.11202614355E+04  0.25500000920E-02 0.  1.
        2   -1    0    0  501    0  0.00000000000E+00  0.00000000000E+00 -0.21609551450E+04  0.21609551451E+04  0.25500000920E-02 0. -1.
    10030    2    1    2    0    0  0.00000000000E+00  0.00000000000E+00 -0.10406937096E+04  0.32812165805E+04  0.31118063647E+04 0.  0.
        4    1    3    3  502    0  0.10712256166E+04  0.69633663484E+03 -0.14566193595E+04  0.19375630576E+04  0.12699999809E+01 0. -1.
       -4    1    3    3    0  502 -0.10712256166E+04 -0.69633663484E+03  0.41592564999E+03  0.13436535230E+04  0.12699999809E+01 0.  1.
</event>
<event>
 5   0  0.1235960E-06  0.3104691E+04  0.7818609E-02  0.8214452E-01
       -1   -1    0    0    0  501  0.00000000000E+00  0.00000000000E+00  0.10587563162E+04  0.10587563162E+04  0.50400001928E-02 0.  1.
        1   -1    0    0  501    0  0.00000000000E+00  0.00000000000E+00 -0.22760446702E+04  0.22760446702E+04  0.50400001928E-02 0. -1.
    10030    2    1    2    0    0  0.00000000000E+00  0.00000000000E+00 -0.12172883540E+04  0.33348009864E+04  0.31046910768E+04 0.  0.
        4    1    3    3  502    0  0.88957004009E+03  0.74534442410E+03 -0.17160278540E+04  0.20716240912E+04  0.12699999809E+01 0. -1.
       -4    1    3    3    0  502 -0.88957004009E+03 -0.74534442410E+03  0.49873949998E+03  0.12631768952E+04  0.12699999809E+01 0.  1.
</event>
<event>
 5   0  0.3445959E-06  0.3107559E+04  0.7818609E-02  0.8213667E-01
        2   -1    0    0  501    0  0.00000000000E+00  0.00000000000E+00  0.15908829731E+04  0.15908829731E+04  0.25500000920E-02 0.  1.
       -2   -1    0    0    0  501  0.00000000000E+00  0.00000000000E+00 -0.15175411998E+04  0.15175411998E+04  0.25500000920E-02 0. -1.
    10030    2    1    2    0    0  0.00000000000E+00  0.00000000000E+00  0.73341773311E+02  0.31084241729E+04  0.31075588205E+04 0.  0.
        4    1    3    3  502    0 -0.14789947918E+03  0.20453870128E+03  0.15702378960E+04  0.15903958624E+04  0.12699999809E+01 0.  1.
       -4    1    3    3    0  502  0.14789947918E+03 -0.20453870128E+03 -0.14968961227E+04  0.15180283105E+04  0.12699999809E+01 0. -1.
</event>
<event>
 5   0  0.3445410E-06  0.3147627E+04  0.7818609E-02  0.8202787E-01
       -2   -1    0    0    0  501  0.00000000000E+00  0.00000000000E+00  0.98200809570E+03  0.98200809570E+03  0.25500000920E-02 0. -1.
        2   -1    0    0  501    0  0.00000000000E+00  0.00000000000E+00 -0.25222696271E+04  0.25222696271E+04  0.25500000920E-02 0.  1.
    10030    2    1    2    0    0  0.00000000000E+00  0.00000000000E+00 -0.15402615314E+04  0.35042777228E+04  0.31476271656E+04 0.  0.
        1    1    3    3  502    0 -0.48078366920E+03 -0.62185761234E+03  0.74782235066E+03  0.10849415167E+04  0.50400001928E-02 0. -1.
       -1    1    3    3    0  502  0.48078366920E+03  0.62185761234E+03 -0.22880838820E+04  0.24193362060E+04  0.50400001928E-02 0.  1.
</event>
<event>
 5   0  0.3374790E-06  0.2809987E+04  0.7818609E-02  0.8300174E-01
        2   -1    0    0  501    0  0.00000000000E+00  0.00000000000E+00  0.14694631808E+04  0.14694631808E+04  0.25500000920E-02 0.  1.
       -2   -1    0    0    0  501  0.00000000000E+00  0.00000000000E+00 -0.13433525055E+04  0.13433525055E+04  0.25500000920E-02 0. -1.
    10030    2    1    2    0    0  0.00000000000E+00  0.00000000000E+00  0.12611067535E+03  0.28128156864E+04  0.28099872211E+04 0.  0.
        2    1    3    3  502    0 -0.27615471883E+03  0.53734479229E+03 -0.12066875477E+04  0.13494797858E+04  0.25500000920E-02 0. -1.
       -2    1    3    3    0  502  0.27615471883E+03 -0.53734479229E+03  0.13327982230E+04  0.14633359006E+04  0.25500000920E-02 0.  1.
</event>
<event>
 5   0  0.1211008E-06  0.3066387E+04  0.7818609E-02  0.8225024E-01
        1   -1    0    0  501    0  0.00000000000E+00  0.00000000000E+00  0.12574946704E+04  0.12574946704E+04  0.50400001928E-02 0.  1.
       -1   -1    0    0    0  501  0.00000000000E+00  0.00000000000E+00 -0.18693375472E+04  0.18693375472E+04  0.50400001928E-02 0. -1.
    10030    2    1    2    0    0  0.00000000000E+00  0.00000000000E+00 -0.61184287685E+03  0.31268322176E+04  0.30663868006E+04 0.  0.
        3    1    3    3  502    0 -0.86964829734E+03  0.32279284654E+03 -0.15507218357E+04  0.18069924196E+04  0.10100000352E+00 0. -1.
       -3    1    3    3    0  502  0.86964829734E+03 -0.32279284654E+03  0.93887895880E+03  0.13198397980E+04  0.10100000352E+00 0.  1.
</event>
<event>
 5   0  0.1198763E-06  0.3127058E+04  0.7818609E-02  0.8208351E-01
        1   -1    0    0  501    0  0.00000000000E+00  0.00000000000E+00  0.16385501876E+04  0.16385501876E+04  0.50400001928E-02 0. -1.
       -1   -1    0    0    0  501  0.00000000000E+00  0.00000000000E+00 -0.14919429436E+04  0.14919429436E+04  0.50400001928E-02 0.  1.
    10030    2    1    2    0    0  0.00000000000E+00  0.00000000000E+00  0.14660724402E+03  0.31304931311E+04  0.31270582918E+04 0.  0.
        1    1    3    3  502    0  0.15488879151E+04 -0.20594515429E+03  0.12954548719E+03  0.15678804844E+04  0.50400001928E-02 0.  1.
       -1    1    3    3    0  502 -0.15488879151E+04  0.20594515429E+03  0.17061756829E+02  0.15626126467E+04  0.50400001928E-02 0. -1.
</event>
<event>
 5   0  0.1171915E-06  0.3075415E+04  0.7818609E-02  0.8222518E-01
        1   -1    0    0  501    0  0.00000000000E+00  0.00000000000E+00  0.10508106277E+04  0.10508106277E+04  0.50400001928E-02 0. -1.
       -1   -1    0    0    0  501  0.00000000000E+00  0.00000000000E+00 -0.22502093504E+04  0.22502093504E+04  0.50400001928E-02 0.  1.
    10030    2    1    2    0    0  0.00000000000E+00  0.00000000000E+00 -0.11993987227E+04  0.33010199782E+04  0.30754147038E+04 0.  0.
        2    1    3    3  502    0 -0.10291064474E+04 -0.66074177751E+03 -0.16002300071E+04  0.20140446500E+04  0.25500000920E-02 0.  1.
       -2    1    3    3    0  502  0.10291064474E+04  0.66074177751E+03  0.40083128440E+03  0.12869753281E+04  0.25500000920E-02 0. -1.
</event>
<event>
 5   0  0.3374790E-06  0.3155175E+04  0.7818609E-02  0.8200757E-01
        2   -1    0    0  501    0  0.00000000000E+00  0.00000000000E+00  0.13976586607E+04  0.13976586607E+04  0.25500000920E-02 0.  1.
       -2   -1    0    0    0  501  0.00000000000E+00  0.00000000000E+00 -0.17806801623E+04  0.17806801623E+04  0.25500000920E-02 0. -1.
    10030    2    1    2    0    0  0.00000000000E+00  0.00000000000E+00 -0.38302150159E+03  0.31783388230E+04  0.31551754631E+04 0.  0.
        2    1    3    3  502    0 -0.96706527873E+03  0.60797708696E+03  0.90456354689E+03  0.14570815358E+04  0.25500000920E-02 0.  1.
       -2    1    3    3    0  502  0.96706527873E+03 -0.60797708696E+03 -0.12875850485E+04  0.17212572872E+04  0.25500000920E-02 0. -1.
</event>
<event>
 5   0  0.3441897E-06  0.3121288E+04  0.7818609E-02  0.8209920E-01
       -2   -1    0    0    0  501  0.00000000000E+00  0.00000000000E+00  0.18970592338E+04  0.18970592338E+04  0.25500000920E-02 0.  1.
        2   -1    0    0  501    0  0.00000000000E+00  0.00000000000E+00 -0.12838874045E+04  0.12838874045E+04  0.25500000920E-02 0. -1.
    10030    2    1    2    0    0  0.00000000000E+00  0.00000000000E+00  0.61317182935E+03  0.31809466383E+04  0.31212884877E+04 0.  0.
        5    1    3    3  502    0 -0.35379592889E+03  0.68704005775E+03  0.16883745750E+04  0.18568323553E+04  0.46999998093E+01 0.  1.
       -5    1    3    3    0  502  0.35379592889E+03 -0.68704005775E+03 -0.10752027456E+04  0.13241142830E+04  0.46999998093E+01 0. -1.
</event>
<event>
 5   0  0.1198763E-06  0.3162610E+04  0.7818609E-02  0.8198762E-01
       -1   -1    0    0    0  501  0.00000000000E+00  0.00000000000E+00  0.11408875648E+04  0.11408875648E+04  0.50400001928E-02 0. -1.
        1   -1    0    0  501    0  0.00000000000E+00  0.00000000000E+00 -0.21917370534E+04  0.21917370534E+04  0.50400001928E-02 0.  1.
    10030    2    1    2    0    0  0.00000000000E+00  0.00000000000E+00 -0.10508494886E+04  0.33326246182E+04  0.31626100295E+04 0.  0.
        1    1    3    3  502    0 -0.66008608647E+03 -0.14187942167E+04 -0.76533664811E+03  0.17419617837E+04  0.50400001928E-02 0.  1.
       -1    1    3    3    0  502  0.66008608647E+03  0.14187942167E+04 -0.28551284045E+03  0.15906628345E+04  0.50400001928E-02 0. -1.
</event>
<event>
 5   0  0.3445410E-06  0.3236735E+04  0.7818609E-02  0.8179182E-01
       -2   -1    0    0    0  501  0.00000000000E+00  0.00000000000E+00  0.16376168641E+04  0.16376168641E+04  0.25500000920E-02 0.  1.
        2   -1    0    0  501    0  0.00000000000E+00  0.00000000000E+00 -0.15993441450E+04  0.15993441450E+04  0.25500000920E-02 0. -1.
    10030    2    1    2    0    0  0.00000000000E+00  0.00000000000E+00  0.38272719127E+02  0.32369610090E+04  0.32367347394E+04 0.  0.
        1    1    3    3  502    0  0.11408979540E+03 -0.16042998674E+04 -0.16064939066E+03  0.16163547793E+04  0.50400001928E-02 0.  1.
       -1    1    3    3    0  502 -0.11408979540E+03  0.16042998674E+04  0.19892210979E+03  0.16206062297E+04  0.50400001928E-02 0. -1.
</event>
<event>
 5   0  0.1198763E-06  0.3111007E+04  0.7818609E-02  0.8212724E-01
       -1   -1    0    0    0  501  0.00000000000E+00  0.00000000000E+00  0.11819568225E+04  0.11819568225E+04  0.50400001928E-02 0. -1.
        1   -1    0    0  501    0  0.00000000000E+00  0.00000000000E+00 -0.20471056734E+04  0.20471056734E+04  0.50400001928E-02 0.  1.
    10030    2    1    2    0    0  0.00000000000E+00  0.00000000000E+00 -0.86514885089E+03  0.32290624959E+04  0.31110066005E+04 0.  0.
        1    1    3    3  502    0  0.49878071341E+03 -0.14554571719E+04 -0.19485777729E+03  0.15508408470E+04  0.50400001928E-02 0. -1.
       -1    1    3    3    0  502 -0.49878071341E+03  0.14554571719E+04 -0.67029107360E+03  0.16782216489E+04  0.50400001928E-02 0.  1.
</event>
<event>
 5   0  0.3441897E-06  0.3105648E+04  0.7818609E-02  0.8214190E-01
        2   -1    0    0  501    0  0.00000000000E+00  0.00000000000E+00  0.22590058240E+04  0.22590058240E+04  0.25500000920E-02 0. -1.
       -2   -1    0    0    0  501  0.00000000000E+00  0.00000000000E+00 -0.10673999119E+04  0.10673999119E+04  0.25500000920E-02 0.  1.
    10030    2    1    2    0    0  0.00000000000E+00  0.00000000000E+00  0.11916059121E+04  0.33264057359E+04  0.31056481562E+04 0.  0.
        5    1    3    3  502    0  0.20042044077E+03  0.10539172113E+04  0.17982479643E+04  0.20939502555E+04  0.46999998093E+01 0. -1.
       -5    1    3    3    0  502 -0.20042044077E+03 -0.10539172113E+04 -0.60664205224E+03  0.12324554803E+04  0.46999998093E+01 0.  1.
</event>
<event>
 5   0  0.3445410E-06  0.3106392E+04  0.7818609E-02  0.8213986E-01
       -2   -1    0    0    0  501  0.00000000000E+00  0.00000000000E+00  0.13846542075E+04  0.13846542075E+04  0.25500000920E-02 0. -1.
        2   -1    0    0  501    0  0.00000000000E+00  0.00000000000E+00 -0.17422534297E+04  0.17422534297E+04  0.25500000920E-02 0.  1.
    10030    2    1    2    0    0  0.00000000000E+00  0.00000000000E+00 -0.35759922223E+03  0.31269076372E+04  0.31063924685E+04 0.  0.
        1    1    3    3  502    0 -0.99039716377E+03  0.10572890828E+04  0.38496325123E+03  0.14989808042E+04  0.50400001928E-02 0. -1.
       -1    1    3    3    0  502  0.99039716377E+03 -0.10572890828E+04 -0.74256247346E+03  0.16279268330E+04  0.50400001928E-02 0.  1.
</event>
<event>
 5   0  0.3441897E-06  0.3101968E+04  0.7818609E-02  0.8215198E-01
       -2   -1    0    0    0  501  0.00000000000E+00  0.00000000000E+00  0.11706874426E+04  0.11706874426E+04  0.25500000920E-02 0. -1.
        2   -1    0    0  501    0  0.00000000000E+00  0.00000000000E+00 -0.20548194960E+04  0.20548194960E+04  0.25500000920E-02 0.  1.
    10030    2    1    2    0    0  0.00000000000E+00  0.00000000000E+00 -0.88413205347E+03  0.32255069386E+04  0.31019680080E+04 0.  0.
        5    1    3    3  502    0  0.17095848118E+03 -0.17518900874E+03 -0.20345999368E+04  0.20492771857E+04  0.46999998093E+01 0.  1.
       -5    1    3    3    0  502 -0.17095848118E+03  0.17518900874E+03  0.11504678833E+04  0.11762297529E+04  0.46999998093E+01 0. -1.
</event>
<event>
 5   0  0.3441897E-06  0.3109412E+04  0.7818609E-02  0.8213160E-01
       -2   -1    0    0    0  501  0.00000000000E+00  0.00000000000E+00  0.83020937050E+03  0.83020937051E+03  0.25500000920E-02 0.  1.
        2   -1    0    0  501    0  0.00000000000E+00  0.00000000000E+00 -0.29114466740E+04  0.29114466740E+04  0.25500000920E-02 0. -1.
    10030    2    1    2    0    0  0.00000000000E+00  0.00000000000E+00 -0.20812373035E+04  0.37416560445E+04  0.31094117196E+04 0.  0.
        5    1    3    3  502    0 -0.82395995230E+03 -0.13153610800E+04 -0.11482711623E+04  0.19307080375E+04  0.46999998093E+01 0. -1.
       -5    1    3    3    0  502  0.82395995230E+03  0.13153610800E+04 -0.93296614119E+03  0.18109480071E+04  0.46999998093E+01 0.  1.
</event>
<event>
 5   0  0.1171915E-06  0.2959960E+04  0.7818609E-02  0.8255258E-01
        1   -1    0    0  501    0  0.00000000000E+00  0.00000000000E+00  0.12535398686E+04  0.12535398686E+04  0.50400001928E-02 0. -1.
       -1   -1    0    0    0  501  0.00000000000E+00  0.00000000000E+00 -0.17473244671E+04  0.17473244671E+04  0.50400001928E-02 0.  1.
    10030    2    1    2    0    0  0.00000000000E+00  0.00000000000E+00 -0.49378459850E+03  0.30008643357E+04  0.29599600558E+04 0.  0.
        2    1    3    3  502    0  0.38323392605E+03  0.14248705240E+04 -0.36344461016E+03  0.15196105544E+04  0.25500000920E-02 0. -1.
       -2    1    3    3    0  502 -0.38323392605E+03 -0.14248705240E+04 -0.13033998835E+03  0.14812537814E+04  0.25500000920E-02 0.  1.
</event>
<event>
 5   0  0.3445410E-06  0.3144515E+04  0.7818609E-02  0.8203626E-01
       -2   -1    0    0    0  501  0.00000000000E+00  0.00000000000E+00  0.85034342561E+03  0.85034342562E+03  0.25500000920E-02 0. -1.
        2   -1    0    0  501    0  0.00000000000E+00  0.00000000000E+00 -0.29070531640E+04  0.29070531640E+04  0.25500000920E-02 0.  1.
    10030    2    1    2    0    0  0.00000000000E+00  0.00000000000E+00 -0.20567097384E+04  0.37573965896E+04  0.31445149361E+04 0.  0.
        1    1    3    3  502    0 -0.32030054697E+02  0.79331277691E+03  0.59320757078E+03  0.99109349128E+03  0.50400001928E-02 0. -1.
       -1    1    3    3    0  502  0.32030054697E+02 -0.79331277691E+03 -0.26499173091E+04  0.27663030983E+04  0.50400001928E-02 0.  1.
</event>
<event>
 5   0  0.1171915E-06  0.2774276E+04  0.7818609E-02  0.8311299E-01
        1   -1    0    0  501    0  0.00000000000E+00  0.00000000000E+00  0.16073360674E+04  0.16073360674E+04  0.50400001928E-02 0.  1.
       -1   -1    0    0    0  501  0.00000000000E+00  0.00000000000E+00 -0.11971059809E+04  0.11971059809E+04  0.50400001928E-02 0. -1.
    10030    2    1    2    0    0  0.00000000000E+00  0.00000000000E+00  0.41023008648E+03  0.28044420483E+04  0.27742758476E+04 0.  0.
        2    1    3    3  502    0  0.13330799613E+04  0.29160007994E+03  0.45685874430E+03  0.14390457609E+04  0.25500000920E-02 0.  1.
       -2    1    3    3    0  502 -0.13330799613E+04 -0.29160007994E+03 -0.46628657824E+02  0.13653962874E+04  0.25500000920E-02 0. -1.
</event>
<event>
 5   0  0.3445959E-06  0.3079163E+04  0.7818609E-02  0.8221480E-01
        2   -1    0    0  501    0  0.00000000000E+00  0.00000000000E+00  0.25609710824E+04  0.25609710824E+04  0.25500000920E-02 0. -1.
       -2   -1    0    0    0  501  0.00000000000E+00  0.00000000000E+00 -0.92555178825E+03  0.92555178825E+03  0.25500000920E-02 0.  1.
    10030    2    1    2    0    0  0.00000000000E+00  0.00000000000E+00  0.16354192941E+04  0.34865228706E+04  0.30791631103E+04 0.  0.
        4    1    3    3  502    0 -0.18683946184E+03 -0.14431600414E+04  0.24852427155E+03  0.14762743024E+04  0.12699999809E+01 0.  1.
       -4    1    3    3    0  502  0.18683946184E+03  0.14431600414E+04  0.13868950226E+04  0.20102485682E+04  0.12699999809E+01 0. -1.
</event>
<event>
 5   0  0.1211008E-06  0.3109284E+04  0.7818609E-02  0.8213194E-01
       -1   -1    0    0    0  501  0.00000000000E+00  0.00000000000E+00  0.16438932897E+04  0.16438932897E+04  0.50400001928E-02 0.  1.
        1   -1    0    0  501    0  0.00000000000E+00  0.00000000000E+00 -0.14702368376E+04  0.14702368376E+04  0.50400001928E-02 0. -1.
    10030    2    1    2    0    0  0.00000000000E+00  0.00000000000E+00  0.17365645211E+03  0.31141301273E+04  0.31092844654E+04 0.  0.
        3    1    3    3  502    0 -0.53107556013E+03  0.71401598883E+03  0.13635903216E+04  0.16282624660E+04  0.10100000352E+00 0.  1.
       -3    1    3    3    0  502  0.53107556013E+03 -0.71401598883E+03 -0.11899338695E+04  0.14858676613E+04  0.10100000352E+00 0. -1.
</event>
<event>
 5   0  0.3340899E-06  0.3107452E+04  0.7818609E-02  0.8213696E-01
        2   -1    0    0  501    0  0.00000000000E+00  0.00000000000E+00  0.16374047104E+04  0.16374047104E+04  0.25500000920E-02 0. -1.
       -2   -1    0    0    0  501  0.00000000000E+00  0.00000000000E+00 -0.14743236315E+04  0.14743236315E+04  0.25500000920E-02 0.  1.
    10030    2    1    2    0    0  0.00000000000E+00  0.00000000000E+00  0.16308107896E+03  0.31117283419E+04  0.31074519844E+04 0.  0.
        3    1    3    3  502    0 -0.10401242857E+04 -0.89547311176E+03  0.81078294092E+03  0.15940826864E+04  0.10100000352E+00 0. -1.
       -3    1    3    3    0  502  0.10401242857E+04  0.89547311176E+03 -0.64770186196E+03  0.15176456555E+04  0.10100000352E+00 0.  1.
</event>
<event>
 5   0  0.1235960E-06  0.3115370E+04  0.7818609E-02  0.8211532E-01
        1   -1    0    0  501    0  0.00000000000E+00  0.00000000000E+00  0.16713133689E+04  0.16713133689E+04  0.50400001928E-02 0.  1.
       -1   -1    0    0    0  501  0.00000000000E+00  0.00000000000E+00 -0.14517818994E+04  0.14517818994E+04  0.50400001928E-02 0. -1.
    10030    2    1    2    0    0  0.00000000000E+00  0.00000000000E+00  0.21953146951E+03  0.31230952683E+04  0.31153699602E+04 0.  0.
        4    1    3    3  502    0 -0.66055389846E+03  0.11931325136E+03 -0.12993563106E+04  0.14624963383E+04  0.12699999809E+01 0. -1.
       -4    1    3    3    0  502  0.66055389846E+03 -0.11931325136E+03  0.15188877801E+04  0.16605989300E+04  0.12699999809E+01 0.  1.
</event>
<event>
 5   0  0.3445410E-06  0.3182045E+04  0.7818609E-02  0.8193575E-01
       -2   -1    0    0    0  501  0.00000000000E+00  0.00000000000E+00  0.13043410832E+04  0.13043410832E+04  0.25500000920E-02 0.  1.
        2   -1    0    0  501    0  0.00000000000E+00  0.00000000000E+00 -0.19407133713E+04  0.19407133713E+04  0.25500000920E-02 0. -1.
    10030    2    1    2    0    0  0.00000000000E+00  0.00000000000E+00 -0.63637228819E+03  0.32450544545E+04  0.31820447394E+04 0.  0.
        1    1    3    3  502    0  0.13496840548E+04 -0.84174706861E+03 -0.28334822705E+03  0.16156953280E+04  0.50400001928E-02 0. -1.
       -1    1    3    3    0  502 -0.13496840548E+04  0.84174706861E+03 -0.35302406114E+03  0.16293591265E+04  0.50400001928E-02 0.  1.
</event>
<event>
 5   0  0.1250276E-06  0.2998096E+04  0.7818609E-02  0.8244275E-01
       -1   -1    0    0    0  501  0.00000000000E+00  0.00000000000E+00  0.12232664921E+04  0.12232664921E+04  0.50400001928E-02 0. -1.
        1   -1    0    0  501    0  0.00000000000E+00  0.00000000000E+00 -0.18370035299E+04  0.18370035299E+04  0.50400001928E-02 0.  1.
    10030    2    1    2    0    0  0.00000000000E+00  0.00000000000E+00 -0.61373703780E+03  0.30602700220E+04  0.29980959718E+04 0.  0.
        5    1    3    3  502    0 -0.81719600062E+03  0.12527136891E+04 -0.20468310828E+03  0.15096417307E+04  0.46999998093E+01 0.  1.
       -5    1    3    3    0  502  0.81719600062E+03 -0.12527136891E+04 -0.40905392952E+03  0.15506282913E+04  0.46999998093E+01 0. -1.
</event>
<event>
 5   0  0.1235960E-06  0.3143442E+04  0.7818609E-02  0.8203916E-01
        1   -1    0    0  501    0  0.00000000000E+00  0.00000000000E+00  0.20169587515E+04  0.20169587515E+04  0.50400001928E-02 0. -1.
       -1   -1    0    0    0  501  0.00000000000E+00  0.00000000000E+00 -0.12247681238E+04  0.12247681238E+04  0.50400001928E-02 0.  1.
    10030    2    1    2    0    0  0.00000000000E+00  0.00000000000E+00  0.79219062775E+03  0.32417268753E+04  0.31434419262E+04 0.  0.
        4    1    3    3  502    0  0.95847129234E+03 -0.46041464347E+03 -0.79752905661E+03  0.13291738303E+04  0.12699999809E+01 0.  1.
       -4    1    3    3    0  502 -0.95847129234E+03  0.46041464347E+03  0.15897196844E+04  0.19125530450E+04  0.12699999809E+01 0. -1.
</event>
<event>
 5   0  0.3340899E-06  0.3113790E+04  0.7818609E-02  0.8211963E-01
       -2   -1    0    0    0  501  0.00000000000E+00  0.00000000000E+00  0.17397888151E+04  0.17397888151E+04  0.25500000920E-02 0. -1.
        2   -1    0    0  501    0  0.00000000000E+00  0.00000000000E+00 -0.13932280531E+04  0.13932280531E+04  0.25500000920E-02 0.  1.
    10030    2    1    2    0    0  0.00000000000E+00  0.00000000000E+00  0.34656076194E+03  0.31330168682E+04  0.31137903486E+04 0.  0.
        3    1    3    3  502    0  0.20391167506E+03  0.45973874236E+03 -0.13092430479E+04  0.14025181108E+04  0.10100000352E+00 0.  1.
       -3    1    3    3    0  502 -0.20391167506E+03 -0.45973874236E+03  0.16558038099E+04  0.17304987574E+04  0.10100000352E+00 0. -1.
</event>
<event>
 5   0  0.1250276E-06  0.2884841E+04  0.7818609E-02  0.8277402E-01
       -1   -1    0    0    0  501  0.00000000000E+00  0.00000000000E+00  0.19193261205E+04  0.19193261205E+04  0.50400001928E-02 0. -1.
        1   -1    0    0  501    0  0.00000000000E+00  0.00000000000E+00 -0.10840145252E+04  0.10840145252E+04  0.50400001928E-02 0.  1.
    10030    2    1    2    0    0  0.00000000000E+00  0.00000000000E+00  0.83531159529E+03  0.30033406458E+04  0.28848413428E+04 0.  0.
        5    1    3    3  502    0 -0.12079561963E+04 -0.78759589429E+03  0.45202454802E+03  0.15112292172E+04  0.46999998093E+01 0.  1.
       -5    1    3    3    0  502  0.12079561963E+04  0.78759589429E+03  0.38328704727E+03  0.14921114286E+04  0.46999998093E+01 0. -1.
</event>
<event>
 5   0  0.1211008E-06  0.3093824E+04  0.7818609E-02  0.8217435E-01
        1   -1    0    0  501    0  0.00000000000E+00  0.00000000000E+00  0.18683773212E+04  0.18683773212E+04  0.50400001928E-02 0. -1.
       -1   -1    0    0    0  501  0.00000000000E+00  0.00000000000E+00 -0.12807564649E+04  0.12807564649E+04  0.50400001928E-02 0.  1.
    10030    2    1    2    0    0  0.00000000000E+00  0.00000000000E+00  0.58762085627E+03  0.31491337861E+04  0.30938237396E+04 0.  0.
        3    1    3    3  502    0  0.74660993622E+03  0.16311125402E+03  0.16628102156E+04  0.18300189894E+04  0.10100000352E+00 0. -1.
       -3    1    3    3    0  502 -0.74660993622E+03 -0.16311125402E+03 -0.10751893594E+04  0.13191147967E+04  0.10100000352E+00 0.  1.
</event>
<event>
 5   0  0.1171915E-06  0.3094270E+04  0.7818609E-02  0.8217312E-01
       -1   -1    0    0    0  501  0.00000000000E+00  0.00000000000E+00  0.10013548903E+04  0.10013548903E+04  0.50400001928E-02 0.  1.
        1   -1    0    0  501    0  0.00000000000E+00  0.00000000000E+00 -0.23903885858E+04  0.23903885858E+04  0.50400001928E-02 0. -1.
    10030    2    1    2    0    0  0.00000000000E+00  0.00000000000E+00 -0.13890336956E+04  0.33917434761E+04  0.30942703825E+04 0.  0.
        2    1    3    3  502    0  0.34454181814E+03 -0.96868118336E+03  0.57273054042E+03  0.11768910618E+04  0.25500000920E-02 0.  1.
       -2    1    3    3    0  502 -0.34454181814E+03  0.96868118336E+03 -0.19617642360E+04  0.22148524143E+04  0.25500000920E-02 0. -1.
</event>
<event>
 5   0  0.3374790E-06  0.3095200E+04  0.7818609E-02  0.8217057E-01
        2   -1    0    0  501    0  0.00000000000E+00  0.00000000000E+00  0.11950534483E+04  0.11950534483E+04  0.25500000920E-02 0. -1.
       -2   -1    0    0    0  501  0.00000000000E+00  0.00000000000E+00 -0.20041490544E+04  0.20041490544E+04  0.25500000920E-02 0.  1.
    10030    2    1    2    0    0  0.00000000000E+00  0.00000000000E+00 -0.80909560612E+03  0.31992025027E+04  0.30951996629E+04 0.  0.
        2    1    3    3  502    0 -0.15268806432E+04  0.29603346714E+02 -0.66361783121E+03  0.16651214619E+04  0.25500000920E-02 0. -1.
       -2    1    3    3    0  502  0.15268806432E+04 -0.29603346714E+02 -0.14547777492E+03  0.15340810408E+04  0.25500000920E-02 0.  1.
</event>
<event>
 5   0  0.1235960E-06  0.3100001E+04  0.7818609E-02  0.8215738E-01
       -1   -1    0    0    0  501  0.00000000000E+00  0.00000000000E+00  0.16327650614E+04  0.16327650614E+04  0.50400001928E-02 0. -1.
        1   -1    0    0  501    0  0.00000000000E+00  0.00000000000E+00 -0.14714312253E+04  0.14714312253E+04  0.50400001928E-02 0.  1.
    10030    2    1    2    0    0  0.00000000000E+00  0.00000000000E+00  0.16133383611E+03  0.31041962868E+04  0.31000009645E+04 0.  0.
        4    1    3    3  502    0 -0.73986738833E+03 -0.92814184301E+03 -0.91750147315E+03  0.15002205169E+04  0.12699999809E+01 0.  1.
       -4    1    3    3    0  502  0.73986738833E+03  0.92814184301E+03  0.10788353093E+04  0.16039757699E+04  0.12699999809E+01 0. -1.
</event>
<event>
 5   0  0.1171915E-06  0.2539062E+04  0.7818609E-02  0.8389200E-01
       -1   -1    0    0    0  501  0.00000000000E+00  0.00000000000E+00  0.76703013398E+03  0.76703013400E+03  0.50400001928E-02 0.  1.
        1   -1    0    0  501    0  0.00000000000E+00  0.00000000000E+00 -0.21012322791E+04  0.21012322791E+04  0.50400001928E-02 0. -1.
    10030    2    1    2    0    0  0.00000000000E+00  0.00000000000E+00 -0.13342021452E+04  0.28682624131E+04  0.25390616193E+04 0.  0.
        2    1    3    3  502    0 -0.27239352026E+03  0.17049488479E+03 -0.20545273379E+04  0.20795069891E+04  0.25500000920E-02 0. -1.
       -2    1    3    3    0  502  0.27239352026E+03 -0.17049488479E+03  0.72032519274E+03  0.78875542402E+03  0.25500000920E-02 0.  1.
</event>
<event>
 5   0  0.1211008E-06  0.3089688E+04  0.7818609E-02  0.8218574E-01
       -1   -1    0    0    0  501  0.00000000000E+00  0.00000000000E+00  0.86796009670E+03  0.86796009671E+03  0.50400001928E-02 0. -1.
        1   -1    0    0  501    0  0.00000000000E+00  0.00000000000E+00 -0.27495996345E+04  0.27495996345E+04  0.50400001928E-02 0.  1.
    10030    2    1    2    0    0  0.00000000000E+00  0.00000000000E+00 -0.18816395378E+04  0.36175597312E+04  0.30896878578E+04 0.  0.
        3    1    3    3  502    0 -0.14109631019E+04  0.62878075463E+03 -0.91858465305E+03  0.17972144800E+04  0.10100000352E+00 0. -1.
       -3    1    3    3    0  502  0.14109631019E+04 -0.62878075463E+03 -0.96305488478E+03  0.18203452512E+04  0.10100000352E+00 0.  1.
</event>
<event>
 5   0  0.3445410E-06  0.3043237E+04  0.7818609E-02  0.8231491E-01
       -2   -1    0    0    0  501  0.00000000000E+00  0.00000000000E+00  0.13549218711E+04  0.13549218711E+04  0.25500000920E-02 0.  1.
        2   -1    0    0  501    0  0.00000000000E+00  0.00000000000E+00 -0.17088233502E+04  0.17088233502E+04  0.25500000920E-02 0. -1.
    10030    2    1    2    0    0  0.00000000000E+00  0.00000000000E+00 -0.35390147913E+03  0.30637452214E+04  0.30432365213E+04 0.  0.
        1    1    3    3  502    0 -0.82860050466E+03  0.86068012609E+03 -0.11256243800E+04  0.16414564632E+04  0.50400001928E-02 0. -1.
       -1    1    3    3    0  502  0.82860050466E+03 -0.86068012609E+03  0.77172290088E+03  0.14222887581E+04  0.50400001928E-02 0.  1.
</event>
<event>
 5   0  0.3445959E-06  0.3221824E+04  0.7818609E-02  0.8183077E-01
       -2   -1    0    0    0  501  0.00000000000E+00  0.00000000000E+00  0.85057234636E+03  0.85057234637E+03  0.25500000920E-02 0.  1.
        2   -1    0    0  501    0  0.00000000000E+00  0.00000000000E+00 -0.30509312416E+04  0.30509312416E+04  0.25500000920E-02 0. -1.
    10030    2    1    2    0    0  0.00000000000E+00  0.00000000000E+00 -0.22003588953E+04  0.39015035880E+04  0.32218241695E+04 0.  0.
        4    1    3    3  502    0 -0.83979803861E+03 -0.25715558688E+03  0.53513205349E+03  0.10284734654E+04  0.12699999809E+01 0.  1.
       -4    1    3    3    0  502  0.83979803861E+03  0.25715558688E+03 -0.27354909487E+04  0.28730301226E+04  0.12699999809E+01 0. -1.
</event>
<event>
 5   0  0.1198763E-06  0.2841294E+04  0.7818609E-02  0.8290562E-01
       -1   -1    0    0    0  501  0.00000000000E+00  0.00000000000E+00  0.13755837135E+04  0.13755837135E+04  0.50400001928E-02 0. -1.
        1   -1    0    0  501    0  0.00000000000E+00  0.00000000000E+00 -0.14671860239E+04  0.14671860239E+04  0.50400001928E-02 0.  1.
    10030    2    1    2    0    0  0.00000000000E+00  0.00000000000E+00 -0.91602310418E+02  0.28427697374E+04  0.28412935076E+04 0.  0.
        1    1    3    3  502    0 -0.27536416226E+03  0.13182611831E+04 -0.49836263149E+03  0.14359677159E+04  0.50400001928E-02 0.  1.
       -1    1    3    3    0  502  0.27536416226E+03 -0.13182611831E+04  0.40676032108E+03  0.14068020214E+04  0.50400001928E-02 0. -1.
</event>
<event>
 5   0  0.3445410E-06  0.3236650E+04  0.7818609E-02  0.8179204E-01
        2   -1    0    0  501    0  0.00000000000E+00  0.00000000000E+00  0.18371716643E+04  0.18371716643E+04  0.25500000920E-02 0.  1.
       -2   -1    0    0    0  501  0.00000000000E+00  0.00000000000E+00 -0.14255480862E+04  0.14255480862E+04  0.25500000920E-02 0. -1.
    10030    2    1    2    0    0  0.00000000000E+00  0.00000000000E+00  0.41162357812E+03  0.32627197505E+04  0.32366504600E+04 0.  0.
        1    1    3    3  502    0 -0.97725300689E+03  0.44259087332E+03 -0.10155851440E+04  0.14772688670E+04  0.50400001928E-02 0. -1.
       -1    1    3    3    0  502  0.97725300689E+03 -0.44259087332E+03  0.14272087222E+04  0.17854508835E+04  0.50400001928E-02 0.  1.
</event>
<event>
 5   0  0.3445959E-06  0.2919474E+04  0.7818609E-02  0.8267107E-01
        2   -1    0    0  501    0  0.00000000000E+00  0.00000000000E+00  0.18614811310E+04  0.18614811310E+04  0.25500000920E-02 0.  1.
       -2   -1    0    0    0  501  0.00000000000E+00  0.00000000000E+00 -0.11446968492E+04  0.11446968492E+04  0.25500000920E-02 0. -1.
    10030    2    1    2    0    0  0.00000000000E+00  0.00000000000E+00  0.71678428182E+03  0.30061779802E+04  0.29194736412E+04 0.  0.
        4    1    3    3  502    0  0.13495781507E+04  0.55201558160E+03  0.42934118079E+03  0.15200058716E+04  0.12699999809E+01 0.  1.
       -4    1    3    3    0  502 -0.13495781507E+04 -0.55201558160E+03  0.28744310103E+03  0.14861721086E+04  0.12699999809E+01 0. -1.
</event>
<event>
 5   0  0.3441897E-06  0.3055043E+04  0.7818609E-02  0.8228186E-01
        2   -1    0    0  501    0  0.00000000000E+00  0.00000000000E+00  0.26519570769E+04  0.26519570769E+04  0.25500000920E-02 0.  1.
       -2   -1    0    0    0  501  0.00000000000E+00  0.00000000000E+00 -0.87984878564E+03  0.87984878565E+03  0.25500000920E-02 0. -1.
    10030    2    1    2    0    0  0.00000000000E+00  0.00000000000E+00  0.17721082912E+04  0.35318058625E+04  0.30550425291E+04 0.  0.
        5    1    3    3  502    0  0.12138886679E+04 -0.91481750416E+03  0.10609300472E+04  0.18536481379E+04  0.46999998093E+01 0. -1.
       -5    1    3    3    0  502 -0.12138886679E+04  0.91481750416E+03  0.71117824400E+03  0.16781577246E+04  0.46999998093E+01 0.  1.
</event>
<event>
 5   0  0.3445410E-06  0.3114392E+04  0.7818609E-02  0.8211799E-01
       -2   -1    0    0    0  501  0.00000000000E+00  0.00000000000E+00  0.20409013539E+04  0.20409013539E+04  0.25500000920E-02 0. -1.
        2   -1    0    0  501    0  0.00000000000E+00  0.00000000000E+00 -0.11881315710E+04  0.11881315710E+04  0.25500000920E-02 0.  1.
    10030    2    1    2    0    0  0.00000000000E+00  0.00000000000E+00  0.85276978290E+03  0.32290329249E+04  0.31143919675E+04 0.  0.
        1    1    3    3  502    0  0.52084924982E+03  0.34097232773E+03  0.19062703708E+04  0.20053460539E+04  0.50400001928E-02 0. -1.
       -1    1    3    3    0  502 -0.52084924982E+03 -0.34097232773E+03 -0.10535005879E+04  0.12236868709E+04  0.50400001928E-02 0.  1.
</event>
<event>
 5   0  0.3441897E-06  0.3074399E+04  0.7818609E-02  0.8222799E-01
       -2   -1    0    0    0  501  0.00000000000E+00  0.00000000000E+00  0.14540443058E+04  0.14540443058E+04  0.25500000920E-02 0. -1.
        2   -1    0    0  501    0  0.00000000000E+00  0.00000000000E+00 -0.16251097857E+04  0.16251097857E+04  0.25500000920E-02 0.  1.
    10030    2    1    2    0    0  0.00000000000E+00  0.00000000000E+00 -0.17106547996E+03  0.30791540915E+04  0.30743985624E+04 0.  0.
        5    1    3    3  502    0  0.74911262817E+02  0.51529547427E+03 -0.15340819240E+04  0.16200526420E+04  0.46999998093E+01 0.  1.
       -5    1    3    3    0  502 -0.74911262817E+02 -0.51529547427E+03  0.13630164441E+04  0.14591014495E+04  0.46999998093E+01 0. -1.
</event>
<event>
 5   0  0.3445410E-06  0.3128188E+04  0.7818609E-02  0.8208044E-01
        2   -1    0    0  501    0  0.00000000000E+00  0.00000000000E+00  0.15764273733E+04  0.15764273733E+04  0.25500000920E-02 0.  1.
       -2   -1    0    0    0  501  0.00000000000E+00  0.00000000000E+00 -0.15518573975E+04  0.15518573975E+04  0.25500000920E-02 0. -1.
    10030    2    1    2    0    0  0.00000000000E+00  0.00000000000E+00  0.24569975736E+02  0.31282847708E+04  0.31281882814E+04 0.  0.
        1    1    3    3  502    0  0.62528139975E+03 -0.13018859270E+03 -0.14155071321E+04  0.15529283111E+04  0.50400001928E-02 0. -1.
       -1    1    3    3    0  502 -0.62528139975E+03  0.13018859270E+03  0.14400771078E+04  0.15753564597E+04  0.50400001928E-02 0.  1.
</event>
<event>
 5   0  0.1235960E-06  0.3112970E+04  0.7818609E-02  0.8212188E-01
       -1   -1    0    0    0  501  0.00000000000E+00  0.00000000000E+00  0.13097820824E+04  0.13097820824E+04  0.50400001928E-02 0. -1.
        1   -1    0    0  501    0  0.00000000000E+00  0.00000000000E+00 -0.18496550404E+04  0.18496550404E+04  0.50400001928E-02 0.  1.
    10030    2    1    2    0    0  0.00000000000E+00  0.00000000000E+00 -0.53987295802E+03  0.31594371227E+04  0.31129696628E+04 0.  0.
        4    1    3    3  502    0 -0.85161007336E+03  0.73458393669E+03 -0.13620046558E+04  0.17663271420E+04  0.12699999809E+01 0.  1.
       -4    1    3    3    0  502  0.85161007336E+03 -0.73458393669E+03  0.82213169780E+03  0.13931099808E+04  0.12699999809E+01 0. -1.
</event>
<event>
 5   0  0.1211008E-06  0.3129319E+04  0.7818609E-02  0.8207737E-01
        1   -1    0    0  501    0  0.00000000000E+00  0.00000000000E+00  0.20409828747E+04  0.20409828747E+04  0.50400001928E-02 0. -1.
       -1   -1    0    0    0  501  0.00000000000E+00  0.00000000000E+00 -0.11995000492E+04  0.11995000492E+04  0.50400001928E-02 0.  1.
    10030    2    1    2    0    0  0.00000000000E+00  0.00000000000E+00  0.84148282556E+03  0.32404829239E+04  0.31293188132E+04 0.  0.
        3    1    3    3  502    0  0.11129147718E+04  0.68103452021E+03 -0.47351669788E+03  0.13880221109E+04  0.10100000352E+00 0.  1.
       -3    1    3    3    0  502 -0.11129147718E+04 -0.68103452021E+03  0.13149995234E+04  0.18524608130E+04  0.10100000352E+00 0. -1.
</event>
<event>
 5   0  0.3445410E-06  0.2873392E+04  0.7818609E-02  0.8280838E-01
        2   -1    0    0  501    0  0.00000000000E+00  0.00000000000E+00  0.14793099265E+04  0.14793099265E+04  0.25500000920E-02 0. -1.
       -2   -1    0    0    0  501  0.00000000000E+00  0.00000000000E+00 -0.13953095140E+04  0.13953095140E+04  0.25500000920E-02 0.  1.
    10030    2    1    2    0    0  0.00000000000E+00  0.00000000000E+00  0.84000412544E+02  0.28746194405E+04  0.28733918735E+04 0.  0.
        1    1    3    3  502    0 -0.80706320148E+03 -0.17884205324E+03 -0.11335591280E+04  0.14029582274E+04  0.50400001928E-02 0.  1.
       -1    1    3    3    0  502  0.80706320148E+03  0.17884205324E+03  0.12175595406E+04  0.14716612131E+04  0.50400001928E-02 0. -1.
</event>
<event>
 5   0  0.1171915E-06  0.3198335E+04  0.7818609E-02  0.8189257E-01
       -1   -1    0    0    0  501  0.00000000000E+00  0.00000000000E+00  0.13458710987E+04  0.13458710987E+04  0.50400001928E-02 0. -1.
        1   -1    0    0  501    0  0.00000000000E+00  0.00000000000E+00 -0.19001345323E+04  0.19001345323E+04  0.50400001928E-02 0.  1.
    10030    2    1    2    0    0  0.00000000000E+00  0.00000000000E+00 -0.55426343364E+03  0.32460056311E+04  0.31983346609E+04 0.  0.
        2    1    3    3  502    0 -0.10383124071E+04  0.10841272157E+04 -0.83663038526E+03  0.17185385873E+04  0.25500000920E-02 0.  1.
       -2    1    3    3    0  502  0.10383124071E+04 -0.10841272157E+04  0.28236695162E+03  0.15274670438E+04  0.25500000920E-02 0. -1.
</event>
<event>
 5   0  0.3374790E-06  0.3068849E+04  0.7818609E-02  0.8224339E-01
        2   -1    0    0  501    0  0.00000000000E+00  0.00000000000E+00  0.17296619076E+04  0.17296619076E+04  0.25500000920E-02 0. -1.
       -2   -1    0    0    0  501  0.00000000000E+00  0.00000000000E+00 -0.13612248243E+04  0.13612248243E+04  0.25500000920E-02 0.  1.
    10030    2    1    2    0    0  0.00000000000E+00  0.00000000000E+00  0.36843708328E+03  0.30908867319E+04  0.30688491174E+04 0.  0.
        2    1    3    3  502    0 -0.29793707539E+03 -0.13078200049E+04 -0.56631658511E+03  0.14559787569E+04  0.25500000920E-02 0.  1.
       -2    1    3    3    0  502  0.29793707539E+03  0.13078200049E+04  0.93475366839E+03  0.16349079750E+04  0.25500000920E-02 0. -1.
</event>
<event>
 5   0  0.1235960E-06  0.3111810E+04  0.7818609E-02  0.8212504E-01
       -1   -1    0    0    0  501  0.00000000000E+00  0.00000000000E+00  0.10808140158E+04  0.10808140158E+04  0.50400001928E-02 0.  1.
        1   -1    0    0  501    0  0.00000000000E+00  0.00000000000E+00 -0.22398302005E+04  0.22398302005E+04  0.50400001928E-02 0. -1.
    10030    2    1    2    0    0  0.00000000000E+00  0.00000000000E+00 -0.11590161847E+04  0.33206442163E+04  0.31118096816E+04 0.  0.
        4    1    3    3  502    0 -0.12891202841E+04 -0.81571970443E+03 -0.90599592658E+03  0.17742773106E+04  0.12699999809E+01 0. -1.
       -4    1    3    3    0  502  0.12891202841E+04  0.81571970443E+03 -0.25302025810E+03  0.15463669057E+04  0.12699999809E+01 0.  1.
</event>
<event>
 5   0  0.3441897E-06  0.3122673E+04  0.7818609E-02  0.8209543E-01
        2   -1    0    0  501    0  0.00000000000E+00  0.00000000000E+00  0.19340671224E+04  0.19340671224E+04  0.25500000920E-02 0.  1.
       -2   -1    0    0    0  501  0.00000000000E+00  0.00000000000E+00 -0.12604379778E+04  0.12604379778E+04  0.25500000920E-02 0. -1.
    10030    2    1    2    0    0  0.00000000000E+00  0.00000000000E+00  0.67362914456E+03  0.31945051002E+04  0.31226729914E+04 0.  0.
        5    1    3    3  502    0  0.10403582244E+04 -0.34102643318E+03 -0.80194275930E+03  0.13571214177E+04  0.46999998093E+01 0. -1.
       -5    1    3    3    0  502 -0.10403582244E+04  0.34102643318E+03  0.14755719039E+04  0.18373836825E+04  0.46999998093E+01 0.  1.
</event>
<event>
 5   0  0.1198763E-06  0.3105512E+04  0.7818609E-02  0.8214227E-01
        1   -1    0    0  501    0  0.00000000000E+00  0.00000000000E+00  0.12348549770E+04  0.12348549770E+04  0.50400001928E-02 0. -1.
       -1   -1    0    0    0  501  0.00000000000E+00  0.00000000000E+00 -0.19524970407E+04  0.19524970407E+04  0.50400001928E-02 0.  1.
    10030    2    1    2    0    0  0.00000000000E+00  0.00000000000E+00 -0.71764206366E+03  0.31873520177E+04  0.31055116734E+04 0.  0.
        1    1    3    3  502    0  0.39610736117E+03 -0.14953583908E+04 -0.49672307855E+03  0.16247250768E+04  0.50400001928E-02 0.  1.
       -1    1    3    3    0  502 -0.39610736117E+03  0.14953583908E+04 -0.22091898512E+03  0.15626269409E+04  0.50400001928E-02 0. -1.
</event>
<event>
 5   0  0.3445410E-06  0.2824977E+04  0.7818609E-02  0.8295556E-01
        2   -1    0    0  501    0  0.00000000000E+00  0.00000000000E+00  0.19763906178E+04  0.19763906178E+04  0.25500000920E-02 0. -1.
       -2   -1    0    0    0  501  0.00000000000E+00  0.00000000000E+00 -0.10094782172E+04  0.10094782172E+04  0.25500000920E-02 0.  1.
    10030    2    1    2    0    0  0.00000000000E+00  0.00000000000E+00  0.96691240060E+03  0.29858688351E+04  0.28249766565E+04 0.  0.
        1    1    3    3  502    0  0.13932713160E+04 -0.23200212168E+03  0.49366732099E+03  0.14962410796E+04  0.50400001928E-02 0.  1.
       -1    1    3    3    0  502 -0.13932713160E+04  0.23200212168E+03  0.47324507961E+03  0.14896277555E+04  0.50400001928E-02 0. -1.
</event>
<event>
 5   0  0.1171915E-06  0.3100905E+04  0.7818609E-02  0.8215490E-01
       -1   -1    0    0    0  501  0.00000000000E+00  0.00000000000E+00  0.16906325209E+04  0.16906325209E+04  0.50400001928E-02 0.  1.
        1   -1    0    0  501    0  0.00000000000E+00  0.00000000000E+00 -0.14218954157E+04  0.14218954157E+04  0.50400001928E-02 0. -1.
    10030    2    1    2    0    0  0.00000000000E+00  0.00000000000E+00  0.26873710525E+03  0.31125279366E+04  0.31009047912E+04 0.  0.
        2    1    3    3  502    0  0.23983443201E+02 -0.10592396243E+04  0.12705738822E+04  0.16543644633E+04  0.25500000920E-02 0.  1.
       -2    1    3    3    0  502 -0.23983443201E+02  0.10592396243E+04 -0.10018367769E+04  0.14581634733E+04  0.25500000920E-02 0. -1.
</event>
<event>
 5   0  0.1171915E-06  0.3004888E+04  0.7818609E-02  0.8242336E-01
       -1   -1    0    0    0  501  0.00000000000E+00  0.00000000000E+00  0.16431229657E+04  0.16431229657E+04  0.50400001928E-02 0.  1.
        1   -1    0    0  501    0  0.00000000000E+00  0.00000000000E+00 -0.13738096500E+04  0.13738096500E+04  0.50400001928E-02 0. -1.
    10030    2    1    2    0    0  0.00000000000E+00  0.00000000000E+00  0.26931331568E+03  0.30169326158E+04  0.30048881420E+04 0.  0.
        2    1    3    3  502    0 -0.35979388756E+03 -0.19328041739E+03 -0.13170050528E+04  0.13788804409E+04  0.25500000920E-02 0. -1.
       -2    1    3    3    0  502  0.35979388756E+03  0.19328041739E+03  0.15863183685E+04  0.16380521748E+04  0.25500000920E-02 0.  1.
</event>
<event>
 5   0  0.1250276E-06  0.2820075E+04  0.7818609E-02  0.8297063E-01
        1   -1    0    0  501    0  0.00000000000E+00  0.00000000000E+00  0.16507622997E+04  0.16507622997E+04  0.50400001928E-02 0.  1.
       -1   -1    0    0    0  501  0.00000000000E+00  0.00000000000E+00 -0.12044167905E+04  0.12044167905E+04  0.50400001928E-02 0. -1.
    10030    2    1    2    0    0  0.00000000000E+00  0.00000000000E+00  0.44634550925E+03  0.28551790902E+04  0.28200750564E+04 0.  0.
        5    1    3    3  502    0  0.47544570436E+03  0.13106702239E+04  0.10128387878E+02  0.13942846653E+04  0.46999998093E+01 0. -1.
       -5    1    3    3    0  502 -0.47544570436E+03 -0.13106702239E+04  0.43621712137E+03  0.14608944249E+04  0.46999998093E+01 0.  1.
</event>
<event>
 5   0  0.1250276E-06  0.3101280E+04  0.7818609E-02  0.8215387E-01
        1   -1    0    0  501    0  0.00000000000E+00  0.00000000000E+00  0.16502251365E+04  0.16502251365E+04  0.50400001928E-02 0.  1.
       -1   -1    0    0    0  501  0.00000000000E+00  0.00000000000E+00 -0.14570649209E+04  0.14570649209E+04  0.50400001928E-02 0. -1.
    10030    2    1    2    0    0  0.00000000000E+00  0.00000000000E+00  0.19316021556E+03  0.31072900574E+04  0.31012804826E+04 0.  0.
        5    1    3    3  502    0  0.37010278612E+03 -0.73961784211E+03  0.14107819922E+04  0.16353404979E+04  0.46999998093E+01 0.  1.
       -5    1    3    3    0  502 -0.37010278612E+03  0.73961784211E+03 -0.12176217767E+04  0.14719495595E+04  0.46999998093E+01 0. -1.
</event>
<event>
 5   0  0.1235960E-06  0.3122996E+04  0.7818609E-02  0.8209455E-01
       -1   -1    0    0    0  501  0.00000000000E+00  0.00000000000E+00  0.17611596940E+04  0.17611596940E+04  0.50400001928E-02 0.  1.
        1   -1    0    0  501    0  0.00000000000E+00  0.00000000000E+00 -0.13844722710E+04  0.13844722710E+04  0.50400001928E-02 0. -1.
    10030    2    1    2    0    0  0.00000000000E+00  0.00000000000E+00  0.37668742297E+03  0.31456319650E+04  0.31229964849E+04 0.  0.
        4    1    3    3  502    0  0.11803292957E+04  0.97458389732E+03  0.49926230793E+03  0.16100482863E+04  0.12699999809E+01 0.  1.
       -4    1    3    3    0  502 -0.11803292957E+04 -0.97458389732E+03 -0.12257488496E+03  0.15355836787E+04  0.12699999809E+01 0. -1.
</event>
<event>
 5   0  0.3445959E-06  0.3016950E+04  0.7818609E-02  0.8238907E-01
        2   -1    0    0  501    0  0.00000000000E+00  0.00000000000E+00  0.17900928944E+04  0.17900928944E+04  0.25500000920E-02 0. -1.
       -2   -1    0    0    0  501  0.00000000000E+00  0.00000000000E+00 -0.12711612711E+04  0.12711612711E+04  0.25500000920E-02 0.  1.
    10030    2    1    2    0    0  0.00000000000E+00  0.00000000000E+00  0.51893162330E+03  0.30612541654E+04  0.30169499558E+04 0.  0.
        4    1    3    3  502    0  0.17840969678E+03 -0.14977077162E+04  0.28297330703E+03  0.15346119798E+04  0.12699999809E+01 0. -1.
       -4    1    3    3    0  502 -0.17840969678E+03  0.14977077162E+04  0.23595831627E+03  0.15266421856E+04  0.12699999809E+01 0.  1.
</event>
<event>
 5   0  0.3445410E-06  0.3111706E+04  0.7818609E-02  0.8212533E-01
       -2   -1    0    0    0  501  0.00000000000E+00  0.00000000000E+00  0.13148570548E+04  0.13148570548E+04  0.25500000920E-02 0. -1.
        2   -1    0    0  501    0  0.00000000000E+00  0.00000000000E+00 -0.18410203373E+04  0.18410203373E+04  0.25500000920E-02 0.  1.
    10030    2    1    2    0    0  0.00000000000E+00  0.00000000000E+00 -0.52616328245E+03  0.31558773921E+04  0.31117060134E+04 0.  0.
        1    1    3    3  502    0 -0.19225993140E+03  0.30632583968E+03  0.12716337447E+04  0.13220634561E+04  0.50400001928E-02 0. -1.
       -1    1    3    3    0  502  0.19225993140E+03 -0.30632583968E+03 -0.17977970271E+04  0.18338139360E+04  0.50400001928E-02 0.  1.
</event>
<event>
 5   0  0.3441897E-06  0.3109785E+04  0.7818609E-02  0.8213058E-01
        2   -1    0    0  501    0  0.00000000000E+00  0.00000000000E+00  0.16305376837E+04  0.16305376837E+04  0.25500000920E-02 0.  1.
       -2   -1    0    0    0  501  0.00000000000E+00  0.00000000000E+00 -0.14827571338E+04  0.14827571339E+04  0.25500000920E-02 0. -1.
    10030    2    1    2    0    0  0.00000000000E+00  0.00000000000E+00  0.14778054983E+03  0.31132948175E+04  0.31097854476E+04 0.  0.
        5    1    3    3  502    0  0.11067415300E+04 -0.53906576176E+03  0.10248045640E+04  0.16017850024E+04  0.46999998093E+01 0.  1.
       -5    1    3    3    0  502 -0.11067415300E+04  0.53906576176E+03 -0.87702401414E+03  0.15115098151E+04  0.46999998093E+01 0. -1.
</event>
<event>
 5   0  0.3374790E-06  0.3107863E+04  0.7818609E-02  0.8213583E-01
        2   -1    0    0  501    0  0.00000000000E+00  0.00000000000E+00  0.94796184517E+03  0.94796184517E+03  0.25500000920E-02 0.  1.
       -2   -1    0    0    0  501  0.00000000000E+00  0.00000000000E+00 -0.25472571331E+04  0.25472571331E+04  0.25500000920E-02 0. -1.
    10030    2    1    2    0    0  0.00000000000E+00  0.00000000000E+00 -0.15992952879E+04  0.34952189783E+04  0.31078626559E+04 0.  0.
        2    1    3    3  502    0 -0.10765796453E+04  0.10772177542E+04 -0.11467960326E+04  0.19064529795E+04  0.25500000920E-02 0.  1.
       -2    1    3    3    0  502  0.10765796453E+04 -0.10772177542E+04 -0.45249925538E+03  0.15887659988E+04  0.25500000920E-02 0. -1.
</event>
<event>
 5   0  0.1171915E-06  0.3031794E+04  0.7818609E-02  0.8234710E-01
        1   -1    0    0  501    0  0.00000000000E+00  0.00000000000E+00  0.18021524864E+04  0.18021524864E+04  0.50400001928E-02 0.  1.
       -1   -1    0    0    0  501  0.00000000000E+00  0.00000000000E+00 -0.12751103201E+04  0.12751103201E+04  0.50400001928E-02 0. -1.
    10030    2    1    2    0    0  0.00000000000E+00  0.00000000000E+00  0.52704216625E+03  0.30772628065E+04  0.30317936828E+04 0.  0.
        2    1    3    3  502    0 -0.59319363653E+03 -0.59668317020E+03 -0.10163555605E+04  0.13194271944E+04  0.25500000920E-02 0. -1.
       -2    1    3    3    0  502  0.59319363653E+03  0.59668317020E+03  0.15433977268E+04  0.17578356120E+04  0.25500000920E-02 0.  1.
</event>
<event>
 5   0  0.1198763E-06  0.3222282E+04  0.7818609E-02  0.8182957E-01
        1   -1    0    0  501    0  0.00000000000E+00  0.00000000000E+00  0.16862936974E+04  0.16862936974E+04  0.50400001928E-02 0.  1.
       -1   -1    0    0    0  501  0.00000000000E+00  0.00000000000E+00 -0.15393378680E+04  0.15393378680E+04  0.50400001928E-02 0. -1.
    10030    2    1    2    0    0  0.00000000000E+00  0.00000000000E+00  0.14695582935E+03  0.32256315654E+04  0.32222822626E+04 0.  0.
        1    1    3    3  502    0 -0.10435825160E+03 -0.11055361634E+04  0.12420279330E+04  0.16660534925E+04  0.50400001928E-02 0.  1.
       -1    1    3    3    0  502  0.10435825160E+03  0.11055361634E+04 -0.10950721037E+04  0.15595780730E+04  0.50400001928E-02 0. -1.
</event>
<event>
 5   0  0.3441897E-06  0.3043417E+04  0.7818609E-02  0.8231440E-01
       -2   -1    0    0    0  501  0.00000000000E+00  0.00000000000E+00  0.10466437251E+04  0.10466437252E+04  0.25500000920E-02 0.  1.
        2   -1    0    0  501    0  0.00000000000E+00  0.00000000000E+00 -0.22124025543E+04  0.22124025543E+04  0.25500000920E-02 0. -1.
    10030    2    1    2    0    0  0.00000000000E+00  0.00000000000E+00 -0.11657588291E+04  0.32590462794E+04  0.30434173233E+04 0.  0.
        5    1    3    3  502    0 -0.12996105885E+04 -0.58514728489E+03 -0.11537445470E+04  0.18337212429E+04  0.46999998093E+01 0. -1.
       -5    1    3    3    0  502  0.12996105885E+04  0.58514728489E+03 -0.12014282116E+02  0.14253250365E+04  0.46999998093E+01 0.  1.
</event>
<event>
 5   0  0.3445410E-06  0.3100285E+04  0.7818609E-02  0.8215660E-01
       -2   -1    0    0    0  501  0.00000000000E+00  0.00000000000E+00  0.15470171683E+04  0.15470171683E+04  0.25500000920E-02 0.  1.
        2   -1    0    0  501    0  0.00000000000E+00  0.00000000000E+00 -0.15532743629E+04  0.15532743629E+04  0.25500000920E-02 0. -1.
    10030    2    1    2    0    0  0.00000000000E+00  0.00000000000E+00 -0.62571945884E+01  0.31002915312E+04  0.31002852168E+04 0.  0.
        1    1    3    3  502    0  0.65658066925E+03  0.11234583523E+04 -0.84555850694E+03  0.15518460082E+04  0.50400001928E-02 0. -1.
       -1    1    3    3    0  502 -0.65658066925E+03 -0.11234583523E+04  0.83930131235E+03  0.15484455229E+04  0.50400001928E-02 0.  1.
</event>
<event>
 5   0  0.1250276E-06  0.3116313E+04  0.7818609E-02  0.8211275E-01
        1   -1    0    0  501    0  0.00000000000E+00  0.00000000000E+00  0.16596773685E+04  0.16596773685E+04  0.50400001928E-02 0.  1.
       -1   -1    0    0    0  501  0.00000000000E+00  0.00000000000E+00 -0.14628452794E+04  0.14628452794E+04  0.50400001928E-02 0. -1.
    10030    2    1    2    0    0  0.00000000000E+00  0.00000000000E+00  0.19683208910E+03  0.31225226479E+04  0.31163126954E+04 0.  0.
        5    1    3    3  502    0 -0.76404639489E+03  0.22928282219E+03 -0.12427172896E+04  0.14767213203E+04  0.46999998093E+01 0. -1.
       -5    1    3    3    0  502  0.76404639489E+03 -0.22928282219E+03  0.14395493787E+04  0.16458013276E+04  0.46999998093E+01 0.  1.
</event>
<event>
 5   0  0.1211008E-06  0.3092018E+04  0.7818609E-02  0.8217932E-01
       -1   -1    0    0    0  501  0.00000000000E+00  0.00000000000E+00  0.10496330463E+04  0.10496330463E+04  0.50400001928E-02 0.  1.
        1   -1    0    0  501    0  0.00000000000E+00  0.00000000000E+00 -0.22771238305E+04  0.22771238305E+04  0.50400001928E-02 0. -1.
    10030    2    1    2    0    0  0.00000000000E+00  0.00000000000E+00 -0.12274907842E+04  0.33267568769E+04  0.30920183849E+04 0.  0.
        3    1    3    3  502    0  0.88043278687E+03 -0.80318308749E+03 -0.16733354489E+04  0.20543408916E+04  0.10100000352E+00 0.  1.
       -3    1    3    3    0  502 -0.88043278687E+03  0.80318308749E+03  0.44584466472E+03  0.12724159852E+04  0.10100000352E+00 0. -1.
</event>
<event>
 5   0  0.3441897E-06  0.3103284E+04  0.7818609E-02  0.8214837E-01
        2   -1    0    0  501    0  0.00000000000E+00  0.00000000000E+00  0.94254742628E+03  0.94254742628E+03  0.25500000920E-02 0.  1.
       -2   -1    0    0    0  501  0.00000000000E+00  0.00000000000E+00 -0.25543466788E+04  0.25543466788E+04  0.25500000920E-02 0. -1.
    10030    2    1    2    0    0  0.00000000000E+00  0.00000000000E+00 -0.16117992525E+04  0.34968941050E+04  0.31032839947E+04 0.  0.
        5    1    3    3  502    0 -0.47395154664E+03  0.35633070045E+03 -0.24216313699E+04  0.24931751279E+04  0.46999998093E+01 0. -1.
       -5    1    3    3    0  502  0.47395154664E+03 -0.35633070045E+03  0.80983211743E+03  0.10037189771E+04  0.46999998093E+01 0.  1.
</event>
<event>
 5   0  0.1211008E-06  0.3026142E+04  0.7818609E-02  0.8236305E-01
       -1   -1    0    0    0  501  0.00000000000E+00  0.00000000000E+00  0.12848872251E+04  0.12848872251E+04  0.50400001928E-02 0. -1.
        1   -1    0    0  501    0  0.00000000000E+00  0.00000000000E+00 -0.17817778140E+04  0.17817778140E+04  0.50400001928E-02 0.  1.
    10030    2    1    2    0    0  0.00000000000E+00  0.00000000000E+00 -0.49689058888E+03  0.30666650391E+04  0.30261418018E+04 0.  0.
        3    1    3    3  502    0  0.93707121723E+02  0.14822816131E+04  0.44289224663E+02  0.14859008549E+04  0.10100000352E+00 0. -1.
       -3    1    3    3    0  502 -0.93707121723E+02 -0.14822816131E+04 -0.54117981355E+03  0.15807641842E+04  0.10100000352E+00 0.  1.
</event>
<event>
 5   0  0.3441897E-06  0.2961210E+04  0.7818609E-02  0.8254895E-01
        2   -1    0    0  501    0  0.00000000000E+00  0.00000000000E+00  0.82707618707E+03  0.82707618707E+03  0.25500000920E-02 0.  1.
       -2   -1    0    0    0  501  0.00000000000E+00  0.00000000000E+00 -0.26505305052E+04  0.26505305052E+04  0.25500000920E-02 0. -1.
    10030    2    1    2    0    0  0.00000000000E+00  0.00000000000E+00 -0.18234543181E+04  0.34776066923E+04  0.29612096609E+04 0.  0.
        5    1    3    3  502    0  0.11908466415E+04 -0.84663158065E+03 -0.11927661775E+04  0.18861638320E+04  0.46999998093E+01 0.  1.
       -5    1    3    3    0  502 -0.11908466415E+04  0.84663158065E+03 -0.63068814067E+03  0.15914428603E+04  0.46999998093E+01 0. -1.
</event>
<event>
 5   0  0.1171915E-06  0.3105768E+04  0.7818609E-02  0.8214157E-01
        1   -1    0    0  501    0  0.00000000000E+00  0.00000000000E+00  0.95975601839E+03  0.95975601840E+03  0.50400001928E-02 0.  1.
       -1   -1    0    0    0  501  0.00000000000E+00  0.00000000000E+00 -0.25125635981E+04  0.25125635981E+04  0.50400001928E-02 0. -1.
    10030    2    1    2    0    0  0.00000000000E+00  0.00000000000E+00 -0.15528075797E+04  0.34723196165E+04  0.31057675605E+04 0.  0.
        2    1    3    3  502    0 -0.11312091049E+04  0.53107839739E+03 -0.18070304515E+04  0.21970519694E+04  0.25500000920E-02 0. -1.
       -2    1    3    3    0  502  0.11312091049E+04 -0.53107839739E+03  0.25422287183E+03  0.12752676471E+04  0.25500000920E-02 0.  1.
</event>
<event>
 5   0  0.3445410E-06  0.3089507E+04  0.7818609E-02  0.8218623E-01
       -2   -1    0    0    0  501  0.00000000000E+00  0.00000000000E+00  0.17459241562E+04  0.17459241562E+04  0.25500000920E-02 0.  1.
        2   -1    0    0  501    0  0.00000000000E+00  0.00000000000E+00 -0.13667626125E+04  0.13667626125E+04  0.25500000920E-02 0. -1.
    10030    2    1    2    0    0  0.00000000000E+00  0.00000000000E+00  0.37916154368E+03  0.31126867687E+04  0.30895073141E+04 0.  0.
        1    1    3    3  502    0 -0.89003394387E+03 -0.64666959120E+03 -0.90295440091E+03  0.14232598609E+04  0.50400001928E-02 0. -1.
       -1    1    3    3    0  502  0.89003394387E+03  0.64666959120E+03  0.12821159446E+04  0.16894269078E+04  0.50400001928E-02 0.  1.
</event>
<event>
 5   0  0.1171915E-06  0.3096898E+04  0.7818609E-02  0.8216590E-01
        1   -1    0    0  501    0  0.00000000000E+00  0.00000000000E+00  0.21012966085E+04  0.21012966085E+04  0.50400001928E-02 0.  1.
       -1   -1    0    0    0  501  0.00000000000E+00  0.00000000000E+00 -0.11410549985E+04  0.11410549985E+04  0.50400001928E-02 0. -1.
    10030    2    1    2    0    0  0.00000000000E+00  0.00000000000E+00  0.96024161005E+03  0.32423516070E+04  0.30968984475E+04 0.  0.
        2    1    3    3  502    0 -0.15664910330E+03  0.12339240672E+04 -0.48546890867E+03  0.13352106974E+04  0.25500000920E-02 0. -1.
       -2    1    3    3    0  502  0.15664910330E+03 -0.12339240672E+04  0.14457105187E+04  0.19071409096E+04  0.25500000920E-02 0.  1.
</event>
<event>
 5   0  0.3445959E-06  0.3122105E+04  0.7818609E-02  0.8209697E-01
       -2   -1    0    0    0  501  0.00000000000E+00  0.00000000000E+00  0.12032380347E+04  0.12032380347E+04  0.25500000920E-02 0.  1.
        2   -1    0    0  501    0  0.00000000000E+00  0.00000000000E+00 -0.20252723154E+04  0.20252723154E+04  0.25500000920E-02 0. -1.
    10030    2    1    2    0    0  0.00000000000E+00  0.00000000000E+00 -0.82203428078E+03  0.32285103501E+04  0.31221048544E+04 0.  0.
        4    1    3    3  502    0  0.15096323335E+04  0.34762468915E+03 -0.61006197807E+03  0.16649354152E+04  0.12699999809E+01 0.  1.
       -4    1    3    3    0  502 -0.15096323335E+04 -0.34762468915E+03 -0.21197230270E+03  0.15635749349E+04  0.12699999809E+01 0. -1.
</event>
<event>
 5   0  0.1235960E-06  0.3110786E+04  0.7818609E-02  0.8212784E-01
        1   -1    0    0  501    0  0.00000000000E+00  0.00000000000E+00  0.20880804762E+04  0.20880804763E+04  0.50400001928E-02 0.  1.
       -1   -1    0    0    0  501  0.00000000000E+00  0.00000000000E+00 -0.11585990974E+04  0.11585990974E+04  0.50400001928E-02 0. -1.
    10030    2    1    2    0    0  0.00000000000E+00  0.00000000000E+00  0.92948137887E+03  0.32466795736E+04  0.31107864954E+04 0.  0.
        4    1    3    3  502    0 -0.11435942839E+04  0.35950898407E+03 -0.56960904699E+03  0.13272191511E+04  0.12699999809E+01 0. -1.
       -4    1    3    3    0  502  0.11435942839E+04 -0.35950898407E+03  0.14990904259E+04  0.19194604225E+04  0.12699999809E+01 0.  1.
</event>
<event>
 5   0  0.1171915E-06  0.3090734E+04  0.7818609E-02  0.8218285E-01
       -1   -1    0    0    0  501  0.00000000000E+00  0.00000000000E+00  0.13758584823E+04  0.13758584824E+04  0.50400001928E-02 0. -1.
        1   -1    0    0  501    0  0.00000000000E+00  0.00000000000E+00 -0.17357598390E+04  0.17357598390E+04  0.50400001928E-02 0.  1.
    10030    2    1    2    0    0  0.00000000000E+00  0.00000000000E+00 -0.35990135666E+03  0.31116183214E+04  0.30907344744E+04 0.  0.
        2    1    3    3  502    0  0.20708055362E+02 -0.46437622539E+03 -0.16637088076E+04  0.17274261485E+04  0.25500000920E-02 0.  1.
       -2    1    3    3    0  502 -0.20708055362E+02  0.46437622539E+03  0.13038074509E+04  0.13841921728E+04  0.25500000920E-02 0. -1.
</event>
<event>
 5   0  0.1250276E-06  0.3111740E+04  0.7818609E-02  0.8212523E-01
        1   -1    0    0  501    0  0.00000000000E+00  0.00000000000E+00  0.26072956077E+04  0.26072956077E+04  0.50400001928E-02 0. -1.
       -1   -1    0    0    0  501  0.00000000000E+00  0.00000000000E+00 -0.92844552708E+03  0.92844552709E+03  0.50400001928E-02 0.  1.
    10030    2    1    2    0    0  0.00000000000E+00  0.00000000000E+00  0.16788500806E+04  0.35357411347E+04  0.31117403135E+04 0.  0.
        5    1    3    3  502    0  0.87467155460E+03 -0.11525318267E+04  0.14895097682E+04  0.20765455400E+04  0.46999998093E+01 0. -1.
       -5    1    3    3    0  502 -0.87467155460E+03  0.11525318267E+04  0.18934031234E+03  0.14591955948E+04  0.46999998093E+01 0.  1.
</event>
<event>
 5   0  0.1171915E-06  0.3086989E+04  0.7818609E-02  0.8219318E-01
       -1   -1    0    0    0  501  0.00000000000E+00  0.00000000000E+00  0.11360148926E+04  0.11360148926E+04  0.50400001928E-02 0. -1.
        1   -1    0    0  501    0  0.00000000000E+00  0.00000000000E+00 -0.20971335189E+04  0.20971335189E+04  0.50400001928E-02 0.  1.
    10030    2    1    2    0    0  0.00000000000E+00  0.00000000000E+00 -0.96111862625E+03  0.32331484115E+04  0.30869887653E+04 0.  0.
        2    1    3    3  502    0  0.97697840979E+03  0.64488268634E+02 -0.17302551183E+04  0.19880715089E+04  0.25500000920E-02 0.  1.
       -2    1    3    3    0  502 -0.97697840979E+03 -0.64488268634E+02  0.76913649206E+03  0.12450769026E+04  0.25500000920E-02 0. -1.
</event>
<event>
 5   0  0.1211008E-06  0.3086618E+04  0.7818609E-02  0.8219420E-01
        1   -1    0    0  501    0  0.00000000000E+00  0.00000000000E+00  0.13764352980E+04  0.13764352980E+04  0.50400001928E-02 0. -1.
       -1   -1    0    0    0  501  0.00000000000E+00  0.00000000000E+00 -0.17304141759E+04  0.17304141759E+04  0.50400001928E-02 0.  1.
    10030    2    1    2    0    0  0.00000000000E+00  0.00000000000E+00 -0.35397887788E+03  0.31068494740E+04  0.30866183126E+04 0.  0.
        3    1    3    3  502    0  0.43211152651E+03 -0.86857813467E+03 -0.13851293965E+04  0.16910741565E+04  0.10100000352E+00 0.  1.
       -3    1    3    3    0  502 -0.43211152651E+03  0.86857813467E+03  0.10311505186E+04  0.14157753175E+04  0.10100000352E+00 0. -1.
</event>
<event>
 5   0  0.1250276E-06  0.3094508E+04  0.7818609E-02  0.8217247E-01
        1   -1    0    0  501    0  0.00000000000E+00  0.00000000000E+00  0.10941929905E+04  0.10941929905E+04  0.50400001928E-02 0. -1.
       -1   -1    0    0    0  501  0.00000000000E+00  0.00000000000E+00 -0.21879093985E+04  0.21879093985E+04  0.50400001928E-02 0.  1.
    10030    2    1    2    0    0  0.00000000000E+00  0.00000000000E+00 -0.10937164080E+04  0.32821023890E+04  0.30945081209E+04 0.  0.
        5    1    3    3  502    0 -0.21515972242E+03 -0.94757640638E+03  0.73020177152E+03  0.12154881609E+04  0.46999998093E+01 0. -1.
       -5    1    3    3    0  502  0.21515972242E+03  0.94757640638E+03 -0.18239181796E+04  0.20666142281E+04  0.46999998093E+01 0.  1.
</event>
<event>
 5   0  0.1250276E-06  0.3098206E+04  0.7818609E-02  0.8216230E-01
       -1   -1    0    0    0  501  0.00000000000E+00  0.00000000000E+00  0.10883106550E+04  0.10883106550E+04  0.50400001928E-02 0. -1.
        1   -1    0    0  501    0  0.00000000000E+00  0.00000000000E+00 -0.22049953126E+04  0.22049953126E+04  0.50400001928E-02 0.  1.
    10030    2    1    2    0    0  0.00000000000E+00  0.00000000000E+00 -0.11166846575E+04  0.32933059676E+04  0.30982058634E+04 0.  0.
        5    1    3    3  502    0  0.94669442295E+03 -0.10387947231E+04  0.13411924734E+03  0.14118551164E+04  0.46999998093E+01 0. -1.
       -5    1    3    3    0  502 -0.94669442295E+03  0.10387947231E+04 -0.12508039049E+04  0.18814508512E+04  0.46999998093E+01 0.  1.
</event>
<event>
 5   0  0.1250276E-06  0.3124286E+04  0.7818609E-02  0.8209104E-01
       -1   -1    0    0    0  501  0.00000000000E+00  0.00000000000E+00  0.17929344811E+04  0.17929344811E+04  0.50400001928E-02 0.  1.
        1   -1    0    0  501    0  0.00000000000E+00  0.00000000000E+00 -0.13610595381E+04  0.13610595381E+04  0.50400001928E-02 0. -1.
    10030    2    1    2    0    0  0.00000000000E+00  0.00000000000E+00  0.43187494297E+03  0.31539940192E+04  0.31242858875E+04 0.  0.
        5    1    3    3  502    0 -0.19871284637E+03 -0.14624972723E+04 -0.30067406512E+03  0.15062576307E+04  0.46999998093E+01 0. -1.
       -5    1    3    3    0  502  0.19871284637E+03  0.14624972723E+04  0.73254900808E+03  0.16477363885E+04  0.46999998093E+01 0.  1.
</event>
<event>
 5   0  0.3445959E-06  0.3113966E+04  0.7818609E-02  0.8211916E-01
        2   -1    0    0  501    0  0.00000000000E+00  0.00000000000E+00  0.18738453393E+04  0.18738453393E+04  0.25500000920E-02 0. -1.
       -2   -1    0    0    0  501  0.00000000000E+00  0.00000000000E+00 -0.12937010524E+04  0.12937010524E+04  0.25500000920E-02 0.  1.
    10030    2    1    2    0    0  0.00000000000E+00  0.00000000000E+00  0.58014428683E+03  0.31675463917E+04  0.31139657593E+04 0.  0.
        4    1    3    3  502    0 -0.53938867719E+03  0.83255293499E+03  0.15107664391E+04  0.18073465028E+04  0.12699999809E+01 0. -1.
       -4    1    3    3    0  502  0.53938867719E+03 -0.83255293499E+03 -0.93062215228E+03  0.13601998889E+04  0.12699999809E+01 0.  1.
</event>
<event>
 5   0  0.1235960E-06  0.3117141E+04  0.7818609E-02  0.8211049E-01
       -1   -1    0    0    0  501  0.00000000000E+00  0.00000000000E+00  0.12573599165E+04  0.12573599165E+04  0.50400001928E-02 0. -1.
        1   -1    0    0  501    0  0.00000000000E+00  0.00000000000E+00 -0.19319383830E+04  0.19319383831E+04  0.50400001928E-02 0.  1.
    10030    2    1    2    0    0  0.00000000000E+00  0.00000000000E+00 -0.67457846657E+03  0.31892982995E+04  0.31171409233E+04 0.  0.
        4    1    3    3  502    0 -0.73198527618E+03  0.11508464793E+04 -0.11089971111E+04  0.17578754986E+04  0.12699999809E+01 0.  1.
       -4    1    3    3    0  502  0.73198527618E+03 -0.11508464793E+04  0.43441864449E+03  0.14314228009E+04  0.12699999809E+01 0. -1.
</event>
<event>
 5   0  0.3340899E-06  0.3105699E+04  0.7818609E-02  0.8214176E-01
       -2   -1    0    0    0  501  0.00000000000E+00  0.00000000000E+00  0.84860654685E+03  0.84860654685E+03  0.25500000920E-02 0. -1.
        2   -1    0    0  501    0  0.00000000000E+00  0.00000000000E+00 -0.28415312241E+04  0.28415312241E+04  0.25500000920E-02 0.  1.
    10030    2    1    2    0    0  0.00000000000E+00  0.00000000000E+00 -0.19929246773E+04  0.36901377710E+04  0.31056992771E+04 0.  0.
        3    1    3    3  502    0  0.11244705380E+04 -0.11579730045E+03  0.26854704621E+03  0.11618780193E+04  0.10100000352E+00 0. -1.
       -3    1    3    3    0  502 -0.11244705380E+04  0.11579730045E+03 -0.22614717235E+04  0.25282597517E+04  0.10100000352E+00 0.  1.
</event>
<event>
 5   0  0.3445410E-06  0.2846011E+04  0.7818609E-02  0.8289124E-01
        2   -1    0    0  501    0  0.00000000000E+00  0.00000000000E+00  0.19624733186E+04  0.19624733186E+04  0.25500000920E-02 0.  1.
       -2   -1    0    0    0  501  0.00000000000E+00  0.00000000000E+00 -0.10318333204E+04  0.10318333204E+04  0.25500000920E-02 0. -1.
    10030    2    1    2    0    0  0.00000000000E+00  0.00000000000E+00  0.93063999819E+03  0.29943066391E+04  0.28460114973E+04 0.  0.
        1    1    3    3  502    0 -0.11292177160E+04 -0.78661509710E+01 -0.44567942375E+03  0.12140118102E+04  0.50400001928E-02 0. -1.
       -1    1    3    3    0  502  0.11292177160E+04  0.78661509710E+01  0.13763194219E+04  0.17802948289E+04  0.50400001928E-02 0.  1.
</event>
<event>
 5   0  0.1235960E-06  0.3066020E+04  0.7818609E-02  0.8225126E-01
        1   -1    0    0  501    0  0.00000000000E+00  0.00000000000E+00  0.13968377157E+04  0.13968377157E+04  0.50400001928E-02 0. -1.
       -1   -1    0    0    0  501  0.00000000000E+00  0.00000000000E+00 -0.16824571942E+04  0.16824571942E+04  0.50400001928E-02 0.  1.
    10030    2    1    2    0    0  0.00000000000E+00  0.00000000000E+00 -0.28561947850E+03  0.30792949099E+04  0.30660200025E+04 0.  0.
        4    1    3    3  502    0  0.89633528767E+03  0.12435014437E+04 -0.12259144537E+03  0.15377721105E+04  0.12699999809E+01 0. -1.
       -4    1    3    3    0  502 -0.89633528767E+03 -0.12435014437E+04 -0.16302803313E+03  0.15415227994E+04  0.12699999809E+01 0.  1.
</event>
<event>
 5   0  0.3445410E-06  0.3080835E+04  0.7818609E-02  0.8221017E-01
       -2   -1    0    0    0  501  0.00000000000E+00  0.00000000000E+00  0.99203202905E+03  0.99203202906E+03  0.25500000920E-02 0. -1.
        2   -1    0    0  501    0  0.00000000000E+00  0.00000000000E+00 -0.23919453474E+04  0.23919453474E+04  0.25500000920E-02 0.  1.
    10030    2    1    2    0    0  0.00000000000E+00  0.00000000000E+00 -0.13999133184E+04  0.33839773765E+04  0.30808352091E+04 0.  0.
        1    1    3    3  502    0  0.88081052619E+03  0.10991815523E+04 -0.13849007625E+04  0.19753423475E+04  0.50400001928E-02 0. -1.
       -1    1    3    3    0  502 -0.88081052619E+03 -0.10991815523E+04 -0.15012555888E+02  0.14086350290E+04  0.50400001928E-02 0.  1.
</event>
<event>
 5   0  0.3340899E-06  0.3081942E+04  0.7818609E-02  0.8220711E-01
       -2   -1    0    0    0  501  0.00000000000E+00  0.00000000000E+00  0.13930262419E+04  0.13930262419E+04  0.25500000920E-02 0. -1.
        2   -1    0    0  501    0  0.00000000000E+00  0.00000000000E+00 -0.17046285630E+04  0.17046285630E+04  0.25500000920E-02 0.  1.
    10030    2    1    2    0    0  0.00000000000E+00  0.00000000000E+00 -0.31160232106E+03  0.30976548049E+04  0.30819424530E+04 0.  0.
        3    1    3    3  502    0  0.34669236761E+03  0.63500163262E+03  0.12117122807E+04  0.14112651532E+04  0.10100000352E+00 0. -1.
       -3    1    3    3    0  502 -0.34669236761E+03 -0.63500163262E+03 -0.15233146018E+04  0.16863896517E+04  0.10100000352E+00 0.  1.
</event>
<event>
 5   0  0.1171915E-06  0.3097319E+04  0.7818609E-02  0.8216474E-01
        1   -1    0    0  501    0  0.00000000000E+00  0.00000000000E+00  0.15839429560E+04  0.15839429560E+04  0.50400001928E-02 0. -1.
       -1   -1    0    0    0  501  0.00000000000E+00  0.00000000000E+00 -0.15141615928E+04  0.15141615928E+04  0.50400001928E-02 0.  1.
    10030    2    1    2    0    0  0.00000000000E+00  0.00000000000E+00  0.69781363204E+02  0.30981045488E+04  0.30973185752E+04 0.  0.
        2    1    3    3  502    0 -0.70950664233E+03  0.10469578921E+04 -0.85910627356E+03  0.15289159861E+04  0.25500000920E-02 0.  1.
       -2    1    3    3    0  502  0.70950664233E+03 -0.10469578921E+04  0.92888763676E+03  0.15691885626E+04  0.25500000920E-02 0. -1.
</event>
<event>
 5   0  0.3340899E-06  0.3099453E+04  0.7818609E-02  0.8215888E-01
       -2   -1    0    0    0  501  0.00000000000E+00  0.00000000000E+00  0.11332032017E+04  0.11332032017E+04  0.25500000920E-02 0.  1.
        2   -1    0    0  501    0  0.00000000000E+00  0.00000000000E+00 -0.21193479708E+04  0.21193479708E+04  0.25500000920E-02 0. -1.
    10030    2    1    2    0    0  0.00000000000E+00  0.00000000000E+00 -0.98614476908E+03  0.32525511724E+04  0.30994527942E+04 0.  0.
        3    1    3    3  502    0  0.13777887565E+03  0.14517063380E+03  0.11195837153E+04  0.11373325096E+04  0.10100000352E+00 0.  1.
       -3    1    3    3    0  502 -0.13777887565E+03 -0.14517063380E+03 -0.21057284844E+04  0.21152186629E+04  0.10100000352E+00 0. -1.
</event>
<event>
 5   0  0.1198763E-06  0.3114537E+04  0.7818609E-02  0.8211760E-01
       -1   -1    0    0    0  501  0.00000000000E+00  0.00000000000E+00  0.12040956773E+04  0.12040956773E+04  0.50400001928E-02 0. -1.
        1   -1    0    0  501    0  0.00000000000E+00  0.00000000000E+00 -0.20140296584E+04  0.20140296584E+04  0.50400001928E-02 0.  1.
    10030    2    1    2    0    0  0.00000000000E+00  0.00000000000E+00 -0.80993398107E+03  0.32181253357E+04  0.31145365020E+04 0.  0.
        1    1    3    3  502    0  0.69190385019E+03  0.13940993161E+04 -0.46003658150E+03  0.16229225174E+04  0.50400001928E-02 0.  1.
       -1    1    3    3    0  502 -0.69190385019E+03 -0.13940993161E+04 -0.34989739957E+03  0.15952028183E+04  0.50400001928E-02 0. -1.
</event>
<event>
 5   0  0.1171915E-06  0.3099228E+04  0.7818609E-02  0.8215950E-01
       -1   -1    0    0    0  501  0.00000000000E+00  0.00000000000E+00  0.14701297551E+04  0.14701297551E+04  0.50400001928E-02 0. -1.
        1   -1    0    0  501    0  0.00000000000E+00  0.00000000000E+00 -0.16333953569E+04  0.16333953569E+04  0.50400001928E-02 0.  1.
    10030    2    1    2    0    0  0.00000000000E+00  0.00000000000E+00 -0.16326560186E+03  0.31035251120E+04  0.30992277206E+04 0.  0.
        2    1    3    3  502    0  0.89210519057E+03  0.48820155314E+03 -0.12524891501E+04  0.16133572136E+04  0.25500000920E-02 0.  1.
       -2    1    3    3    0  502 -0.89210519057E+03 -0.48820155314E+03  0.10892235482E+04  0.14901678984E+04  0.25500000920E-02 0. -1.
</event>
<event>
 5   0  0.1198763E-06  0.3084973E+04  0.7818609E-02  0.8219874E-01
       -1   -1    0    0    0  501  0.00000000000E+00  0.00000000000E+00  0.23721424601E+04  0.23721424601E+04  0.50400001928E-02 0.  1.
        1   -1    0    0  501    0  0.00000000000E+00  0.00000000000E+00 -0.10030022361E+04  0.10030022361E+04  0.50400001928E-02 0. -1.
    10030    2    1    2    0    0  0.00000000000E+00  0.00000000000E+00  0.13691402241E+04  0.33751446962E+04  0.30849727336E+04 0.  0.
        1    1    3    3  502    0 -0.14635511012E+04 -0.37161739715E+03  0.10291257933E+04  0.18273426646E+04  0.50400001928E-02 0.  1.
       -1    1    3    3    0  502  0.14635511012E+04  0.37161739715E+03  0.34001443080E+03  0.15478020315E+04  0.50400001928E-02 0. -1.
</event>
<event>
 5   0  0.3445410E-06  0.3105274E+04  0.7818609E-02  0.8214292E-01
        2   -1    0    0  501    0  0.00000000000E+00  0.00000000000E+00  0.18045463965E+04  0.18045463965E+04  0.25500000920E-02 0. -1.
       -2   -1    0    0    0  501  0.00000000000E+00  0.00000000000E+00 -0.13358932166E+04  0.13358932166E+04  0.25500000920E-02 0.  1.
    10030    2    1    2    0    0  0.00000000000E+00  0.00000000000E+00  0.46865317989E+03  0.31404396130E+04  0.31052737657E+04 0.  0.
        1    1    3    3  502    0 -0.51100647986E+03 -0.56896137936E+03 -0.11322107680E+04  0.13662890971E+04  0.50400001928E-02 0.  1.
       -1    1    3    3    0  502  0.51100647986E+03  0.56896137936E+03  0.16008639479E+04  0.17741505159E+04  0.50400001928E-02 0. -1.
</event>
<event>
 5   0  0.1198763E-06  0.3079305E+04  0.7818609E-02  0.8221441E-01
        1   -1    0    0  501    0  0.00000000000E+00  0.00000000000E+00  0.19982296710E+04  0.19982296710E+04  0.50400001928E-02 0.  1.
       -1   -1    0    0    0  501  0.00000000000E+00  0.00000000000E+00 -0.11863149244E+04  0.11863149244E+04  0.50400001928E-02 0. -1.
    10030    2    1    2    0    0  0.00000000000E+00  0.00000000000E+00  0.81191474665E+03  0.31845445954E+04  0.30793049093E+04 0.  0.
        1    1    3    3  502    0 -0.14668434019E+04 -0.43740530078E+03  0.57769518756E+03  0.16360576679E+04  0.50400001928E-02 0.  1.
       -1    1    3    3    0  502  0.14668434019E+04  0.43740530078E+03  0.23421955909E+03  0.15484869275E+04  0.50400001928E-02 0. -1.
</event>
<event>
 5   0  0.1235960E-06  0.3096835E+04  0.7818609E-02  0.8216607E-01
        1   -1    0    0  501    0  0.00000000000E+00  0.00000000000E+00  0.14595682022E+04  0.14595682023E+04  0.50400001928E-02 0.  1.
       -1   -1    0    0    0  501  0.00000000000E+00  0.00000000000E+00 -0.16426752279E+04  0.16426752279E+04  0.50400001928E-02 0. -1.
    10030    2    1    2    0    0  0.00000000000E+00  0.00000000000E+00 -0.18310702564E+03  0.31022434301E+04  0.30968348547E+04 0.  0.
        4    1    3    3  502    0 -0.11649908816E+04 -0.12703975835E+03 -0.11053744377E+04  0.16109615498E+04  0.12699999809E+01 0. -1.
       -4    1    3    3    0  502  0.11649908816E+04  0.12703975835E+03  0.92226741211E+03  0.14912818804E+04  0.12699999809E+01 0.  1.
</event>
<event>
 5   0  0.3374790E-06  0.3113294E+04  0.7818609E-02  0.8212099E-01
       -2   -1    0    0    0  501  0.00000000000E+00  0.00000000000E+00  0.12479388461E+04  0.12479388461E+04  0.25500000920E-02 0.  1.
        2   -1    0    0  501    0  0.00000000000E+00  0.00000000000E+00 -0.19417218374E+04  0.19417218374E+04  0.25500000920E-02 0. -1.
    10030    2    1    2    0    0  0.00000000000E+00  0.00000000000E+00 -0.69378299132E+03  0.31896606835E+04  0.31132941455E+04 0.  0.
        2    1    3    3  502    0 -0.64163334951E+03  0.76738655138E+03  0.87508220916E+03  0.13290388810E+04  0.25500000920E-02 0.  1.
       -2    1    3    3    0  502  0.64163334951E+03 -0.76738655138E+03 -0.15688652005E+04  0.18606218024E+04  0.25500000920E-02 0. -1.
</event>
<event>
 5   0  0.3374790E-06  0.3106651E+04  0.7818609E-02  0.8213915E-01
       -2   -1    0    0    0  501  0.00000000000E+00  0.00000000000E+00  0.96768084379E+03  0.96768084379E+03  0.25500000920E-02 0.  1.
        2   -1    0    0  501    0  0.00000000000E+00  0.00000000000E+00 -0.24934051995E+04  0.24934051995E+04  0.25500000920E-02 0. -1.
    10030    2    1    2    0    0  0.00000000000E+00  0.00000000000E+00 -0.15257243557E+04  0.34610860433E+04  0.31066512179E+04 0.  0.
        2    1    3    3  502    0 -0.13142293385E+04 -0.67728126255E+03 -0.23216298886E+03  0.14965989162E+04  0.25500000920E-02 0.  1.
       -2    1    3    3    0  502  0.13142293385E+04  0.67728126255E+03 -0.12935613669E+04  0.19644871271E+04  0.25500000920E-02 0. -1.
</event>
<event>
 5   0  0.1109562E-06  0.3240307E+04  0.7818609E-02  0.8178253E-01
       -4   -1    0    0    0  501  0.00000000000E+00  0.00000000000E+00  0.18806335325E+04  0.18806339613E+04  0.12699999809E+01 0. -1.
        4   -1    0    0  501    0  0.00000000000E+00  0.00000000000E+00 -0.13957504019E+04  0.13957509797E+04  0.12699999809E+01 0.  1.
    10030    2    1    2    0    0  0.00000000000E+00  0.00000000000E+00  0.48488313063E+03  0.32763849410E+04  0.32403065644E+04 0.  0.
        4    1    3    3  502    0 -0.13697818888E+04 -0.99371960774E+02 -0.62661513611E+03  0.15095778719E+04  0.12699999809E+01 0.  1.
       -4    1    3    3    0  502  0.13697818888E+04  0.99371960774E+02  0.11114982667E+04  0.17668070691E+04  0.12699999809E+01 0. -1.
</event>
<event>
 5   0  0.3445410E-06  0.3070894E+04  0.7818609E-02  0.8223771E-01
        2   -1    0    0  501    0  0.00000000000E+00  0.00000000000E+00  0.12729002993E+04  0.12729002993E+04  0.25500000920E-02 0.  1.
       -2   -1    0    0    0  501  0.00000000000E+00  0.00000000000E+00 -0.18521461051E+04  0.18521461051E+04  0.25500000920E-02 0. -1.
    10030    2    1    2    0    0  0.00000000000E+00  0.00000000000E+00 -0.57924580583E+03  0.31250464043E+04  0.30708938969E+04 0.  0.
        1    1    3    3  502    0  0.10386709733E+04 -0.89793498387E+03 -0.98911050547E+03  0.16921773601E+04  0.50400001928E-02 0.  1.
       -1    1    3    3    0  502 -0.10386709733E+04  0.89793498387E+03  0.40986469964E+03  0.14328690443E+04  0.50400001928E-02 0. -1.
</event>
<event>
 5   0  0.1211008E-06  0.2952382E+04  0.7818609E-02  0.8257461E-01
       -1   -1    0    0    0  501  0.00000000000E+00  0.00000000000E+00  0.96743428280E+03  0.96743428282E+03  0.50400001928E-02 0.  1.
        1   -1    0    0  501    0  0.00000000000E+00  0.00000000000E+00 -0.22524941807E+04  0.22524941807E+04  0.50400001928E-02 0. -1.
    10030    2    1    2    0    0  0.00000000000E+00  0.00000000000E+00 -0.12850598979E+04  0.32199284635E+04  0.29523821516E+04 0.  0.
        3    1    3    3  502    0 -0.11149553489E+04 -0.95107752834E+03 -0.83599196592E+03  0.16871741085E+04  0.10100000352E+00 0. -1.
       -3    1    3    3    0  502  0.11149553489E+04  0.95107752834E+03 -0.44906793193E+03  0.15327543550E+04  0.10100000352E+00 0.  1.
</event>
<event>
 5   0  0.3445959E-06  0.3123798E+04  0.7818609E-02  0.8209237E-01
       -2   -1    0    0    0  501  0.00000000000E+00  0.00000000000E+00  0.14016216058E+04  0.14016216058E+04  0.25500000920E-02 0.  1.
        2   -1    0    0  501    0  0.00000000000E+00  0.00000000000E+00 -0.17405038114E+04  0.17405038114E+04  0.25500000920E-02 0. -1.
    10030    2    1    2    0    0  0.00000000000E+00  0.00000000000E+00 -0.33888220561E+03  0.31421254172E+04  0.31237975268E+04 0.  0.
        4    1    3    3  502    0 -0.11139466337E+04 -0.54398304670E+03  0.78625525723E+03  0.14679896458E+04  0.12699999809E+01 0.  1.
       -4    1    3    3    0  502  0.11139466337E+04  0.54398304670E+03 -0.11251374628E+04  0.16741357714E+04  0.12699999809E+01 0. -1.
</event>
<event>
 5   0  0.3441897E-06  0.2509956E+04  0.7818609E-02  0.8399447E-01
        2   -1    0    0  501    0  0.00000000000E+00  0.00000000000E+00  0.17711295396E+04  0.17711295396E+04  0.25500000920E-02 0. -1.
       -2   -1    0    0    0  501  0.00000000000E+00  0.00000000000E+00 -0.88924627695E+03  0.88924627695E+03  0.25500000920E-02 0.  1.
    10030    2    1    2    0    0  0.00000000000E+00  0.00000000000E+00  0.88188326268E+03  0.26603758166E+04  0.25099564531E+04 0.  0.
        5    1    3    3  502    0 -0.11201746241E+04  0.55958889265E+03  0.52973144026E+03  0.13596206846E+04  0.46999998093E+01 0.  1.
       -5    1    3    3    0  502  0.11201746241E+04 -0.55958889265E+03  0.35215182242E+03  0.13007551320E+04  0.46999998093E+01 0. -1.
</event>
<event>
 5   0  0.3340899E-06  0.2940664E+04  0.7818609E-02  0.8260881E-01
       -2   -1    0    0    0  501  0.00000000000E+00  0.00000000000E+00  0.13105172379E+04  0.13105172379E+04  0.25500000920E-02 0.  1.
        2   -1    0    0  501    0  0.00000000000E+00  0.00000000000E+00 -0.16496356410E+04  0.16496356410E+04  0.25500000920E-02 0. -1.
    10030    2    1    2    0    0  0.00000000000E+00  0.00000000000E+00 -0.33911840307E+03  0.29601528789E+04  0.29406638324E+04 0.  0.
        3    1    3    3  502    0  0.64874435337E+03  0.25135034216E+03 -0.14734544424E+04  0.16294521271E+04  0.10100000352E+00 0. -1.
       -3    1    3    3    0  502 -0.64874435337E+03 -0.25135034216E+03  0.11343360393E+04  0.13307007518E+04  0.10100000352E+00 0.  1.
</event>
<event>
 5   0  0.1198763E-06  0.3127054E+04  0.7818609E-02  0.8208352E-01
        1   -1    0    0  501    0  0.00000000000E+00  0.00000000000E+00  0.21084396289E+04  0.21084396289E+04  0.50400001928E-02 0. -1.
       -1   -1    0    0    0  501  0.00000000000E+00  0.00000000000E+00 -0.11594432461E+04  0.11594432461E+04  0.50400001928E-02 0.  1.
    10030    2    1    2    0    0  0.00000000000E+00  0.00000000000E+00  0.94899638281E+03  0.32678828750E+04  0.31270536212E+04 0.  0.
        1    1    3    3  502    0 -0.31810496220E+03  0.12270231420E+03 -0.11201214219E+04  0.11708623423E+04  0.50400001928E-02 0.  1.
       -1    1    3    3    0  502  0.31810496220E+03 -0.12270231420E+03  0.20691178047E+04  0.20970205327E+04  0.50400001928E-02 0. -1.
</event>
<event>
 5   0  0.1171915E-06  0.3084943E+04  0.7818609E-02  0.8219882E-01
       -1   -1    0    0    0  501  0.00000000000E+00  0.00000000000E+00  0.11540286553E+04  0.11540286553E+04  0.50400001928E-02 0. -1.
        1   -1    0    0  501    0  0.00000000000E+00  0.00000000000E+00 -0.20616630409E+04  0.20616630409E+04  0.50400001928E-02 0.  1.
    10030    2    1    2    0    0  0.00000000000E+00  0.00000000000E+00 -0.90763438567E+03  0.32156916962E+04  0.30849429342E+04 0.  0.
        2    1    3    3  502    0 -0.13624714236E+04 -0.61047806296E+03 -0.49826406020E+02  0.14938187696E+04  0.25500000920E-02 0. -1.
       -2    1    3    3    0  502  0.13624714236E+04  0.61047806296E+03 -0.85780797965E+03  0.17218729266E+04  0.25500000920E-02 0.  1.
</event>
<event>
 5   0  0.1171915E-06  0.3181277E+04  0.7818609E-02  0.8193779E-01
        1   -1    0    0  501    0  0.00000000000E+00  0.00000000000E+00  0.13425980619E+04  0.13425980619E+04  0.50400001928E-02 0.  1.
       -1   -1    0    0    0  501  0.00000000000E+00  0.00000000000E+00 -0.18845039701E+04  0.18845039702E+04  0.50400001928E-02 0. -1.
    10030    2    1    2    0    0  0.00000000000E+00  0.00000000000E+00 -0.54190590825E+03  0.32271020321E+04  0.31812773397E+04 0.  0.
        2    1    3    3  502    0  0.65578135969E+03  0.14407041774E+04 -0.11232376868E+03  0.15869134657E+04  0.25500000920E-02 0.  1.
       -2    1    3    3    0  502 -0.65578135969E+03 -0.14407041774E+04 -0.42958213957E+03  0.16401885664E+04  0.25500000920E-02 0. -1.
</event>
<event>
 5   0  0.3374790E-06  0.3107556E+04  0.7818609E-02  0.8213667E-01
        2   -1    0    0  501    0  0.00000000000E+00  0.00000000000E+00  0.16074740483E+04  0.16074740483E+04  0.25500000920E-02 0.  1.
       -2   -1    0    0    0  501  0.00000000000E+00  0.00000000000E+00 -0.15018754133E+04  0.15018754133E+04  0.25500000920E-02 0. -1.
    10030    2    1    2    0    0  0.00000000000E+00  0.00000000000E+00  0.10559863501E+03  0.31093494616E+04  0.31075557924E+04 0.  0.
        2    1    3    3  502    0  0.44209859993E+03  0.14271914982E+03 -0.14307586955E+04  0.15042906543E+04  0.25500000920E-02 0. -1.
       -2    1    3    3    0  502 -0.44209859993E+03 -0.14271914982E+03  0.15363573305E+04  0.16050588073E+04  0.25500000920E-02 0.  1.
</event>
<event>
 5   0  0.3445959E-06  0.3110717E+04  0.7818609E-02  0.8212803E-01
       -2   -1    0    0    0  501  0.00000000000E+00  0.00000000000E+00  0.22730092649E+04  0.22730092649E+04  0.25500000920E-02 0.  1.
        2   -1    0    0  501    0  0.00000000000E+00  0.00000000000E+00 -0.10642897430E+04  0.10642897430E+04  0.25500000920E-02 0. -1.
    10030    2    1    2    0    0  0.00000000000E+00  0.00000000000E+00  0.12087195218E+04  0.33372990079E+04  0.31107172461E+04 0.  0.
        4    1    3    3  502    0  0.43894482296E+03  0.13304608279E+04  0.13290943275E+04  0.19311374670E+04  0.12699999809E+01 0.  1.
       -4    1    3    3    0  502 -0.43894482296E+03 -0.13304608279E+04 -0.12037480565E+03  0.14061615408E+04  0.12699999809E+01 0. -1.
</event>
<event>
 5   0  0.3441897E-06  0.3096079E+04  0.7818609E-02  0.8216815E-01
        2   -1    0    0  501    0  0.00000000000E+00  0.00000000000E+00  0.17624383310E+04  0.17624383310E+04  0.25500000920E-02 0.  1.
       -2   -1    0    0    0  501  0.00000000000E+00  0.00000000000E+00 -0.13597219691E+04  0.13597219691E+04  0.25500000920E-02 0. -1.
    10030    2    1    2    0    0  0.00000000000E+00  0.00000000000E+00  0.40271636194E+03  0.31221603001E+04  0.30960788865E+04 0.  0.
        5    1    3    3  502    0 -0.25490331065E+03  0.62558179914E+03  0.16059577220E+04  0.17422544533E+04  0.46999998093E+01 0.  1.
       -5    1    3    3    0  502  0.25490331065E+03 -0.62558179914E+03 -0.12032413601E+04  0.13799058467E+04  0.46999998093E+01 0. -1.
</event>
<event>
 5   0  0.1198763E-06  0.3078038E+04  0.7818609E-02  0.8221791E-01
       -1   -1    0    0    0  501  0.00000000000E+00  0.00000000000E+00  0.23151373538E+04  0.23151373538E+04  0.50400001928E-02 0.  1.
        1   -1    0    0  501    0  0.00000000000E+00  0.00000000000E+00 -0.10230838561E+04  0.10230838561E+04  0.50400001928E-02 0. -1.
    10030    2    1    2    0    0  0.00000000000E+00  0.00000000000E+00  0.12920534978E+04  0.33382212099E+04  0.30780381098E+04 0.  0.
        1    1    3    3  502    0 -0.53906156999E+03  0.13420985296E+04  0.75474040414E+02  0.14482790374E+04  0.50400001928E-02 0. -1.
       -1    1    3    3    0  502  0.53906156999E+03 -0.13420985296E+04  0.12165794574E+04  0.18899421725E+04  0.50400001928E-02 0.  1.
</event>
<event>
 5   0  0.1235960E-06  0.3097496E+04  0.7818609E-02  0.8216425E-01
       -1   -1    0    0    0  501  0.00000000000E+00  0.00000000000E+00  0.10903659533E+04  0.10903659533E+04  0.50400001928E-02 0. -1.
        1   -1    0    0  501    0  0.00000000000E+00  0.00000000000E+00 -0.21998304224E+04  0.21998304224E+04  0.50400001928E-02 0.  1.
    10030    2    1    2    0    0  0.00000000000E+00  0.00000000000E+00 -0.11094644691E+04  0.32901963757E+04  0.30974958890E+04 0.  0.
        4    1    3    3  502    0  0.20873195017E+03 -0.14115903611E+04  0.84770560488E+02  0.14294558529E+04  0.12699999809E+01 0. -1.
       -4    1    3    3    0  502 -0.20873195017E+03  0.14115903611E+04 -0.11942350296E+04  0.18607405228E+04  0.12699999809E+01 0.  1.
</event>
<event>
 5   0  0.3374790E-06  0.3104118E+04  0.7818609E-02  0.8214609E-01
        2   -1    0    0  501    0  0.00000000000E+00  0.00000000000E+00  0.32219304871E+04  0.32219304871E+04  0.25500000920E-02 0. -1.
       -2   -1    0    0    0  501  0.00000000000E+00  0.00000000000E+00 -0.74765333074E+03  0.74765333074E+03  0.25500000920E-02 0.  1.
    10030    2    1    2    0    0  0.00000000000E+00  0.00000000000E+00  0.24742771563E+04  0.39695838178E+04  0.31041179488E+04 0.  0.
        2    1    3    3  502    0 -0.37034769035E+03 -0.22480058625E+03  0.31430382752E+04  0.31727562646E+04  0.25500000920E-02 0. -1.
       -2    1    3    3    0  502  0.37034769035E+03  0.22480058625E+03 -0.66876111889E+03  0.79682755316E+03  0.25500000920E-02 0.  1.
</event>
<event>
 5   0  0.3445410E-06  0.3034937E+04  0.7818609E-02  0.8233824E-01
       -2   -1    0    0    0  501  0.00000000000E+00  0.00000000000E+00  0.19469094246E+04  0.19469094246E+04  0.25500000920E-02 0. -1.
        2   -1    0    0  501    0  0.00000000000E+00  0.00000000000E+00 -0.11827521216E+04  0.11827521216E+04  0.25500000920E-02 0.  1.
    10030    2    1    2    0    0  0.00000000000E+00  0.00000000000E+00  0.76415730302E+03  0.31296615463E+04  0.30349373981E+04 0.  0.
        1    1    3    3  502    0  0.12123781846E+04 -0.15672519280E+03 -0.54502991875E+03  0.13384622748E+04  0.50400001928E-02 0.  1.
       -1    1    3    3    0  502 -0.12123781846E+04  0.15672519280E+03  0.13091872218E+04  0.17911992715E+04  0.50400001928E-02 0. -1.
</event>
<event>
 5   0  0.3445410E-06  0.3155620E+04  0.7818609E-02  0.8200637E-01
        2   -1    0    0  501    0  0.00000000000E+00  0.00000000000E+00  0.11164388011E+04  0.11164388011E+04  0.25500000920E-02 0.  1.
       -2   -1    0    0    0  501  0.00000000000E+00  0.00000000000E+00 -0.22298444773E+04  0.22298444773E+04  0.25500000920E-02 0. -1.
    10030    2    1    2    0    0  0.00000000000E+00  0.00000000000E+00 -0.11134056762E+04  0.33462832785E+04  0.31556203162E+04 0.  0.
        1    1    3    3  502    0  0.24659969181E+03 -0.45232157922E+03  0.10247383035E+04  0.11469502211E+04  0.50400001928E-02 0.  1.
       -1    1    3    3    0  502 -0.24659969181E+03  0.45232157922E+03 -0.21381439797E+04  0.21993330573E+04  0.50400001928E-02 0. -1.
</event>
<event>
 5   0  0.1171915E-06  0.3082255E+04  0.7818609E-02  0.8220625E-01
        1   -1    0    0  501    0  0.00000000000E+00  0.00000000000E+00  0.18837942286E+04  0.18837942286E+04  0.50400001928E-02 0. -1.
       -1   -1    0    0    0  501  0.00000000000E+00  0.00000000000E+00 -0.12607926308E+04  0.12607926308E+04  0.50400001928E-02 0.  1.
    10030    2    1    2    0    0  0.00000000000E+00  0.00000000000E+00  0.62300159775E+03  0.31445868594E+04  0.30822549417E+04 0.  0.
        2    1    3    3  502    0 -0.96047751666E+03 -0.11892639494E+04  0.11207899283E+03  0.15327842321E+04  0.25500000920E-02 0.  1.
       -2    1    3    3    0  502  0.96047751666E+03  0.11892639494E+04  0.51092260492E+03  0.16118026274E+04  0.25500000920E-02 0. -1.
</event>
<event>
 5   0  0.3441897E-06  0.3099461E+04  0.7818609E-02  0.8215886E-01
       -2   -1    0    0    0  501  0.00000000000E+00  0.00000000000E+00  0.13500143895E+04  0.13500143895E+04  0.25500000920E-02 0.  1.
        2   -1    0    0  501    0  0.00000000000E+00  0.00000000000E+00 -0.17789921746E+04  0.17789921746E+04  0.25500000920E-02 0. -1.
    10030    2    1    2    0    0  0.00000000000E+00  0.00000000000E+00 -0.42897778505E+03  0.31290065641E+04  0.30994612658E+04 0.  0.
        5    1    3    3  502    0  0.61661058633E+03  0.10963337386E+02 -0.16497706579E+04  0.17612762770E+04  0.46999998093E+01 0. -1.
       -5    1    3    3    0  502 -0.61661058633E+03 -0.10963337386E+02  0.12207928729E+04  0.13677302872E+04  0.46999998093E+01 0.  1.
</event>
<event>
 5   0  0.1235960E-06  0.3083618E+04  0.7818609E-02  0.8220248E-01
        1   -1    0    0  501    0  0.00000000000E+00  0.00000000000E+00  0.15116844129E+04  0.15116844129E+04  0.50400001928E-02 0.  1.
       -1   -1    0    0    0  501  0.00000000000E+00  0.00000000000E+00 -0.15725335485E+04  0.15725335485E+04  0.50400001928E-02 0. -1.
    10030    2    1    2    0    0  0.00000000000E+00  0.00000000000E+00 -0.60849135668E+02  0.30842179614E+04  0.30836176508E+04 0.  0.
        4    1    3    3  502    0 -0.10194955160E+04  0.82101149257E+03  0.78443757955E+03  0.15260324070E+04  0.12699999809E+01 0.  1.
       -4    1    3    3    0  502  0.10194955160E+04 -0.82101149257E+03 -0.84528671522E+03  0.15581855544E+04  0.12699999809E+01 0. -1.
</event>
<event>
 5   0  0.1198763E-06  0.3056280E+04  0.7818609E-02  0.8227840E-01
       -1   -1    0    0    0  501  0.00000000000E+00  0.00000000000E+00  0.14409692611E+04  0.14409692611E+04  0.50400001928E-02 0.  1.
        1   -1    0    0  501    0  0.00000000000E+00  0.00000000000E+00 -0.16205842880E+04  0.16205842880E+04  0.50400001928E-02 0. -1.
    10030    2    1    2    0    0  0.00000000000E+00  0.00000000000E+00 -0.17961502694E+03  0.30615535491E+04  0.30562801861E+04 0.  0.
        1    1    3    3  502    0  0.44490177434E+03  0.99622942381E+03 -0.11616075985E+04  0.15936570731E+04  0.50400001928E-02 0. -1.
       -1    1    3    3    0  502 -0.44490177434E+03 -0.99622942381E+03  0.98199257157E+03  0.14678964760E+04  0.50400001928E-02 0.  1.
</event>
<event>
 5   0  0.1198763E-06  0.3120889E+04  0.7818609E-02  0.8210028E-01
        1   -1    0    0  501    0  0.00000000000E+00  0.00000000000E+00  0.25978707184E+04  0.25978707184E+04  0.50400001928E-02 0. -1.
       -1   -1    0    0    0  501  0.00000000000E+00  0.00000000000E+00 -0.93730124042E+03  0.93730124043E+03  0.50400001928E-02 0.  1.
    10030    2    1    2    0    0  0.00000000000E+00  0.00000000000E+00  0.16605694780E+04  0.35351719588E+04  0.31208892623E+04 0.  0.
        1    1    3    3  502    0  0.12817349886E+04 -0.78808253216E+03  0.36177613150E+03  0.15475143385E+04  0.50400001928E-02 0. -1.
       -1    1    3    3    0  502 -0.12817349886E+04  0.78808253216E+03  0.12987933465E+04  0.19876576203E+04  0.50400001928E-02 0.  1.
</event>
<event>
 5   0  0.1171915E-06  0.3026186E+04  0.7818609E-02  0.8236293E-01
        1   -1    0    0  501    0  0.00000000000E+00  0.00000000000E+00  0.16617503015E+04  0.16617503015E+04  0.50400001928E-02 0.  1.
       -1   -1    0    0    0  501  0.00000000000E+00  0.00000000000E+00 -0.13777344219E+04  0.13777344220E+04  0.50400001928E-02 0. -1.
    10030    2    1    2    0    0  0.00000000000E+00  0.00000000000E+00  0.28401587958E+03  0.30394847235E+04  0.30261861087E+04 0.  0.
        2    1    3    3  502    0 -0.96533759768E+03 -0.40423965921E+03 -0.95557249632E+03  0.14171821250E+04  0.25500000920E-02 0. -1.
       -2    1    3    3    0  502  0.96533759768E+03  0.40423965921E+03  0.12395883759E+04  0.16223025985E+04  0.25500000920E-02 0.  1.
</event>
<event>
 5   0  0.1211008E-06  0.3069634E+04  0.7818609E-02  0.8224121E-01
       -1   -1    0    0    0  501  0.00000000000E+00  0.00000000000E+00  0.93665873548E+03  0.93665873549E+03  0.50400001928E-02 0.  1.
        1   -1    0    0  501    0  0.00000000000E+00  0.00000000000E+00 -0.25149634961E+04  0.25149634961E+04  0.50400001928E-02 0. -1.
    10030    2    1    2    0    0  0.00000000000E+00  0.00000000000E+00 -0.15783047606E+04  0.34516222316E+04  0.30696335469E+04 0.  0.
        3    1    3    3  502    0 -0.11320715306E+04  0.10340112507E+04 -0.86784157807E+03  0.17617929026E+04  0.10100000352E+00 0. -1.
       -3    1    3    3    0  502  0.11320715306E+04 -0.10340112507E+04 -0.71046318255E+03  0.16898293289E+04  0.10100000352E+00 0.  1.
</event>
<event>
 5   0  0.3340899E-06  0.3178549E+04  0.7818609E-02  0.8194505E-01
       -2   -1    0    0    0  501  0.00000000000E+00  0.00000000000E+00  0.15443672646E+04  0.15443672646E+04  0.25500000920E-02 0.  1.
        2   -1    0    0  501    0  0.00000000000E+00  0.00000000000E+00 -0.16354877216E+04  0.16354877216E+04  0.25500000920E-02 0. -1.
    10030    2    1    2    0    0  0.00000000000E+00  0.00000000000E+00 -0.91120456922E+02  0.31798549862E+04  0.31785491652E+04 0.  0.
        3    1    3    3  502    0  0.77195920326E+03 -0.44769461414E+03 -0.13611830812E+04  0.16276273744E+04  0.10100000352E+00 0. -1.
       -3    1    3    3    0  502 -0.77195920326E+03  0.44769461414E+03  0.12700626243E+04  0.15522276118E+04  0.10100000352E+00 0.  1.
</event>
<event>
 5   0  0.1211008E-06  0.2648462E+04  0.7818609E-02  0.8351924E-01
        1   -1    0    0  501    0  0.00000000000E+00  0.00000000000E+00  0.20445389278E+04  0.20445389278E+04  0.50400001928E-02 0.  1.
       -1   -1    0    0    0  501  0.00000000000E+00  0.00000000000E+00 -0.85769337393E+03  0.85769337394E+03  0.50400001928E-02 0. -1.
    10030    2    1    2    0    0  0.00000000000E+00  0.00000000000E+00  0.11868455539E+04  0.29022323017E+04  0.26484618110E+04 0.  0.
        3    1    3    3  502    0 -0.25022791322E+03  0.31361244441E+02 -0.83113647191E+03  0.86855361455E+03  0.10100000352E+00 0. -1.
       -3    1    3    3    0  502  0.25022791322E+03 -0.31361244441E+02  0.20179820258E+04  0.20336786872E+04  0.10100000352E+00 0.  1.
</event>
<event>
 5   0  0.3445959E-06  0.3104186E+04  0.7818609E-02  0.8214590E-01
        2   -1    0    0  501    0  0.00000000000E+00  0.00000000000E+00  0.23710272525E+04  0.23710272525E+04  0.25500000920E-02 0. -1.
       -2   -1    0    0    0  501  0.00000000000E+00  0.00000000000E+00 -0.10160119204E+04  0.10160119204E+04  0.25500000920E-02 0.  1.
    10030    2    1    2    0    0  0.00000000000E+00  0.00000000000E+00  0.13550153321E+04  0.33870391729E+04  0.31041855307E+04 0.  0.
        4    1    3    3  502    0  0.48119395645E+03  0.10918526257E+04 -0.40556330036E+03  0.12602273538E+04  0.12699999809E+01 0.  1.
       -4    1    3    3    0  502 -0.48119395645E+03 -0.10918526257E+04  0.17605786324E+04  0.21268118191E+04  0.12699999809E+01 0. -1.
</event>
<event>
 5   0  0.3340899E-06  0.2899853E+04  0.7818609E-02  0.8272921E-01
        2   -1    0    0  501    0  0.00000000000E+00  0.00000000000E+00  0.15389928591E+04  0.15389928591E+04  0.25500000920E-02 0. -1.
       -2   -1    0    0    0  501  0.00000000000E+00  0.00000000000E+00 -0.13660145077E+04  0.13660145077E+04  0.25500000920E-02 0.  1.
    10030    2    1    2    0    0  0.00000000000E+00  0.00000000000E+00  0.17297835138E+03  0.29050073668E+04  0.28998528051E+04 0.  0.
        3    1    3    3  502    0 -0.40505459278E+02  0.12814770295E+03 -0.13597611981E+04  0.13663868604E+04  0.10100000352E+00 0.  1.
       -3    1    3    3    0  502  0.40505459278E+02 -0.12814770295E+03  0.15327395495E+04  0.15386205064E+04  0.10100000352E+00 0. -1.
</event>
<event>
 5   0  0.3374790E-06  0.3117206E+04  0.7818609E-02  0.8211032E-01
        2   -1    0    0  501    0  0.00000000000E+00  0.00000000000E+00  0.19699475319E+04  0.19699475319E+04  0.25500000920E-02 0.  1.
       -2   -1    0    0    0  501  0.00000000000E+00  0.00000000000E+00 -0.12331511224E+04  0.12331511224E+04  0.25500000920E-02 0. -1.
    10030    2    1    2    0    0  0.00000000000E+00  0.00000000000E+00  0.73679640948E+03  0.32030986543E+04  0.31172058065E+04 0.  0.
        2    1    3    3  502    0  0.81205386924E+03 -0.13033175929E+04  0.64253535343E+03  0.16646080364E+04  0.25500000920E-02 0.  1.
       -2    1    3    3    0  502 -0.81205386924E+03  0.13033175929E+04  0.94261056046E+02  0.15384906178E+04  0.25500000920E-02 0. -1.
</event>
<event>
 5   0  0.1250276E-06  0.3018608E+04  0.7818609E-02  0.8238437E-01
       -1   -1    0    0    0  501  0.00000000000E+00  0.00000000000E+00  0.97694875885E+03  0.97694875886E+03  0.50400001928E-02 0. -1.
        1   -1    0    0  501    0  0.00000000000E+00  0.00000000000E+00 -0.23317477497E+04  0.23317477497E+04  0.50400001928E-02 0.  1.
    10030    2    1    2    0    0  0.00000000000E+00  0.00000000000E+00 -0.13547989908E+04  0.33086965085E+04  0.30186076724E+04 0.  0.
        5    1    3    3  502    0 -0.94489549676E+03  0.66181759459E+03  0.38934083606E+03  0.12175542719E+04  0.46999998093E+01 0. -1.
       -5    1    3    3    0  502  0.94489549676E+03 -0.66181759459E+03 -0.17441398269E+04  0.20911422367E+04  0.46999998093E+01 0.  1.
</event>
<event>
 5   0  0.1198763E-06  0.2871739E+04  0.7818609E-02  0.8281336E-01
        1   -1    0    0  501    0  0.00000000000E+00  0.00000000000E+00  0.26050572933E+04  0.26050572933E+04  0.50400001928E-02 0.  1.
       -1   -1    0    0    0  501  0.00000000000E+00  0.00000000000E+00 -0.79143016171E+03  0.79143016173E+03  0.50400001928E-02 0. -1.
    10030    2    1    2    0    0  0.00000000000E+00  0.00000000000E+00  0.18136271316E+04  0.33964874551E+04  0.28717387868E+04 0.  0.
        1    1    3    3  502    0 -0.49570187903E+03 -0.72640392545E+03  0.22492692936E+04  0.24150766802E+04  0.50400001928E-02 0.  1.
       -1    1    3    3    0  502  0.49570187903E+03  0.72640392545E+03 -0.43564216200E+03  0.98141077491E+03  0.50400001928E-02 0. -1.
</event>
<event>
 5   0  0.3445959E-06  0.3166926E+04  0.7818609E-02  0.8197607E-01
       -2   -1    0    0    0  501  0.00000000000E+00  0.00000000000E+00  0.15544005224E+04  0.15544005224E+04  0.25500000920E-02 0. -1.
        2   -1    0    0  501    0  0.00000000000E+00  0.00000000000E+00 -0.16130686673E+04  0.16130686673E+04  0.25500000920E-02 0.  1.
    10030    2    1    2    0    0  0.00000000000E+00  0.00000000000E+00 -0.58668144821E+02  0.31674691897E+04  0.31669258148E+04 0.  0.
        4    1    3    3  502    0 -0.85664556009E+02  0.14736215131E+03  0.15451974969E+04  0.15545709817E+04  0.12699999809E+01 0. -1.
       -4    1    3    3    0  502  0.85664556009E+02 -0.14736215131E+03 -0.16038656417E+04  0.16128982080E+04  0.12699999809E+01 0.  1.
</event>
<event>
 5   0  0.3445959E-06  0.3089825E+04  0.7818609E-02  0.8218536E-01
        2   -1    0    0  501    0  0.00000000000E+00  0.00000000000E+00  0.17290282313E+04  0.17290282313E+04  0.25500000920E-02 0.  1.
       -2   -1    0    0    0  501  0.00000000000E+00  0.00000000000E+00 -0.13804022064E+04  0.13804022064E+04  0.25500000920E-02 0. -1.
    10030    2    1    2    0    0  0.00000000000E+00  0.00000000000E+00  0.34862602498E+03  0.31094304377E+04  0.30898248399E+04 0.  0.
        4    1    3    3  502    0 -0.38360063620E+03  0.13201669999E+03 -0.13258418901E+04  0.13865194508E+04  0.12699999809E+01 0. -1.
       -4    1    3    3    0  502  0.38360063620E+03 -0.13201669999E+03  0.16744679150E+04  0.17229109868E+04  0.12699999809E+01 0.  1.
</event>
<event>
 5   0  0.3441897E-06  0.3097671E+04  0.7818609E-02  0.8216377E-01
       -2   -1    0    0    0  501  0.00000000000E+00  0.00000000000E+00  0.14466474539E+04  0.14466474539E+04  0.25500000920E-02 0. -1.
        2   -1    0    0  501    0  0.00000000000E+00  0.00000000000E+00 -0.16582418941E+04  0.16582418941E+04  0.25500000920E-02 0.  1.
    10030    2    1    2    0    0  0.00000000000E+00  0.00000000000E+00 -0.21159444019E+03  0.31048893480E+04  0.30976710052E+04 0.  0.
        5    1    3    3  502    0  0.12571136677E+04 -0.88994422064E+03  0.57474454365E+02  0.15413179076E+04  0.46999998093E+01 0.  1.
       -5    1    3    3    0  502 -0.12571136677E+04  0.88994422064E+03 -0.26906889456E+03  0.15635714404E+04  0.46999998093E+01 0. -1.
</event>
<event>
 5   0  0.3340899E-06  0.3086380E+04  0.7818609E-02  0.8219486E-01
        2   -1    0    0  501    0  0.00000000000E+00  0.00000000000E+00  0.23812699713E+04  0.23812699713E+04  0.25500000920E-02 0.  1.
       -2   -1    0    0    0  501  0.00000000000E+00  0.00000000000E+00 -0.10000697549E+04  0.10000697549E+04  0.25500000920E-02 0. -1.
    10030    2    1    2    0    0  0.00000000000E+00  0.00000000000E+00  0.13812002164E+04  0.33813397263E+04  0.30863804540E+04 0.  0.
        3    1    3    3  502    0 -0.14069807036E+04  0.73461528277E+02  0.78819013369E+00  0.14088974156E+04  0.10100000352E+00 0. -1.
       -3    1    3    3    0  502  0.14069807036E+04 -0.73461528277E+02  0.13804120263E+04  0.19724423106E+04  0.10100000352E+00 0.  1.
</event>
<event>
 5   0  0.3445959E-06  0.3041153E+04  0.7818609E-02  0.8232076E-01
        2   -1    0    0  501    0  0.00000000000E+00  0.00000000000E+00  0.14452742580E+04  0.14452742580E+04  0.25500000920E-02 0. -1.
       -2   -1    0    0    0  501  0.00000000000E+00  0.00000000000E+00 -0.15998024693E+04  0.15998024693E+04  0.25500000920E-02 0.  1.
    10030    2    1    2    0    0  0.00000000000E+00  0.00000000000E+00 -0.15452821126E+03  0.30450767273E+04  0.30411532857E+04 0.  0.
        4    1    3    3  502    0 -0.12015628236E+04  0.90133725135E+03  0.15966249421E+03  0.15105150726E+04  0.12699999809E+01 0.  1.
       -4    1    3    3    0  502  0.12015628236E+04 -0.90133725135E+03 -0.31419070547E+03  0.15345616547E+04  0.12699999809E+01 0. -1.
</event>
<event>
 5   0  0.1250276E-06  0.3119535E+04  0.7818609E-02  0.8210397E-01
       -1   -1    0    0    0  501  0.00000000000E+00  0.00000000000E+00  0.17896075076E+04  0.17896075076E+04  0.50400001928E-02 0. -1.
        1   -1    0    0  501    0  0.00000000000E+00  0.00000000000E+00 -0.13594456941E+04  0.13594456941E+04  0.50400001928E-02 0.  1.
    10030    2    1    2    0    0  0.00000000000E+00  0.00000000000E+00  0.43016181356E+03  0.31490532017E+04  0.31195347219E+04 0.  0.
        5    1    3    3  502    0  0.14750480284E+04 -0.30037817367E+03 -0.19726739242E+03  0.15181996731E+04  0.46999998093E+01 0.  1.
       -5    1    3    3    0  502 -0.14750480284E+04  0.30037817367E+03  0.62742920598E+03  0.16308535286E+04  0.46999998093E+01 0. -1.
</event>
<event>
 5   0  0.1171915E-06  0.3168982E+04  0.7818609E-02  0.8197057E-01
        1   -1    0    0  501    0  0.00000000000E+00  0.00000000000E+00  0.15340380889E+04  0.15340380889E+04  0.50400001928E-02 0.  1.
       -1   -1    0    0    0  501  0.00000000000E+00  0.00000000000E+00 -0.16366030284E+04  0.16366030284E+04  0.50400001928E-02 0. -1.
    10030    2    1    2    0    0  0.00000000000E+00  0.00000000000E+00 -0.10256493946E+03  0.31706411173E+04  0.31689817810E+04 0.  0.
        2    1    3    3  502    0  0.21427784192E+03  0.11720889510E+04 -0.10962928107E+04  0.16191248961E+04  0.25500000920E-02 0. -1.
       -2    1    3    3    0  502 -0.21427784192E+03 -0.11720889510E+04  0.99372787120E+03  0.15515162212E+04  0.25500000920E-02 0.  1.
</event>
<event>
 5   0  0.3445959E-06  0.3100503E+04  0.7818609E-02  0.8215600E-01
       -2   -1    0    0    0  501  0.00000000000E+00  0.00000000000E+00  0.13626708490E+04  0.13626708490E+04  0.25500000920E-02 0. -1.
        2   -1    0    0  501    0  0.00000000000E+00  0.00000000000E+00 -0.17636544146E+04  0.17636544146E+04  0.25500000920E-02 0.  1.
    10030    2    1    2    0    0  0.00000000000E+00  0.00000000000E+00 -0.40098356557E+03  0.31263252635E+04  0.31005034807E+04 0.  0.
        4    1    3    3  502    0 -0.15492031663E+04  0.21934181870E+01 -0.14306499713E+03  0.15557970523E+04  0.12699999809E+01 0. -1.
       -4    1    3    3    0  502  0.15492031663E+04 -0.21934181870E+01 -0.25791856844E+03  0.15705282113E+04  0.12699999809E+01 0.  1.
</event>
<event>
 5   0  0.3340899E-06  0.3070698E+04  0.7818609E-02  0.8223826E-01
        2   -1    0    0  501    0  0.00000000000E+00  0.00000000000E+00  0.19672594361E+04  0.19672594361E+04  0.25500000920E-02 0.  1.
       -2   -1    0    0    0  501  0.00000000000E+00  0.00000000000E+00 -0.11982644580E+04  0.11982644580E+04  0.25500000920E-02 0. -1.
    10030    2    1    2    0    0  0.00000000000E+00  0.00000000000E+00  0.76899497806E+03  0.31655238941E+04  0.30706983323E+04 0.  0.
        3    1    3    3  502    0 -0.10271490296E+04 -0.10248984570E+04 -0.13284145784E+03  0.14570857350E+04  0.10100000352E+00 0. -1.
       -3    1    3    3    0  502  0.10271490296E+04  0.10248984570E+04  0.90183643591E+03  0.17084381591E+04  0.10100000352E+00 0.  1.
</event>
<event>
 5   0  0.1109562E-06  0.3143284E+04  0.7818609E-02  0.8203958E-01
       -3   -1    0    0    0  501  0.00000000000E+00  0.00000000000E+00  0.90171519514E+03  0.90171520080E+03  0.10100000352E+00 0. -1.
        3   -1    0    0  501    0  0.00000000000E+00  0.00000000000E+00 -0.27392885554E+04  0.27392885573E+04  0.10100000352E+00 0.  1.
    10030    2    1    2    0    0  0.00000000000E+00  0.00000000000E+00 -0.18375733603E+04  0.36410037581E+04  0.31432837149E+04 0.  0.
        5    1    3    3  502    0  0.64319952736E+03  0.12405534285E+04 -0.17519554067E+04  0.22409926992E+04  0.46999998093E+01 0.  1.
       -5    1    3    3    0  502 -0.64319952736E+03 -0.12405534285E+04 -0.85617953624E+02  0.14000110589E+04  0.46999998093E+01 0. -1.
</event>
<event>
 5   0  0.3374790E-06  0.3105367E+04  0.7818609E-02  0.8214266E-01
        2   -1    0    0  501    0  0.00000000000E+00  0.00000000000E+00  0.21655194848E+04  0.21655194848E+04  0.25500000920E-02 0. -1.
       -2   -1    0    0    0  501  0.00000000000E+00  0.00000000000E+00 -0.11132786815E+04  0.11132786815E+04  0.25500000920E-02 0.  1.
    10030    2    1    2    0    0  0.00000000000E+00  0.00000000000E+00  0.10522408033E+04  0.32787981663E+04  0.31053674030E+04 0.  0.
        2    1    3    3  502    0 -0.96171476400E+02 -0.14113107544E+04  0.12020117732E+04  0.18563079759E+04  0.25500000920E-02 0. -1.
       -2    1    3    3    0  502  0.96171476400E+02  0.14113107544E+04 -0.14977096989E+03  0.14224901904E+04  0.25500000920E-02 0.  1.
</event>
<event>
 5   0  0.3445959E-06  0.3179094E+04  0.7818609E-02  0.8194360E-01
        2   -1    0    0  501    0  0.00000000000E+00  0.00000000000E+00  0.23159266867E+04  0.23159266867E+04  0.25500000920E-02 0.  1.
       -2   -1    0    0    0  501  0.00000000000E+00  0.00000000000E+00 -0.10909928540E+04  0.10909928540E+04  0.25500000920E-02 0. -1.
    10030    2    1    2    0    0  0.00000000000E+00  0.00000000000E+00  0.12249338327E+04  0.34069195407E+04  0.31790938744E+04 0.  0.
        4    1    3    3  502    0 -0.13757810252E+04 -0.72901798398E+03  0.26950572460E+03  0.15801504987E+04  0.12699999809E+01 0. -1.
       -4    1    3    3    0  502  0.13757810252E+04  0.72901798398E+03  0.95542810812E+03  0.18267690420E+04  0.12699999809E+01 0.  1.
</event>
<event>
 5   0  0.1198763E-06  0.3091278E+04  0.7818609E-02  0.8218136E-01
       -1   -1    0    0    0  501  0.00000000000E+00  0.00000000000E+00  0.15455610353E+04  0.15455610353E+04  0.50400001928E-02 0.  1.
        1   -1    0    0  501    0  0.00000000000E+00  0.00000000000E+00 -0.15457171714E+04  0.15457171714E+04  0.50400001928E-02 0. -1.
    10030    2    1    2    0    0  0.00000000000E+00  0.00000000000E+00 -0.15613608742E+00  0.30912782066E+04  0.30912782027E+04 0.  0.
        1    1    3    3  502    0  0.89683454454E+03 -0.54788961760E+03  0.11332819813E+04  0.15455818589E+04  0.50400001928E-02 0.  1.
       -1    1    3    3    0  502 -0.89683454454E+03  0.54788961760E+03 -0.11334381174E+04  0.15456963477E+04  0.50400001928E-02 0. -1.
</event>
<event>
 5   0  0.3374790E-06  0.3064945E+04  0.7818609E-02  0.8225425E-01
       -2   -1    0    0    0  501  0.00000000000E+00  0.00000000000E+00  0.12141770068E+04  0.12141770068E+04  0.25500000920E-02 0. -1.
        2   -1    0    0  501    0  0.00000000000E+00  0.00000000000E+00 -0.19342094202E+04  0.19342094202E+04  0.25500000920E-02 0.  1.
    10030    2    1    2    0    0  0.00000000000E+00  0.00000000000E+00 -0.72003241340E+03  0.31483864269E+04  0.30649454183E+04 0.  0.
        2    1    3    3  502    0 -0.17193917599E+03 -0.10539516377E+04 -0.14890733282E+04  0.18324072996E+04  0.25500000920E-02 0.  1.
       -2    1    3    3    0  502  0.17193917599E+03  0.10539516377E+04  0.76904091479E+03  0.13159791273E+04  0.25500000920E-02 0. -1.
</event>
<event>
 5   0  0.1250276E-06  0.2997196E+04  0.7818609E-02  0.8244532E-01
        1   -1    0    0  501    0  0.00000000000E+00  0.00000000000E+00  0.22932188472E+04  0.22932188472E+04  0.50400001928E-02 0. -1.
       -1   -1    0    0    0  501  0.00000000000E+00  0.00000000000E+00 -0.97932059337E+03  0.97932059338E+03  0.50400001928E-02 0.  1.
    10030    2    1    2    0    0  0.00000000000E+00  0.00000000000E+00  0.13138982538E+04  0.32725394406E+04  0.29971963180E+04 0.  0.
        5    1    3    3  502    0 -0.32931811674E+03  0.10474353409E+04  0.17705479890E+04  0.20833707031E+04  0.46999998093E+01 0. -1.
       -5    1    3    3    0  502  0.32931811674E+03 -0.10474353409E+04 -0.45664973516E+03  0.11891687374E+04  0.46999998093E+01 0.  1.
</event>
<event>
 5   0  0.1211008E-06  0.3099798E+04  0.7818609E-02  0.8215793E-01
       -1   -1    0    0    0  501  0.00000000000E+00  0.00000000000E+00  0.32249435374E+04  0.32249435374E+04  0.50400001928E-02 0. -1.
        1   -1    0    0  501    0  0.00000000000E+00  0.00000000000E+00 -0.74487730089E+03  0.74487730091E+03  0.50400001928E-02 0.  1.
    10030    2    1    2    0    0  0.00000000000E+00  0.00000000000E+00  0.24800662366E+04  0.39698208384E+04  0.30997982113E+04 0.  0.
        3    1    3    3  502    0 -0.11312964071E+04 -0.79199309366E+03  0.21411582252E+04  0.25478703218E+04  0.10100000352E+00 0. -1.
       -3    1    3    3    0  502  0.11312964071E+04  0.79199309366E+03  0.33890801139E+03  0.14219505166E+04  0.10100000352E+00 0.  1.
</event>
<event>
 5   0  0.3441897E-06  0.3010061E+04  0.7818609E-02  0.8240864E-01
       -2   -1    0    0    0  501  0.00000000000E+00  0.00000000000E+00  0.18750315222E+04  0.18750315222E+04  0.25500000920E-02 0.  1.
        2   -1    0    0  501    0  0.00000000000E+00  0.00000000000E+00 -0.12080422182E+04  0.12080422182E+04  0.25500000920E-02 0. -1.
    10030    2    1    2    0    0  0.00000000000E+00  0.00000000000E+00  0.66698930395E+03  0.30830737404E+04  0.30100612879E+04 0.  0.
        5    1    3    3  502    0 -0.67573353084E+03  0.69392112274E+03  0.15133705095E+04  0.17967901152E+04  0.46999998093E+01 0.  1.
       -5    1    3    3    0  502  0.67573353084E+03 -0.69392112274E+03 -0.84638120550E+03  0.12862836251E+04  0.46999998093E+01 0. -1.
</event>
<event>
 5   0  0.1250276E-06  0.3076403E+04  0.7818609E-02  0.8222244E-01
       -1   -1    0    0    0  501  0.00000000000E+00  0.00000000000E+00  0.12450121990E+04  0.12450121990E+04  0.50400001928E-02 0. -1.
        1   -1    0    0  501    0  0.00000000000E+00  0.00000000000E+00 -0.19004336805E+04  0.19004336805E+04  0.50400001928E-02 0.  1.
    10030    2    1    2    0    0  0.00000000000E+00  0.00000000000E+00 -0.65542148150E+03  0.31454458795E+04  0.30764025196E+04 0.  0.
        5    1    3    3  502    0  0.18663942567E+03 -0.90708539448E+02  0.12306273044E+04  0.12480096020E+04  0.46999998093E+01 0. -1.
       -5    1    3    3    0  502 -0.18663942567E+03  0.90708539448E+02 -0.18860487859E+04  0.18974362775E+04  0.46999998093E+01 0.  1.
</event>
<event>
 5   0  0.3340899E-06  0.3079612E+04  0.7818609E-02  0.8221356E-01
       -2   -1    0    0    0  501  0.00000000000E+00  0.00000000000E+00  0.29914292332E+04  0.29914292332E+04  0.25500000920E-02 0.  1.
        2   -1    0    0  501    0  0.00000000000E+00  0.00000000000E+00 -0.79259854774E+03  0.79259854774E+03  0.25500000920E-02 0. -1.
    10030    2    1    2    0    0  0.00000000000E+00  0.00000000000E+00  0.21988306855E+04  0.37840277809E+04  0.30796119664E+04 0.  0.
        3    1    3    3  502    0  0.12320549324E+04  0.46014768692E+03  0.11542377356E+03  0.13202340353E+04  0.10100000352E+00 0. -1.
       -3    1    3    3    0  502 -0.12320549324E+04 -0.46014768692E+03  0.20834069119E+04  0.24637937456E+04  0.10100000352E+00 0.  1.
</event>
<event>
 5   0  0.1198763E-06  0.3117488E+04  0.7818609E-02  0.8210955E-01
        1   -1    0    0  501    0  0.00000000000E+00  0.00000000000E+00  0.29678165275E+04  0.29678165275E+04  0.50400001928E-02 0. -1.
       -1   -1    0    0    0  501  0.00000000000E+00  0.00000000000E+00 -0.81867670598E+03  0.81867670599E+03  0.50400001928E-02 0.  1.
    10030    2    1    2    0    0  0.00000000000E+00  0.00000000000E+00  0.21491398215E+04  0.37864932335E+04  0.31174876158E+04 0.  0.
        1    1    3    3  502    0 -0.88182244813E+03  0.11387238299E+04  0.17986366773E+04  0.23042128130E+04  0.50400001928E-02 0. -1.
       -1    1    3    3    0  502  0.88182244813E+03 -0.11387238299E+04  0.35050314420E+03  0.14822804205E+04  0.50400001928E-02 0.  1.
</event>
<event>
 5   0  0.1250276E-06  0.3122763E+04  0.7818609E-02  0.8209518E-01
       -1   -1    0    0    0  501  0.00000000000E+00  0.00000000000E+00  0.12200870945E+04  0.12200870945E+04  0.50400001928E-02 0.  1.
        1   -1    0    0  501    0  0.00000000000E+00  0.00000000000E+00 -0.19981459992E+04  0.19981459992E+04  0.50400001928E-02 0. -1.
    10030    2    1    2    0    0  0.00000000000E+00  0.00000000000E+00 -0.77805890467E+03  0.32182330937E+04  0.31227629732E+04 0.  0.
        5    1    3    3  502    0 -0.12742786054E+04  0.41500561777E+03  0.43663485855E+03  0.14094991013E+04  0.46999998093E+01 0. -1.
       -5    1    3    3    0  502  0.12742786054E+04 -0.41500561777E+03 -0.12146937632E+04  0.18087339924E+04  0.46999998093E+01 0.  1.
</event>
<event>
 5   0  0.3340899E-06  0.3109102E+04  0.7818609E-02  0.8213244E-01
       -2   -1    0    0    0  501  0.00000000000E+00  0.00000000000E+00  0.13448382270E+04  0.13448382270E+04  0.25500000920E-02 0.  1.
        2   -1    0    0  501    0  0.00000000000E+00  0.00000000000E+00 -0.17969657187E+04  0.17969657187E+04  0.25500000920E-02 0. -1.
    10030    2    1    2    0    0  0.00000000000E+00  0.00000000000E+00 -0.45212749171E+03  0.31418039456E+04  0.31091016008E+04 0.  0.
        3    1    3    3  502    0 -0.88802021220E+03  0.32357237850E+03  0.10211586501E+04  0.13914179747E+04  0.10100000352E+00 0.  1.
       -3    1    3    3    0  502  0.88802021220E+03 -0.32357237850E+03 -0.14732861418E+04  0.17503859709E+04  0.10100000352E+00 0. -1.
</event>
<event>
 5   0  0.3441897E-06  0.2808333E+04  0.7818609E-02  0.8300686E-01
       -2   -1    0    0    0  501  0.00000000000E+00  0.00000000000E+00  0.70438293602E+03  0.70438293603E+03  0.25500000920E-02 0.  1.
        2   -1    0    0  501    0  0.00000000000E+00  0.00000000000E+00 -0.27991645252E+04  0.27991645252E+04  0.25500000920E-02 0. -1.
    10030    2    1    2    0    0  0.00000000000E+00  0.00000000000E+00 -0.20947815891E+04  0.35035474612E+04  0.28083331189E+04 0.  0.
        5    1    3    3  502    0 -0.17432417546E+02  0.12691043347E+04 -0.29809778799E+03  0.13037691831E+04  0.46999998093E+01 0.  1.
       -5    1    3    3    0  502  0.17432417546E+02 -0.12691043347E+04 -0.17966838012E+04  0.21997782781E+04  0.46999998093E+01 0. -1.
</event>
<event>
 5   0  0.3441897E-06  0.3095292E+04  0.7818609E-02  0.8217031E-01
        2   -1    0    0  501    0  0.00000000000E+00  0.00000000000E+00  0.12963636069E+04  0.12963636069E+04  0.25500000920E-02 0.  1.
       -2   -1    0    0    0  501  0.00000000000E+00  0.00000000000E+00 -0.18476361063E+04  0.18476361063E+04  0.25500000920E-02 0. -1.
    10030    2    1    2    0    0  0.00000000000E+00  0.00000000000E+00 -0.55127249941E+03  0.31439997132E+04  0.30952920424E+04 0.  0.
        5    1    3    3  502    0  0.41790875467E+03  0.65762247062E+03 -0.16338660521E+04  0.18101534209E+04  0.46999998093E+01 0. -1.
       -5    1    3    3    0  502 -0.41790875467E+03 -0.65762247062E+03  0.10825935527E+04  0.13338462923E+04  0.46999998093E+01 0.  1.
</event>
<event>
 5   0  0.1235960E-06  0.3085023E+04  0.7818609E-02  0.8219860E-01
        1   -1    0    0  501    0  0.00000000000E+00  0.00000000000E+00  0.16784706558E+04  0.16784706558E+04  0.50400001928E-02 0. -1.
       -1   -1    0    0    0  501  0.00000000000E+00  0.00000000000E+00 -0.14175651536E+04  0.14175651536E+04  0.50400001928E-02 0.  1.
    10030    2    1    2    0    0  0.00000000000E+00  0.00000000000E+00  0.26090550227E+03  0.30960358094E+04  0.30850228609E+04 0.  0.
        4    1    3    3  502    0  0.88989932868E+03  0.57253316889E+03  0.12567893584E+04  0.16429352236E+04  0.12699999809E+01 0. -1.
       -4    1    3    3    0  502 -0.88989932868E+03 -0.57253316889E+03 -0.99588385614E+03  0.14531005858E+04  0.12699999809E+01 0.  1.
</event>
<event>
 5   0  0.1109562E-06  0.2942389E+04  0.7818609E-02  0.8260376E-01
        3   -1    0    0  501    0  0.00000000000E+00  0.00000000000E+00  0.12742520826E+04  0.12742520866E+04  0.10100000352E+00 0. -1.
       -3   -1    0    0    0  501  0.00000000000E+00  0.00000000000E+00 -0.16985751943E+04  0.16985751973E+04  0.10100000352E+00 0.  1.
    10030    2    1    2    0    0  0.00000000000E+00  0.00000000000E+00 -0.42432311177E+03  0.29728272839E+04  0.29423888181E+04 0.  0.
        1    1    3    3  502    0 -0.51550946629E+03  0.13762500507E+04 -0.14364574406E+03  0.14766341157E+04  0.50400001928E-02 0. -1.
       -1    1    3    3    0  502  0.51550946629E+03 -0.13762500507E+04 -0.28067736771E+03  0.14961931682E+04  0.50400001928E-02 0.  1.
</event>
<event>
 5   0  0.1235960E-06  0.3081281E+04  0.7818609E-02  0.8220894E-01
        1   -1    0    0  501    0  0.00000000000E+00  0.00000000000E+00  0.17936818528E+04  0.17936818529E+04  0.50400001928E-02 0.  1.
       -1   -1    0    0    0  501  0.00000000000E+00  0.00000000000E+00 -0.13232969713E+04  0.13232969713E+04  0.50400001928E-02 0. -1.
    10030    2    1    2    0    0  0.00000000000E+00  0.00000000000E+00  0.47038488155E+03  0.31169788242E+04  0.30812813980E+04 0.  0.
        4    1    3    3  502    0 -0.10304256405E+04  0.11326635245E+04  0.63316723020E+02  0.15325515589E+04  0.12699999809E+01 0. -1.
       -4    1    3    3    0  502  0.10304256405E+04 -0.11326635245E+04  0.40706815853E+03  0.15844272653E+04  0.12699999809E+01 0.  1.
</event>
<event>
 5   0  0.1211008E-06  0.3150941E+04  0.7818609E-02  0.8201895E-01
        1   -1    0    0  501    0  0.00000000000E+00  0.00000000000E+00  0.14384885810E+04  0.14384885810E+04  0.50400001928E-02 0. -1.
       -1   -1    0    0    0  501  0.00000000000E+00  0.00000000000E+00 -0.17254970436E+04  0.17254970436E+04  0.50400001928E-02 0.  1.
    10030    2    1    2    0    0  0.00000000000E+00  0.00000000000E+00 -0.28700846255E+03  0.31639856246E+04  0.31509413157E+04 0.  0.
        3    1    3    3  502    0 -0.74099597962E+03 -0.81292467359E+03  0.98907744196E+03  0.14792551379E+04  0.10100000352E+00 0.  1.
       -3    1    3    3    0  502  0.74099597962E+03  0.81292467359E+03 -0.12760859045E+04  0.16847304866E+04  0.10100000352E+00 0. -1.
</event>
<event>
 5   0  0.1198763E-06  0.3109712E+04  0.7818609E-02  0.8213078E-01
       -1   -1    0    0    0  501  0.00000000000E+00  0.00000000000E+00  0.14966582224E+04  0.14966582224E+04  0.50400001928E-02 0. -1.
        1   -1    0    0  501    0  0.00000000000E+00  0.00000000000E+00 -0.16153165118E+04  0.16153165118E+04  0.50400001928E-02 0.  1.
    10030    2    1    2    0    0  0.00000000000E+00  0.00000000000E+00 -0.11865828944E+03  0.31119747343E+04  0.31097117161E+04 0.  0.
        1    1    3    3  502    0 -0.54325323474E+03 -0.12498450145E+04  0.68977428395E+03  0.15274243681E+04  0.50400001928E-02 0. -1.
       -1    1    3    3    0  502  0.54325323474E+03  0.12498450145E+04 -0.80843257339E+03  0.15845503662E+04  0.50400001928E-02 0.  1.
</event>
<event>
 5   0  0.3340899E-06  0.3078744E+04  0.7818609E-02  0.8221596E-01
       -2   -1    0    0    0  501  0.00000000000E+00  0.00000000000E+00  0.15655134529E+04  0.15655134529E+04  0.25500000920E-02 0.  1.
        2   -1    0    0  501    0  0.00000000000E+00  0.00000000000E+00 -0.15136669580E+04  0.15136669580E+04  0.25500000920E-02 0. -1.
    10030    2    1    2    0    0  0.00000000000E+00  0.00000000000E+00  0.51846494914E+02  0.30791804108E+04  0.30787438905E+04 0.  0.
        3    1    3    3  502    0  0.78718936048E+03  0.27856248364E+03 -0.12674738711E+04  0.15178122976E+04  0.10100000352E+00 0. -1.
       -3    1    3    3    0  502 -0.78718936048E+03 -0.27856248364E+03  0.13193203661E+04  0.15613681132E+04  0.10100000352E+00 0.  1.
</event>
<event>
 5   0  0.3441897E-06  0.3086894E+04  0.7818609E-02  0.8219344E-01
        2   -1    0    0  501    0  0.00000000000E+00  0.00000000000E+00  0.23236668647E+04  0.23236668647E+04  0.25500000920E-02 0.  1.
       -2   -1    0    0    0  501  0.00000000000E+00  0.00000000000E+00 -0.10252025611E+04  0.10252025611E+04  0.25500000920E-02 0. -1.
    10030    2    1    2    0    0  0.00000000000E+00  0.00000000000E+00  0.12984643036E+04  0.33488694258E+04  0.30868943751E+04 0.  0.
        5    1    3    3  502    0 -0.86247645960E+03  0.10583628423E+04 -0.13172852087E+03  0.13716311613E+04  0.46999998093E+01 0. -1.
       -5    1    3    3    0  502  0.86247645960E+03 -0.10583628423E+04  0.14301928245E+04  0.19772382645E+04  0.46999998093E+01 0.  1.
</event>
<event>
 5   0  0.3441897E-06  0.3159436E+04  0.7818609E-02  0.8199613E-01
       -2   -1    0    0    0  501  0.00000000000E+00  0.00000000000E+00  0.10149253634E+04  0.10149253634E+04  0.25500000920E-02 0.  1.
        2   -1    0    0  501    0  0.00000000000E+00  0.00000000000E+00 -0.24588107663E+04  0.24588107663E+04  0.25500000920E-02 0. -1.
    10030    2    1    2    0    0  0.00000000000E+00  0.00000000000E+00 -0.14438854029E+04  0.34737361297E+04  0.31594362855E+04 0.  0.
        5    1    3    3  502    0  0.69739783274E+03  0.78813093689E+03 -0.20172647734E+04  0.22752787448E+04  0.46999998093E+01 0. -1.
       -5    1    3    3    0  502 -0.69739783274E+03 -0.78813093689E+03  0.57337937047E+03  0.11984573848E+04  0.46999998093E+01 0.  1.
</event>
<event>
 5   0  0.1198763E-06  0.3095457E+04  0.7818609E-02  0.8216986E-01
       -1   -1    0    0    0  501  0.00000000000E+00  0.00000000000E+00  0.12798698780E+04  0.12798698780E+04  0.50400001928E-02 0.  1.
        1   -1    0    0  501    0  0.00000000000E+00  0.00000000000E+00 -0.18716460546E+04  0.18716460546E+04  0.50400001928E-02 0. -1.
    10030    2    1    2    0    0  0.00000000000E+00  0.00000000000E+00 -0.59177617659E+03  0.31515159327E+04  0.30954569341E+04 0.  0.
        1    1    3    3  502    0  0.83017771581E+03 -0.10732249226E+04 -0.10539916423E+04  0.17181109267E+04  0.50400001928E-02 0. -1.
       -1    1    3    3    0  502 -0.83017771581E+03  0.10732249226E+04  0.46221546575E+03  0.14334050060E+04  0.50400001928E-02 0.  1.
</event>
<event>
 5   0  0.3445410E-06  0.3090153E+04  0.7818609E-02  0.8218445E-01
        2   -1    0    0  501    0  0.00000000000E+00  0.00000000000E+00  0.11941855157E+04  0.11941855157E+04  0.25500000920E-02 0. -1.
       -2   -1    0    0    0  501  0.00000000000E+00  0.00000000000E+00 -0.19990714382E+04  0.19990714382E+04  0.25500000920E-02 0.  1.
    10030    2    1    2    0    0  0.00000000000E+00  0.00000000000E+00 -0.80488592247E+03  0.31932569538E+04  0.30901534954E+04 0.  0.
        1    1    3    3  502    0  0.78254882653E+03  0.13322435771E+04 -0.39979994616E+03  0.15959622839E+04  0.50400001928E-02 0.  1.
       -1    1    3    3    0  502 -0.78254882653E+03 -0.13322435771E+04 -0.40508597631E+03  0.15972946700E+04  0.50400001928E-02 0. -1.
</event>
<event>
 5   0  0.3445410E-06  0.3248985E+04  0.7818609E-02  0.8175999E-01
        2   -1    0    0  501    0  0.00000000000E+00  0.00000000000E+00  0.17209186798E+04  0.17209186798E+04  0.25500000920E-02 0.  1.
       -2   -1    0    0    0  501  0.00000000000E+00  0.00000000000E+00 -0.15334694546E+04  0.15334694546E+04  0.25500000920E-02 0. -1.
    10030    2    1    2    0    0  0.00000000000E+00  0.00000000000E+00  0.18744922523E+03  0.32543881344E+04  0.32489852135E+04 0.  0.
        1    1    3    3  502    0  0.11863401308E+04  0.19431237985E+03  0.11881604727E+04  0.16902323852E+04  0.50400001928E-02 0.  1.
       -1    1    3    3    0  502 -0.11863401308E+04 -0.19431237985E+03 -0.10007112474E+04  0.15641557492E+04  0.50400001928E-02 0. -1.
</event>
<event>
 5   0  0.1211008E-06  0.3119015E+04  0.7818609E-02  0.8210539E-01
        1   -1    0    0  501    0  0.00000000000E+00  0.00000000000E+00  0.17673285888E+04  0.17673285888E+04  0.50400001928E-02 0.  1.
       -1   -1    0    0    0  501  0.00000000000E+00  0.00000000000E+00 -0.13761242889E+04  0.13761242889E+04  0.50400001928E-02 0. -1.
    10030    2    1    2    0    0  0.00000000000E+00  0.00000000000E+00  0.39120429991E+03  0.31434528777E+04  0.31190150993E+04 0.  0.
        3    1    3    3  502    0  0.42987605742E+03 -0.10711365163E+04 -0.86139390932E+03  0.14401827449E+04  0.10100000352E+00 0. -1.
       -3    1    3    3    0  502 -0.42987605742E+03  0.10711365163E+04  0.12525982092E+04  0.17032701328E+04  0.10100000352E+00 0.  1.
</event>
<event>
 5   0  0.3445959E-06  0.3101355E+04  0.7818609E-02  0.8215366E-01
        2   -1    0    0  501    0  0.00000000000E+00  0.00000000000E+00  0.15195143062E+04  0.15195143062E+04  0.25500000920E-02 0. -1.
       -2   -1    0    0    0  501  0.00000000000E+00  0.00000000000E+00 -0.15824800700E+04  0.15824800700E+04  0.25500000920E-02 0.  1.
    10030    2    1    2    0    0  0.00000000000E+00  0.00000000000E+00 -0.62965763751E+02  0.31019943762E+04  0.31013552558E+04 0.  0.
        4    1    3    3  502    0  0.92937635377E+03  0.97805802141E+03 -0.79601046412E+03  0.15665159342E+04  0.12699999809E+01 0.  1.
       -4    1    3    3    0  502 -0.92937635377E+03 -0.97805802141E+03  0.73304470036E+03  0.15354784420E+04  0.12699999809E+01 0. -1.
</event>
<event>
 5   0  0.1171915E-06  0.3104980E+04  0.7818609E-02  0.8214373E-01
       -1   -1    0    0    0  501  0.00000000000E+00  0.00000000000E+00  0.10065639250E+04  0.10065639251E+04  0.50400001928E-02 0.  1.
        1   -1    0    0  501    0  0.00000000000E+00  0.00000000000E+00 -0.23945075728E+04  0.23945075728E+04  0.50400001928E-02 0. -1.
    10030    2    1    2    0    0  0.00000000000E+00  0.00000000000E+00 -0.13879436478E+04  0.34010714979E+04  0.31049798332E+04 0.  0.
        2    1    3    3  502    0 -0.19014966234E+03 -0.17810508017E+03 -0.23703907681E+04  0.23846657433E+04  0.25500000920E-02 0. -1.
       -2    1    3    3    0  502  0.19014966234E+03  0.17810508017E+03  0.98244712034E+03  0.10164057546E+04  0.25500000920E-02 0.  1.
</event>
<event>
 5   0  0.3374790E-06  0.3126376E+04  0.7818609E-02  0.8208536E-01
        2   -1    0    0  501    0  0.00000000000E+00  0.00000000000E+00  0.20042092684E+04  0.20042092684E+04  0.25500000920E-02 0. -1.
       -2   -1    0    0    0  501  0.00000000000E+00  0.00000000000E+00 -0.12192122398E+04  0.12192122398E+04  0.25500000920E-02 0.  1.
    10030    2    1    2    0    0  0.00000000000E+00  0.00000000000E+00  0.78499702857E+03  0.32234215082E+04  0.31263758387E+04 0.  0.
        2    1    3    3  502    0 -0.51195408147E+02 -0.15801115885E+03 -0.12100880606E+04  0.12214342432E+04  0.25500000920E-02 0.  1.
       -2    1    3    3    0  502  0.51195408147E+02  0.15801115885E+03  0.19950850892E+04  0.20019872650E+04  0.25500000920E-02 0. -1.
</event>
<event>
 5   0  0.1198763E-06  0.3087084E+04  0.7818609E-02  0.8219291E-01
        1   -1    0    0  501    0  0.00000000000E+00  0.00000000000E+00  0.25051183094E+04  0.25051183094E+04  0.50400001928E-02 0. -1.
       -1   -1    0    0    0  501  0.00000000000E+00  0.00000000000E+00 -0.95106191060E+03  0.95106191061E+03  0.50400001928E-02 0.  1.
    10030    2    1    2    0    0  0.00000000000E+00  0.00000000000E+00  0.15540563988E+04  0.34561802200E+04  0.30870844534E+04 0.  0.
        1    1    3    3  502    0 -0.81796264922E+03 -0.12293375889E+04  0.12804435101E+04  0.19544486142E+04  0.50400001928E-02 0. -1.
       -1    1    3    3    0  502  0.81796264922E+03  0.12293375889E+04  0.27361288867E+03  0.15017316058E+04  0.50400001928E-02 0.  1.
</event>
<event>
 5   0  0.3374790E-06  0.3110781E+04  0.7818609E-02  0.8212786E-01
       -2   -1    0    0    0  501  0.00000000000E+00  0.00000000000E+00  0.93299380962E+03  0.93299380963E+03  0.25500000920E-02 0. -1.
        2   -1    0    0  501    0  0.00000000000E+00  0.00000000000E+00 -0.25929848953E+04  0.25929848953E+04  0.25500000920E-02 0.  1.
    10030    2    1    2    0    0  0.00000000000E+00  0.00000000000E+00 -0.16599910857E+04  0.35259787050E+04  0.31107805167E+04 0.  0.
        2    1    3    3  502    0  0.26729570990E+03  0.50543081337E+02  0.90582053706E+03  0.94578668048E+03  0.25500000920E-02 0. -1.
       -2    1    3    3    0  502 -0.26729570990E+03 -0.50543081337E+02 -0.25658116228E+04  0.25801920245E+04  0.25500000920E-02 0.  1.
</event>
<event>
 5   0  0.3441897E-06  0.3102405E+04  0.7818609E-02  0.8215078E-01
       -2   -1    0    0    0  501  0.00000000000E+00  0.00000000000E+00  0.18589106710E+04  0.18589106710E+04  0.25500000920E-02 0.  1.
        2   -1    0    0  501    0  0.00000000000E+00  0.00000000000E+00 -0.12944299522E+04  0.12944299522E+04  0.25500000920E-02 0. -1.
    10030    2    1    2    0    0  0.00000000000E+00  0.00000000000E+00  0.56448071882E+03  0.31533406233E+04  0.31024052934E+04 0.  0.
        5    1    3    3  502    0 -0.56729676996E+03  0.25659619901E+02 -0.11849700511E+04  0.13140244113E+04  0.46999998093E+01 0. -1.
       -5    1    3    3    0  502  0.56729676996E+03 -0.25659619901E+02  0.17494507700E+04  0.18393162120E+04  0.46999998093E+01 0.  1.
</event>
<event>
 5   0  0.3441897E-06  0.3129085E+04  0.7818609E-02  0.8207801E-01
       -2   -1    0    0    0  501  0.00000000000E+00  0.00000000000E+00  0.17562376440E+04  0.17562376440E+04  0.25500000920E-02 0.  1.
        2   -1    0    0  501    0  0.00000000000E+00  0.00000000000E+00 -0.13937706574E+04  0.13937706574E+04  0.25500000920E-02 0. -1.
    10030    2    1    2    0    0  0.00000000000E+00  0.00000000000E+00  0.36246698653E+03  0.31500083014E+04  0.31290845279E+04 0.  0.
        5    1    3    3  502    0 -0.16130138999E+03 -0.10088379214E+04  0.13740611403E+04  0.17122611359E+04  0.46999998093E+01 0.  1.
       -5    1    3    3    0  502  0.16130138999E+03  0.10088379214E+04 -0.10115941537E+04  0.14377471655E+04  0.46999998093E+01 0. -1.
</event>
<event>
 5   0  0.3441897E-06  0.2516322E+04  0.7818609E-02  0.8397194E-01
       -2   -1    0    0    0  501  0.00000000000E+00  0.00000000000E+00  0.12340346373E+04  0.12340346373E+04  0.25500000920E-02 0. -1.
        2   -1    0    0  501    0  0.00000000000E+00  0.00000000000E+00 -0.12827586847E+04  0.12827586847E+04  0.25500000920E-02 0.  1.
    10030    2    1    2    0    0  0.00000000000E+00  0.00000000000E+00 -0.48724047337E+02  0.25167933220E+04  0.25163216394E+04 0.  0.
        5    1    3    3  502    0 -0.11439549020E+04 -0.35246515290E+03  0.36311484952E+03  0.12508952737E+04  0.46999998093E+01 0. -1.
       -5    1    3    3    0  502  0.11439549020E+04  0.35246515290E+03 -0.41183889686E+03  0.12658980483E+04  0.46999998093E+01 0.  1.
</event>
<event>
 5   0  0.1211008E-06  0.2953063E+04  0.7818609E-02  0.8257263E-01
       -1   -1    0    0    0  501  0.00000000000E+00  0.00000000000E+00  0.13376529214E+04  0.13376529214E+04  0.50400001928E-02 0.  1.
        1   -1    0    0  501    0  0.00000000000E+00  0.00000000000E+00 -0.16298285996E+04  0.16298285996E+04  0.50400001928E-02 0. -1.
    10030    2    1    2    0    0  0.00000000000E+00  0.00000000000E+00 -0.29217567814E+03  0.29674815210E+04  0.29530628084E+04 0.  0.
        3    1    3    3  502    0 -0.24583986445E+02  0.24922800649E+03 -0.16083305344E+04  0.16277119186E+04  0.10100000352E+00 0. -1.
       -3    1    3    3    0  502  0.24583986445E+02 -0.24922800649E+03  0.13161548563E+04  0.13397696024E+04  0.10100000352E+00 0.  1.
</event>
<event>
 5   0  0.1211008E-06  0.3145587E+04  0.7818609E-02  0.8203337E-01
        1   -1    0    0  501    0  0.00000000000E+00  0.00000000000E+00  0.14381486434E+04  0.14381486434E+04  0.50400001928E-02 0. -1.
       -1   -1    0    0    0  501  0.00000000000E+00  0.00000000000E+00 -0.17200441037E+04  0.17200441037E+04  0.50400001928E-02 0.  1.
    10030    2    1    2    0    0  0.00000000000E+00  0.00000000000E+00 -0.28189546029E+03  0.31581927470E+04  0.31455868096E+04 0.  0.
        3    1    3    3  502    0  0.18665300850E+03 -0.18837519527E+03  0.14155406271E+04  0.14401666004E+04  0.10100000352E+00 0. -1.
       -3    1    3    3    0  502 -0.18665300850E+03  0.18837519527E+03 -0.16974360873E+04  0.17180261467E+04  0.10100000352E+00 0.  1.
</event>
<event>
 5   0  0.1211008E-06  0.3094328E+04  0.7818609E-02  0.8217296E-01
        1   -1    0    0  501    0  0.00000000000E+00  0.00000000000E+00  0.19996656825E+04  0.19996656825E+04  0.50400001928E-02 0.  1.
       -1   -1    0    0    0  501  0.00000000000E+00  0.00000000000E+00 -0.11970579562E+04  0.11970579562E+04  0.50400001928E-02 0. -1.
    10030    2    1    2    0    0  0.00000000000E+00  0.00000000000E+00  0.80260772633E+03  0.31967236387E+04  0.30943275295E+04 0.  0.
        3    1    3    3  502    0  0.11520954020E+04 -0.10100982614E+04  0.17950559859E+03  0.15426744904E+04  0.10100000352E+00 0. -1.
       -3    1    3    3    0  502 -0.11520954020E+04  0.10100982614E+04  0.62310212774E+03  0.16540491483E+04  0.10100000352E+00 0.  1.
</event>
<event>
 5   0  0.3445410E-06  0.3111055E+04  0.7818609E-02  0.8212711E-01
        2   -1    0    0  501    0  0.00000000000E+00  0.00000000000E+00  0.21992406025E+04  0.21992406025E+04  0.25500000920E-02 0. -1.
       -2   -1    0    0    0  501  0.00000000000E+00  0.00000000000E+00 -0.11002278182E+04  0.11002278182E+04  0.25500000920E-02 0.  1.
    10030    2    1    2    0    0  0.00000000000E+00  0.00000000000E+00  0.10990127843E+04  0.32994684207E+04  0.31110549270E+04 0.  0.
        1    1    3    3  502    0 -0.12963965282E+04 -0.23709374178E+03 -0.32685994988E+03  0.13578272451E+04  0.50400001928E-02 0.  1.
       -1    1    3    3    0  502  0.12963965282E+04  0.23709374178E+03  0.14258727342E+04  0.19416411756E+04  0.50400001928E-02 0. -1.
</event>
<event>
 5   0  0.1250276E-06  0.3097350E+04  0.7818609E-02  0.8216465E-01
        1   -1    0    0  501    0  0.00000000000E+00  0.00000000000E+00  0.23166503858E+04  0.23166503858E+04  0.50400001928E-02 0.  1.
       -1   -1    0    0    0  501  0.00000000000E+00  0.00000000000E+00 -0.10352856833E+04  0.10352856833E+04  0.50400001928E-02 0. -1.
    10030    2    1    2    0    0  0.00000000000E+00  0.00000000000E+00  0.12813647025E+04  0.33519360691E+04  0.30973504662E+04 0.  0.
        5    1    3    3  502    0 -0.73090536437E+03 -0.12387175818E+04  0.12621005150E+04  0.19135212826E+04  0.46999998093E+01 0.  1.
       -5    1    3    3    0  502  0.73090536437E+03  0.12387175818E+04  0.19264187498E+02  0.14384147865E+04  0.46999998093E+01 0. -1.
</event>
<event>
 5   0  0.3445410E-06  0.3101779E+04  0.7818609E-02  0.8215250E-01
        2   -1    0    0  501    0  0.00000000000E+00  0.00000000000E+00  0.20043395320E+04  0.20043395320E+04  0.25500000920E-02 0. -1.
       -2   -1    0    0    0  501  0.00000000000E+00  0.00000000000E+00 -0.12000254156E+04  0.12000254156E+04  0.25500000920E-02 0.  1.
    10030    2    1    2    0    0  0.00000000000E+00  0.00000000000E+00  0.80431411648E+03  0.32043649476E+04  0.31017790894E+04 0.  0.
        1    1    3    3  502    0 -0.22654523927E+03 -0.14795689759E+04 -0.17239222389E+02  0.14969115841E+04  0.50400001928E-02 0. -1.
       -1    1    3    3    0  502  0.22654523927E+03  0.14795689759E+04  0.82155333887E+03  0.17074533635E+04  0.50400001928E-02 0.  1.
</event>
<event>
 5   0  0.3340899E-06  0.3133681E+04  0.7818609E-02  0.8206555E-01
       -2   -1    0    0    0  501  0.00000000000E+00  0.00000000000E+00  0.21235777483E+04  0.21235777483E+04  0.25500000920E-02 0. -1.
        2   -1    0    0  501    0  0.00000000000E+00  0.00000000000E+00 -0.11560626641E+04  0.11560626641E+04  0.25500000920E-02 0.  1.
    10030    2    1    2    0    0  0.00000000000E+00  0.00000000000E+00  0.96751508421E+03  0.32796404125E+04  0.31336808703E+04 0.  0.
        3    1    3    3  502    0 -0.24478124260E+03 -0.15466138634E+03  0.20953345508E+04  0.21152458228E+04  0.10100000352E+00 0. -1.
       -3    1    3    3    0  502  0.24478124260E+03  0.15466138634E+03 -0.11278194665E+04  0.11643945897E+04  0.10100000352E+00 0.  1.
</event>
<event>
 5   0  0.3374790E-06  0.3092972E+04  0.7818609E-02  0.8217669E-01
        2   -1    0    0  501    0  0.00000000000E+00  0.00000000000E+00  0.19361424687E+04  0.19361424687E+04  0.25500000920E-02 0.  1.
       -2   -1    0    0    0  501  0.00000000000E+00  0.00000000000E+00 -0.12352496460E+04  0.12352496460E+04  0.25500000920E-02 0. -1.
    10030    2    1    2    0    0  0.00000000000E+00  0.00000000000E+00  0.70089282266E+03  0.31713921147E+04  0.30929722269E+04 0.  0.
        2    1    3    3  502    0  0.30114588599E+02 -0.11349059236E+02  0.19357990890E+04  0.19360665801E+04  0.25500000920E-02 0.  1.
       -2    1    3    3    0  502 -0.30114588599E+02  0.11349059236E+02 -0.12349062664E+04  0.12353255346E+04  0.25500000920E-02 0. -1.
</event>
<event>
 5   0  0.1171915E-06  0.3104164E+04  0.7818609E-02  0.8214596E-01
        1   -1    0    0  501    0  0.00000000000E+00  0.00000000000E+00  0.15307110727E+04  0.15307110727E+04  0.50400001928E-02 0. -1.
       -1   -1    0    0    0  501  0.00000000000E+00  0.00000000000E+00 -0.15737511240E+04  0.15737511240E+04  0.50400001928E-02 0.  1.
    10030    2    1    2    0    0  0.00000000000E+00  0.00000000000E+00 -0.43040051345E+02  0.31044621967E+04  0.31041638302E+04 0.  0.
        2    1    3    3  502    0 -0.52240297082E+03  0.12961104098E+04  0.65393456642E+03  0.15428666421E+04  0.25500000920E-02 0. -1.
       -2    1    3    3    0  502  0.52240297082E+03 -0.12961104098E+04 -0.69697461776E+03  0.15615955546E+04  0.25500000920E-02 0.  1.
</event>
<event>
 5   0  0.3441897E-06  0.3022591E+04  0.7818609E-02  0.8237309E-01
       -2   -1    0    0    0  501  0.00000000000E+00  0.00000000000E+00  0.90153754463E+03  0.90153754464E+03  0.25500000920E-02 0. -1.
        2   -1    0    0  501    0  0.00000000000E+00  0.00000000000E+00 -0.25334651161E+04  0.25334651161E+04  0.25500000920E-02 0.  1.
    10030    2    1    2    0    0  0.00000000000E+00  0.00000000000E+00 -0.16319275715E+04  0.34350026608E+04  0.30225908888E+04 0.  0.
        5    1    3    3  502    0  0.61910497996E+03 -0.70027756990E+03  0.53363704561E+03  0.10763225528E+04  0.46999998093E+01 0. -1.
       -5    1    3    3    0  502 -0.61910497996E+03  0.70027756990E+03 -0.21655646171E+04  0.23586801080E+04  0.46999998093E+01 0.  1.
</event>
<event>
 5   0  0.3441897E-06  0.3077835E+04  0.7818609E-02  0.8221847E-01
        2   -1    0    0  501    0  0.00000000000E+00  0.00000000000E+00  0.15232169859E+04  0.15232169859E+04  0.25500000920E-02 0.  1.
       -2   -1    0    0    0  501  0.00000000000E+00  0.00000000000E+00 -0.15547802902E+04  0.15547802902E+04  0.25500000920E-02 0. -1.
    10030    2    1    2    0    0  0.00000000000E+00  0.00000000000E+00 -0.31563304290E+02  0.30779972762E+04  0.30778354391E+04 0.  0.
        5    1    3    3  502    0  0.14544335156E+04 -0.31060466934E+02 -0.51770848462E+03  0.15441456437E+04  0.46999998093E+01 0. -1.
       -5    1    3    3    0  502 -0.14544335156E+04  0.31060466934E+02  0.48614518033E+03  0.15338516325E+04  0.46999998093E+01 0.  1.
</event>
<event>
 5   0  0.3445410E-06  0.3088919E+04  0.7818609E-02  0.8218786E-01
        2   -1    0    0  501    0  0.00000000000E+00  0.00000000000E+00  0.16271078919E+04  0.16271078919E+04  0.25500000920E-02 0.  1.
       -2   -1    0    0    0  501  0.00000000000E+00  0.00000000000E+00 -0.14660088603E+04  0.14660088604E+04  0.25500000920E-02 0. -1.
    10030    2    1    2    0    0  0.00000000000E+00  0.00000000000E+00  0.16109903159E+03  0.30931167523E+04  0.30889186369E+04 0.  0.
        1    1    3    3  502    0  0.11719346421E+04 -0.37124798155E+03  0.10167526388E+04  0.15953187136E+04  0.50400001928E-02 0.  1.
       -1    1    3    3    0  502 -0.11719346421E+04  0.37124798155E+03 -0.85565360723E+03  0.14977980387E+04  0.50400001928E-02 0. -1.
</event>
<event>
 5   0  0.3445959E-06  0.3100297E+04  0.7818609E-02  0.8215656E-01
        2   -1    0    0  501    0  0.00000000000E+00  0.00000000000E+00  0.11283032615E+04  0.11283032615E+04  0.25500000920E-02 0. -1.
       -2   -1    0    0    0  501  0.00000000000E+00  0.00000000000E+00 -0.21297114780E+04  0.21297114780E+04  0.25500000920E-02 0.  1.
    10030    2    1    2    0    0  0.00000000000E+00  0.00000000000E+00 -0.10014082166E+04  0.32580147395E+04  0.31002970223E+04 0.  0.
        4    1    3    3  502    0  0.63064451860E+03 -0.45070284653E+02  0.98664705817E+03  0.11718437907E+04  0.12699999809E+01 0. -1.
       -4    1    3    3    0  502 -0.63064451860E+03  0.45070284653E+02 -0.19880552748E+04  0.20861709488E+04  0.12699999809E+01 0.  1.
</event>
<event>
 5   0  0.1171915E-06  0.3202906E+04  0.7818609E-02  0.8188050E-01
        1   -1    0    0  501    0  0.00000000000E+00  0.00000000000E+00  0.16198157431E+04  0.16198157431E+04  0.50400001928E-02 0. -1.
       -1   -1    0    0    0  501  0.00000000000E+00  0.00000000000E+00 -0.15832985872E+04  0.15832985872E+04  0.50400001928E-02 0.  1.
    10030    2    1    2    0    0  0.00000000000E+00  0.00000000000E+00  0.36517155896E+02  0.32031143303E+04  0.32029061663E+04 0.  0.
        2    1    3    3  502    0 -0.49936002442E+03  0.94501819149E+03  0.12109098410E+04  0.16151540049E+04  0.25500000920E-02 0. -1.
       -2    1    3    3    0  502  0.49936002442E+03 -0.94501819149E+03 -0.11743926851E+04  0.15879603254E+04  0.25500000920E-02 0.  1.
</event>
<event>
 5   0  0.1171915E-06  0.3098766E+04  0.7818609E-02  0.8216077E-01
        1   -1    0    0  501    0  0.00000000000E+00  0.00000000000E+00  0.19730964880E+04  0.19730964880E+04  0.50400001928E-02 0. -1.
       -1   -1    0    0    0  501  0.00000000000E+00  0.00000000000E+00 -0.12166596805E+04  0.12166596805E+04  0.50400001928E-02 0.  1.
    10030    2    1    2    0    0  0.00000000000E+00  0.00000000000E+00  0.75643680746E+03  0.31897561685E+04  0.30987655237E+04 0.  0.
        2    1    3    3  502    0  0.84428486022E+03  0.11076721697E+04  0.10769980795E+04  0.17605906463E+04  0.25500000920E-02 0. -1.
       -2    1    3    3    0  502 -0.84428486022E+03 -0.11076721697E+04 -0.32056127203E+03  0.14291655222E+04  0.25500000920E-02 0.  1.
</event>
<event>
 5   0  0.3441897E-06  0.3079936E+04  0.7818609E-02  0.8221266E-01
       -2   -1    0    0    0  501  0.00000000000E+00  0.00000000000E+00  0.12702314872E+04  0.12702314872E+04  0.25500000920E-02 0. -1.
        2   -1    0    0  501    0  0.00000000000E+00  0.00000000000E+00 -0.18669839902E+04  0.18669839902E+04  0.25500000920E-02 0.  1.
    10030    2    1    2    0    0  0.00000000000E+00  0.00000000000E+00 -0.59675250293E+03  0.31372154774E+04  0.30799362659E+04 0.  0.
        5    1    3    3  502    0 -0.88807625212E+03  0.11619608280E+04  0.19292931925E+03  0.14751529438E+04  0.46999998093E+01 0. -1.
       -5    1    3    3    0  502  0.88807625212E+03 -0.11619608280E+04 -0.78968182218E+03  0.16620625336E+04  0.46999998093E+01 0.  1.
</event>
<event>
 5   0  0.3340899E-06  0.3066498E+04  0.7818609E-02  0.8224993E-01
       -2   -1    0    0    0  501  0.00000000000E+00  0.00000000000E+00  0.10654341881E+04  0.10654341881E+04  0.25500000920E-02 0. -1.
        2   -1    0    0  501    0  0.00000000000E+00  0.00000000000E+00 -0.22064735986E+04  0.22064735986E+04  0.25500000920E-02 0.  1.
    10030    2    1    2    0    0  0.00000000000E+00  0.00000000000E+00 -0.11410394105E+04  0.32719077867E+04  0.30664979419E+04 0.  0.
        3    1    3    3  502    0  0.28963294079E+03  0.99313142459E+03 -0.17779844926E+04  0.20570430557E+04  0.10100000352E+00 0.  1.
       -3    1    3    3    0  502 -0.28963294079E+03 -0.99313142459E+03  0.63694508201E+03  0.12148647310E+04  0.10100000352E+00 0. -1.
</event>
<event>
 5   0  0.1171915E-06  0.3028021E+04  0.7818609E-02  0.8235774E-01
       -1   -1    0    0    0  501  0.00000000000E+00  0.00000000000E+00  0.19769295748E+04  0.19769295748E+04  0.50400001928E-02 0. -1.
        1   -1    0    0  501    0  0.00000000000E+00  0.00000000000E+00 -0.11594885690E+04  0.11594885690E+04  0.50400001928E-02 0.  1.
    10030    2    1    2    0    0  0.00000000000E+00  0.00000000000E+00  0.81744100577E+03  0.31364181438E+04  0.30280206364E+04 0.  0.
        2    1    3    3  502    0  0.47891206725E+03 -0.11378639265E+04  0.13165289761E+04  0.18048101363E+04  0.25500000920E-02 0.  1.
       -2    1    3    3    0  502 -0.47891206725E+03  0.11378639265E+04 -0.49908797033E+03  0.13316080074E+04  0.25500000920E-02 0. -1.
</event>
<event>
 5   0  0.3445959E-06  0.2716613E+04  0.7818609E-02  0.8329635E-01
       -2   -1    0    0    0  501  0.00000000000E+00  0.00000000000E+00  0.95777727696E+03  0.95777727696E+03  0.25500000920E-02 0.  1.
        2   -1    0    0  501    0  0.00000000000E+00  0.00000000000E+00 -0.19263319171E+04  0.19263319171E+04  0.25500000920E-02 0. -1.
    10030    2    1    2    0    0  0.00000000000E+00  0.00000000000E+00 -0.96855464010E+03  0.28841091940E+04  0.27166132872E+04 0.  0.
        4    1    3    3  502    0  0.12774166262E+04  0.17050983566E+03 -0.28718596578E+02  0.12890667988E+04  0.12699999809E+01 0. -1.
       -4    1    3    3    0  502 -0.12774166262E+04 -0.17050983566E+03 -0.93983604353E+03  0.15950423952E+04  0.12699999809E+01 0.  1.
</event>
<event>
 5   0  0.1235960E-06  0.3110741E+04  0.7818609E-02  0.8212796E-01
        1   -1    0    0  501    0  0.00000000000E+00  0.00000000000E+00  0.20189416489E+04  0.20189416489E+04  0.50400001928E-02 0.  1.
       -1   -1    0    0    0  501  0.00000000000E+00  0.00000000000E+00 -0.11982404363E+04  0.11982404363E+04  0.50400001928E-02 0. -1.
    10030    2    1    2    0    0  0.00000000000E+00  0.00000000000E+00  0.82070121257E+03  0.32171820852E+04  0.31107410835E+04 0.  0.
        4    1    3    3  502    0  0.29034663388E+03 -0.87392259061E+03  0.17066890388E+04  0.19392861961E+04  0.12699999809E+01 0.  1.
       -4    1    3    3    0  502 -0.29034663388E+03  0.87392259061E+03 -0.88598782624E+03  0.12778958891E+04  0.12699999809E+01 0. -1.
</event>
<event>
 5   0  0.1211008E-06  0.3098144E+04  0.7818609E-02  0.8216247E-01
        1   -1    0    0  501    0  0.00000000000E+00  0.00000000000E+00  0.16137076036E+04  0.16137076037E+04  0.50400001928E-02 0. -1.
       -1   -1    0    0    0  501  0.00000000000E+00  0.00000000000E+00 -0.14870252359E+04  0.14870252359E+04  0.50400001928E-02 0.  1.
    10030    2    1    2    0    0  0.00000000000E+00  0.00000000000E+00  0.12668236775E+03  0.31007328396E+04  0.30981439153E+04 0.  0.
        3    1    3    3  502    0 -0.19033731251E+03 -0.47382579948E+03  0.15270559429E+04  0.16101673962E+04  0.10100000352E+00 0. -1.
       -3    1    3    3    0  502  0.19033731251E+03  0.47382579948E+03 -0.14003735752E+04  0.14905654434E+04  0.10100000352E+00 0.  1.
</event>
<event>
 5   0  0.3445410E-06  0.2727612E+04  0.7818609E-02  0.8326101E-01
       -2   -1    0    0    0  501  0.00000000000E+00  0.00000000000E+00  0.13964934412E+04  0.13964934412E+04  0.25500000920E-02 0. -1.
        2   -1    0    0  501    0  0.00000000000E+00  0.00000000000E+00 -0.13318833930E+04  0.13318833930E+04  0.25500000920E-02 0.  1.
    10030    2    1    2    0    0  0.00000000000E+00  0.00000000000E+00  0.64610048157E+02  0.27283768342E+04  0.27276117193E+04 0.  0.
        1    1    3    3  502    0 -0.87981118295E+03 -0.15010906363E+03 -0.99918061403E+03  0.13397620491E+04  0.50400001928E-02 0.  1.
       -1    1    3    3    0  502  0.87981118295E+03  0.15010906363E+03  0.10637906622E+04  0.13886147852E+04  0.50400001928E-02 0. -1.
</event>
<event>
 5   0  0.1171915E-06  0.3093611E+04  0.7818609E-02  0.8217493E-01
       -1   -1    0    0    0  501  0.00000000000E+00  0.00000000000E+00  0.17572413631E+04  0.17572413631E+04  0.50400001928E-02 0. -1.
        1   -1    0    0  501    0  0.00000000000E+00  0.00000000000E+00 -0.13615701844E+04  0.13615701844E+04  0.50400001928E-02 0.  1.
    10030    2    1    2    0    0  0.00000000000E+00  0.00000000000E+00  0.39567117876E+03  0.31188115475E+04  0.30936111241E+04 0.  0.
        2    1    3    3  502    0  0.64988910331E+03  0.58855093713E+03  0.14825234605E+04  0.17223889988E+04  0.25500000920E-02 0. -1.
       -2    1    3    3    0  502 -0.64988910331E+03 -0.58855093713E+03 -0.10868522818E+04  0.13964225487E+04  0.25500000920E-02 0.  1.
</event>
<event>
 5   0  0.3445410E-06  0.3041056E+04  0.7818609E-02  0.8232103E-01
       -2   -1    0    0    0  501  0.00000000000E+00  0.00000000000E+00  0.98023255216E+03  0.98023255217E+03  0.25500000920E-02 0.  1.
        2   -1    0    0  501    0  0.00000000000E+00  0.00000000000E+00 -0.23586294173E+04  0.23586294173E+04  0.25500000920E-02 0. -1.
    10030    2    1    2    0    0  0.00000000000E+00  0.00000000000E+00 -0.13783968651E+04  0.33388619695E+04  0.30410559569E+04 0.  0.
        1    1    3    3  502    0  0.51131755297E+03  0.13874266602E+04 -0.10783160546E+04  0.18300720999E+04  0.50400001928E-02 0. -1.
       -1    1    3    3    0  502 -0.51131755297E+03 -0.13874266602E+04 -0.30008081056E+03  0.15087898695E+04  0.50400001928E-02 0.  1.
</event>
<event>
 5   0  0.3340899E-06  0.3071707E+04  0.7818609E-02  0.8223546E-01
        2   -1    0    0  501    0  0.00000000000E+00  0.00000000000E+00  0.17660380919E+04  0.17660380919E+04  0.25500000920E-02 0.  1.
       -2   -1    0    0    0  501  0.00000000000E+00  0.00000000000E+00 -0.13356709629E+04  0.13356709629E+04  0.25500000920E-02 0. -1.
    10030    2    1    2    0    0  0.00000000000E+00  0.00000000000E+00  0.43036712899E+03  0.31017090548E+04  0.30717068862E+04 0.  0.
        3    1    3    3  502    0 -0.14504146120E+04 -0.88035057409E+02  0.71742790547E+03  0.16205417389E+04  0.10100000352E+00 0.  1.
       -3    1    3    3    0  502  0.14504146120E+04  0.88035057409E+02 -0.28706077648E+03  0.14811673158E+04  0.10100000352E+00 0. -1.
</event>
<event>
 5   0  0.1198763E-06  0.3072059E+04  0.7818609E-02  0.8223448E-01
       -1   -1    0    0    0  501  0.00000000000E+00  0.00000000000E+00  0.11143699733E+04  0.11143699733E+04  0.50400001928E-02 0. -1.
        1   -1    0    0  501    0  0.00000000000E+00  0.00000000000E+00 -0.21172387294E+04  0.21172387294E+04  0.50400001928E-02 0.  1.
    10030    2    1    2    0    0  0.00000000000E+00  0.00000000000E+00 -0.10028687561E+04  0.32316087027E+04  0.30720594176E+04 0.  0.
        1    1    3    3  502    0 -0.63879574313E+03  0.12496943931E+04 -0.11580235566E+04  0.18195644081E+04  0.50400001928E-02 0.  1.
       -1    1    3    3    0  502  0.63879574313E+03 -0.12496943931E+04  0.15515480049E+03  0.14120442946E+04  0.50400001928E-02 0. -1.
</event>
<event>
 5   0  0.1198763E-06  0.3094126E+04  0.7818609E-02  0.8217352E-01
       -1   -1    0    0    0  501  0.00000000000E+00  0.00000000000E+00  0.12820384435E+04  0.12820384435E+04  0.50400001928E-02 0.  1.
        1   -1    0    0  501    0  0.00000000000E+00  0.00000000000E+00 -0.18668739007E+04  0.18668739007E+04  0.50400001928E-02 0. -1.
    10030    2    1    2    0    0  0.00000000000E+00  0.00000000000E+00 -0.58483545717E+03  0.31489123442E+04  0.30941261189E+04 0.  0.
        1    1    3    3  502    0 -0.34007252543E+03 -0.13147962755E+03 -0.18225244789E+04  0.18586370520E+04  0.50400001928E-02 0. -1.
       -1    1    3    3    0  502  0.34007252543E+03  0.13147962755E+03  0.12376890217E+04  0.12902752921E+04  0.50400001928E-02 0.  1.
</event>
<event>
 5   0  0.3445410E-06  0.3117807E+04  0.7818609E-02  0.8210868E-01
        2   -1    0    0  501    0  0.00000000000E+00  0.00000000000E+00  0.11832696470E+04  0.11832696470E+04  0.25500000920E-02 0.  1.
       -2   -1    0    0    0  501  0.00000000000E+00  0.00000000000E+00 -0.20537843694E+04  0.20537843694E+04  0.25500000920E-02 0. -1.
    10030    2    1    2    0    0  0.00000000000E+00  0.00000000000E+00 -0.87051472237E+03  0.32370540164E+04  0.31178073743E+04 0.  0.
        1    1    3    3  502    0  0.11324057998E+04 -0.41682932882E+03 -0.14599661448E+04  0.18940936431E+04  0.50400001928E-02 0. -1.
       -1    1    3    3    0  502 -0.11324057998E+04  0.41682932882E+03  0.58945142239E+03  0.13429603733E+04  0.50400001928E-02 0.  1.
</event>
<event>
 5   0  0.1171915E-06  0.3075089E+04  0.7818609E-02  0.8222608E-01
       -1   -1    0    0    0  501  0.00000000000E+00  0.00000000000E+00  0.11745898806E+04  0.11745898806E+04  0.50400001928E-02 0. -1.
        1   -1    0    0  501    0  0.00000000000E+00  0.00000000000E+00 -0.20126542655E+04  0.20126542655E+04  0.50400001928E-02 0.  1.
    10030    2    1    2    0    0  0.00000000000E+00  0.00000000000E+00 -0.83806438490E+03  0.31872441462E+04  0.30750891587E+04 0.  0.
        2    1    3    3  502    0 -0.35295692658E+03  0.10140797180E+04  0.72160857388E+03  0.12936982648E+04  0.25500000920E-02 0. -1.
       -2    1    3    3    0  502  0.35295692658E+03 -0.10140797180E+04 -0.15596729588E+04  0.18935458814E+04  0.25500000920E-02 0.  1.
</event>
<event>
 5   0  0.1198763E-06  0.3049312E+04  0.7818609E-02  0.8229788E-01
        1   -1    0    0  501    0  0.00000000000E+00  0.00000000000E+00  0.16691466438E+04  0.16691466438E+04  0.50400001928E-02 0.  1.
       -1   -1    0    0    0  501  0.00000000000E+00  0.00000000000E+00 -0.13926731502E+04  0.13926731502E+04  0.50400001928E-02 0. -1.
    10030    2    1    2    0    0  0.00000000000E+00  0.00000000000E+00  0.27647349359E+03  0.30618197940E+04  0.30493118663E+04 0.  0.
        1    1    3    3  502    0  0.35511569468E+03 -0.19221731119E+03 -0.13380051219E+04  0.13976095154E+04  0.50400001928E-02 0. -1.
       -1    1    3    3    0  502 -0.35511569468E+03  0.19221731119E+03  0.16144786155E+04  0.16642102785E+04  0.50400001928E-02 0.  1.
</event>
<event>
 5   0  0.3340899E-06  0.3079296E+04  0.7818609E-02  0.8221443E-01
       -2   -1    0    0    0  501  0.00000000000E+00  0.00000000000E+00  0.15133055292E+04  0.15133055292E+04  0.25500000920E-02 0.  1.
        2   -1    0    0  501    0  0.00000000000E+00  0.00000000000E+00 -0.15664491278E+04  0.15664491278E+04  0.25500000920E-02 0. -1.
    10030    2    1    2    0    0  0.00000000000E+00  0.00000000000E+00 -0.53143598572E+02  0.30797546570E+04  0.30792961055E+04 0.  0.
        3    1    3    3  502    0 -0.42971875341E+03  0.49430043431E+02  0.14512864185E+04  0.15143757179E+04  0.10100000352E+00 0.  1.
       -3    1    3    3    0  502  0.42971875341E+03 -0.49430043431E+02 -0.15044300171E+04  0.15653789390E+04  0.10100000352E+00 0. -1.
</event>
<event>
 5   0  0.1235960E-06  0.3095270E+04  0.7818609E-02  0.8217037E-01
       -1   -1    0    0    0  501  0.00000000000E+00  0.00000000000E+00  0.12713575221E+04  0.12713575221E+04  0.50400001928E-02 0. -1.
        1   -1    0    0  501    0  0.00000000000E+00  0.00000000000E+00 -0.18839496871E+04  0.18839496871E+04  0.50400001928E-02 0.  1.
    10030    2    1    2    0    0  0.00000000000E+00  0.00000000000E+00 -0.61259216498E+03  0.31553072093E+04  0.30952696852E+04 0.  0.
        4    1    3    3  502    0 -0.12805146564E+04 -0.66688539266E+03  0.26193687396E+03  0.14673331084E+04  0.12699999809E+01 0. -1.
       -4    1    3    3    0  502  0.12805146564E+04  0.66688539266E+03 -0.87452903894E+03  0.16879741008E+04  0.12699999809E+01 0.  1.
</event>
<event>
 5   0  0.1198763E-06  0.3102627E+04  0.7818609E-02  0.8215017E-01
        1   -1    0    0  501    0  0.00000000000E+00  0.00000000000E+00  0.19448671691E+04  0.19448671692E+04  0.50400001928E-02 0. -1.
       -1   -1    0    0    0  501  0.00000000000E+00  0.00000000000E+00 -0.12373970637E+04  0.12373970637E+04  0.50400001928E-02 0.  1.
    10030    2    1    2    0    0  0.00000000000E+00  0.00000000000E+00  0.70747010543E+03  0.31822642329E+04  0.31026265805E+04 0.  0.
        1    1    3    3  502    0  0.13578066674E+04 -0.30488626323E+03 -0.34941117723E+03  0.14348110504E+04  0.50400001928E-02 0.  1.
       -1    1    3    3    0  502 -0.13578066674E+04  0.30488626323E+03  0.10568812827E+04  0.17474531825E+04  0.50400001928E-02 0. -1.
</event>
<event>
 5   0  0.1198763E-06  0.3099152E+04  0.7818609E-02  0.8215971E-01
       -1   -1    0    0    0  501  0.00000000000E+00  0.00000000000E+00  0.13325082960E+04  0.13325082960E+04  0.50400001928E-02 0.  1.
        1   -1    0    0  501    0  0.00000000000E+00  0.00000000000E+00 -0.18020048129E+04  0.18020048129E+04  0.50400001928E-02 0. -1.
    10030    2    1    2    0    0  0.00000000000E+00  0.00000000000E+00 -0.46949651690E+03  0.31345131088E+04  0.30991523761E+04 0.  0.
        1    1    3    3  502    0  0.54742906861E+03  0.13780766347E+04 -0.68978440415E+03  0.16354131957E+04  0.50400001928E-02 0. -1.
       -1    1    3    3    0  502 -0.54742906861E+03 -0.13780766347E+04  0.22028788725E+03  0.14990999132E+04  0.50400001928E-02 0.  1.
</event>
<event>
 5   0  0.3374790E-06  0.3027675E+04  0.7818609E-02  0.8235872E-01
       -2   -1    0    0    0  501  0.00000000000E+00  0.00000000000E+00  0.11145117158E+04  0.11145117158E+04  0.25500000920E-02 0.  1.
        2   -1    0    0  501    0  0.00000000000E+00  0.00000000000E+00 -0.20562403409E+04  0.20562403409E+04  0.25500000920E-02 0. -1.
    10030    2    1    2    0    0  0.00000000000E+00  0.00000000000E+00 -0.94172862511E+03  0.31707520568E+04  0.30276749829E+04 0.  0.
        2    1    3    3  502    0 -0.12063677218E+04 -0.51576369557E+03 -0.12617812309E+04  0.18202821607E+04  0.25500000920E-02 0. -1.
       -2    1    3    3    0  502  0.12063677218E+04  0.51576369557E+03  0.32005260583E+03  0.13504698961E+04  0.25500000920E-02 0.  1.
</event>
<event>
 5   0  0.3445959E-06  0.3098126E+04  0.7818609E-02  0.8216252E-01
        2   -1    0    0  501    0  0.00000000000E+00  0.00000000000E+00  0.18048942139E+04  0.18048942139E+04  0.25500000920E-02 0.  1.
       -2   -1    0    0    0  501  0.00000000000E+00  0.00000000000E+00 -0.13294944898E+04  0.13294944898E+04  0.25500000920E-02 0. -1.
    10030    2    1    2    0    0  0.00000000000E+00  0.00000000000E+00  0.47539972402E+03  0.31343887037E+04  0.30981264739E+04 0.  0.
        4    1    3    3  502    0  0.75417675008E+03 -0.38682633096E+03  0.15494785627E+04  0.17661547525E+04  0.12699999809E+01 0.  1.
       -4    1    3    3    0  502 -0.75417675008E+03  0.38682633096E+03 -0.10740788387E+04  0.13682339512E+04  0.12699999809E+01 0. -1.
</event>
<event>
 5   0  0.3340899E-06  0.3094967E+04  0.7818609E-02  0.8217120E-01
       -2   -1    0    0    0  501  0.00000000000E+00  0.00000000000E+00  0.21066828213E+04  0.21066828213E+04  0.25500000920E-02 0.  1.
        2   -1    0    0  501    0  0.00000000000E+00  0.00000000000E+00 -0.11367185873E+04  0.11367185873E+04  0.25500000920E-02 0. -1.
    10030    2    1    2    0    0  0.00000000000E+00  0.00000000000E+00  0.96996423398E+03  0.32434014086E+04  0.30949672183E+04 0.  0.
        3    1    3    3  502    0 -0.25024526783E+03  0.63376984305E+03  0.19410123562E+04  0.20571377895E+04  0.10100000352E+00 0.  1.
       -3    1    3    3    0  502  0.25024526783E+03 -0.63376984305E+03 -0.97104812222E+03  0.11862636191E+04  0.10100000352E+00 0. -1.
</event>
<event>
 5   0  0.1211008E-06  0.3081260E+04  0.7818609E-02  0.8220900E-01
        1   -1    0    0  501    0  0.00000000000E+00  0.00000000000E+00  0.22252904290E+04  0.22252904290E+04  0.50400001928E-02 0.  1.
       -1   -1    0    0    0  501  0.00000000000E+00  0.00000000000E+00 -0.10666208059E+04  0.10666208059E+04  0.50400001928E-02 0. -1.
    10030    2    1    2    0    0  0.00000000000E+00  0.00000000000E+00  0.11586696231E+04  0.32919112349E+04  0.30812601778E+04 0.  0.
        3    1    3    3  502    0  0.12070996352E+03 -0.13698362060E+04 -0.16278995421E+03  0.13847464410E+04  0.10100000352E+00 0. -1.
       -3    1    3    3    0  502 -0.12070996352E+03  0.13698362060E+04  0.13214595773E+04  0.19071647939E+04  0.10100000352E+00 0.  1.
</event>
<event>
 5   0  0.3441897E-06  0.3144014E+04  0.7818609E-02  0.8203761E-01
        2   -1    0    0  501    0  0.00000000000E+00  0.00000000000E+00  0.19589470541E+04  0.19589470541E+04  0.25500000920E-02 0. -1.
       -2   -1    0    0    0  501  0.00000000000E+00  0.00000000000E+00 -0.12614974481E+04  0.12614974481E+04  0.25500000920E-02 0.  1.
    10030    2    1    2    0    0  0.00000000000E+00  0.00000000000E+00  0.69744960598E+03  0.32204445021E+04  0.31440144463E+04 0.  0.
        5    1    3    3  502    0  0.51078889453E+03 -0.10211074551E+04  0.14555571496E+04  0.18499282244E+04  0.46999998093E+01 0. -1.
       -5    1    3    3    0  502 -0.51078889453E+03  0.10211074551E+04 -0.75810754367E+03  0.13705162777E+04  0.46999998093E+01 0.  1.
</event>
<event>
 5   0  0.3374790E-06  0.3080273E+04  0.7818609E-02  0.8221173E-01
       -2   -1    0    0    0  501  0.00000000000E+00  0.00000000000E+00  0.11801444979E+04  0.11801444979E+04  0.25500000920E-02 0.  1.
        2   -1    0    0  501    0  0.00000000000E+00  0.00000000000E+00 -0.20099411921E+04  0.20099411921E+04  0.25500000920E-02 0. -1.
    10030    2    1    2    0    0  0.00000000000E+00  0.00000000000E+00 -0.82979669413E+03  0.31900856900E+04  0.30802733898E+04 0.  0.
        2    1    3    3  502    0 -0.13404794740E+04 -0.61537701298E+03  0.44126009759E+02  0.14756426373E+04  0.25500000920E-02 0.  1.
       -2    1    3    3    0  502  0.13404794740E+04  0.61537701298E+03 -0.87392270389E+03  0.17144430527E+04  0.25500000920E-02 0. -1.
</event>
<event>
 5   0  0.1211008E-06  0.3078575E+04  0.7818609E-02  0.8221643E-01
        1   -1    0    0  501    0  0.00000000000E+00  0.00000000000E+00  0.13438676661E+04  0.13438676661E+04  0.50400001928E-02 0.  1.
       -1   -1    0    0    0  501  0.00000000000E+00  0.00000000000E+00 -0.17631241984E+04  0.17631241984E+04  0.50400001928E-02 0. -1.
    10030    2    1    2    0    0  0.00000000000E+00  0.00000000000E+00 -0.41925653236E+03  0.31069918645E+04  0.30785747362E+04 0.  0.
        3    1    3    3  502    0 -0.86119417574E+03  0.10020706917E+04  0.58734735946E+03  0.14459522850E+04  0.10100000352E+00 0.  1.
       -3    1    3    3    0  502  0.86119417574E+03 -0.10020706917E+04 -0.10066038918E+04  0.16610395795E+04  0.10100000352E+00 0. -1.
</event>
<event>
 5   0  0.3441897E-06  0.3021217E+04  0.7818609E-02  0.8237698E-01
        2   -1    0    0  501    0  0.00000000000E+00  0.00000000000E+00  0.16041509075E+04  0.16041509075E+04  0.25500000920E-02 0.  1.
       -2   -1    0    0    0  501  0.00000000000E+00  0.00000000000E+00 -0.14225210499E+04  0.14225210499E+04  0.25500000920E-02 0. -1.
    10030    2    1    2    0    0  0.00000000000E+00  0.00000000000E+00  0.18162985760E+03  0.30266719573E+04  0.30212172600E+04 0.  0.
        5    1    3    3  502    0  0.14466573352E+04 -0.16839459252E+03 -0.31083555458E+03  0.14892330296E+04  0.46999998093E+01 0. -1.
       -5    1    3    3    0  502 -0.14466573352E+04  0.16839459252E+03  0.49246541218E+03  0.15374389277E+04  0.46999998093E+01 0.  1.
</event>
<event>
 5   0  0.1109562E-06  0.3169245E+04  0.7818609E-02  0.8196987E-01
        3   -1    0    0  501    0  0.00000000000E+00  0.00000000000E+00  0.13233847652E+04  0.13233847690E+04  0.10100000352E+00 0. -1.
       -3   -1    0    0    0  501  0.00000000000E+00  0.00000000000E+00 -0.18974294450E+04  0.18974294477E+04  0.10100000352E+00 0.  1.
    10030    2    1    2    0    0  0.00000000000E+00  0.00000000000E+00 -0.57404467986E+03  0.32208142167E+04  0.31692454818E+04 0.  0.
        1    1    3    3  502    0 -0.85401730710E+03  0.48619999803E+03  0.97630311222E+03  0.13852450202E+04  0.50400001928E-02 0. -1.
       -1    1    3    3    0  502  0.85401730710E+03 -0.48619999803E+03 -0.15503477921E+04  0.18355691966E+04  0.50400001928E-02 0.  1.
</event>
<event>
 5   0  0.3441897E-06  0.3041724E+04  0.7818609E-02  0.8231916E-01
       -2   -1    0    0    0  501  0.00000000000E+00  0.00000000000E+00  0.22773752328E+04  0.22773752328E+04  0.25500000920E-02 0. -1.
        2   -1    0    0  501    0  0.00000000000E+00  0.00000000000E+00 -0.10156521482E+04  0.10156521482E+04  0.25500000920E-02 0.  1.
    10030    2    1    2    0    0  0.00000000000E+00  0.00000000000E+00  0.12617230847E+04  0.32930273810E+04  0.30417238845E+04 0.  0.
        5    1    3    3  502    0  0.89828462067E+03 -0.83840692542E+03 -0.33937118567E+03  0.12747691258E+04  0.46999998093E+01 0.  1.
       -5    1    3    3    0  502 -0.89828462067E+03  0.83840692542E+03  0.16010942703E+04  0.20182582552E+04  0.46999998093E+01 0. -1.
</event>
<event>
 5   0  0.3445410E-06  0.3056852E+04  0.7818609E-02  0.8227680E-01
       -2   -1    0    0    0  501  0.00000000000E+00  0.00000000000E+00  0.13538694457E+04  0.13538694458E+04  0.25500000920E-02 0.  1.
        2   -1    0    0  501    0  0.00000000000E+00  0.00000000000E+00 -0.17254879684E+04  0.17254879684E+04  0.25500000920E-02 0. -1.
    10030    2    1    2    0    0  0.00000000000E+00  0.00000000000E+00 -0.37161852264E+03  0.30793574141E+04  0.30568516087E+04 0.  0.
        1    1    3    3  502    0  0.11598883201E+04  0.50161800304E+03  0.68024353103E+03  0.14351629864E+04  0.50400001928E-02 0.  1.
       -1    1    3    3    0  502 -0.11598883201E+04 -0.50161800304E+03 -0.10518620537E+04  0.16441944277E+04  0.50400001928E-02 0. -1.
</event>
<event>
 5   0  0.3445959E-06  0.3056371E+04  0.7818609E-02  0.8227814E-01
        2   -1    0    0  501    0  0.00000000000E+00  0.00000000000E+00  0.12612494228E+04  0.12612494228E+04  0.25500000920E-02 0.  1.
       -2   -1    0    0    0  501  0.00000000000E+00  0.00000000000E+00 -0.18516171963E+04  0.18516171963E+04  0.25500000920E-02 0. -1.
    10030    2    1    2    0    0  0.00000000000E+00  0.00000000000E+00 -0.59036777343E+03  0.31128666191E+04  0.30563711294E+04 0.  0.
        4    1    3    3  502    0 -0.70335466934E+03  0.92416797005E+03 -0.13067985975E+04  0.17482901404E+04  0.12699999809E+01 0. -1.
       -4    1    3    3    0  502  0.70335466934E+03 -0.92416797005E+03  0.71643082404E+03  0.13645764787E+04  0.12699999809E+01 0.  1.
</event>
<event>
 5   0  0.1211008E-06  0.3024205E+04  0.7818609E-02  0.8236853E-01
       -1   -1    0    0    0  501  0.00000000000E+00  0.00000000000E+00  0.17730670244E+04  0.17730670244E+04  0.50400001928E-02 0.  1.
        1   -1    0    0  501    0  0.00000000000E+00  0.00000000000E+00 -0.12895475227E+04  0.12895475227E+04  0.50400001928E-02 0. -1.
    10030    2    1    2    0    0  0.00000000000E+00  0.00000000000E+00  0.48351950170E+03  0.30626145471E+04  0.30242051444E+04 0.  0.
        3    1    3    3  502    0 -0.10594172366E+04  0.99365165772E+03  0.66751057547E+03  0.15985239681E+04  0.10100000352E+00 0. -1.
       -3    1    3    3    0  502  0.10594172366E+04 -0.99365165772E+03 -0.18399107377E+03  0.14640905790E+04  0.10100000352E+00 0.  1.
</event>
<event>
 5   0  0.1235960E-06  0.2924430E+04  0.7818609E-02  0.8265646E-01
        1   -1    0    0  501    0  0.00000000000E+00  0.00000000000E+00  0.21120578504E+04  0.21120578504E+04  0.50400001928E-02 0. -1.
       -1   -1    0    0    0  501  0.00000000000E+00  0.00000000000E+00 -0.10123175986E+04  0.10123175986E+04  0.50400001928E-02 0.  1.
    10030    2    1    2    0    0  0.00000000000E+00  0.00000000000E+00  0.10997402518E+04  0.31243754491E+04  0.29244304275E+04 0.  0.
        4    1    3    3  502    0 -0.22009940460E+03 -0.77008872384E+03 -0.75712369627E+03  0.11021425928E+04  0.12699999809E+01 0.  1.
       -4    1    3    3    0  502  0.22009940460E+03  0.77008872384E+03  0.18568639481E+04  0.20222328563E+04  0.12699999809E+01 0. -1.
</event>
<event>
 5   0  0.3445410E-06  0.3088486E+04  0.7818609E-02  0.8218905E-01
       -2   -1    0    0    0  501  0.00000000000E+00  0.00000000000E+00  0.17019186139E+04  0.17019186139E+04  0.25500000920E-02 0.  1.
        2   -1    0    0  501    0  0.00000000000E+00  0.00000000000E+00 -0.14011757918E+04  0.14011757918E+04  0.25500000920E-02 0. -1.
    10030    2    1    2    0    0  0.00000000000E+00  0.00000000000E+00  0.30074282211E+03  0.31030944057E+04  0.30884864652E+04 0.  0.
        1    1    3    3  502    0 -0.10455540765E+04 -0.86661308706E+03 -0.58828308651E+03  0.14799589722E+04  0.50400001928E-02 0. -1.
       -1    1    3    3    0  502  0.10455540765E+04  0.86661308706E+03  0.88902590862E+03  0.16231354336E+04  0.50400001928E-02 0.  1.
</event>
<event>
 5   0  0.1198763E-06  0.3093202E+04  0.7818609E-02  0.8217606E-01
       -1   -1    0    0    0  501  0.00000000000E+00  0.00000000000E+00  0.14508308026E+04  0.14508308026E+04  0.50400001928E-02 0.  1.
        1   -1    0    0  501    0  0.00000000000E+00  0.00000000000E+00 -0.16486935446E+04  0.16486935446E+04  0.50400001928E-02 0. -1.
    10030    2    1    2    0    0  0.00000000000E+00  0.00000000000E+00 -0.19786274195E+03  0.30995243472E+04  0.30932024690E+04 0.  0.
        1    1    3    3  502    0  0.37385416012E+03  0.13117306924E+03  0.13991164215E+04  0.14541320670E+04  0.50400001928E-02 0.  1.
       -1    1    3    3    0  502 -0.37385416012E+03 -0.13117306924E+03 -0.15969791635E+04  0.16453922802E+04  0.50400001928E-02 0. -1.
</event>
<event>
 5   0  0.3445959E-06  0.3093413E+04  0.7818609E-02  0.8217548E-01
       -2   -1    0    0    0  501  0.00000000000E+00  0.00000000000E+00  0.10928768796E+04  0.10928768796E+04  0.25500000920E-02 0. -1.
        2   -1    0    0  501    0  0.00000000000E+00  0.00000000000E+00 -0.21889944596E+04  0.21889944596E+04  0.25500000920E-02 0.  1.
    10030    2    1    2    0    0  0.00000000000E+00  0.00000000000E+00 -0.10961175800E+04  0.32818713392E+04  0.30934132827E+04 0.  0.
        4    1    3    3  502    0  0.12120632011E+03  0.47786607129E+03  0.10072884490E+04  0.11214626996E+04  0.12699999809E+01 0. -1.
       -4    1    3    3    0  502 -0.12120632011E+03 -0.47786607129E+03 -0.21034060290E+04  0.21604086396E+04  0.12699999809E+01 0.  1.
</event>
<event>
 5   0  0.3441897E-06  0.3118223E+04  0.7818609E-02  0.8210754E-01
        2   -1    0    0  501    0  0.00000000000E+00  0.00000000000E+00  0.18123154941E+04  0.18123154941E+04  0.25500000920E-02 0. -1.
       -2   -1    0    0    0  501  0.00000000000E+00  0.00000000000E+00 -0.13412836415E+04  0.13412836415E+04  0.25500000920E-02 0.  1.
    10030    2    1    2    0    0  0.00000000000E+00  0.00000000000E+00  0.47103185263E+03  0.31535991356E+04  0.31182232925E+04 0.  0.
        5    1    3    3  502    0  0.26424800030E+03  0.86861280106E+03  0.15173698511E+04  0.17682614509E+04  0.46999998093E+01 0. -1.
       -5    1    3    3    0  502 -0.26424800030E+03 -0.86861280106E+03 -0.10463379984E+04  0.13853376847E+04  0.46999998093E+01 0.  1.
</event>
<event>
 5   0  0.3441897E-06  0.3146040E+04  0.7818609E-02  0.8203215E-01
        2   -1    0    0  501    0  0.00000000000E+00  0.00000000000E+00  0.17451708612E+04  0.17451708612E+04  0.25500000920E-02 0. -1.
       -2   -1    0    0    0  501  0.00000000000E+00  0.00000000000E+00 -0.14178506928E+04  0.14178506928E+04  0.25500000920E-02 0.  1.
    10030    2    1    2    0    0  0.00000000000E+00  0.00000000000E+00  0.32732016842E+03  0.31630215540E+04  0.31460398692E+04 0.  0.
        5    1    3    3  502    0  0.55541696580E+03 -0.67403563159E+03  0.14789869392E+04  0.17176252487E+04  0.46999998093E+01 0. -1.
       -5    1    3    3    0  502 -0.55541696580E+03  0.67403563159E+03 -0.11516667708E+04  0.14453963053E+04  0.46999998093E+01 0.  1.
</event>
<event>
 5   0  0.1235960E-06  0.3116787E+04  0.7818609E-02  0.8211146E-01
       -1   -1    0    0    0  501  0.00000000000E+00  0.00000000000E+00  0.14260653971E+04  0.14260653971E+04  0.50400001928E-02 0.  1.
        1   -1    0    0  501    0  0.00000000000E+00  0.00000000000E+00 -0.17030010921E+04  0.17030010921E+04  0.50400001928E-02 0. -1.
    10030    2    1    2    0    0  0.00000000000E+00  0.00000000000E+00 -0.27693569500E+03  0.31290664892E+04  0.31167874028E+04 0.  0.
        4    1    3    3  502    0 -0.60875789713E+03  0.11991862217E+04 -0.92894238596E+03  0.16344936038E+04  0.12699999809E+01 0. -1.
       -4    1    3    3    0  502  0.60875789713E+03 -0.11991862217E+04  0.65200669095E+03  0.14945728853E+04  0.12699999809E+01 0.  1.
</event>
<event>
 5   0  0.1235960E-06  0.3088771E+04  0.7818609E-02  0.8218826E-01
       -1   -1    0    0    0  501  0.00000000000E+00  0.00000000000E+00  0.95039177391E+03  0.95039177392E+03  0.50400001928E-02 0. -1.
        1   -1    0    0  501    0  0.00000000000E+00  0.00000000000E+00 -0.25096245046E+04  0.25096245046E+04  0.50400001928E-02 0.  1.
    10030    2    1    2    0    0  0.00000000000E+00  0.00000000000E+00 -0.15592327307E+04  0.34600162786E+04  0.30887709432E+04 0.  0.
        4    1    3    3  502    0  0.54747969325E+03 -0.13438823694E+04 -0.18753263564E+03  0.14631896458E+04  0.12699999809E+01 0. -1.
       -4    1    3    3    0  502 -0.54747969325E+03  0.13438823694E+04 -0.13717000951E+04  0.19968266327E+04  0.12699999809E+01 0.  1.
</event>
<event>
 5   0  0.1198763E-06  0.3093105E+04  0.7818609E-02  0.8217633E-01
       -1   -1    0    0    0  501  0.00000000000E+00  0.00000000000E+00  0.11333022552E+04  0.11333022552E+04  0.50400001928E-02 0.  1.
        1   -1    0    0  501    0  0.00000000000E+00  0.00000000000E+00 -0.21104912235E+04  0.21104912235E+04  0.50400001928E-02 0. -1.
    10030    2    1    2    0    0  0.00000000000E+00  0.00000000000E+00 -0.97718896836E+03  0.32437934787E+04  0.30931048887E+04 0.  0.
        1    1    3    3  502    0 -0.13255236050E+04  0.79282575725E+03 -0.57142959379E+03  0.16468507187E+04  0.50400001928E-02 0. -1.
       -1    1    3    3    0  502  0.13255236050E+04 -0.79282575725E+03 -0.40575937457E+03  0.15969427601E+04  0.50400001928E-02 0.  1.
</event>
<event>
 5   0  0.3441897E-06  0.3098580E+04  0.7818609E-02  0.8216128E-01
       -2   -1    0    0    0  501  0.00000000000E+00  0.00000000000E+00  0.10387064200E+04  0.10387064200E+04  0.25500000920E-02 0. -1.
        2   -1    0    0  501    0  0.00000000000E+00  0.00000000000E+00 -0.23108544513E+04  0.23108544513E+04  0.25500000920E-02 0.  1.
    10030    2    1    2    0    0  0.00000000000E+00  0.00000000000E+00 -0.12721480313E+04  0.33495608713E+04  0.30985799033E+04 0.  0.
        5    1    3    3  502    0 -0.12206789268E+04 -0.61415690759E+03  0.15315240981E+03  0.13750358178E+04  0.46999998093E+01 0. -1.
       -5    1    3    3    0  502  0.12206789268E+04  0.61415690759E+03 -0.14253004411E+04  0.19745250535E+04  0.46999998093E+01 0.  1.
</event>
<event>
 5   0  0.3445959E-06  0.3103575E+04  0.7818609E-02  0.8214758E-01
       -2   -1    0    0    0  501  0.00000000000E+00  0.00000000000E+00  0.18636365668E+04  0.18636365668E+04  0.25500000920E-02 0.  1.
        2   -1    0    0  501    0  0.00000000000E+00  0.00000000000E+00 -0.12921210655E+04  0.12921210655E+04  0.25500000920E-02 0. -1.
    10030    2    1    2    0    0  0.00000000000E+00  0.00000000000E+00  0.57151550124E+03  0.31557576323E+04  0.31035747559E+04 0.  0.
        4    1    3    3  502    0  0.11946303994E+04 -0.59473646039E+03 -0.51951076231E+03  0.14320426996E+04  0.12699999809E+01 0. -1.
       -4    1    3    3    0  502 -0.11946303994E+04  0.59473646039E+03  0.10910262635E+04  0.17237149327E+04  0.12699999809E+01 0.  1.
</event>
<event>
 5   0  0.3445410E-06  0.3109010E+04  0.7818609E-02  0.8213270E-01
        2   -1    0    0  501    0  0.00000000000E+00  0.00000000000E+00  0.16311416404E+04  0.16311416404E+04  0.25500000920E-02 0. -1.
       -2   -1    0    0    0  501  0.00000000000E+00  0.00000000000E+00 -0.14814687517E+04  0.14814687517E+04  0.25500000920E-02 0.  1.
    10030    2    1    2    0    0  0.00000000000E+00  0.00000000000E+00  0.14967288871E+03  0.31126103921E+04  0.31090097265E+04 0.  0.
        1    1    3    3  502    0 -0.85468084098E+03 -0.44819106241E+02 -0.12243556671E+04  0.14938322837E+04  0.50400001928E-02 0.  1.
       -1    1    3    3    0  502  0.85468084098E+03  0.44819106241E+02  0.13740285558E+04  0.16187781085E+04  0.50400001928E-02 0. -1.
</event>
<event>
 5   0  0.3445410E-06  0.3111761E+04  0.7818609E-02  0.8212518E-01
       -2   -1    0    0    0  501  0.00000000000E+00  0.00000000000E+00  0.13241666654E+04  0.13241666654E+04  0.25500000920E-02 0.  1.
        2   -1    0    0  501    0  0.00000000000E+00  0.00000000000E+00 -0.18281413099E+04  0.18281413099E+04  0.25500000920E-02 0. -1.
    10030    2    1    2    0    0  0.00000000000E+00  0.00000000000E+00 -0.50397464452E+03  0.31523079753E+04  0.31117607763E+04 0.  0.
        1    1    3    3  502    0  0.10066768980E+04  0.90197783371E+03 -0.10326133806E+04  0.17009564319E+04  0.50400001928E-02 0. -1.
       -1    1    3    3    0  502 -0.10066768980E+04 -0.90197783371E+03  0.52863873606E+03  0.14513515435E+04  0.50400001928E-02 0.  1.
</event>
<event>
 5   0  0.1171915E-06  0.3028356E+04  0.7818609E-02  0.8235680E-01
        1   -1    0    0  501    0  0.00000000000E+00  0.00000000000E+00  0.23291299351E+04  0.23291299351E+04  0.50400001928E-02 0. -1.
       -1   -1    0    0    0  501  0.00000000000E+00  0.00000000000E+00 -0.98437373029E+03  0.98437373030E+03  0.50400001928E-02 0.  1.
    10030    2    1    2    0    0  0.00000000000E+00  0.00000000000E+00  0.13447562048E+04  0.33135036654E+04  0.30283555422E+04 0.  0.
        2    1    3    3  502    0 -0.41634581765E+03 -0.28047716825E+03 -0.89067102167E+03  0.10224021472E+04  0.25500000920E-02 0.  1.
       -2    1    3    3    0  502  0.41634581765E+03  0.28047716825E+03  0.22354272265E+04  0.22911015182E+04  0.25500000920E-02 0. -1.
</event>
<event>
 5   0  0.1250276E-06  0.2980898E+04  0.7818609E-02  0.8249207E-01
        1   -1    0    0  501    0  0.00000000000E+00  0.00000000000E+00  0.12728796151E+04  0.12728796151E+04  0.50400001928E-02 0.  1.
       -1   -1    0    0    0  501  0.00000000000E+00  0.00000000000E+00 -0.17452064385E+04  0.17452064385E+04  0.50400001928E-02 0. -1.
    10030    2    1    2    0    0  0.00000000000E+00  0.00000000000E+00 -0.47232682333E+03  0.30180860536E+04  0.29808976499E+04 0.  0.
        5    1    3    3  502    0 -0.12582734059E+04  0.58490354963E+03  0.31473075600E+03  0.14228287547E+04  0.46999998093E+01 0. -1.
       -5    1    3    3    0  502  0.12582734059E+04 -0.58490354963E+03 -0.78705757933E+03  0.15952572989E+04  0.46999998093E+01 0.  1.
</event>
<event>
 5   0  0.3441897E-06  0.3107876E+04  0.7818609E-02  0.8213580E-01
       -2   -1    0    0    0  501  0.00000000000E+00  0.00000000000E+00  0.84240788208E+03  0.84240788208E+03  0.25500000920E-02 0.  1.
        2   -1    0    0  501    0  0.00000000000E+00  0.00000000000E+00 -0.28664538588E+04  0.28664538588E+04  0.25500000920E-02 0. -1.
    10030    2    1    2    0    0  0.00000000000E+00  0.00000000000E+00 -0.20240459768E+04  0.37088617409E+04  0.31078760106E+04 0.  0.
        5    1    3    3  502    0 -0.19566805153E+03 -0.13141302557E+03 -0.28449887668E+04  0.28547396629E+04  0.46999998093E+01 0. -1.
       -5    1    3    3    0  502  0.19566805153E+03  0.13141302557E+03  0.82094279003E+03  0.85412207804E+03  0.46999998093E+01 0.  1.
</event>
<event>
 5   0  0.1235960E-06  0.3098671E+04  0.7818609E-02  0.8216103E-01
       -1   -1    0    0    0  501  0.00000000000E+00  0.00000000000E+00  0.11786814366E+04  0.11786814366E+04  0.50400001928E-02 0. -1.
        1   -1    0    0  501    0  0.00000000000E+00  0.00000000000E+00 -0.20365471892E+04  0.20365471892E+04  0.50400001928E-02 0.  1.
    10030    2    1    2    0    0  0.00000000000E+00  0.00000000000E+00 -0.85786575257E+03  0.32152286258E+04  0.30986709194E+04 0.  0.
        4    1    3    3  502    0  0.11017684216E+04 -0.70126568080E+03  0.43595023111E+03  0.13768519989E+04  0.12699999809E+01 0. -1.
       -4    1    3    3    0  502 -0.11017684216E+04  0.70126568080E+03 -0.12938159837E+04  0.18383766269E+04  0.12699999809E+01 0.  1.
</event>
<event>
 5   0  0.3374790E-06  0.3093430E+04  0.7818609E-02  0.8217543E-01
       -2   -1    0    0    0  501  0.00000000000E+00  0.00000000000E+00  0.13501546158E+04  0.13501546159E+04  0.25500000920E-02 0. -1.
        2   -1    0    0  501    0  0.00000000000E+00  0.00000000000E+00 -0.17718918156E+04  0.17718918156E+04  0.25500000920E-02 0.  1.
    10030    2    1    2    0    0  0.00000000000E+00  0.00000000000E+00 -0.42173719977E+03  0.31220464315E+04  0.30934304024E+04 0.  0.
        2    1    3    3  502    0  0.28087238975E+03 -0.14654403354E+03  0.13170592713E+04  0.13546252534E+04  0.25500000920E-02 0. -1.
       -2    1    3    3    0  502 -0.28087238975E+03  0.14654403354E+03 -0.17387964710E+04  0.17674211781E+04  0.25500000920E-02 0.  1.
</event>
<event>
 5   0  0.1198763E-06  0.3115141E+04  0.7818609E-02  0.8211595E-01
       -1   -1    0    0    0  501  0.00000000000E+00  0.00000000000E+00  0.12468776699E+04  0.12468776699E+04  0.50400001928E-02 0. -1.
        1   -1    0    0  501    0  0.00000000000E+00  0.00000000000E+00 -0.19456805507E+04  0.19456805507E+04  0.50400001928E-02 0.  1.
    10030    2    1    2    0    0  0.00000000000E+00  0.00000000000E+00 -0.69880288079E+03  0.31925582206E+04  0.31151408517E+04 0.  0.
        1    1    3    3  502    0 -0.17804362795E+03  0.15036744978E+04  0.24759510017E+02  0.15143809171E+04  0.50400001928E-02 0. -1.
       -1    1    3    3    0  502  0.17804362795E+03 -0.15036744978E+04 -0.72356239081E+03  0.16781773035E+04  0.50400001928E-02 0.  1.
</event>
<event>
 5   0  0.3340899E-06  0.3026268E+04  0.7818609E-02  0.8236270E-01
        2   -1    0    0  501    0  0.00000000000E+00  0.00000000000E+00  0.13915343095E+04  0.13915343095E+04  0.25500000920E-02 0.  1.
       -2   -1    0    0    0  501  0.00000000000E+00  0.00000000000E+00 -0.16453592235E+04  0.16453592235E+04  0.25500000920E-02 0. -1.
    10030    2    1    2    0    0  0.00000000000E+00  0.00000000000E+00 -0.25382491395E+03  0.30368935330E+04  0.30262675433E+04 0.  0.
        3    1    3    3  502    0 -0.11773730742E+04 -0.89539151349E+03 -0.44684292812E+03  0.15451866977E+04  0.10100000352E+00 0.  1.
       -3    1    3    3    0  502  0.11773730742E+04  0.89539151349E+03  0.19301801417E+03  0.14917068352E+04  0.10100000352E+00 0. -1.
</event>
<event>
 5   0  0.3441897E-06  0.3158767E+04  0.7818609E-02  0.8199792E-01
        2   -1    0    0  501    0  0.00000000000E+00  0.00000000000E+00  0.22079790240E+04  0.22079790240E+04  0.25500000920E-02 0.  1.
       -2   -1    0    0    0  501  0.00000000000E+00  0.00000000000E+00 -0.11297444828E+04  0.11297444828E+04  0.25500000920E-02 0. -1.
    10030    2    1    2    0    0  0.00000000000E+00  0.00000000000E+00  0.10782345411E+04  0.33377235068E+04  0.31587669243E+04 0.  0.
        5    1    3    3  502    0 -0.15729117522E+03  0.11900424087E+04 -0.54542801806E+03  0.13185049341E+04  0.46999998093E+01 0. -1.
       -5    1    3    3    0  502  0.15729117522E+03 -0.11900424087E+04  0.16236625592E+04  0.20192185727E+04  0.46999998093E+01 0.  1.
</event>
<event>
 5   0  0.1198763E-06  0.2984932E+04  0.7818609E-02  0.8248047E-01
       -1   -1    0    0    0  501  0.00000000000E+00  0.00000000000E+00  0.11340262423E+04  0.11340262423E+04  0.50400001928E-02 0.  1.
        1   -1    0    0  501    0  0.00000000000E+00  0.00000000000E+00 -0.19641999289E+04  0.19641999289E+04  0.50400001928E-02 0. -1.
    10030    2    1    2    0    0  0.00000000000E+00  0.00000000000E+00 -0.83017368662E+03  0.30982261713E+04  0.29849316673E+04 0.  0.
        1    1    3    3  502    0  0.10653139232E+04 -0.59838019861E+03 -0.13046465682E+04  0.17874717578E+04  0.50400001928E-02 0. -1.
       -1    1    3    3    0  502 -0.10653139232E+04  0.59838019861E+03  0.47447288161E+03  0.13107544135E+04  0.50400001928E-02 0.  1.
</event>
<event>
 5   0  0.1235960E-06  0.3356878E+04  0.7818609E-02  0.8148572E-01
        1   -1    0    0  501    0  0.00000000000E+00  0.00000000000E+00  0.23618494598E+04  0.23618494598E+04  0.50400001928E-02 0. -1.
       -1   -1    0    0    0  501  0.00000000000E+00  0.00000000000E+00 -0.11927757221E+04  0.11927757221E+04  0.50400001928E-02 0.  1.
    10030    2    1    2    0    0  0.00000000000E+00  0.00000000000E+00  0.11690737377E+04  0.35546251819E+04  0.33568775342E+04 0.  0.
        4    1    3    3  502    0  0.28932441213E+03  0.33930438349E+03 -0.11289058660E+04  0.12137817544E+04  0.12699999809E+01 0.  1.
       -4    1    3    3    0  502 -0.28932441213E+03 -0.33930438349E+03  0.22979796037E+04  0.23408434275E+04  0.12699999809E+01 0. -1.
</event>
<event>
 5   0  0.1109562E-06  0.3098785E+04  0.7818609E-02  0.8216071E-01
        3   -1    0    0  501    0  0.00000000000E+00  0.00000000000E+00  0.13566290646E+04  0.13566290684E+04  0.10100000352E+00 0. -1.
       -3   -1    0    0    0  501  0.00000000000E+00  0.00000000000E+00 -0.17695461115E+04  0.17695461143E+04  0.10100000352E+00 0.  1.
    10030    2    1    2    0    0  0.00000000000E+00  0.00000000000E+00 -0.41291704684E+03  0.31261751827E+04  0.30987853726E+04 0.  0.
        1    1    3    3  502    0  0.47002807042E+03  0.15050742483E+03  0.12752091130E+04  0.13673833237E+04  0.50400001928E-02 0. -1.
       -1    1    3    3    0  502 -0.47002807042E+03 -0.15050742483E+03 -0.16881261598E+04  0.17587918591E+04  0.50400001928E-02 0.  1.
</event>
<event>
 5   0  0.1250276E-06  0.3155922E+04  0.7818609E-02  0.8200556E-01
       -1   -1    0    0    0  501  0.00000000000E+00  0.00000000000E+00  0.17058503778E+04  0.17058503778E+04  0.50400001928E-02 0.  1.
        1   -1    0    0  501    0  0.00000000000E+00  0.00000000000E+00 -0.14596598804E+04  0.14596598804E+04  0.50400001928E-02 0. -1.
    10030    2    1    2    0    0  0.00000000000E+00  0.00000000000E+00  0.24619049739E+03  0.31655102582E+04  0.31559222794E+04 0.  0.
        5    1    3    3  502    0  0.92418799388E+03 -0.38345051545E+03 -0.11007680489E+04  0.14875718918E+04  0.46999998093E+01 0. -1.
       -5    1    3    3    0  502 -0.92418799388E+03  0.38345051545E+03  0.13469585463E+04  0.16779383664E+04  0.46999998093E+01 0.  1.
</event>
<event>
 5   0  0.3441897E-06  0.3093727E+04  0.7818609E-02  0.8217462E-01
       -2   -1    0    0    0  501  0.00000000000E+00  0.00000000000E+00  0.16505051866E+04  0.16505051866E+04  0.25500000920E-02 0.  1.
        2   -1    0    0  501    0  0.00000000000E+00  0.00000000000E+00 -0.14497298423E+04  0.14497298423E+04  0.25500000920E-02 0. -1.
    10030    2    1    2    0    0  0.00000000000E+00  0.00000000000E+00  0.20077534432E+03  0.31002350289E+04  0.30937269588E+04 0.  0.
        5    1    3    3  502    0  0.26639472623E+03 -0.76537856327E+03  0.14207306254E+04  0.16356246804E+04  0.46999998093E+01 0.  1.
       -5    1    3    3    0  502 -0.26639472623E+03  0.76537856327E+03 -0.12199552810E+04  0.14646103485E+04  0.46999998093E+01 0. -1.
</event>
<event>
 5   0  0.3441897E-06  0.3113073E+04  0.7818609E-02  0.8212159E-01
        2   -1    0    0  501    0  0.00000000000E+00  0.00000000000E+00  0.12233559677E+04  0.12233559677E+04  0.25500000920E-02 0. -1.
       -2   -1    0    0    0  501  0.00000000000E+00  0.00000000000E+00 -0.19804579999E+04  0.19804579999E+04  0.25500000920E-02 0.  1.
    10030    2    1    2    0    0  0.00000000000E+00  0.00000000000E+00 -0.75710203225E+03  0.32038139676E+04  0.31130725099E+04 0.  0.
        5    1    3    3  502    0  0.52634762458E+03  0.10319783681E+04  0.69134866193E+03  0.13490760677E+04  0.46999998093E+01 0. -1.
       -5    1    3    3    0  502 -0.52634762458E+03 -0.10319783681E+04 -0.14484506942E+04  0.18547379000E+04  0.46999998093E+01 0.  1.
</event>
<event>
 5   0  0.3340899E-06  0.3081406E+04  0.7818609E-02  0.8220859E-01
        2   -1    0    0  501    0  0.00000000000E+00  0.00000000000E+00  0.17726645146E+04  0.17726645146E+04  0.25500000920E-02 0. -1.
       -2   -1    0    0    0  501  0.00000000000E+00  0.00000000000E+00 -0.13390946808E+04  0.13390946808E+04  0.25500000920E-02 0.  1.
    10030    2    1    2    0    0  0.00000000000E+00  0.00000000000E+00  0.43356983373E+03  0.31117591954E+04  0.30814059274E+04 0.  0.
        3    1    3    3  502    0  0.52006187189E+03  0.11858540339E+04  0.10599051124E+04  0.16733538173E+04  0.10100000352E+00 0. -1.
       -3    1    3    3    0  502 -0.52006187189E+03 -0.11858540339E+04 -0.62633527863E+03  0.14384053781E+04  0.10100000352E+00 0.  1.
</event>
<event>
 5   0  0.3441897E-06  0.3074400E+04  0.7818609E-02  0.8222799E-01
        2   -1    0    0  501    0  0.00000000000E+00  0.00000000000E+00  0.25998392304E+04  0.25998392304E+04  0.25500000920E-02 0. -1.
       -2   -1    0    0    0  501  0.00000000000E+00  0.00000000000E+00 -0.90889599531E+03  0.90889599531E+03  0.25500000920E-02 0.  1.
    10030    2    1    2    0    0  0.00000000000E+00  0.00000000000E+00  0.16909432351E+04  0.35087352257E+04  0.30743997560E+04 0.  0.
        5    1    3    3  502    0 -0.43488888925E+01 -0.12792073424E+04 -0.12734123763E+03  0.12855458835E+04  0.46999998093E+01 0.  1.
       -5    1    3    3    0  502  0.43488888925E+01  0.12792073424E+04  0.18182844727E+04  0.22231893422E+04  0.46999998093E+01 0. -1.
</event>
<event>
 5   0  0.1171915E-06  0.3107925E+04  0.7818609E-02  0.8213566E-01
       -1   -1    0    0    0  501  0.00000000000E+00  0.00000000000E+00  0.13451278854E+04  0.13451278854E+04  0.50400001928E-02 0. -1.
        1   -1    0    0  501    0  0.00000000000E+00  0.00000000000E+00 -0.17952197254E+04  0.17952197254E+04  0.50400001928E-02 0.  1.
    10030    2    1    2    0    0  0.00000000000E+00  0.00000000000E+00 -0.45009183998E+03  0.31403476108E+04  0.31079254258E+04 0.  0.
        2    1    3    3  502    0 -0.12475308968E+04 -0.83832592143E+03  0.17362867137E+03  0.15130335768E+04  0.25500000920E-02 0. -1.
       -2    1    3    3    0  502  0.12475308968E+04  0.83832592143E+03 -0.62372051135E+03  0.16273140340E+04  0.25500000920E-02 0.  1.
</event>
<event>
 5   0  0.3340899E-06  0.2800245E+04  0.7818609E-02  0.8303192E-01
       -2   -1    0    0    0  501  0.00000000000E+00  0.00000000000E+00  0.12699962154E+04  0.12699962154E+04  0.25500000920E-02 0.  1.
        2   -1    0    0  501    0  0.00000000000E+00  0.00000000000E+00 -0.15435816213E+04  0.15435816213E+04  0.25500000920E-02 0. -1.
    10030    2    1    2    0    0  0.00000000000E+00  0.00000000000E+00 -0.27358540588E+03  0.28135778368E+04  0.28002448588E+04 0.  0.
        3    1    3    3  502    0  0.30726986114E+03 -0.58604687262E+03 -0.13765546743E+04  0.15273403308E+04  0.10100000352E+00 0. -1.
       -3    1    3    3    0  502 -0.30726986114E+03  0.58604687262E+03  0.11029692684E+04  0.12862375060E+04  0.10100000352E+00 0.  1.
</event>
<event>
 5   0  0.3445959E-06  0.3111546E+04  0.7818609E-02  0.8212576E-01
        2   -1    0    0  501    0  0.00000000000E+00  0.00000000000E+00  0.13969074105E+04  0.13969074105E+04  0.25500000920E-02 0.  1.
       -2   -1    0    0    0  501  0.00000000000E+00  0.00000000000E+00 -0.17327058898E+04  0.17327058898E+04  0.25500000920E-02 0. -1.
    10030    2    1    2    0    0  0.00000000000E+00  0.00000000000E+00 -0.33579847933E+03  0.31296133002E+04  0.31115460450E+04 0.  0.
        4    1    3    3  502    0  0.16626914682E+03  0.15032251642E+04  0.19904340806E+03  0.15254347625E+04  0.12699999809E+01 0.  1.
       -4    1    3    3    0  502 -0.16626914682E+03 -0.15032251642E+04 -0.53484188739E+03  0.16041785377E+04  0.12699999809E+01 0. -1.
</event>
<event>
 5   0  0.3340899E-06  0.3201857E+04  0.7818609E-02  0.8188327E-01
       -2   -1    0    0    0  501  0.00000000000E+00  0.00000000000E+00  0.10975232007E+04  0.10975232007E+04  0.25500000920E-02 0.  1.
        2   -1    0    0  501    0  0.00000000000E+00  0.00000000000E+00 -0.23352330096E+04  0.23352330096E+04  0.25500000920E-02 0. -1.
    10030    2    1    2    0    0  0.00000000000E+00  0.00000000000E+00 -0.12377098090E+04  0.34327562103E+04  0.32018572155E+04 0.  0.
        3    1    3    3  502    0  0.81729160901E+03  0.13345684009E+04 -0.98073749007E+03  0.18468579874E+04  0.10100000352E+00 0. -1.
       -3    1    3    3    0  502 -0.81729160901E+03 -0.13345684009E+04 -0.25697231888E+03  0.15858982230E+04  0.10100000352E+00 0.  1.
</event>
<event>
 5   0  0.1171915E-06  0.3122970E+04  0.7818609E-02  0.8209462E-01
        1   -1    0    0  501    0  0.00000000000E+00  0.00000000000E+00  0.12080628593E+04  0.12080628594E+04  0.50400001928E-02 0.  1.
       -1   -1    0    0    0  501  0.00000000000E+00  0.00000000000E+00 -0.20183012787E+04  0.20183012787E+04  0.50400001928E-02 0. -1.
    10030    2    1    2    0    0  0.00000000000E+00  0.00000000000E+00 -0.81023841933E+03  0.32263641381E+04  0.31229696212E+04 0.  0.
        2    1    3    3  502    0 -0.94796983114E+03 -0.90246254086E+03 -0.12848693822E+04  0.18341141643E+04  0.25500000920E-02 0. -1.
       -2    1    3    3    0  502  0.94796983114E+03  0.90246254086E+03  0.47463096289E+03  0.13922499737E+04  0.25500000920E-02 0.  1.
</event>
<event>
 5   0  0.3374790E-06  0.3099413E+04  0.7818609E-02  0.8215899E-01
       -2   -1    0    0    0  501  0.00000000000E+00  0.00000000000E+00  0.14364607153E+04  0.14364607153E+04  0.25500000920E-02 0. -1.
        2   -1    0    0  501    0  0.00000000000E+00  0.00000000000E+00 -0.16718797902E+04  0.16718797902E+04  0.25500000920E-02 0.  1.
    10030    2    1    2    0    0  0.00000000000E+00  0.00000000000E+00 -0.23541907493E+03  0.31083405055E+04  0.30994126148E+04 0.  0.
        2    1    3    3  502    0  0.50111035666E+03 -0.22211560560E+03 -0.15714168218E+04  0.16642709394E+04  0.25500000920E-02 0.  1.
       -2    1    3    3    0  502 -0.50111035666E+03  0.22211560560E+03  0.13359977469E+04  0.14440695660E+04  0.25500000920E-02 0. -1.
</event>
<event>
 5   0  0.1235960E-06  0.3143226E+04  0.7818609E-02  0.8203974E-01
        1   -1    0    0  501    0  0.00000000000E+00  0.00000000000E+00  0.17540510752E+04  0.17540510752E+04  0.50400001928E-02 0. -1.
       -1   -1    0    0    0  501  0.00000000000E+00  0.00000000000E+00 -0.14081499508E+04  0.14081499508E+04  0.50400001928E-02 0.  1.
    10030    2    1    2    0    0  0.00000000000E+00  0.00000000000E+00  0.34590112438E+03  0.31622010260E+04  0.31432256905E+04 0.  0.
        4    1    3    3  502    0 -0.27407262145E+03  0.14258946700E+04 -0.43207329607E+03  0.15149192579E+04  0.12699999809E+01 0.  1.
       -4    1    3    3    0  502  0.27407262145E+03 -0.14258946700E+04  0.77797442045E+03  0.16472817681E+04  0.12699999809E+01 0. -1.
</event>
<event>
 5   0  0.1235960E-06  0.2987927E+04  0.7818609E-02  0.8247187E-01
       -1   -1    0    0    0  501  0.00000000000E+00  0.00000000000E+00  0.15312152983E+04  0.15312152983E+04  0.50400001928E-02 0.  1.
        1   -1    0    0  501    0  0.00000000000E+00  0.00000000000E+00 -0.14576177335E+04  0.14576177335E+04  0.50400001928E-02 0. -1.
    10030    2    1    2    0    0  0.00000000000E+00  0.00000000000E+00  0.73597564827E+02  0.29888330318E+04  0.29879267545E+04 0.  0.
        4    1    3    3  502    0  0.65495259482E+03 -0.11429449421E+03 -0.13014780166E+04  0.14614625461E+04  0.12699999809E+01 0. -1.
       -4    1    3    3    0  502 -0.65495259482E+03  0.11429449421E+03  0.13750755815E+04  0.15273704857E+04  0.12699999809E+01 0.  1.
</event>
<event>
 5   0  0.3445959E-06  0.3073595E+04  0.7818609E-02  0.8223022E-01
       -2   -1    0    0    0  501  0.00000000000E+00  0.00000000000E+00  0.17909994644E+04  0.17909994644E+04  0.25500000920E-02 0.  1.
        2   -1    0    0  501    0  0.00000000000E+00  0.00000000000E+00 -0.13186750079E+04  0.13186750079E+04  0.25500000920E-02 0. -1.
    10030    2    1    2    0    0  0.00000000000E+00  0.00000000000E+00  0.47232445652E+03  0.31096744723E+04  0.30735947897E+04 0.  0.
        4    1    3    3  502    0 -0.11766162889E+04  0.37090288840E+03  0.11632978457E+04  0.16956586728E+04  0.12699999809E+01 0.  1.
       -4    1    3    3    0  502  0.11766162889E+04 -0.37090288840E+03 -0.69097338916E+03  0.14140157995E+04  0.12699999809E+01 0. -1.
</event>
<event>
 5   0  0.1211008E-06  0.3104839E+04  0.7818609E-02  0.8214411E-01
        1   -1    0    0  501    0  0.00000000000E+00  0.00000000000E+00  0.14912755238E+04  0.14912755238E+04  0.50400001928E-02 0. -1.
       -1   -1    0    0    0  501  0.00000000000E+00  0.00000000000E+00 -0.16160705211E+04  0.16160705211E+04  0.50400001928E-02 0.  1.
    10030    2    1    2    0    0  0.00000000000E+00  0.00000000000E+00 -0.12479499736E+03  0.31073460449E+04  0.31048390701E+04 0.  0.
        3    1    3    3  502    0 -0.11039781229E+04  0.52034189022E+03  0.89779524022E+03  0.15151104522E+04  0.10100000352E+00 0. -1.
       -3    1    3    3    0  502  0.11039781229E+04 -0.52034189022E+03 -0.10225902376E+04  0.15922355928E+04  0.10100000352E+00 0.  1.
</event>
<event>
 5   0  0.1171915E-06  0.3114480E+04  0.7818609E-02  0.8211775E-01
       -1   -1    0    0    0  501  0.00000000000E+00  0.00000000000E+00  0.14223894672E+04  0.14223894672E+04  0.50400001928E-02 0.  1.
        1   -1    0    0  501    0  0.00000000000E+00  0.00000000000E+00 -0.17048755062E+04  0.17048755063E+04  0.50400001928E-02 0. -1.
    10030    2    1    2    0    0  0.00000000000E+00  0.00000000000E+00 -0.28248603902E+03  0.31272649735E+04  0.31144803503E+04 0.  0.
        2    1    3    3  502    0 -0.13892438820E+04 -0.64610507812E+03  0.13837203032E+03  0.15383748419E+04  0.25500000920E-02 0.  1.
       -2    1    3    3    0  502  0.13892438820E+04  0.64610507812E+03 -0.42085806934E+03  0.15888901315E+04  0.25500000920E-02 0. -1.
</event>
<event>
 5   0  0.3340899E-06  0.3104902E+04  0.7818609E-02  0.8214394E-01
        2   -1    0    0  501    0  0.00000000000E+00  0.00000000000E+00  0.27528978639E+04  0.27528978639E+04  0.25500000920E-02 0.  1.
       -2   -1    0    0    0  501  0.00000000000E+00  0.00000000000E+00 -0.87547882542E+03  0.87547882542E+03  0.25500000920E-02 0. -1.
    10030    2    1    2    0    0  0.00000000000E+00  0.00000000000E+00  0.18774190385E+04  0.36283766893E+04  0.31049017945E+04 0.  0.
        3    1    3    3  502    0  0.13769891958E+04  0.71373114199E+03  0.85951705201E+03  0.17732120463E+04  0.10100000352E+00 0.  1.
       -3    1    3    3    0  502 -0.13769891958E+04 -0.71373114199E+03  0.10179019865E+04  0.18551646430E+04  0.10100000352E+00 0. -1.
</event>
<event>
 5   0  0.3340899E-06  0.3088681E+04  0.7818609E-02  0.8218851E-01
       -2   -1    0    0    0  501  0.00000000000E+00  0.00000000000E+00  0.14566871273E+04  0.14566871274E+04  0.25500000920E-02 0. -1.
        2   -1    0    0  501    0  0.00000000000E+00  0.00000000000E+00 -0.16372683506E+04  0.16372683506E+04  0.25500000920E-02 0.  1.
    10030    2    1    2    0    0  0.00000000000E+00  0.00000000000E+00 -0.18058122326E+03  0.30939554780E+04  0.30886810974E+04 0.  0.
        3    1    3    3  502    0 -0.11035501117E+04 -0.47267670512E+03  0.88283194626E+03  0.14901806509E+04  0.10100000352E+00 0. -1.
       -3    1    3    3    0  502  0.11035501117E+04  0.47267670512E+03 -0.10634131695E+04  0.16037748271E+04  0.10100000352E+00 0.  1.
</event>
<event>
 5   0  0.3445959E-06  0.3082541E+04  0.7818609E-02  0.8220546E-01
        2   -1    0    0  501    0  0.00000000000E+00  0.00000000000E+00  0.20170874549E+04  0.20170874549E+04  0.25500000920E-02 0. -1.
       -2   -1    0    0    0  501  0.00000000000E+00  0.00000000000E+00 -0.11776951069E+04  0.11776951069E+04  0.25500000920E-02 0.  1.
    10030    2    1    2    0    0  0.00000000000E+00  0.00000000000E+00  0.83939234803E+03  0.31947825618E+04  0.30825405275E+04 0.  0.
        4    1    3    3  502    0  0.70106396070E+03 -0.13712662842E+04  0.35707668789E+03  0.15809387317E+04  0.12699999809E+01 0.  1.
       -4    1    3    3    0  502 -0.70106396070E+03  0.13712662842E+04  0.48231566013E+03  0.16138438302E+04  0.12699999809E+01 0. -1.
</event>
<event>
 5   0  0.1198763E-06  0.3177089E+04  0.7818609E-02  0.8194894E-01
       -1   -1    0    0    0  501  0.00000000000E+00  0.00000000000E+00  0.15535360042E+04  0.15535360042E+04  0.50400001928E-02 0.  1.
        1   -1    0    0  501    0  0.00000000000E+00  0.00000000000E+00 -0.16243414834E+04  0.16243414834E+04  0.50400001928E-02 0. -1.
    10030    2    1    2    0    0  0.00000000000E+00  0.00000000000E+00 -0.70805479199E+02  0.31778774876E+04  0.31770885902E+04 0.  0.
        1    1    3    3  502    0 -0.80858599893E+03  0.82921143893E+02 -0.14005807312E+04  0.16193559270E+04  0.50400001928E-02 0. -1.
       -1    1    3    3    0  502  0.80858599893E+03 -0.82921143893E+02  0.13297752520E+04  0.15585215605E+04  0.50400001928E-02 0.  1.
</event>
<event>
 5   0  0.3445959E-06  0.3090415E+04  0.7818609E-02  0.8218373E-01
        2   -1    0    0  501    0  0.00000000000E+00  0.00000000000E+00  0.11356535066E+04  0.11356535066E+04  0.25500000920E-02 0.  1.
       -2   -1    0    0    0  501  0.00000000000E+00  0.00000000000E+00 -0.21024596589E+04  0.21024596589E+04  0.25500000920E-02 0. -1.
    10030    2    1    2    0    0  0.00000000000E+00  0.00000000000E+00 -0.96680615235E+03  0.32381131655E+04  0.30904146545E+04 0.  0.
        4    1    3    3  502    0  0.15308440467E+03  0.37959084314E+03  0.10778217597E+04  0.11529203796E+04  0.12699999809E+01 0.  1.
       -4    1    3    3    0  502 -0.15308440467E+03 -0.37959084314E+03 -0.20446279120E+04  0.20851927860E+04  0.12699999809E+01 0. -1.
</event>
<event>
 5   0  0.1211008E-06  0.2940913E+04  0.7818609E-02  0.8260808E-01
        1   -1    0    0  501    0  0.00000000000E+00  0.00000000000E+00  0.19478376997E+04  0.19478376997E+04  0.50400001928E-02 0.  1.
       -1   -1    0    0    0  501  0.00000000000E+00  0.00000000000E+00 -0.11100733163E+04  0.11100733163E+04  0.50400001928E-02 0. -1.
    10030    2    1    2    0    0  0.00000000000E+00  0.00000000000E+00  0.83776438337E+03  0.30579110160E+04  0.29409132289E+04 0.  0.
        3    1    3    3  502    0 -0.77511062189E+03  0.12464921822E+04  0.32762142954E+03  0.15039531401E+04  0.10100000352E+00 0. -1.
       -3    1    3    3    0  502  0.77511062189E+03 -0.12464921822E+04  0.51014295383E+03  0.15539578759E+04  0.10100000352E+00 0.  1.
</event>
<event>
 5   0  0.3340899E-06  0.2500982E+04  0.7818609E-02  0.8402636E-01
        2   -1    0    0  501    0  0.00000000000E+00  0.00000000000E+00  0.13563578060E+04  0.13563578060E+04  0.25500000920E-02 0.  1.
       -2   -1    0    0    0  501  0.00000000000E+00  0.00000000000E+00 -0.11528870829E+04  0.11528870829E+04  0.25500000920E-02 0. -1.
    10030    2    1    2    0    0  0.00000000000E+00  0.00000000000E+00  0.20347072308E+03  0.25092448889E+04  0.25009817227E+04 0.  0.
        3    1    3    3  502    0  0.72367913019E+03  0.81926004086E+03 -0.50758402164E+03  0.12052136936E+04  0.10100000352E+00 0. -1.
       -3    1    3    3    0  502 -0.72367913019E+03 -0.81926004086E+03  0.71105474472E+03  0.13040311953E+04  0.10100000352E+00 0.  1.
</event>
<event>
 5   0  0.3340899E-06  0.3115661E+04  0.7818609E-02  0.8211453E-01
       -2   -1    0    0    0  501  0.00000000000E+00  0.00000000000E+00  0.14374559005E+04  0.14374559005E+04  0.25500000920E-02 0. -1.
        2   -1    0    0  501    0  0.00000000000E+00  0.00000000000E+00 -0.16882854229E+04  0.16882854229E+04  0.25500000920E-02 0.  1.
    10030    2    1    2    0    0  0.00000000000E+00  0.00000000000E+00 -0.25082952239E+03  0.31257413234E+04  0.31156609847E+04 0.  0.
        3    1    3    3  502    0  0.43204580237E+02  0.13608664410E+04  0.63400972034E+03  0.15019295728E+04  0.10100000352E+00 0. -1.
       -3    1    3    3    0  502 -0.43204580237E+02 -0.13608664410E+04 -0.88483924273E+03  0.16238117507E+04  0.10100000352E+00 0.  1.
</event>
<event>
 5   0  0.1198763E-06  0.2982795E+04  0.7818609E-02  0.8248661E-01
       -1   -1    0    0    0  501  0.00000000000E+00  0.00000000000E+00  0.11166913063E+04  0.11166913063E+04  0.50400001928E-02 0.  1.
        1   -1    0    0  501    0  0.00000000000E+00  0.00000000000E+00 -0.19918370460E+04  0.19918370460E+04  0.50400001928E-02 0. -1.
    10030    2    1    2    0    0  0.00000000000E+00  0.00000000000E+00 -0.87514573974E+03  0.31085283523E+04  0.29827954089E+04 0.  0.
        1    1    3    3  502    0  0.23839941284E+03 -0.49704956615E+02  0.10958309151E+04  0.11225641440E+04  0.50400001928E-02 0.  1.
       -1    1    3    3    0  502 -0.23839941284E+03  0.49704956615E+02 -0.19709766549E+04  0.19859642083E+04  0.50400001928E-02 0. -1.
</event>
<event>
 5   0  0.1198763E-06  0.3094521E+04  0.7818609E-02  0.8217243E-01
        1   -1    0    0  501    0  0.00000000000E+00  0.00000000000E+00  0.13973572258E+04  0.13973572258E+04  0.50400001928E-02 0.  1.
       -1   -1    0    0    0  501  0.00000000000E+00  0.00000000000E+00 -0.17132443688E+04  0.17132443688E+04  0.50400001928E-02 0. -1.
    10030    2    1    2    0    0  0.00000000000E+00  0.00000000000E+00 -0.31588714294E+03  0.31106015946E+04  0.30945205757E+04 0.  0.
        1    1    3    3  502    0  0.43357736647E+03 -0.19860611765E+03  0.13216364151E+04  0.14050468093E+04  0.50400001928E-02 0.  1.
       -1    1    3    3    0  502 -0.43357736647E+03  0.19860611765E+03 -0.16375235580E+04  0.17055547853E+04  0.50400001928E-02 0. -1.
</event>
<event>
 5   0  0.3445410E-06  0.3100484E+04  0.7818609E-02  0.8215605E-01
        2   -1    0    0  501    0  0.00000000000E+00  0.00000000000E+00  0.18314061147E+04  0.18314061147E+04  0.25500000920E-02 0.  1.
       -2   -1    0    0    0  501  0.00000000000E+00  0.00000000000E+00 -0.13122433904E+04  0.13122433904E+04  0.25500000920E-02 0. -1.
    10030    2    1    2    0    0  0.00000000000E+00  0.00000000000E+00  0.51916272426E+03  0.31436495051E+04  0.31004842003E+04 0.  0.
        1    1    3    3  502    0  0.13416106319E+03 -0.10783152167E+04 -0.86147343321E+03  0.13866864727E+04  0.50400001928E-02 0. -1.
       -1    1    3    3    0  502 -0.13416106319E+03  0.10783152167E+04  0.13806361575E+04  0.17569630323E+04  0.50400001928E-02 0.  1.
</event>
<event>
 5   0  0.1235960E-06  0.3215613E+04  0.7818609E-02  0.8184706E-01
        1   -1    0    0  501    0  0.00000000000E+00  0.00000000000E+00  0.18431333229E+04  0.18431333229E+04  0.50400001928E-02 0.  1.
       -1   -1    0    0    0  501  0.00000000000E+00  0.00000000000E+00 -0.14025256087E+04  0.14025256087E+04  0.50400001928E-02 0. -1.
    10030    2    1    2    0    0  0.00000000000E+00  0.00000000000E+00  0.44060771428E+03  0.32456589316E+04  0.32156129653E+04 0.  0.
        4    1    3    3  502    0  0.56735575772E+02  0.16020663233E+04  0.95844594778E+02  0.16059337561E+04  0.12699999809E+01 0. -1.
       -4    1    3    3    0  502 -0.56735575772E+02 -0.16020663233E+04  0.34476311950E+03  0.16397251755E+04  0.12699999809E+01 0.  1.
</event>
<event>
 5   0  0.3441897E-06  0.3023431E+04  0.7818609E-02  0.8237072E-01
        2   -1    0    0  501    0  0.00000000000E+00  0.00000000000E+00  0.20558432657E+04  0.20558432657E+04  0.25500000920E-02 0. -1.
       -2   -1    0    0    0  501  0.00000000000E+00  0.00000000000E+00 -0.11116040899E+04  0.11116040899E+04  0.25500000920E-02 0.  1.
    10030    2    1    2    0    0  0.00000000000E+00  0.00000000000E+00  0.94423917580E+03  0.31674473556E+04  0.30234310195E+04 0.  0.
        5    1    3    3  502    0 -0.62628525252E+03 -0.18936665996E+03  0.18998132244E+04  0.20093295715E+04  0.46999998093E+01 0. -1.
       -5    1    3    3    0  502  0.62628525252E+03  0.18936665996E+03 -0.95557404861E+03  0.11581177841E+04  0.46999998093E+01 0.  1.
</event>
<event>
 5   0  0.1171915E-06  0.2923588E+04  0.7818609E-02  0.8265894E-01
       -1   -1    0    0    0  501  0.00000000000E+00  0.00000000000E+00  0.12153327463E+04  0.12153327463E+04  0.50400001928E-02 0. -1.
        1   -1    0    0  501    0  0.00000000000E+00  0.00000000000E+00 -0.17582357764E+04  0.17582357764E+04  0.50400001928E-02 0.  1.
    10030    2    1    2    0    0  0.00000000000E+00  0.00000000000E+00 -0.54290303004E+03  0.29735685227E+04  0.29235878744E+04 0.  0.
        2    1    3    3  502    0 -0.11520862410E+03 -0.35760827323E+03  0.11653863841E+04  0.12244517665E+04  0.25500000920E-02 0. -1.
       -2    1    3    3    0  502  0.11520862410E+03  0.35760827323E+03 -0.17082894142E+04  0.17491167562E+04  0.25500000920E-02 0.  1.
</event>
<event>
 5   0  0.1250276E-06  0.2996428E+04  0.7818609E-02  0.8244752E-01
       -1   -1    0    0    0  501  0.00000000000E+00  0.00000000000E+00  0.12826938049E+04  0.12826938049E+04  0.50400001928E-02 0. -1.
        1   -1    0    0  501    0  0.00000000000E+00  0.00000000000E+00 -0.17499464634E+04  0.17499464634E+04  0.50400001928E-02 0.  1.
    10030    2    1    2    0    0  0.00000000000E+00  0.00000000000E+00 -0.46725265854E+03  0.30326402683E+04  0.29964281987E+04 0.  0.
        5    1    3    3  502    0  0.28084979677E+03 -0.21893273088E+03  0.12392322790E+04  0.12893901196E+04  0.46999998093E+01 0. -1.
       -5    1    3    3    0  502 -0.28084979677E+03  0.21893273088E+03 -0.17064849376E+04  0.17432501488E+04  0.46999998093E+01 0.  1.
</event>
<event>
 5   0  0.1198763E-06  0.3099531E+04  0.7818609E-02  0.8215867E-01
       -1   -1    0    0    0  501  0.00000000000E+00  0.00000000000E+00  0.13887576764E+04  0.13887576764E+04  0.50400001928E-02 0. -1.
        1   -1    0    0  501    0  0.00000000000E+00  0.00000000000E+00 -0.17294395236E+04  0.17294395236E+04  0.50400001928E-02 0.  1.
    10030    2    1    2    0    0  0.00000000000E+00  0.00000000000E+00 -0.34068184727E+03  0.31181972000E+04  0.30995305543E+04 0.  0.
        1    1    3    3  502    0  0.13080374983E+04 -0.12595400935E+03 -0.99683955496E+03  0.16493985594E+04  0.50400001928E-02 0.  1.
       -1    1    3    3    0  502 -0.13080374983E+04  0.12595400935E+03  0.65615770769E+03  0.14687986406E+04  0.50400001928E-02 0. -1.
</event>
<event>
 5   0  0.3441897E-06  0.3090101E+04  0.7818609E-02  0.8218460E-01
        2   -1    0    0  501    0  0.00000000000E+00  0.00000000000E+00  0.15569494049E+04  0.15569494049E+04  0.25500000920E-02 0. -1.
       -2   -1    0    0    0  501  0.00000000000E+00  0.00000000000E+00 -0.15332424979E+04  0.15332424979E+04  0.25500000920E-02 0.  1.
    10030    2    1    2    0    0  0.00000000000E+00  0.00000000000E+00  0.23706907082E+02  0.30901919028E+04  0.30901009658E+04 0.  0.
        5    1    3    3  502    0  0.13919176017E+04  0.66854607505E+03 -0.40783068463E+02  0.15446921418E+04  0.46999998093E+01 0.  1.
       -5    1    3    3    0  502 -0.13919176017E+04 -0.66854607505E+03  0.64489975546E+02  0.15454997610E+04  0.46999998093E+01 0. -1.
</event>
<event>
 5   0  0.1171915E-06  0.3097318E+04  0.7818609E-02  0.8216474E-01
        1   -1    0    0  501    0  0.00000000000E+00  0.00000000000E+00  0.17425171967E+04  0.17425171967E+04  0.50400001928E-02 0.  1.
       -1   -1    0    0    0  501  0.00000000000E+00  0.00000000000E+00 -0.13763675876E+04  0.13763675876E+04  0.50400001928E-02 0. -1.
    10030    2    1    2    0    0  0.00000000000E+00  0.00000000000E+00  0.36614960912E+03  0.31188847843E+04  0.30973176721E+04 0.  0.
        2    1    3    3  502    0  0.10301281378E+04 -0.88349513939E+03  0.93433717863E+03  0.16476387969E+04  0.25500000920E-02 0.  1.
       -2    1    3    3    0  502 -0.10301281378E+04  0.88349513939E+03 -0.56818756951E+03  0.14712459875E+04  0.25500000920E-02 0. -1.
</event>
<event>
 5   0  0.1211008E-06  0.2804135E+04  0.7818609E-02  0.8301986E-01
        1   -1    0    0  501    0  0.00000000000E+00  0.00000000000E+00  0.12602517996E+04  0.12602517996E+04  0.50400001928E-02 0. -1.
       -1   -1    0    0    0  501  0.00000000000E+00  0.00000000000E+00 -0.15598418101E+04  0.15598418101E+04  0.50400001928E-02 0.  1.
    10030    2    1    2    0    0  0.00000000000E+00  0.00000000000E+00 -0.29959001056E+03  0.28200936097E+04  0.28041351239E+04 0.  0.
        3    1    3    3  502    0  0.55815144985E+03  0.12848378448E+04 -0.90705971959E+02  0.14037695366E+04  0.10100000352E+00 0.  1.
       -3    1    3    3    0  502 -0.55815144985E+03 -0.12848378448E+04 -0.20888403860E+03  0.14163240731E+04  0.10100000352E+00 0. -1.
</event>
<event>
 5   0  0.3340899E-06  0.3013405E+04  0.7818609E-02  0.8239913E-01
        2   -1    0    0  501    0  0.00000000000E+00  0.00000000000E+00  0.11899467030E+04  0.11899467030E+04  0.25500000920E-02 0. -1.
       -2   -1    0    0    0  501  0.00000000000E+00  0.00000000000E+00 -0.19077762952E+04  0.19077762952E+04  0.25500000920E-02 0.  1.
    10030    2    1    2    0    0  0.00000000000E+00  0.00000000000E+00 -0.71782959220E+03  0.30977229982E+04  0.30134047937E+04 0.  0.
        3    1    3    3  502    0  0.14471279548E+04  0.32409484868E+03 -0.85125571014E+02  0.14854168309E+04  0.10100000352E+00 0. -1.
       -3    1    3    3    0  502 -0.14471279548E+04 -0.32409484868E+03 -0.63270402118E+03  0.16123061673E+04  0.10100000352E+00 0.  1.
</event>
<event>
 5   0  0.3441897E-06  0.3068415E+04  0.7818609E-02  0.8224460E-01
       -2   -1    0    0    0  501  0.00000000000E+00  0.00000000000E+00  0.14657204739E+04  0.14657204739E+04  0.25500000920E-02 0.  1.
        2   -1    0    0  501    0  0.00000000000E+00  0.00000000000E+00 -0.16058945937E+04  0.16058945937E+04  0.25500000920E-02 0. -1.
    10030    2    1    2    0    0  0.00000000000E+00  0.00000000000E+00 -0.14017411976E+03  0.30716150676E+04  0.30684149555E+04 0.  0.
        5    1    3    3  502    0 -0.25360397275E+03 -0.31722617820E+01 -0.15847564511E+04  0.16049299479E+04  0.46999998093E+01 0. -1.
       -5    1    3    3    0  502  0.25360397275E+03  0.31722617820E+01  0.14445823314E+04  0.14666851197E+04  0.46999998093E+01 0.  1.
</event>
<event>
 5   0  0.3445410E-06  0.2520586E+04  0.7818609E-02  0.8395688E-01
        2   -1    0    0  501    0  0.00000000000E+00  0.00000000000E+00  0.10832867434E+04  0.10832867434E+04  0.25500000920E-02 0.  1.
       -2   -1    0    0    0  501  0.00000000000E+00  0.00000000000E+00 -0.14662218538E+04  0.14662218538E+04  0.25500000920E-02 0. -1.
    10030    2    1    2    0    0  0.00000000000E+00  0.00000000000E+00 -0.38293511039E+03  0.25495085972E+04  0.25205861994E+04 0.  0.
        1    1    3    3  502    0 -0.33740030069E+01 -0.10492733974E+04  0.51464932373E+03  0.11686958428E+04  0.50400001928E-02 0.  1.
       -1    1    3    3    0  502  0.33740030069E+01  0.10492733974E+04 -0.89758443412E+03  0.13808127545E+04  0.50400001928E-02 0. -1.
</event>
<event>
 5   0  0.1235960E-06  0.3087155E+04  0.7818609E-02  0.8219272E-01
        1   -1    0    0  501    0  0.00000000000E+00  0.00000000000E+00  0.18897299976E+04  0.18897299976E+04  0.50400001928E-02 0.  1.
       -1   -1    0    0    0  501  0.00000000000E+00  0.00000000000E+00 -0.12608313501E+04  0.12608313501E+04  0.50400001928E-02 0. -1.
    10030    2    1    2    0    0  0.00000000000E+00  0.00000000000E+00  0.62889864756E+03  0.31505613477E+04  0.30871545631E+04 0.  0.
        4    1    3    3  502    0  0.12255521862E+04  0.57163800958E+03 -0.44506822888E+03  0.14236697357E+04  0.12699999809E+01 0. -1.
       -4    1    3    3    0  502 -0.12255521862E+04 -0.57163800958E+03  0.10739668764E+04  0.17268916120E+04  0.12699999809E+01 0.  1.
</event>
<event>
 5   0  0.1250276E-06  0.2709218E+04  0.7818609E-02  0.8332020E-01
        1   -1    0    0  501    0  0.00000000000E+00  0.00000000000E+00  0.11385141171E+04  0.11385141171E+04  0.50400001928E-02 0.  1.
       -1   -1    0    0    0  501  0.00000000000E+00  0.00000000000E+00 -0.16117198342E+04  0.16117198342E+04  0.50400001928E-02 0. -1.
    10030    2    1    2    0    0  0.00000000000E+00  0.00000000000E+00 -0.47320571704E+03  0.27502339513E+04  0.27092181780E+04 0.  0.
        5    1    3    3  502    0  0.11375591110E+04  0.72898457230E+03 -0.13774029191E+03  0.13581066658E+04  0.46999998093E+01 0.  1.
       -5    1    3    3    0  502 -0.11375591110E+04 -0.72898457230E+03 -0.33546542512E+03  0.13921272855E+04  0.46999998093E+01 0. -1.
</event>
<event>
 5   0  0.1211008E-06  0.3085482E+04  0.7818609E-02  0.8219734E-01
       -1   -1    0    0    0  501  0.00000000000E+00  0.00000000000E+00  0.14103772931E+04  0.14103772932E+04  0.50400001928E-02 0.  1.
        1   -1    0    0  501    0  0.00000000000E+00  0.00000000000E+00 -0.16875271763E+04  0.16875271763E+04  0.50400001928E-02 0. -1.
    10030    2    1    2    0    0  0.00000000000E+00  0.00000000000E+00 -0.27714988318E+03  0.30979044695E+04  0.30854821413E+04 0.  0.
        3    1    3    3  502    0 -0.38626787619E+03 -0.26923490876E+03 -0.16136254620E+04  0.16809156582E+04  0.10100000352E+00 0. -1.
       -3    1    3    3    0  502  0.38626787619E+03  0.26923490876E+03  0.13364755788E+04  0.14169888113E+04  0.10100000352E+00 0.  1.
</event>
<event>
 5   0  0.3374790E-06  0.3076517E+04  0.7818609E-02  0.8222212E-01
       -2   -1    0    0    0  501  0.00000000000E+00  0.00000000000E+00  0.12222554893E+04  0.12222554893E+04  0.25500000920E-02 0. -1.
        2   -1    0    0  501    0  0.00000000000E+00  0.00000000000E+00 -0.19359610080E+04  0.19359610080E+04  0.25500000920E-02 0.  1.
    10030    2    1    2    0    0  0.00000000000E+00  0.00000000000E+00 -0.71370551873E+03  0.31582164973E+04  0.30765168416E+04 0.  0.
        2    1    3    3  502    0  0.87438941653E+02  0.89182541351E+02 -0.19307473779E+04  0.19347828125E+04  0.25500000920E-02 0.  1.
       -2    1    3    3    0  502 -0.87438941653E+02 -0.89182541351E+02  0.12170418592E+04  0.12234336848E+04  0.25500000920E-02 0. -1.
</event>
<event>
 5   0  0.1211008E-06  0.3079806E+04  0.7818609E-02  0.8221302E-01
       -1   -1    0    0    0  501  0.00000000000E+00  0.00000000000E+00  0.13362314918E+04  0.13362314918E+04  0.50400001928E-02 0.  1.
        1   -1    0    0  501    0  0.00000000000E+00  0.00000000000E+00 -0.17746191514E+04  0.17746191514E+04  0.50400001928E-02 0. -1.
    10030    2    1    2    0    0  0.00000000000E+00  0.00000000000E+00 -0.43838765961E+03  0.31108506432E+04  0.30798064849E+04 0.  0.
        3    1    3    3  502    0  0.31207958362E+03  0.11946953709E+04  0.71019566506E+03  0.14244537861E+04  0.10100000352E+00 0. -1.
       -3    1    3    3    0  502 -0.31207958362E+03 -0.11946953709E+04 -0.11485833247E+04  0.16863968571E+04  0.10100000352E+00 0.  1.
</event>
<event>
 5   0  0.1171915E-06  0.3104345E+04  0.7818609E-02  0.8214546E-01
        1   -1    0    0  501    0  0.00000000000E+00  0.00000000000E+00  0.22988892356E+04  0.22988892356E+04  0.50400001928E-02 0.  1.
       -1   -1    0    0    0  501  0.00000000000E+00  0.00000000000E+00 -0.10480018483E+04  0.10480018483E+04  0.50400001928E-02 0. -1.
    10030    2    1    2    0    0  0.00000000000E+00  0.00000000000E+00  0.12508873873E+04  0.33468910840E+04  0.31043454499E+04 0.  0.
        2    1    3    3  502    0 -0.95560099194E+03  0.24390356069E+03  0.19176627362E+04  0.21564073299E+04  0.25500000920E-02 0.  1.
       -2    1    3    3    0  502  0.95560099194E+03 -0.24390356069E+03 -0.66677534889E+03  0.11904837540E+04  0.25500000920E-02 0. -1.
</event>
<event>
 5   0  0.1235960E-06  0.3119984E+04  0.7818609E-02  0.8210275E-01
       -1   -1    0    0    0  501  0.00000000000E+00  0.00000000000E+00  0.16271064983E+04  0.16271064983E+04  0.50400001928E-02 0. -1.
        1   -1    0    0  501    0  0.00000000000E+00  0.00000000000E+00 -0.14956460846E+04  0.14956460847E+04  0.50400001928E-02 0.  1.
    10030    2    1    2    0    0  0.00000000000E+00  0.00000000000E+00  0.13146041365E+03  0.31227525830E+04  0.31199842714E+04 0.  0.
        4    1    3    3  502    0  0.16293933232E+03 -0.35811862624E+03 -0.14451706204E+04  0.14977709810E+04  0.12699999809E+01 0.  1.
       -4    1    3    3    0  502 -0.16293933232E+03  0.35811862624E+03  0.15766310340E+04  0.16249816020E+04  0.12699999809E+01 0. -1.
</event>
<event>
 5   0  0.3340899E-06  0.3107424E+04  0.7818609E-02  0.8213703E-01
       -2   -1    0    0    0  501  0.00000000000E+00  0.00000000000E+00  0.13776926727E+04  0.13776926727E+04  0.25500000920E-02 0.  1.
        2   -1    0    0  501    0  0.00000000000E+00  0.00000000000E+00 -0.17522199638E+04  0.17522199638E+04  0.25500000920E-02 0. -1.
    10030    2    1    2    0    0  0.00000000000E+00  0.00000000000E+00 -0.37452729118E+03  0.31299126365E+04  0.31074237594E+04 0.  0.
        3    1    3    3  502    0 -0.26950472398E+03  0.90970445122E+03  0.10520169725E+04  0.14166632293E+04  0.10100000352E+00 0.  1.
       -3    1    3    3    0  502  0.26950472398E+03 -0.90970445122E+03 -0.14265442636E+04  0.17132494072E+04  0.10100000352E+00 0. -1.
</event>
<event>
 5   0  0.3340899E-06  0.3096006E+04  0.7818609E-02  0.8216835E-01
        2   -1    0    0  501    0  0.00000000000E+00  0.00000000000E+00  0.21188195249E+04  0.21188195249E+04  0.25500000920E-02 0. -1.
       -2   -1    0    0    0  501  0.00000000000E+00  0.00000000000E+00 -0.11309658712E+04  0.11309658712E+04  0.25500000920E-02 0.  1.
    10030    2    1    2    0    0  0.00000000000E+00  0.00000000000E+00  0.98785365373E+03  0.32497853961E+04  0.30960055361E+04 0.  0.
        3    1    3    3  502    0  0.29725952895E+03 -0.13110504017E+04  0.12995761676E+04  0.18697899906E+04  0.10100000352E+00 0. -1.
       -3    1    3    3    0  502 -0.29725952895E+03  0.13110504017E+04 -0.31172251383E+03  0.13799954055E+04  0.10100000352E+00 0.  1.
</event>
<event>
 5   0  0.1171915E-06  0.3569015E+04  0.7818609E-02  0.8097626E-01
        1   -1    0    0  501    0  0.00000000000E+00  0.00000000000E+00  0.11348168540E+04  0.11348168540E+04  0.50400001928E-02 0. -1.
       -1   -1    0    0    0  501  0.00000000000E+00  0.00000000000E+00 -0.28061500875E+04  0.28061500875E+04  0.50400001928E-02 0.  1.
    10030    2    1    2    0    0  0.00000000000E+00  0.00000000000E+00 -0.16713332334E+04  0.39409669415E+04  0.35690146619E+04 0.  0.
        2    1    3    3  502    0  0.86519862121E+03  0.13848050333E+04 -0.40773897149E+02  0.16333756901E+04  0.25500000920E-02 0.  1.
       -2    1    3    3    0  502 -0.86519862121E+03 -0.13848050333E+04 -0.16305593363E+04  0.23075912514E+04  0.25500000920E-02 0. -1.
</event>
<event>
 5   0  0.1250276E-06  0.3087091E+04  0.7818609E-02  0.8219290E-01
       -1   -1    0    0    0  501  0.00000000000E+00  0.00000000000E+00  0.10813346172E+04  0.10813346172E+04  0.50400001928E-02 0.  1.
        1   -1    0    0  501    0  0.00000000000E+00  0.00000000000E+00 -0.22033260172E+04  0.22033260173E+04  0.50400001928E-02 0. -1.
    10030    2    1    2    0    0  0.00000000000E+00  0.00000000000E+00 -0.11219914001E+04  0.32846606344E+04  0.30870909902E+04 0.  0.
        5    1    3    3  502    0  0.60394428069E+01  0.55508851397E+03 -0.20934311308E+04  0.21657875525E+04  0.46999998093E+01 0. -1.
       -5    1    3    3    0  502 -0.60394428069E+01 -0.55508851397E+03  0.97143973068E+03  0.11188730820E+04  0.46999998093E+01 0.  1.
</event>
<event>
 5   0  0.3441897E-06  0.3097179E+04  0.7818609E-02  0.8216512E-01
        2   -1    0    0  501    0  0.00000000000E+00  0.00000000000E+00  0.26150146718E+04  0.26150146718E+04  0.25500000920E-02 0. -1.
       -2   -1    0    0    0  501  0.00000000000E+00  0.00000000000E+00 -0.91706171976E+03  0.91706171977E+03  0.25500000920E-02 0.  1.
    10030    2    1    2    0    0  0.00000000000E+00  0.00000000000E+00  0.16979529520E+04  0.35320763915E+04  0.30971792664E+04 0.  0.
        5    1    3    3  502    0  0.67896635553E+02  0.67166636230E+03  0.24383604991E+04  0.25300928182E+04  0.46999998093E+01 0. -1.
       -5    1    3    3    0  502 -0.67896635553E+02 -0.67166636230E+03 -0.74040754709E+03  0.10019835733E+04  0.46999998093E+01 0.  1.
</event>
<event>
 5   0  0.3445410E-06  0.3079636E+04  0.7818609E-02  0.8221349E-01
       -2   -1    0    0    0  501  0.00000000000E+00  0.00000000000E+00  0.12566867108E+04  0.12566867108E+04  0.25500000920E-02 0. -1.
        2   -1    0    0  501    0  0.00000000000E+00  0.00000000000E+00 -0.18867389039E+04  0.18867389039E+04  0.25500000920E-02 0.  1.
    10030    2    1    2    0    0  0.00000000000E+00  0.00000000000E+00 -0.63005219312E+03  0.31434256147E+04  0.30796361521E+04 0.  0.
        1    1    3    3  502    0  0.10871034549E+04  0.10523380395E+04 -0.60701154717E+03  0.16302368814E+04  0.50400001928E-02 0.  1.
       -1    1    3    3    0  502 -0.10871034549E+04 -0.10523380395E+04 -0.23040645946E+02  0.15131887333E+04  0.50400001928E-02 0. -1.
</event>
<event>
 5   0  0.1109562E-06  0.3103733E+04  0.7818609E-02  0.8214714E-01
        3   -1    0    0  501    0  0.00000000000E+00  0.00000000000E+00  0.13654139924E+04  0.13654139961E+04  0.10100000352E+00 0.  1.
       -3   -1    0    0    0  501  0.00000000000E+00  0.00000000000E+00 -0.17637794337E+04  0.17637794366E+04  0.10100000352E+00 0. -1.
    10030    2    1    2    0    0  0.00000000000E+00  0.00000000000E+00 -0.39836544134E+03  0.31291934327E+04  0.31037326744E+04 0.  0.
        1    1    3    3  502    0  0.13477416401E+04 -0.39710605343E+03 -0.86351782431E+03  0.16491706337E+04  0.50400001928E-02 0. -1.
       -1    1    3    3    0  502 -0.13477416401E+04  0.39710605343E+03  0.46515238297E+03  0.14800227990E+04  0.50400001928E-02 0.  1.
</event>
<event>
 5   0  0.1235960E-06  0.3153270E+04  0.7818609E-02  0.8201269E-01
        1   -1    0    0  501    0  0.00000000000E+00  0.00000000000E+00  0.21862283738E+04  0.21862283738E+04  0.50400001928E-02 0. -1.
       -1   -1    0    0    0  501  0.00000000000E+00  0.00000000000E+00 -0.11370163863E+04  0.11370163863E+04  0.50400001928E-02 0.  1.
    10030    2    1    2    0    0  0.00000000000E+00  0.00000000000E+00  0.10492119875E+04  0.33232447602E+04  0.31532697223E+04 0.  0.
        4    1    3    3  502    0  0.14353840237E+04  0.30171387843E+03 -0.84854534968E+02  0.14692040243E+04  0.12699999809E+01 0.  1.
       -4    1    3    3    0  502 -0.14353840237E+04 -0.30171387843E+03  0.11340665225E+04  0.18540407359E+04  0.12699999809E+01 0. -1.
</event>
<event>
 5   0  0.3445959E-06  0.3091887E+04  0.7818609E-02  0.8217968E-01
       -2   -1    0    0    0  501  0.00000000000E+00  0.00000000000E+00  0.13942755621E+04  0.13942755621E+04  0.25500000920E-02 0.  1.
        2   -1    0    0  501    0  0.00000000000E+00  0.00000000000E+00 -0.17141096163E+04  0.17141096163E+04  0.25500000920E-02 0. -1.
    10030    2    1    2    0    0  0.00000000000E+00  0.00000000000E+00 -0.31983405419E+03  0.31083851784E+04  0.30918868988E+04 0.  0.
        4    1    3    3  502    0  0.50599661032E+03 -0.11912652402E+04 -0.10098833294E+04  0.16416489863E+04  0.12699999809E+01 0. -1.
       -4    1    3    3    0  502 -0.50599661032E+03  0.11912652402E+04  0.69004927519E+03  0.14667361921E+04  0.12699999809E+01 0.  1.
</event>
<event>
 5   0  0.3340899E-06  0.3067280E+04  0.7818609E-02  0.8224776E-01
       -2   -1    0    0    0  501  0.00000000000E+00  0.00000000000E+00  0.21252990674E+04  0.21252990674E+04  0.25500000920E-02 0.  1.
        2   -1    0    0  501    0  0.00000000000E+00  0.00000000000E+00 -0.11066918095E+04  0.11066918095E+04  0.25500000920E-02 0. -1.
    10030    2    1    2    0    0  0.00000000000E+00  0.00000000000E+00  0.10186072578E+04  0.32319908769E+04  0.30672796225E+04 0.  0.
        3    1    3    3  502    0  0.78313286149E+03  0.96262758143E+03  0.14588629018E+04  0.19152623621E+04  0.10100000352E+00 0.  1.
       -3    1    3    3    0  502 -0.78313286149E+03 -0.96262758143E+03 -0.44025564398E+03  0.13167285147E+04  0.10100000352E+00 0. -1.
</event>
<event>
 5   0  0.3441897E-06  0.3112844E+04  0.7818609E-02  0.8212222E-01
       -2   -1    0    0    0  501  0.00000000000E+00  0.00000000000E+00  0.24607658138E+04  0.24607658138E+04  0.25500000920E-02 0.  1.
        2   -1    0    0  501    0  0.00000000000E+00  0.00000000000E+00 -0.98442928754E+03  0.98442928755E+03  0.25500000920E-02 0. -1.
    10030    2    1    2    0    0  0.00000000000E+00  0.00000000000E+00  0.14763365263E+04  0.34451951014E+04  0.31128443179E+04 0.  0.
        5    1    3    3  502    0 -0.12198192244E+04  0.60509210344E+03 -0.96199753248E+02  0.13650537998E+04  0.46999998093E+01 0. -1.
       -5    1    3    3    0  502  0.12198192244E+04 -0.60509210344E+03  0.15725362795E+04  0.20801413016E+04  0.46999998093E+01 0.  1.
</event>
<event>
 5   0  0.3441897E-06  0.3119819E+04  0.7818609E-02  0.8210320E-01
        2   -1    0    0  501    0  0.00000000000E+00  0.00000000000E+00  0.13294075542E+04  0.13294075542E+04  0.25500000920E-02 0. -1.
       -2   -1    0    0    0  501  0.00000000000E+00  0.00000000000E+00 -0.18303769640E+04  0.18303769640E+04  0.25500000920E-02 0.  1.
    10030    2    1    2    0    0  0.00000000000E+00  0.00000000000E+00 -0.50096940986E+03  0.31597845182E+04  0.31198185607E+04 0.  0.
        5    1    3    3  502    0 -0.23256111194E+03  0.14303451196E+04 -0.83522200360E+03  0.16725996883E+04  0.46999998093E+01 0.  1.
       -5    1    3    3    0  502  0.23256111194E+03 -0.14303451196E+04  0.33425259373E+03  0.14871848299E+04  0.46999998093E+01 0. -1.
</event>
<event>
 5   0  0.3441897E-06  0.3095114E+04  0.7818609E-02  0.8217080E-01
        2   -1    0    0  501    0  0.00000000000E+00  0.00000000000E+00  0.12956096500E+04  0.12956096500E+04  0.25500000920E-02 0.  1.
       -2   -1    0    0    0  501  0.00000000000E+00  0.00000000000E+00 -0.18484981791E+04  0.18484981792E+04  0.25500000920E-02 0. -1.
    10030    2    1    2    0    0  0.00000000000E+00  0.00000000000E+00 -0.55288852910E+03  0.31441078292E+04  0.30951136192E+04 0.  0.
        5    1    3    3  502    0  0.22216673725E+03 -0.57675716949E+03 -0.17176708670E+04  0.18254923142E+04  0.46999998093E+01 0. -1.
       -5    1    3    3    0  502 -0.22216673725E+03  0.57675716949E+03  0.11647823379E+04  0.13186155150E+04  0.46999998093E+01 0.  1.
</event>
<event>
 5   0  0.1250276E-06  0.3095214E+04  0.7818609E-02  0.8217053E-01
       -1   -1    0    0    0  501  0.00000000000E+00  0.00000000000E+00  0.18418461103E+04  0.18418461103E+04  0.50400001928E-02 0.  1.
        1   -1    0    0  501    0  0.00000000000E+00  0.00000000000E+00 -0.13003734722E+04  0.13003734722E+04  0.50400001928E-02 0. -1.
    10030    2    1    2    0    0  0.00000000000E+00  0.00000000000E+00  0.54147263809E+03  0.31422195825E+04  0.30952142554E+04 0.  0.
        5    1    3    3  502    0  0.10842031324E+04  0.10116513864E+04  0.72032843053E+03  0.16485842708E+04  0.46999998093E+01 0.  1.
       -5    1    3    3    0  502 -0.10842031324E+04 -0.10116513864E+04 -0.17885579244E+03  0.14936353117E+04  0.46999998093E+01 0. -1.
</event>
<event>
 5   0  0.3445410E-06  0.3081346E+04  0.7818609E-02  0.8220876E-01
        2   -1    0    0  501    0  0.00000000000E+00  0.00000000000E+00  0.15162030142E+04  0.15162030142E+04  0.25500000920E-02 0. -1.
       -2   -1    0    0    0  501  0.00000000000E+00  0.00000000000E+00 -0.15655379419E+04  0.15655379419E+04  0.25500000920E-02 0.  1.
    10030    2    1    2    0    0  0.00000000000E+00  0.00000000000E+00 -0.49334927686E+02  0.30817409561E+04  0.30813460346E+04 0.  0.
        1    1    3    3  502    0 -0.13485796383E+03  0.12645215635E+04  0.84519793403E+03  0.15269449901E+04  0.50400001928E-02 0. -1.
       -1    1    3    3    0  502  0.13485796383E+03 -0.12645215635E+04 -0.89453286172E+03  0.15547959660E+04  0.50400001928E-02 0.  1.
</event>
<event>
 5   0  0.1171915E-06  0.3140119E+04  0.7818609E-02  0.8204813E-01
       -1   -1    0    0    0  501  0.00000000000E+00  0.00000000000E+00  0.15813817881E+04  0.15813817881E+04  0.50400001928E-02 0. -1.
        1   -1    0    0  501    0  0.00000000000E+00  0.00000000000E+00 -0.15588182017E+04  0.15588182017E+04  0.50400001928E-02 0.  1.
    10030    2    1    2    0    0  0.00000000000E+00  0.00000000000E+00  0.22563586390E+02  0.31401999898E+04  0.31401189246E+04 0.  0.
        2    1    3    3  502    0 -0.10297411379E+03 -0.14011651859E+04 -0.68960659438E+03  0.15650638330E+04  0.25500000920E-02 0.  1.
       -2    1    3    3    0  502  0.10297411379E+03  0.14011651859E+04  0.71217018077E+03  0.15751361568E+04  0.25500000920E-02 0. -1.
</event>
<event>
 5   0  0.1235960E-06  0.3122986E+04  0.7818609E-02  0.8209458E-01
        1   -1    0    0  501    0  0.00000000000E+00  0.00000000000E+00  0.25309961107E+04  0.25309961107E+04  0.50400001928E-02 0. -1.
       -1   -1    0    0    0  501  0.00000000000E+00  0.00000000000E+00 -0.96335974849E+03  0.96335974851E+03  0.50400001928E-02 0.  1.
    10030    2    1    2    0    0  0.00000000000E+00  0.00000000000E+00  0.15676363622E+04  0.34943558592E+04  0.31229856078E+04 0.  0.
        4    1    3    3  502    0 -0.13196411863E+04  0.22560067748E+03  0.16830735311E+04  0.21506014624E+04  0.12699999809E+01 0. -1.
       -4    1    3    3    0  502  0.13196411863E+04 -0.22560067748E+03 -0.11543716884E+03  0.13437543968E+04  0.12699999809E+01 0.  1.
</event>
<event>
 5   0  0.1211008E-06  0.2872390E+04  0.7818609E-02  0.8281140E-01
       -1   -1    0    0    0  501  0.00000000000E+00  0.00000000000E+00  0.23303837003E+04  0.23303837003E+04  0.50400001928E-02 0. -1.
        1   -1    0    0  501    0  0.00000000000E+00  0.00000000000E+00 -0.88511416325E+03  0.88511416326E+03  0.50400001928E-02 0.  1.
    10030    2    1    2    0    0  0.00000000000E+00  0.00000000000E+00  0.14452695371E+04  0.32154978636E+04  0.28723896804E+04 0.  0.
        3    1    3    3  502    0  0.31175298662E+03 -0.11978148117E+04 -0.92879576926E+02  0.12411997719E+04  0.10100000352E+00 0.  1.
       -3    1    3    3    0  502 -0.31175298662E+03  0.11978148117E+04  0.15381491140E+04  0.19742980917E+04  0.10100000352E+00 0. -1.
</event>
<event>
 5   0  0.3445410E-06  0.3207017E+04  0.7818609E-02  0.8186966E-01
       -2   -1    0    0    0  501  0.00000000000E+00  0.00000000000E+00  0.18763232166E+04  0.18763232166E+04  0.25500000920E-02 0. -1.
        2   -1    0    0  501    0  0.00000000000E+00  0.00000000000E+00 -0.13703608335E+04  0.13703608335E+04  0.25500000920E-02 0.  1.
    10030    2    1    2    0    0  0.00000000000E+00  0.00000000000E+00  0.50596238314E+03  0.32466840501E+04  0.32070172104E+04 0.  0.
        1    1    3    3  502    0  0.73053343144E+03 -0.12668400235E+04  0.91889910200E+03  0.17271184960E+04  0.50400001928E-02 0. -1.
       -1    1    3    3    0  502 -0.73053343144E+03  0.12668400235E+04 -0.41293671886E+03  0.15195655541E+04  0.50400001928E-02 0.  1.
</event>
<event>
 5   0  0.1235960E-06  0.3162852E+04  0.7818609E-02  0.8198697E-01
       -1   -1    0    0    0  501  0.00000000000E+00  0.00000000000E+00  0.22188184584E+04  0.22188184584E+04  0.50400001928E-02 0. -1.
        1   -1    0    0  501    0  0.00000000000E+00  0.00000000000E+00 -0.11271353539E+04  0.11271353539E+04  0.50400001928E-02 0.  1.
    10030    2    1    2    0    0  0.00000000000E+00  0.00000000000E+00  0.10916831045E+04  0.33459538123E+04  0.31628523382E+04 0.  0.
        4    1    3    3  502    0 -0.59682963935E+03 -0.14282693670E+04  0.88822607753E+03  0.17846865777E+04  0.12699999809E+01 0. -1.
       -4    1    3    3    0  502  0.59682963935E+03  0.14282693670E+04  0.20345702702E+03  0.15612672346E+04  0.12699999809E+01 0.  1.
</event>
<event>
 5   0  0.1235960E-06  0.3108845E+04  0.7818609E-02  0.8213315E-01
       -1   -1    0    0    0  501  0.00000000000E+00  0.00000000000E+00  0.15983066069E+04  0.15983066069E+04  0.50400001928E-02 0.  1.
        1   -1    0    0  501    0  0.00000000000E+00  0.00000000000E+00 -0.15117432520E+04  0.15117432520E+04  0.50400001928E-02 0. -1.
    10030    2    1    2    0    0  0.00000000000E+00  0.00000000000E+00  0.86563354877E+02  0.31100498589E+04  0.31088449480E+04 0.  0.
        4    1    3    3  502    0 -0.49703798726E+03 -0.13691914220E+04  0.58616658840E+03  0.15701352786E+04  0.12699999809E+01 0.  1.
       -4    1    3    3    0  502  0.49703798726E+03  0.13691914220E+04 -0.49960323352E+03  0.15399145803E+04  0.12699999809E+01 0. -1.
</event>
<event>
 5   0  0.1250276E-06  0.3102395E+04  0.7818609E-02  0.8215081E-01
        1   -1    0    0  501    0  0.00000000000E+00  0.00000000000E+00  0.17817943922E+04  0.17817943922E+04  0.50400001928E-02 0. -1.
       -1   -1    0    0    0  501  0.00000000000E+00  0.00000000000E+00 -0.13504442085E+04  0.13504442086E+04  0.50400001928E-02 0.  1.
    10030    2    1    2    0    0  0.00000000000E+00  0.00000000000E+00  0.43135018366E+03  0.31322386008E+04  0.31023951507E+04 0.  0.
        5    1    3    3  502    0  0.14472402065E+04  0.14391982088E+03  0.76028474782E+03  0.16411191663E+04  0.46999998093E+01 0. -1.
       -5    1    3    3    0  502 -0.14472402065E+04 -0.14391982088E+03 -0.32893456417E+03  0.14911194345E+04  0.46999998093E+01 0.  1.
</event>
<event>
 5   0  0.3374790E-06  0.3206025E+04  0.7818609E-02  0.8187228E-01
        2   -1    0    0  501    0  0.00000000000E+00  0.00000000000E+00  0.94496939854E+03  0.94496939854E+03  0.25500000920E-02 0.  1.
       -2   -1    0    0    0  501  0.00000000000E+00  0.00000000000E+00 -0.27192925832E+04  0.27192925832E+04  0.25500000920E-02 0. -1.
    10030    2    1    2    0    0  0.00000000000E+00  0.00000000000E+00 -0.17743231846E+04  0.36642619817E+04  0.32060245019E+04 0.  0.
        2    1    3    3  502    0  0.50930858924E+03 -0.91459259291E+03 -0.22746681369E+04  0.25039948050E+04  0.25500000920E-02 0. -1.
       -2    1    3    3    0  502 -0.50930858924E+03  0.91459259291E+03  0.50034495232E+03  0.11602671767E+04  0.25500000920E-02 0.  1.
</event>
<event>
 5   0  0.3445959E-06  0.3066700E+04  0.7818609E-02  0.8224937E-01
       -2   -1    0    0    0  501  0.00000000000E+00  0.00000000000E+00  0.11324492320E+04  0.11324492320E+04  0.25500000920E-02 0.  1.
        2   -1    0    0  501    0  0.00000000000E+00  0.00000000000E+00 -0.20761745483E+04  0.20761745483E+04  0.25500000920E-02 0. -1.
    10030    2    1    2    0    0  0.00000000000E+00  0.00000000000E+00 -0.94372531632E+03  0.32086237803E+04  0.30667000327E+04 0.  0.
        4    1    3    3  502    0 -0.77362324652E+03  0.23763193298E+03 -0.18345175368E+04  0.20050980198E+04  0.12699999809E+01 0. -1.
       -4    1    3    3    0  502  0.77362324652E+03 -0.23763193298E+03  0.89079222053E+03  0.12035257605E+04  0.12699999809E+01 0.  1.
</event>
<event>
 5   0  0.3441897E-06  0.3107743E+04  0.7818609E-02  0.8213616E-01
        2   -1    0    0  501    0  0.00000000000E+00  0.00000000000E+00  0.26017059313E+04  0.26017059313E+04  0.25500000920E-02 0. -1.
       -2   -1    0    0    0  501  0.00000000000E+00  0.00000000000E+00 -0.92805151262E+03  0.92805151263E+03  0.25500000920E-02 0.  1.
    10030    2    1    2    0    0  0.00000000000E+00  0.00000000000E+00  0.16736544187E+04  0.35297574439E+04  0.31077433130E+04 0.  0.
        5    1    3    3  502    0  0.41493664994E+02 -0.15468690169E+04  0.99733049122E+03  0.18409822592E+04  0.46999998093E+01 0. -1.
       -5    1    3    3    0  502 -0.41493664994E+02  0.15468690169E+04  0.67632392745E+03  0.16887751848E+04  0.46999998093E+01 0.  1.
</event>
<event>
 5   0  0.3340899E-06  0.3297437E+04  0.7818609E-02  0.8163548E-01
       -2   -1    0    0    0  501  0.00000000000E+00  0.00000000000E+00  0.13429256989E+04  0.13429256989E+04  0.25500000920E-02 0. -1.
        2   -1    0    0  501    0  0.00000000000E+00  0.00000000000E+00 -0.20241428176E+04  0.20241428176E+04  0.25500000920E-02 0.  1.
    10030    2    1    2    0    0  0.00000000000E+00  0.00000000000E+00 -0.68121711870E+03  0.33670685164E+04  0.32974374341E+04 0.  0.
        3    1    3    3  502    0 -0.77231149648E+03 -0.14565598923E+04 -0.32473585418E+03  0.16803229311E+04  0.10100000352E+00 0.  1.
       -3    1    3    3    0  502  0.77231149648E+03  0.14565598923E+04 -0.35648126452E+03  0.16867455853E+04  0.10100000352E+00 0. -1.
</event>
<event>
 5   0  0.3441897E-06  0.3105391E+04  0.7818609E-02  0.8214260E-01
        2   -1    0    0  501    0  0.00000000000E+00  0.00000000000E+00  0.12508039272E+04  0.12508039272E+04  0.25500000920E-02 0. -1.
       -2   -1    0    0    0  501  0.00000000000E+00  0.00000000000E+00 -0.19274509612E+04  0.19274509612E+04  0.25500000920E-02 0.  1.
    10030    2    1    2    0    0  0.00000000000E+00  0.00000000000E+00 -0.67664703404E+03  0.31782548884E+04  0.31053909459E+04 0.  0.
        5    1    3    3  502    0  0.33288376346E+03 -0.81606487936E+03 -0.16466238680E+04  0.18676631763E+04  0.46999998093E+01 0.  1.
       -5    1    3    3    0  502 -0.33288376346E+03  0.81606487936E+03  0.96997683399E+03  0.13105917121E+04  0.46999998093E+01 0. -1.
</event>
<event>
 5   0  0.3374790E-06  0.3105939E+04  0.7818609E-02  0.8214110E-01
        2   -1    0    0  501    0  0.00000000000E+00  0.00000000000E+00  0.16256769999E+04  0.16256769999E+04  0.25500000920E-02 0. -1.
       -2   -1    0    0    0  501  0.00000000000E+00  0.00000000000E+00 -0.14835138438E+04  0.14835138438E+04  0.25500000920E-02 0.  1.
    10030    2    1    2    0    0  0.00000000000E+00  0.00000000000E+00  0.14216315610E+03  0.31091908438E+04  0.31059390432E+04 0.  0.
        2    1    3    3  502    0 -0.13557505418E+04  0.66754817514E+03  0.42927492187E+03  0.15709732831E+04  0.25500000920E-02 0. -1.
       -2    1    3    3    0  502  0.13557505418E+04 -0.66754817514E+03 -0.28711176578E+03  0.15382175606E+04  0.25500000920E-02 0.  1.
</event>
<event>
 5   0  0.1198763E-06  0.3092604E+04  0.7818609E-02  0.8217771E-01
       -1   -1    0    0    0  501  0.00000000000E+00  0.00000000000E+00  0.12894346229E+04  0.12894346229E+04  0.50400001928E-02 0. -1.
        1   -1    0    0  501    0  0.00000000000E+00  0.00000000000E+00 -0.18543396421E+04  0.18543396421E+04  0.50400001928E-02 0.  1.
    10030    2    1    2    0    0  0.00000000000E+00  0.00000000000E+00 -0.56490501920E+03  0.31437742651E+04  0.30926039108E+04 0.  0.
        1    1    3    3  502    0  0.12128161436E+04 -0.41183702332E+03  0.59820556670E+03  0.14136416208E+04  0.50400001928E-02 0. -1.
       -1    1    3    3    0  502 -0.12128161436E+04  0.41183702332E+03 -0.11631105859E+04  0.17301326443E+04  0.50400001928E-02 0.  1.
</event>
<event>
 5   0  0.1235960E-06  0.3386024E+04  0.7818609E-02  0.8141345E-01
        1   -1    0    0  501    0  0.00000000000E+00  0.00000000000E+00  0.20072620992E+04  0.20072620992E+04  0.50400001928E-02 0.  1.
       -1   -1    0    0    0  501  0.00000000000E+00  0.00000000000E+00 -0.14279596237E+04  0.14279596237E+04  0.50400001928E-02 0. -1.
    10030    2    1    2    0    0  0.00000000000E+00  0.00000000000E+00  0.57930247552E+03  0.34352217229E+04  0.33860237636E+04 0.  0.
        4    1    3    3  502    0  0.14540487973E+04 -0.84821363424E+03  0.47272633559E+03  0.17484839363E+04  0.12699999809E+01 0.  1.
       -4    1    3    3    0  502 -0.14540487973E+04  0.84821363424E+03  0.10657613994E+03  0.16867377866E+04  0.12699999809E+01 0. -1.
</event>
<event>
 5   0  0.3445959E-06  0.3113447E+04  0.7818609E-02  0.8212057E-01
        2   -1    0    0  501    0  0.00000000000E+00  0.00000000000E+00  0.13816790484E+04  0.13816790484E+04  0.25500000920E-02 0.  1.
       -2   -1    0    0    0  501  0.00000000000E+00  0.00000000000E+00 -0.17539443143E+04  0.17539443143E+04  0.25500000920E-02 0. -1.
    10030    2    1    2    0    0  0.00000000000E+00  0.00000000000E+00 -0.37226526583E+03  0.31356233627E+04  0.31134470358E+04 0.  0.
        4    1    3    3  502    0  0.40270550307E+03 -0.14797089895E+04 -0.45576345702E+03  0.15998226019E+04  0.12699999809E+01 0. -1.
       -4    1    3    3    0  502 -0.40270550307E+03  0.14797089895E+04  0.83498191194E+02  0.15358007608E+04  0.12699999809E+01 0.  1.
</event>
<event>
 5   0  0.3445959E-06  0.2749307E+04  0.7818609E-02  0.8319182E-01
        2   -1    0    0  501    0  0.00000000000E+00  0.00000000000E+00  0.11006458931E+04  0.11006458931E+04  0.25500000920E-02 0.  1.
       -2   -1    0    0    0  501  0.00000000000E+00  0.00000000000E+00 -0.17168756114E+04  0.17168756114E+04  0.25500000920E-02 0. -1.
    10030    2    1    2    0    0  0.00000000000E+00  0.00000000000E+00 -0.61622971827E+03  0.28175215045E+04  0.27493068877E+04 0.  0.
        4    1    3    3  502    0 -0.13337067943E+04  0.16615809351E+03 -0.12357449435E+02  0.13440746425E+04  0.12699999809E+01 0.  1.
       -4    1    3    3    0  502  0.13337067943E+04 -0.16615809351E+03 -0.60387226884E+03  0.14734468620E+04  0.12699999809E+01 0. -1.
</event>
<event>
 5   0  0.1171915E-06  0.3105749E+04  0.7818609E-02  0.8214162E-01
        1   -1    0    0  501    0  0.00000000000E+00  0.00000000000E+00  0.25289897501E+04  0.25289897501E+04  0.50400001928E-02 0.  1.
       -1   -1    0    0    0  501  0.00000000000E+00  0.00000000000E+00 -0.95351064728E+03  0.95351064729E+03  0.50400001928E-02 0. -1.
    10030    2    1    2    0    0  0.00000000000E+00  0.00000000000E+00  0.15754791028E+04  0.34825003974E+04  0.31057486400E+04 0.  0.
        2    1    3    3  502    0 -0.13347261203E+04  0.38869406256E+03  0.15636665822E+04  0.20922786791E+04  0.25500000920E-02 0.  1.
       -2    1    3    3    0  502  0.13347261203E+04 -0.38869406256E+03  0.11812520640E+02  0.13902217184E+04  0.25500000920E-02 0. -1.
</event>
<event>
 5   0  0.1171915E-06  0.3101571E+04  0.7818609E-02  0.8215307E-01
       -1   -1    0    0    0  501  0.00000000000E+00  0.00000000000E+00  0.18732345341E+04  0.18732345341E+04  0.50400001928E-02 0.  1.
        1   -1    0    0  501    0  0.00000000000E+00  0.00000000000E+00 -0.12838409312E+04  0.12838409312E+04  0.50400001928E-02 0. -1.
    10030    2    1    2    0    0  0.00000000000E+00  0.00000000000E+00  0.58939360289E+03  0.31570754652E+04  0.31015706785E+04 0.  0.
        2    1    3    3  502    0 -0.66659428135E+03  0.78927068923E+03  0.14719577661E+04  0.17983202779E+04  0.25500000920E-02 0.  1.
       -2    1    3    3    0  502  0.66659428135E+03 -0.78927068923E+03 -0.88256416321E+03  0.13587551873E+04  0.25500000920E-02 0. -1.
</event>
<event>
 5   0  0.3374790E-06  0.3126537E+04  0.7818609E-02  0.8208493E-01
       -2   -1    0    0    0  501  0.00000000000E+00  0.00000000000E+00  0.13032553007E+04  0.13032553007E+04  0.25500000920E-02 0. -1.
        2   -1    0    0  501    0  0.00000000000E+00  0.00000000000E+00 -0.18751567965E+04  0.18751567965E+04  0.25500000920E-02 0.  1.
    10030    2    1    2    0    0  0.00000000000E+00  0.00000000000E+00 -0.57190149580E+03  0.31784120972E+04  0.31265367643E+04 0.  0.
        2    1    3    3  502    0  0.31416066087E+03  0.12024763433E+03  0.12660264842E+04  0.13099539965E+04  0.25500000920E-02 0. -1.
       -2    1    3    3    0  502 -0.31416066087E+03 -0.12024763433E+03 -0.18379279800E+04  0.18684581007E+04  0.25500000920E-02 0.  1.
</event>
<event>
 5   0  0.3340899E-06  0.3133283E+04  0.7818609E-02  0.8206663E-01
       -2   -1    0    0    0  501  0.00000000000E+00  0.00000000000E+00  0.24862295892E+04  0.24862295892E+04  0.25500000920E-02 0.  1.
        2   -1    0    0  501    0  0.00000000000E+00  0.00000000000E+00 -0.98718369706E+03  0.98718369706E+03  0.25500000920E-02 0. -1.
    10030    2    1    2    0    0  0.00000000000E+00  0.00000000000E+00  0.14990458922E+04  0.34734132863E+04  0.31332828265E+04 0.  0.
        3    1    3    3  502    0 -0.69906903835E+03 -0.80062412468E+03  0.20254049630E+04  0.22873481991E+04  0.10100000352E+00 0.  1.
       -3    1    3    3    0  502  0.69906903835E+03  0.80062412468E+03 -0.52635907086E+03  0.11860650872E+04  0.10100000352E+00 0. -1.
</event>
<event>
 5   0  0.3374790E-06  0.3103115E+04  0.7818609E-02  0.8214884E-01
       -2   -1    0    0    0  501  0.00000000000E+00  0.00000000000E+00  0.12431640277E+04  0.12431640277E+04  0.25500000920E-02 0. -1.
        2   -1    0    0  501    0  0.00000000000E+00  0.00000000000E+00 -0.19364546720E+04  0.19364546720E+04  0.25500000920E-02 0.  1.
    10030    2    1    2    0    0  0.00000000000E+00  0.00000000000E+00 -0.69329064437E+03  0.31796186997E+04  0.31031150733E+04 0.  0.
        2    1    3    3  502    0  0.27903495106E+03 -0.14110165145E+04 -0.94279898718E+03  0.17197959293E+04  0.25500000920E-02 0.  1.
       -2    1    3    3    0  502 -0.27903495106E+03  0.14110165145E+04  0.24950834281E+03  0.14598227705E+04  0.25500000920E-02 0. -1.
</event>
<event>
 5   0  0.3445410E-06  0.3098280E+04  0.7818609E-02  0.8216210E-01
       -2   -1    0    0    0  501  0.00000000000E+00  0.00000000000E+00  0.12875525902E+04  0.12875525902E+04  0.25500000920E-02 0.  1.
        2   -1    0    0  501    0  0.00000000000E+00  0.00000000000E+00 -0.18638737423E+04  0.18638737423E+04  0.25500000920E-02 0. -1.
    10030    2    1    2    0    0  0.00000000000E+00  0.00000000000E+00 -0.57632115216E+03  0.31514263325E+04  0.30982804680E+04 0.  0.
        1    1    3    3  502    0  0.11757072594E+04 -0.86110746236E+03 -0.82256973128E+03  0.16734439293E+04  0.50400001928E-02 0. -1.
       -1    1    3    3    0  502 -0.11757072594E+04  0.86110746236E+03  0.24624857913E+03  0.14779824032E+04  0.50400001928E-02 0.  1.
</event>
<event>
 5   0  0.1250276E-06  0.3103569E+04  0.7818609E-02  0.8214759E-01
        1   -1    0    0  501    0  0.00000000000E+00  0.00000000000E+00  0.10497648931E+04  0.10497648931E+04  0.50400001928E-02 0. -1.
       -1   -1    0    0    0  501  0.00000000000E+00  0.00000000000E+00 -0.22938811400E+04  0.22938811400E+04  0.50400001928E-02 0.  1.
    10030    2    1    2    0    0  0.00000000000E+00  0.00000000000E+00 -0.12441162469E+04  0.33436460330E+04  0.31035694866E+04 0.  0.
        5    1    3    3  502    0 -0.40388284339E+03  0.13713593165E+04 -0.12722898926E+04  0.19137636706E+04  0.46999998093E+01 0.  1.
       -5    1    3    3    0  502  0.40388284339E+03 -0.13713593165E+04  0.28173645689E+02  0.14298823624E+04  0.46999998093E+01 0. -1.
</event>
<event>
 5   0  0.3441897E-06  0.3128258E+04  0.7818609E-02  0.8208025E-01
       -2   -1    0    0    0  501  0.00000000000E+00  0.00000000000E+00  0.12650286434E+04  0.12650286434E+04  0.25500000920E-02 0. -1.
        2   -1    0    0  501    0  0.00000000000E+00  0.00000000000E+00 -0.19339479172E+04  0.19339479172E+04  0.25500000920E-02 0.  1.
    10030    2    1    2    0    0  0.00000000000E+00  0.00000000000E+00 -0.66891927378E+03  0.31989765606E+04  0.31282579881E+04 0.  0.
        5    1    3    3  502    0 -0.91892237614E+03  0.86987379044E+03 -0.12746897146E+04  0.17960942912E+04  0.46999998093E+01 0.  1.
       -5    1    3    3    0  502  0.91892237614E+03 -0.86987379044E+03  0.60577044077E+03  0.14028822693E+04  0.46999998093E+01 0. -1.
</event>
<event>
 5   0  0.3445959E-06  0.3112065E+04  0.7818609E-02  0.8212435E-01
       -2   -1    0    0    0  501  0.00000000000E+00  0.00000000000E+00  0.97845254383E+03  0.97845254383E+03  0.25500000920E-02 0.  1.
        2   -1    0    0  501    0  0.00000000000E+00  0.00000000000E+00 -0.24745576092E+04  0.24745576092E+04  0.25500000920E-02 0. -1.
    10030    2    1    2    0    0  0.00000000000E+00  0.00000000000E+00 -0.14961050654E+04  0.34530101531E+04  0.31120650299E+04 0.  0.
        4    1    3    3  502    0 -0.12541979311E+04 -0.34746039944E+03 -0.16944291857E+04  0.21365469940E+04  0.12699999809E+01 0. -1.
       -4    1    3    3    0  502  0.12541979311E+04  0.34746039944E+03  0.19832412029E+03  0.13164631590E+04  0.12699999809E+01 0.  1.
</event>
<event>
 5   0  0.3374790E-06  0.3016154E+04  0.7818609E-02  0.8239133E-01
       -2   -1    0    0    0  501  0.00000000000E+00  0.00000000000E+00  0.87759666230E+03  0.87759666230E+03  0.25500000920E-02 0.  1.
        2   -1    0    0  501    0  0.00000000000E+00  0.00000000000E+00 -0.25915058530E+04  0.25915058530E+04  0.25500000920E-02 0. -1.
    10030    2    1    2    0    0  0.00000000000E+00  0.00000000000E+00 -0.17139091907E+04  0.34691025153E+04  0.30161544303E+04 0.  0.
        2    1    3    3  502    0  0.49770285359E+02  0.60506430922E+03 -0.24447434983E+04  0.25189979500E+04  0.25500000920E-02 0. -1.
       -2    1    3    3    0  502 -0.49770285359E+02 -0.60506430922E+03  0.73083430768E+03  0.95010456523E+03  0.25500000920E-02 0.  1.
</event>
<event>
 5   0  0.1250276E-06  0.3088294E+04  0.7818609E-02  0.8218958E-01
        1   -1    0    0  501    0  0.00000000000E+00  0.00000000000E+00  0.15631159509E+04  0.15631159509E+04  0.50400001928E-02 0.  1.
       -1   -1    0    0    0  501  0.00000000000E+00  0.00000000000E+00 -0.15254085608E+04  0.15254085608E+04  0.50400001928E-02 0. -1.
    10030    2    1    2    0    0  0.00000000000E+00  0.00000000000E+00  0.37707390080E+02  0.30885245118E+04  0.30882943209E+04 0.  0.
        5    1    3    3  502    0  0.43288329754E+03  0.14628427399E+04  0.25776798981E+03  0.15471791291E+04  0.46999998093E+01 0.  1.
       -5    1    3    3    0  502 -0.43288329754E+03 -0.14628427399E+04 -0.22006059973E+03  0.15413453826E+04  0.46999998093E+01 0. -1.
</event>
<event>
 5   0  0.1250276E-06  0.3007613E+04  0.7818609E-02  0.8241560E-01
       -1   -1    0    0    0  501  0.00000000000E+00  0.00000000000E+00  0.11596856933E+04  0.11596856933E+04  0.50400001928E-02 0. -1.
        1   -1    0    0  501    0  0.00000000000E+00  0.00000000000E+00 -0.19500410323E+04  0.19500410323E+04  0.50400001928E-02 0.  1.
    10030    2    1    2    0    0  0.00000000000E+00  0.00000000000E+00 -0.79035533902E+03  0.31097267256E+04  0.30076134635E+04 0.  0.
        5    1    3    3  502    0  0.84757231667E+03 -0.10254595356E+04 -0.11200260422E+04  0.17390878403E+04  0.46999998093E+01 0.  1.
       -5    1    3    3    0  502 -0.84757231667E+03  0.10254595356E+04  0.32967070318E+03  0.13706388852E+04  0.46999998093E+01 0. -1.
</event>
<event>
 5   0  0.3445410E-06  0.3097173E+04  0.7818609E-02  0.8216514E-01
        2   -1    0    0  501    0  0.00000000000E+00  0.00000000000E+00  0.16798548329E+04  0.16798548329E+04  0.25500000920E-02 0. -1.
       -2   -1    0    0    0  501  0.00000000000E+00  0.00000000000E+00 -0.14275760151E+04  0.14275760151E+04  0.25500000920E-02 0.  1.
    10030    2    1    2    0    0  0.00000000000E+00  0.00000000000E+00  0.25227881778E+03  0.31074308480E+04  0.30971732068E+04 0.  0.
        1    1    3    3  502    0  0.15046366719E+04  0.64051550740E+02  0.48800879825E+03  0.15830940284E+04  0.50400001928E-02 0. -1.
       -1    1    3    3    0  502 -0.15046366719E+04 -0.64051550740E+02 -0.23572998047E+03  0.15243368195E+04  0.50400001928E-02 0.  1.
</event>
<event>
 5   0  0.3441897E-06  0.3121591E+04  0.7818609E-02  0.8209837E-01
       -2   -1    0    0    0  501  0.00000000000E+00  0.00000000000E+00  0.11773826717E+04  0.11773826717E+04  0.25500000920E-02 0. -1.
        2   -1    0    0  501    0  0.00000000000E+00  0.00000000000E+00 -0.20690657227E+04  0.20690657227E+04  0.25500000920E-02 0.  1.
    10030    2    1    2    0    0  0.00000000000E+00  0.00000000000E+00 -0.89168305099E+03  0.32464483943E+04  0.31215907025E+04 0.  0.
        5    1    3    3  502    0  0.18170606727E+03 -0.70452118579E+03 -0.18819026093E+04  0.20176587216E+04  0.46999998093E+01 0.  1.
       -5    1    3    3    0  502 -0.18170606727E+03  0.70452118579E+03  0.99021955830E+03  0.12287896727E+04  0.46999998093E+01 0. -1.
</event>
<event>
 5   0  0.3441897E-06  0.3031046E+04  0.7818609E-02  0.8234921E-01
       -2   -1    0    0    0  501  0.00000000000E+00  0.00000000000E+00  0.16976584257E+04  0.16976584257E+04  0.25500000920E-02 0.  1.
        2   -1    0    0  501    0  0.00000000000E+00  0.00000000000E+00 -0.13529278588E+04  0.13529278588E+04  0.25500000920E-02 0. -1.
    10030    2    1    2    0    0  0.00000000000E+00  0.00000000000E+00  0.34473056687E+03  0.30505862844E+04  0.30310456142E+04 0.  0.
        5    1    3    3  502    0  0.29829529385E+03 -0.30022656455E+03  0.16369689197E+04  0.16908002267E+04  0.46999998093E+01 0.  1.
       -5    1    3    3    0  502 -0.29829529385E+03  0.30022656455E+03 -0.12922383528E+04  0.13597860578E+04  0.46999998093E+01 0. -1.
</event>
<event>
 5   0  0.1235960E-06  0.3103562E+04  0.7818609E-02  0.8214761E-01
        1   -1    0    0  501    0  0.00000000000E+00  0.00000000000E+00  0.15951681322E+04  0.15951681323E+04  0.50400001928E-02 0. -1.
       -1   -1    0    0    0  501  0.00000000000E+00  0.00000000000E+00 -0.15095737734E+04  0.15095737734E+04  0.50400001928E-02 0.  1.
    10030    2    1    2    0    0  0.00000000000E+00  0.00000000000E+00  0.85594358882E+02  0.31047419056E+04  0.31035618096E+04 0.  0.
        4    1    3    3  502    0  0.48495943329E+03  0.47996274257E+03  0.14370532416E+04  0.15908090766E+04  0.12699999809E+01 0. -1.
       -4    1    3    3    0  502 -0.48495943329E+03 -0.47996274257E+03 -0.13514588827E+04  0.15139328290E+04  0.12699999809E+01 0.  1.
</event>
<event>
 5   0  0.1235960E-06  0.3035526E+04  0.7818609E-02  0.8233658E-01
        1   -1    0    0  501    0  0.00000000000E+00  0.00000000000E+00  0.18012219931E+04  0.18012219931E+04  0.50400001928E-02 0. -1.
       -1   -1    0    0    0  501  0.00000000000E+00  0.00000000000E+00 -0.12789124022E+04  0.12789124022E+04  0.50400001928E-02 0.  1.
    10030    2    1    2    0    0  0.00000000000E+00  0.00000000000E+00  0.52230959089E+03  0.30801343953E+04  0.30355264098E+04 0.  0.
        4    1    3    3  502    0 -0.13892632257E+04 -0.60119734224E+03  0.14947846741E+03  0.15211298366E+04  0.12699999809E+01 0.  1.
       -4    1    3    3    0  502  0.13892632257E+04  0.60119734224E+03  0.37283112348E+03  0.15590045587E+04  0.12699999809E+01 0. -1.
</event>
<event>
 5   0  0.1171915E-06  0.3125820E+04  0.7818609E-02  0.8208687E-01
        1   -1    0    0  501    0  0.00000000000E+00  0.00000000000E+00  0.18529455252E+04  0.18529455252E+04  0.50400001928E-02 0. -1.
       -1   -1    0    0    0  501  0.00000000000E+00  0.00000000000E+00 -0.13182729136E+04  0.13182729136E+04  0.50400001928E-02 0.  1.
    10030    2    1    2    0    0  0.00000000000E+00  0.00000000000E+00  0.53467261162E+03  0.31712184388E+04  0.31258201460E+04 0.  0.
        2    1    3    3  502    0 -0.40141024775E+03  0.14947148766E+04  0.48817912767E+03  0.16228436801E+04  0.25500000920E-02 0. -1.
       -2    1    3    3    0  502  0.40141024775E+03 -0.14947148766E+04  0.46493483950E+02  0.15483747587E+04  0.25500000920E-02 0.  1.
</event>
<event>
 5   0  0.3445410E-06  0.3067180E+04  0.7818609E-02  0.8224803E-01
        2   -1    0    0  501    0  0.00000000000E+00  0.00000000000E+00  0.14045612626E+04  0.14045612626E+04  0.25500000920E-02 0. -1.
       -2   -1    0    0    0  501  0.00000000000E+00  0.00000000000E+00 -0.16744717935E+04  0.16744717935E+04  0.25500000920E-02 0.  1.
    10030    2    1    2    0    0  0.00000000000E+00  0.00000000000E+00 -0.26991053088E+03  0.30790330562E+04  0.30671799534E+04 0.  0.
        1    1    3    3  502    0 -0.77252373228E+03  0.87682611713E+03 -0.11319101030E+04  0.16269103964E+04  0.50400001928E-02 0.  1.
       -1    1    3    3    0  502  0.77252373228E+03 -0.87682611713E+03  0.86199957213E+03  0.14521226598E+04  0.50400001928E-02 0. -1.
</event>
<event>
 5   0  0.3441897E-06  0.3102677E+04  0.7818609E-02  0.8215004E-01
        2   -1    0    0  501    0  0.00000000000E+00  0.00000000000E+00  0.20432362385E+04  0.20432362385E+04  0.25500000920E-02 0. -1.
       -2   -1    0    0    0  501  0.00000000000E+00  0.00000000000E+00 -0.11778621054E+04  0.11778621054E+04  0.25500000920E-02 0.  1.
    10030    2    1    2    0    0  0.00000000000E+00  0.00000000000E+00  0.86537413308E+03  0.32210983438E+04  0.31026766107E+04 0.  0.
        5    1    3    3  502    0  0.42009230610E+03  0.13097144412E+04  0.11775670662E+04  0.18106672109E+04  0.46999998093E+01 0. -1.
       -5    1    3    3    0  502 -0.42009230610E+03 -0.13097144412E+04 -0.31219293314E+03  0.14104311329E+04  0.46999998093E+01 0.  1.
</event>
<event>
 5   0  0.3340899E-06  0.3100092E+04  0.7818609E-02  0.8215713E-01
       -2   -1    0    0    0  501  0.00000000000E+00  0.00000000000E+00  0.16839466666E+04  0.16839466666E+04  0.25500000920E-02 0.  1.
        2   -1    0    0  501    0  0.00000000000E+00  0.00000000000E+00 -0.14267921937E+04  0.14267921937E+04  0.25500000920E-02 0. -1.
    10030    2    1    2    0    0  0.00000000000E+00  0.00000000000E+00  0.25715447287E+03  0.31107388604E+04  0.31000915848E+04 0.  0.
        3    1    3    3  502    0  0.97919061529E+03 -0.68081861727E+03 -0.86493121498E+03  0.14732393789E+04  0.10100000352E+00 0. -1.
       -3    1    3    3    0  502 -0.97919061529E+03  0.68081861727E+03  0.11220856878E+04  0.16374994815E+04  0.10100000352E+00 0.  1.
</event>
<event>
 5   0  0.1198763E-06  0.3088226E+04  0.7818609E-02  0.8218977E-01
       -1   -1    0    0    0  501  0.00000000000E+00  0.00000000000E+00  0.13556795093E+04  0.13556795093E+04  0.50400001928E-02 0.  1.
        1   -1    0    0  501    0  0.00000000000E+00  0.00000000000E+00 -0.17587380712E+04  0.17587380712E+04  0.50400001928E-02 0. -1.
    10030    2    1    2    0    0  0.00000000000E+00  0.00000000000E+00 -0.40305856191E+03  0.31144175806E+04  0.30882261352E+04 0.  0.
        1    1    3    3  502    0  0.86752537616E+03  0.24349500637E+03  0.10630573461E+04  0.13935497901E+04  0.50400001928E-02 0.  1.
       -1    1    3    3    0  502 -0.86752537616E+03 -0.24349500637E+03 -0.14661159080E+04  0.17208677905E+04  0.50400001928E-02 0. -1.
</event>
<event>
 5   0  0.3445410E-06  0.2974436E+04  0.7818609E-02  0.8251069E-01
       -2   -1    0    0    0  501  0.00000000000E+00  0.00000000000E+00  0.11304672994E+04  0.11304672994E+04  0.25500000920E-02 0.  1.
        2   -1    0    0  501    0  0.00000000000E+00  0.00000000000E+00 -0.19565511295E+04  0.19565511295E+04  0.25500000920E-02 0. -1.
    10030    2    1    2    0    0  0.00000000000E+00  0.00000000000E+00 -0.82608383004E+03  0.30870184289E+04  0.29744357929E+04 0.  0.
        1    1    3    3  502    0  0.38744076397E+03  0.36509701176E+03  0.10281917969E+04  0.11578361477E+04  0.50400001928E-02 0.  1.
       -1    1    3    3    0  502 -0.38744076397E+03 -0.36509701176E+03 -0.18542756269E+04  0.19291822812E+04  0.50400001928E-02 0. -1.
</event>
<event>
 5   0  0.1235960E-06  0.3117061E+04  0.7818609E-02  0.8211071E-01
       -1   -1    0    0    0  501  0.00000000000E+00  0.00000000000E+00  0.12702624840E+04  0.12702624840E+04  0.50400001928E-02 0.  1.
        1   -1    0    0  501    0  0.00000000000E+00  0.00000000000E+00 -0.19122163748E+04  0.19122163749E+04  0.50400001928E-02 0. -1.
    10030    2    1    2    0    0  0.00000000000E+00  0.00000000000E+00 -0.64195389087E+03  0.31824788588E+04  0.31170606168E+04 0.  0.
        4    1    3    3  502    0 -0.15256988550E+04  0.21154256681E+03 -0.56367969279E+03  0.16401962269E+04  0.12699999809E+01 0. -1.
       -4    1    3    3    0  502  0.15256988550E+04 -0.21154256681E+03 -0.78274198075E+02  0.15422826319E+04  0.12699999809E+01 0.  1.
</event>
<event>
 5   0  0.3340899E-06  0.3114525E+04  0.7818609E-02  0.8211763E-01
       -2   -1    0    0    0  501  0.00000000000E+00  0.00000000000E+00  0.87496607623E+03  0.87496607624E+03  0.25500000920E-02 0.  1.
        2   -1    0    0  501    0  0.00000000000E+00  0.00000000000E+00 -0.27716127468E+04  0.27716127468E+04  0.25500000920E-02 0. -1.
    10030    2    1    2    0    0  0.00000000000E+00  0.00000000000E+00 -0.18966466706E+04  0.36465788230E+04  0.31145254084E+04 0.  0.
        3    1    3    3  502    0  0.15470394582E+04  0.12915917722E+01 -0.73975006922E+03  0.17148069654E+04  0.10100000352E+00 0. -1.
       -3    1    3    3    0  502 -0.15470394582E+04 -0.12915917722E+01 -0.11568966013E+04  0.19317718576E+04  0.10100000352E+00 0.  1.
</event>
<event>
 5   0  0.3445959E-06  0.3105459E+04  0.7818609E-02  0.8214241E-01
       -2   -1    0    0    0  501  0.00000000000E+00  0.00000000000E+00  0.15279758410E+04  0.15279758410E+04  0.25500000920E-02 0. -1.
        2   -1    0    0  501    0  0.00000000000E+00  0.00000000000E+00 -0.15778843027E+04  0.15778843027E+04  0.25500000920E-02 0.  1.
    10030    2    1    2    0    0  0.00000000000E+00  0.00000000000E+00 -0.49908461725E+02  0.31058601437E+04  0.31054591251E+04 0.  0.
        4    1    3    3  502    0  0.65385330148E+03 -0.67884840863E+03  0.12091452159E+04  0.15330991709E+04  0.12699999809E+01 0. -1.
       -4    1    3    3    0  502 -0.65385330148E+03  0.67884840863E+03 -0.12590536776E+04  0.15727609729E+04  0.12699999809E+01 0.  1.
</event>
<event>
 5   0  0.1198763E-06  0.3042582E+04  0.7818609E-02  0.8231675E-01
       -1   -1    0    0    0  501  0.00000000000E+00  0.00000000000E+00  0.11126066329E+04  0.11126066329E+04  0.50400001928E-02 0.  1.
        1   -1    0    0  501    0  0.00000000000E+00  0.00000000000E+00 -0.20800934976E+04  0.20800934976E+04  0.50400001928E-02 0. -1.
    10030    2    1    2    0    0  0.00000000000E+00  0.00000000000E+00 -0.96748686470E+03  0.31927001305E+04  0.30425816818E+04 0.  0.
        1    1    3    3  502    0 -0.82353731003E+03 -0.56275670665E+03 -0.16890760890E+04  0.19616031317E+04  0.50400001928E-02 0. -1.
       -1    1    3    3    0  502  0.82353731003E+03  0.56275670665E+03  0.72158922429E+03  0.12310969988E+04  0.50400001928E-02 0.  1.
</event>
<event>
 5   0  0.3445410E-06  0.3058841E+04  0.7818609E-02  0.8227125E-01
       -2   -1    0    0    0  501  0.00000000000E+00  0.00000000000E+00  0.97715947361E+03  0.97715947361E+03  0.25500000920E-02 0.  1.
        2   -1    0    0  501    0  0.00000000000E+00  0.00000000000E+00 -0.23938031447E+04  0.23938031447E+04  0.25500000920E-02 0. -1.
    10030    2    1    2    0    0  0.00000000000E+00  0.00000000000E+00 -0.14166436711E+04  0.33709626183E+04  0.30588412321E+04 0.  0.
        1    1    3    3  502    0 -0.11354264304E+04  0.41231218275E+03  0.32544305976E+03  0.12510426451E+04  0.50400001928E-02 0.  1.
       -1    1    3    3    0  502  0.11354264304E+04 -0.41231218275E+03 -0.17420867309E+04  0.21199199732E+04  0.50400001928E-02 0. -1.
</event>
<event>
 5   0  0.1250276E-06  0.3140783E+04  0.7818609E-02  0.8204634E-01
        1   -1    0    0  501    0  0.00000000000E+00  0.00000000000E+00  0.16675525957E+04  0.16675525957E+04  0.50400001928E-02 0. -1.
       -1   -1    0    0    0  501  0.00000000000E+00  0.00000000000E+00 -0.14788916850E+04  0.14788916850E+04  0.50400001928E-02 0.  1.
    10030    2    1    2    0    0  0.00000000000E+00  0.00000000000E+00  0.18866091072E+03  0.31464442807E+04  0.31407831304E+04 0.  0.
        5    1    3    3  502    0 -0.77505603062E+03  0.33642938715E+03  0.14204274669E+04  0.16527349642E+04  0.46999998093E+01 0. -1.
       -5    1    3    3    0  502  0.77505603062E+03 -0.33642938715E+03 -0.12317665562E+04  0.14937093165E+04  0.46999998093E+01 0.  1.
</event>
<event>
 5   0  0.1250276E-06  0.3023565E+04  0.7818609E-02  0.8237034E-01
        1   -1    0    0  501    0  0.00000000000E+00  0.00000000000E+00  0.23003150895E+04  0.23003150895E+04  0.50400001928E-02 0.  1.
       -1   -1    0    0    0  501  0.00000000000E+00  0.00000000000E+00 -0.99355341470E+03  0.99355341472E+03  0.50400001928E-02 0. -1.
    10030    2    1    2    0    0  0.00000000000E+00  0.00000000000E+00  0.13067616748E+04  0.32938685042E+04  0.30235647253E+04 0.  0.
        5    1    3    3  502    0  0.42084693793E+03 -0.13945386131E+04  0.10940339731E+04  0.18217525938E+04  0.46999998093E+01 0.  1.
       -5    1    3    3    0  502 -0.42084693793E+03  0.13945386131E+04  0.21272770169E+03  0.14721159104E+04  0.46999998093E+01 0. -1.
</event>
<event>
 5   0  0.1198763E-06  0.3098562E+04  0.7818609E-02  0.8216133E-01
        1   -1    0    0  501    0  0.00000000000E+00  0.00000000000E+00  0.16300223496E+04  0.16300223496E+04  0.50400001928E-02 0. -1.
       -1   -1    0    0    0  501  0.00000000000E+00  0.00000000000E+00 -0.14725394734E+04  0.14725394734E+04  0.50400001928E-02 0.  1.
    10030    2    1    2    0    0  0.00000000000E+00  0.00000000000E+00  0.15748287611E+03  0.31025618230E+04  0.30985624101E+04 0.  0.
        1    1    3    3  502    0 -0.38507636506E+03  0.10469269932E+04 -0.99778921135E+03  0.14966373129E+04  0.50400001928E-02 0.  1.
       -1    1    3    3    0  502  0.38507636506E+03 -0.10469269932E+04  0.11552720875E+04  0.16059245101E+04  0.50400001928E-02 0. -1.
</event>
<event>
 5   0  0.1211008E-06  0.2755208E+04  0.7818609E-02  0.8317311E-01
        1   -1    0    0  501    0  0.00000000000E+00  0.00000000000E+00  0.19939754416E+04  0.19939754416E+04  0.50400001928E-02 0.  1.
       -1   -1    0    0    0  501  0.00000000000E+00  0.00000000000E+00 -0.95176328962E+03  0.95176328964E+03  0.50400001928E-02 0. -1.
    10030    2    1    2    0    0  0.00000000000E+00  0.00000000000E+00  0.10422121520E+04  0.29457387312E+04  0.27552078874E+04 0.  0.
        3    1    3    3  502    0  0.10250735752E+04 -0.83270464625E+03  0.94015370055E+03  0.16211298077E+04  0.10100000352E+00 0.  1.
       -3    1    3    3    0  502 -0.10250735752E+04  0.83270464625E+03  0.10205845140E+03  0.13246089235E+04  0.10100000352E+00 0. -1.
</event>
<event>
 5   0  0.1211008E-06  0.3065128E+04  0.7818609E-02  0.8225374E-01
       -1   -1    0    0    0  501  0.00000000000E+00  0.00000000000E+00  0.97132486108E+03  0.97132486110E+03  0.50400001928E-02 0.  1.
        1   -1    0    0  501    0  0.00000000000E+00  0.00000000000E+00 -0.24180918592E+04  0.24180918592E+04  0.50400001928E-02 0. -1.
    10030    2    1    2    0    0  0.00000000000E+00  0.00000000000E+00 -0.14467669981E+04  0.33894167203E+04  0.30651282122E+04 0.  0.
        3    1    3    3  502    0 -0.83093472178E+02 -0.68413424308E+03 -0.22370804259E+04  0.23408274242E+04  0.10100000352E+00 0. -1.
       -3    1    3    3    0  502  0.83093472178E+02  0.68413424308E+03  0.79031342776E+03  0.10485892961E+04  0.10100000352E+00 0.  1.
</event>
<event>
 5   0  0.1235960E-06  0.3110463E+04  0.7818609E-02  0.8212872E-01
       -1   -1    0    0    0  501  0.00000000000E+00  0.00000000000E+00  0.11711774696E+04  0.11711774697E+04  0.50400001928E-02 0. -1.
        1   -1    0    0  501    0  0.00000000000E+00  0.00000000000E+00 -0.20652256278E+04  0.20652256278E+04  0.50400001928E-02 0.  1.
    10030    2    1    2    0    0  0.00000000000E+00  0.00000000000E+00 -0.89404815815E+03  0.32364030975E+04  0.31104634542E+04 0.  0.
        4    1    3    3  502    0 -0.87447764780E+03 -0.12217565338E+04 -0.86496396298E+03  0.17336563831E+04  0.12699999809E+01 0.  1.
       -4    1    3    3    0  502  0.87447764780E+03  0.12217565338E+04 -0.29084195170E+02  0.15027467144E+04  0.12699999809E+01 0. -1.
</event>
<event>
 5   0  0.1211008E-06  0.3098850E+04  0.7818609E-02  0.8216054E-01
       -1   -1    0    0    0  501  0.00000000000E+00  0.00000000000E+00  0.18891430755E+04  0.18891430755E+04  0.50400001928E-02 0.  1.
        1   -1    0    0  501    0  0.00000000000E+00  0.00000000000E+00 -0.12707968548E+04  0.12707968548E+04  0.50400001928E-02 0. -1.
    10030    2    1    2    0    0  0.00000000000E+00  0.00000000000E+00  0.61834622068E+03  0.31599399303E+04  0.30988495147E+04 0.  0.
        3    1    3    3  502    0 -0.73057217471E+03  0.35088960400E+03 -0.10374122255E+04  0.13164662367E+04  0.10100000352E+00 0. -1.
       -3    1    3    3    0  502  0.73057217471E+03 -0.35088960400E+03  0.16557584462E+04  0.18434736936E+04  0.10100000352E+00 0.  1.
</event>
<event>
 5   0  0.1198763E-06  0.3069205E+04  0.7818609E-02  0.8224240E-01
       -1   -1    0    0    0  501  0.00000000000E+00  0.00000000000E+00  0.95967669939E+03  0.95967669941E+03  0.50400001928E-02 0.  1.
        1   -1    0    0  501    0  0.00000000000E+00  0.00000000000E+00 -0.24539572058E+04  0.24539572058E+04  0.50400001928E-02 0. -1.
    10030    2    1    2    0    0  0.00000000000E+00  0.00000000000E+00 -0.14942805064E+04  0.34136339052E+04  0.30692054684E+04 0.  0.
        1    1    3    3  502    0 -0.10066939460E+04 -0.12264983685E+03  0.53386082899E+03  0.11460728895E+04  0.50400001928E-02 0.  1.
       -1    1    3    3    0  502  0.10066939460E+04  0.12264983685E+03 -0.20281413354E+04  0.22675610157E+04  0.50400001928E-02 0. -1.
</event>
<event>
 5   0  0.1250276E-06  0.3096962E+04  0.7818609E-02  0.8216572E-01
        1   -1    0    0  501    0  0.00000000000E+00  0.00000000000E+00  0.24212744173E+04  0.24212744173E+04  0.50400001928E-02 0.  1.
       -1   -1    0    0    0  501  0.00000000000E+00  0.00000000000E+00 -0.99030220253E+03  0.99030220255E+03  0.50400001928E-02 0. -1.
    10030    2    1    2    0    0  0.00000000000E+00  0.00000000000E+00  0.14309722148E+04  0.34115766199E+04  0.30969619878E+04 0.  0.
        5    1    3    3  502    0  0.12361160584E+04  0.53452469615E+03 -0.12639807625E+03  0.13526633448E+04  0.46999998093E+01 0. -1.
       -5    1    3    3    0  502 -0.12361160584E+04 -0.53452469615E+03  0.15573702910E+04  0.20589132750E+04  0.46999998093E+01 0.  1.
</event>
<event>
 5   0  0.3340899E-06  0.2990796E+04  0.7818609E-02  0.8246364E-01
       -2   -1    0    0    0  501  0.00000000000E+00  0.00000000000E+00  0.15014756393E+04  0.15014756393E+04  0.25500000920E-02 0.  1.
        2   -1    0    0  501    0  0.00000000000E+00  0.00000000000E+00 -0.14893445917E+04  0.14893445917E+04  0.25500000920E-02 0. -1.
    10030    2    1    2    0    0  0.00000000000E+00  0.00000000000E+00  0.12131047667E+02  0.29908202310E+04  0.29907956286E+04 0.  0.
        3    1    3    3  502    0  0.64595500204E+03 -0.24597361212E+03  0.13321434479E+04  0.15007888121E+04  0.10100000352E+00 0.  1.
       -3    1    3    3    0  502 -0.64595500204E+03  0.24597361212E+03 -0.13200124002E+04  0.14900314189E+04  0.10100000352E+00 0. -1.
</event>
<event>
 5   0  0.3374790E-06  0.3283238E+04  0.7818609E-02  0.8167174E-01
        2   -1    0    0  501    0  0.00000000000E+00  0.00000000000E+00  0.30315676041E+04  0.30315676041E+04  0.25500000920E-02 0.  1.
       -2   -1    0    0    0  501  0.00000000000E+00  0.00000000000E+00 -0.88895050985E+03  0.88895050985E+03  0.25500000920E-02 0. -1.
    10030    2    1    2    0    0  0.00000000000E+00  0.00000000000E+00  0.21426170943E+04  0.39205181140E+04  0.32832383814E+04 0.  0.
        2    1    3    3  502    0 -0.12689669438E+04 -0.75939959027E+03  0.22026656194E+03  0.14951529020E+04  0.25500000920E-02 0. -1.
       -2    1    3    3    0  502  0.12689669438E+04  0.75939959027E+03  0.19223505323E+04  0.24253652120E+04  0.25500000920E-02 0.  1.
</event>
<event>
 5   0  0.1250276E-06  0.3085244E+04  0.7818609E-02  0.8219799E-01
        1   -1    0    0  501    0  0.00000000000E+00  0.00000000000E+00  0.17721744310E+04  0.17721744310E+04  0.50400001928E-02 0.  1.
       -1   -1    0    0    0  501  0.00000000000E+00  0.00000000000E+00 -0.13428041794E+04  0.13428041794E+04  0.50400001928E-02 0. -1.
    10030    2    1    2    0    0  0.00000000000E+00  0.00000000000E+00  0.42937025154E+03  0.31149786104E+04  0.30852443875E+04 0.  0.
        5    1    3    3  502    0 -0.12926969643E+04 -0.84074743339E+03  0.17257640737E+03  0.15516850178E+04  0.46999998093E+01 0. -1.
       -5    1    3    3    0  502  0.12926969643E+04  0.84074743339E+03  0.25679384417E+03  0.15632935926E+04  0.46999998093E+01 0.  1.
</event>
<event>
 5   0  0.3340899E-06  0.3072800E+04  0.7818609E-02  0.8223243E-01
        2   -1    0    0  501    0  0.00000000000E+00  0.00000000000E+00  0.18749009621E+04  0.18749009621E+04  0.25500000920E-02 0. -1.
       -2   -1    0    0    0  501  0.00000000000E+00  0.00000000000E+00 -0.12590133767E+04  0.12590133767E+04  0.25500000920E-02 0.  1.
    10030    2    1    2    0    0  0.00000000000E+00  0.00000000000E+00  0.61588758535E+03  0.31339143388E+04  0.30728002807E+04 0.  0.
        3    1    3    3  502    0 -0.60224777114E+03  0.61657896336E+03  0.16051096918E+04  0.18218806571E+04  0.10100000352E+00 0. -1.
       -3    1    3    3    0  502  0.60224777114E+03 -0.61657896336E+03 -0.98922210642E+03  0.13120336817E+04  0.10100000352E+00 0.  1.
</event>
<event>
 5   0  0.3445410E-06  0.3090703E+04  0.7818609E-02  0.8218294E-01
       -2   -1    0    0    0  501  0.00000000000E+00  0.00000000000E+00  0.98006095081E+03  0.98006095081E+03  0.25500000920E-02 0. -1.
        2   -1    0    0  501    0  0.00000000000E+00  0.00000000000E+00 -0.24366965062E+04  0.24366965062E+04  0.25500000920E-02 0.  1.
    10030    2    1    2    0    0  0.00000000000E+00  0.00000000000E+00 -0.14566355553E+04  0.34167574570E+04  0.30907028939E+04 0.  0.
        1    1    3    3  502    0 -0.86773996931E+03 -0.72524117859E+03 -0.18925904686E+04  0.22047326603E+04  0.50400001928E-02 0.  1.
       -1    1    3    3    0  502  0.86773996931E+03  0.72524117859E+03  0.43595491322E+03  0.12120247967E+04  0.50400001928E-02 0. -1.
</event>
<event>
 5   0  0.3445959E-06  0.3108689E+04  0.7818609E-02  0.8213357E-01
       -2   -1    0    0    0  501  0.00000000000E+00  0.00000000000E+00  0.10245685279E+04  0.10245685279E+04  0.25500000920E-02 0. -1.
        2   -1    0    0  501    0  0.00000000000E+00  0.00000000000E+00 -0.23580535742E+04  0.23580535742E+04  0.25500000920E-02 0.  1.
    10030    2    1    2    0    0  0.00000000000E+00  0.00000000000E+00 -0.13334850463E+04  0.33826221021E+04  0.31086894211E+04 0.  0.
        4    1    3    3  502    0 -0.23973522469E+01  0.15300059690E+04 -0.36862617649E+03  0.15737887035E+04  0.12699999809E+01 0.  1.
       -4    1    3    3    0  502  0.23973522469E+01 -0.15300059690E+04 -0.96485886978E+03  0.18088333986E+04  0.12699999809E+01 0. -1.
</event>
<event>
 5   0  0.3374790E-06  0.3101577E+04  0.7818609E-02  0.8215305E-01
        2   -1    0    0  501    0  0.00000000000E+00  0.00000000000E+00  0.87559076470E+03  0.87559076470E+03  0.25500000920E-02 0. -1.
       -2   -1    0    0    0  501  0.00000000000E+00  0.00000000000E+00 -0.27466533355E+04  0.27466533355E+04  0.25500000920E-02 0.  1.
    10030    2    1    2    0    0  0.00000000000E+00  0.00000000000E+00 -0.18710625708E+04  0.36222441002E+04  0.31015765632E+04 0.  0.
        2    1    3    3  502    0  0.87935103672E+03  0.12582486095E+04 -0.67834349916E+03  0.16782722401E+04  0.25500000920E-02 0. -1.
       -2    1    3    3    0  502 -0.87935103672E+03 -0.12582486095E+04 -0.11927190717E+04  0.19439718601E+04  0.25500000920E-02 0.  1.
</event>
<event>
 5   0  0.1250276E-06  0.3018566E+04  0.7818609E-02  0.8238449E-01
       -1   -1    0    0    0  501  0.00000000000E+00  0.00000000000E+00  0.12654051848E+04  0.12654051848E+04  0.50400001928E-02 0.  1.
        1   -1    0    0  501    0  0.00000000000E+00  0.00000000000E+00 -0.18001621315E+04  0.18001621315E+04  0.50400001928E-02 0. -1.
    10030    2    1    2    0    0  0.00000000000E+00  0.00000000000E+00 -0.53475694670E+03  0.30655673163E+04  0.30185655498E+04 0.  0.
        5    1    3    3  502    0  0.63959689849E+03 -0.98825069465E+03  0.69188658142E+03  0.13654496547E+04  0.46999998093E+01 0.  1.
       -5    1    3    3    0  502 -0.63959689849E+03  0.98825069465E+03 -0.12266435281E+04  0.17001176615E+04  0.46999998093E+01 0. -1.
</event>
<event>
 5   0  0.3374790E-06  0.3132229E+04  0.7818609E-02  0.8206948E-01
        2   -1    0    0  501    0  0.00000000000E+00  0.00000000000E+00  0.13034773608E+04  0.13034773608E+04  0.25500000920E-02 0. -1.
       -2   -1    0    0    0  501  0.00000000000E+00  0.00000000000E+00 -0.18816704147E+04  0.18816704147E+04  0.25500000920E-02 0.  1.
    10030    2    1    2    0    0  0.00000000000E+00  0.00000000000E+00 -0.57819305385E+03  0.31851477755E+04  0.31322291015E+04 0.  0.
        2    1    3    3  502    0 -0.51311774735E+03 -0.14122726922E+04 -0.73804244290E+03  0.16740700783E+04  0.25500000920E-02 0.  1.
       -2    1    3    3    0  502  0.51311774735E+03  0.14122726922E+04  0.15984938905E+03  0.15110776972E+04  0.25500000920E-02 0. -1.
</event>
<event>
 5   0  0.1250276E-06  0.3009364E+04  0.7818609E-02  0.8241062E-01
       -1   -1    0    0    0  501  0.00000000000E+00  0.00000000000E+00  0.17107572731E+04  0.17107572731E+04  0.50400001928E-02 0.  1.
        1   -1    0    0  501    0  0.00000000000E+00  0.00000000000E+00 -0.13234298930E+04  0.13234298930E+04  0.50400001928E-02 0. -1.
    10030    2    1    2    0    0  0.00000000000E+00  0.00000000000E+00  0.38732738019E+03  0.30341871661E+04  0.30093635971E+04 0.  0.
        5    1    3    3  502    0  0.10896948984E+04 -0.96764212065E+03  0.57129152887E+03  0.15652994430E+04  0.46999998093E+01 0.  1.
       -5    1    3    3    0  502 -0.10896948984E+04  0.96764212065E+03 -0.18396414869E+03  0.14688877231E+04  0.46999998093E+01 0. -1.
</event>
<event>
 5   0  0.1235960E-06  0.2983536E+04  0.7818609E-02  0.8248448E-01
       -1   -1    0    0    0  501  0.00000000000E+00  0.00000000000E+00  0.12281501283E+04  0.12281501283E+04  0.50400001928E-02 0.  1.
        1   -1    0    0  501    0  0.00000000000E+00  0.00000000000E+00 -0.18119706376E+04  0.18119706376E+04  0.50400001928E-02 0. -1.
    10030    2    1    2    0    0  0.00000000000E+00  0.00000000000E+00 -0.58382050930E+03  0.30401207658E+04  0.29835361375E+04 0.  0.
        4    1    3    3  502    0 -0.70612671714E+03 -0.11829524322E+04  0.29111170922E+03  0.14080976663E+04  0.12699999809E+01 0.  1.
       -4    1    3    3    0  502  0.70612671714E+03  0.11829524322E+04 -0.87493221853E+03  0.16320230996E+04  0.12699999809E+01 0. -1.
</event>
<event>
 5   0  0.1171915E-06  0.2869195E+04  0.7818609E-02  0.8282102E-01
       -1   -1    0    0    0  501  0.00000000000E+00  0.00000000000E+00  0.92495688572E+03  0.92495688574E+03  0.50400001928E-02 0. -1.
        1   -1    0    0  501    0  0.00000000000E+00  0.00000000000E+00 -0.22250436914E+04  0.22250436914E+04  0.50400001928E-02 0.  1.
    10030    2    1    2    0    0  0.00000000000E+00  0.00000000000E+00 -0.13000868056E+04  0.31500005771E+04  0.28691946490E+04 0.  0.
        2    1    3    3  502    0  0.16453941238E+03 -0.14192705869E+04 -0.50830654289E+03  0.15165018163E+04  0.25500000920E-02 0.  1.
       -2    1    3    3    0  502 -0.16453941238E+03  0.14192705869E+04 -0.79178026275E+03  0.16334987608E+04  0.25500000920E-02 0. -1.
</event>
<event>
 5   0  0.1235960E-06  0.3105396E+04  0.7818609E-02  0.8214259E-01
       -1   -1    0    0    0  501  0.00000000000E+00  0.00000000000E+00  0.12287284964E+04  0.12287284964E+04  0.50400001928E-02 0. -1.
        1   -1    0    0  501    0  0.00000000000E+00  0.00000000000E+00 -0.19620857809E+04  0.19620857809E+04  0.50400001928E-02 0.  1.
    10030    2    1    2    0    0  0.00000000000E+00  0.00000000000E+00 -0.73335728449E+03  0.31908142772E+04  0.31053957630E+04 0.  0.
        4    1    3    3  502    0 -0.95823934399E+03  0.76156105472E+03 -0.13482949118E+04  0.18210158326E+04  0.12699999809E+01 0.  1.
       -4    1    3    3    0  502  0.95823934399E+03 -0.76156105472E+03  0.61493762735E+03  0.13697984446E+04  0.12699999809E+01 0. -1.
</event>
<event>
 5   0  0.3445410E-06  0.3014405E+04  0.7818609E-02  0.8239629E-01
       -2   -1    0    0    0  501  0.00000000000E+00  0.00000000000E+00  0.27424818665E+04  0.27424818665E+04  0.25500000920E-02 0. -1.
        2   -1    0    0  501    0  0.00000000000E+00  0.00000000000E+00 -0.82832246024E+03  0.82832246025E+03  0.25500000920E-02 0.  1.
    10030    2    1    2    0    0  0.00000000000E+00  0.00000000000E+00  0.19141594063E+04  0.35708043268E+04  0.30144049674E+04 0.  0.
        1    1    3    3  502    0  0.28499184724E+03  0.29197762367E+03 -0.76165918214E+03  0.86405786582E+03  0.50400001928E-02 0.  1.
       -1    1    3    3    0  502 -0.28499184724E+03 -0.29197762367E+03  0.26758185884E+04  0.27067464609E+04  0.50400001928E-02 0. -1.
</event>
<event>
 5   0  0.3445959E-06  0.3090423E+04  0.7818609E-02  0.8218371E-01
        2   -1    0    0  501    0  0.00000000000E+00  0.00000000000E+00  0.27800745215E+04  0.27800745215E+04  0.25500000920E-02 0.  1.
       -2   -1    0    0    0  501  0.00000000000E+00  0.00000000000E+00 -0.85885442418E+03  0.85885442418E+03  0.25500000920E-02 0. -1.
    10030    2    1    2    0    0  0.00000000000E+00  0.00000000000E+00  0.19212200973E+04  0.36389289457E+04  0.30904234676E+04 0.  0.
        4    1    3    3  502    0 -0.69757450188E+02  0.57137651859E+03  0.26491179336E+04  0.27109342793E+04  0.12699999809E+01 0.  1.
       -4    1    3    3    0  502  0.69757450188E+02 -0.57137651859E+03 -0.72789783626E+03  0.92799466636E+03  0.12699999809E+01 0. -1.
</event>
<event>
 5   0  0.1211008E-06  0.3093319E+04  0.7818609E-02  0.8217574E-01
        1   -1    0    0  501    0  0.00000000000E+00  0.00000000000E+00  0.23307203613E+04  0.23307203613E+04  0.50400001928E-02 0. -1.
       -1   -1    0    0    0  501  0.00000000000E+00  0.00000000000E+00 -0.10263591028E+04  0.10263591028E+04  0.50400001928E-02 0.  1.
    10030    2    1    2    0    0  0.00000000000E+00  0.00000000000E+00  0.13043612585E+04  0.33570794641E+04  0.30933192909E+04 0.  0.
        3    1    3    3  502    0  0.43802103464E+03 -0.77212142676E+03 -0.72235368370E+03  0.11444775135E+04  0.10100000352E+00 0.  1.
       -3    1    3    3    0  502 -0.43802103464E+03  0.77212142676E+03  0.20267149422E+04  0.22126019506E+04  0.10100000352E+00 0. -1.
</event>
<event>
 5   0  0.3340899E-06  0.3126636E+04  0.7818609E-02  0.8208466E-01
       -2   -1    0    0    0  501  0.00000000000E+00  0.00000000000E+00  0.10855053408E+04  0.10855053408E+04  0.25500000920E-02 0.  1.
        2   -1    0    0  501    0  0.00000000000E+00  0.00000000000E+00 -0.22514522362E+04  0.22514522362E+04  0.25500000920E-02 0. -1.
    10030    2    1    2    0    0  0.00000000000E+00  0.00000000000E+00 -0.11659468954E+04  0.33369575770E+04  0.31266361650E+04 0.  0.
        3    1    3    3  502    0  0.55932112726E+03  0.28116718128E+03 -0.21118388235E+04  0.22026707275E+04  0.10100000352E+00 0. -1.
       -3    1    3    3    0  502 -0.55932112726E+03 -0.28116718128E+03  0.94589192809E+03  0.11342868495E+04  0.10100000352E+00 0.  1.
</event>
<event>
 5   0  0.1211008E-06  0.3236611E+04  0.7818609E-02  0.8179215E-01
       -1   -1    0    0    0  501  0.00000000000E+00  0.00000000000E+00  0.18693342137E+04  0.18693342137E+04  0.50400001928E-02 0. -1.
        1   -1    0    0  501    0  0.00000000000E+00  0.00000000000E+00 -0.14009866162E+04  0.14009866162E+04  0.50400001928E-02 0.  1.
    10030    2    1    2    0    0  0.00000000000E+00  0.00000000000E+00  0.46834759747E+03  0.32703208299E+04  0.32366107055E+04 0.  0.
        3    1    3    3  502    0  0.12537604236E+04  0.92906623952E+03  0.66739683874E+03  0.16972029425E+04  0.10100000352E+00 0.  1.
       -3    1    3    3    0  502 -0.12537604236E+04 -0.92906623952E+03 -0.19904924127E+03  0.15731178875E+04  0.10100000352E+00 0. -1.
</event>
<event>
 5   0  0.1171915E-06  0.3100275E+04  0.7818609E-02  0.8215662E-01
        1   -1    0    0  501    0  0.00000000000E+00  0.00000000000E+00  0.23820060695E+04  0.23820060695E+04  0.50400001928E-02 0. -1.
       -1   -1    0    0    0  501  0.00000000000E+00  0.00000000000E+00 -0.10087825388E+04  0.10087825388E+04  0.50400001928E-02 0.  1.
    10030    2    1    2    0    0  0.00000000000E+00  0.00000000000E+00  0.13732235307E+04  0.33907886083E+04  0.31002749106E+04 0.  0.
        2    1    3    3  502    0  0.12114486581E+04 -0.73692406263E+03  0.13716080072E+04  0.19728085185E+04  0.25500000920E-02 0.  1.
       -2    1    3    3    0  502 -0.12114486581E+04  0.73692406263E+03  0.16155234418E+01  0.14179800898E+04  0.25500000920E-02 0. -1.
</event>
<event>
 5   0  0.3374790E-06  0.3083252E+04  0.7818609E-02  0.8220349E-01
       -2   -1    0    0    0  501  0.00000000000E+00  0.00000000000E+00  0.24166053329E+04  0.24166053329E+04  0.25500000920E-02 0. -1.
        2   -1    0    0  501    0  0.00000000000E+00  0.00000000000E+00 -0.98345034516E+03  0.98345034516E+03  0.25500000920E-02 0.  1.
    10030    2    1    2    0    0  0.00000000000E+00  0.00000000000E+00  0.14331549877E+04  0.34000556781E+04  0.30832524053E+04 0.  0.
        2    1    3    3  502    0 -0.19183254884E+03 -0.73561585219E+03  0.21955292802E+04  0.23234197273E+04  0.25500000920E-02 0. -1.
       -2    1    3    3    0  502  0.19183254884E+03  0.73561585219E+03 -0.76237429245E+03  0.10766359508E+04  0.25500000920E-02 0.  1.
</event>
<event>
 5   0  0.1109562E-06  0.3099467E+04  0.7818609E-02  0.8215884E-01
        3   -1    0    0  501    0  0.00000000000E+00  0.00000000000E+00  0.28757615866E+04  0.28757615883E+04  0.10100000352E+00 0. -1.
       -3   -1    0    0    0  501  0.00000000000E+00  0.00000000000E+00 -0.83514345272E+03  0.83514345883E+03  0.10100000352E+00 0.  1.
    10030    2    1    2    0    0  0.00000000000E+00  0.00000000000E+00  0.20406181338E+04  0.37109050472E+04  0.30994667123E+04 0.  0.
        4    1    3    3  502    0  0.10005054770E+03 -0.15191001704E+04  0.67331403217E+03  0.16646407536E+04  0.12699999809E+01 0. -1.
       -4    1    3    3    0  502 -0.10005054770E+03  0.15191001704E+04  0.13673041017E+04  0.20462642936E+04  0.12699999809E+01 0.  1.
</event>
<event>
 5   0  0.1198763E-06  0.3095343E+04  0.7818609E-02  0.8217017E-01
       -1   -1    0    0    0  501  0.00000000000E+00  0.00000000000E+00  0.13231148188E+04  0.13231148188E+04  0.50400001928E-02 0.  1.
        1   -1    0    0  501    0  0.00000000000E+00  0.00000000000E+00 -0.18103398034E+04  0.18103398034E+04  0.50400001928E-02 0. -1.
    10030    2    1    2    0    0  0.00000000000E+00  0.00000000000E+00 -0.48722498462E+03  0.31334546223E+04  0.30953432256E+04 0.  0.
        1    1    3    3  502    0  0.75568825643E+03 -0.98703584557E+03 -0.11769091200E+04  0.17118468325E+04  0.50400001928E-02 0. -1.
       -1    1    3    3    0  502 -0.75568825643E+03  0.98703584557E+03  0.68968413533E+03  0.14216077898E+04  0.50400001928E-02 0.  1.
</event>
<event>
 5   0  0.3445959E-06  0.3097198E+04  0.7818609E-02  0.8216507E-01
        2   -1    0    0  501    0  0.00000000000E+00  0.00000000000E+00  0.12812208832E+04  0.12812208832E+04  0.25500000920E-02 0. -1.
       -2   -1    0    0    0  501  0.00000000000E+00  0.00000000000E+00 -0.18717763676E+04  0.18717763676E+04  0.25500000920E-02 0.  1.
    10030    2    1    2    0    0  0.00000000000E+00  0.00000000000E+00 -0.59055548444E+03  0.31529972508E+04  0.30971980697E+04 0.  0.
        4    1    3    3  502    0 -0.52803917175E+02 -0.99142166093E+03 -0.15051554950E+04  0.18031083829E+04  0.12699999809E+01 0.  1.
       -4    1    3    3    0  502  0.52803917175E+02  0.99142166093E+03  0.91460001056E+03  0.13498888679E+04  0.12699999809E+01 0. -1.
</event>
<event>
 5   0  0.1198763E-06  0.2818785E+04  0.7818609E-02  0.8297460E-01
       -1   -1    0    0    0  501  0.00000000000E+00  0.00000000000E+00  0.10335950586E+04  0.10335950586E+04  0.50400001928E-02 0.  1.
        1   -1    0    0  501    0  0.00000000000E+00  0.00000000000E+00 -0.19218241219E+04  0.19218241219E+04  0.50400001928E-02 0. -1.
    10030    2    1    2    0    0  0.00000000000E+00  0.00000000000E+00 -0.88822906330E+03  0.29554191805E+04  0.28187854944E+04 0.  0.
        1    1    3    3  502    0  0.22279208573E+03  0.98063629563E+03  0.59122439170E+03  0.11665462439E+04  0.50400001928E-02 0.  1.
       -1    1    3    3    0  502 -0.22279208573E+03 -0.98063629563E+03 -0.14794534550E+04  0.17888729366E+04  0.50400001928E-02 0. -1.
</event>
<event>
 5   0  0.3445959E-06  0.3142327E+04  0.7818609E-02  0.8204217E-01
       -2   -1    0    0    0  501  0.00000000000E+00  0.00000000000E+00  0.18211850935E+04  0.18211850935E+04  0.25500000920E-02 0. -1.
        2   -1    0    0  501    0  0.00000000000E+00  0.00000000000E+00 -0.13554662779E+04  0.13554662779E+04  0.25500000920E-02 0.  1.
    10030    2    1    2    0    0  0.00000000000E+00  0.00000000000E+00  0.46571881560E+03  0.31766513713E+04  0.31423271503E+04 0.  0.
        4    1    3    3  502    0 -0.39994829750E+02  0.20332180761E+03 -0.13415910676E+04  0.13575004786E+04  0.12699999809E+01 0.  1.
       -4    1    3    3    0  502  0.39994829750E+02 -0.20332180761E+03  0.18073098832E+04  0.18191508927E+04  0.12699999809E+01 0. -1.
</event>
<event>
 5   0  0.3441897E-06  0.3120879E+04  0.7818609E-02  0.8210031E-01
       -2   -1    0    0    0  501  0.00000000000E+00  0.00000000000E+00  0.16167183369E+04  0.16167183369E+04  0.25500000920E-02 0. -1.
        2   -1    0    0  501    0  0.00000000000E+00  0.00000000000E+00 -0.15061195513E+04  0.15061195513E+04  0.25500000920E-02 0.  1.
    10030    2    1    2    0    0  0.00000000000E+00  0.00000000000E+00  0.11059878564E+03  0.31228378882E+04  0.31208787840E+04 0.  0.
        5    1    3    3  502    0 -0.55486291917E+03  0.14584461358E+04  0.51978279086E+02  0.15613013231E+04  0.46999998093E+01 0. -1.
       -5    1    3    3    0  502  0.55486291917E+03 -0.14584461358E+04  0.58620506553E+02  0.15615365650E+04  0.46999998093E+01 0.  1.
</event>
<event>
 5   0  0.1235960E-06  0.3169439E+04  0.7818609E-02  0.8196935E-01
       -1   -1    0    0    0  501  0.00000000000E+00  0.00000000000E+00  0.99379367998E+03  0.99379367999E+03  0.50400001928E-02 0.  1.
        1   -1    0    0  501    0  0.00000000000E+00  0.00000000000E+00 -0.25270200924E+04  0.25270200924E+04  0.50400001928E-02 0. -1.
    10030    2    1    2    0    0  0.00000000000E+00  0.00000000000E+00 -0.15332264124E+04  0.35208137724E+04  0.31694394438E+04 0.  0.
        4    1    3    3  502    0  0.12343266118E+04  0.97724736620E+03 -0.56554884776E+03  0.16728483827E+04  0.12699999809E+01 0.  1.
       -4    1    3    3    0  502 -0.12343266118E+04 -0.97724736620E+03 -0.96767756467E+03  0.18479653897E+04  0.12699999809E+01 0. -1.
</event>
<event>
 5   0  0.3441897E-06  0.3102039E+04  0.7818609E-02  0.8215178E-01
       -2   -1    0    0    0  501  0.00000000000E+00  0.00000000000E+00  0.20341431873E+04  0.20341431873E+04  0.25500000920E-02 0. -1.
        2   -1    0    0  501    0  0.00000000000E+00  0.00000000000E+00 -0.11826415499E+04  0.11826415499E+04  0.25500000920E-02 0.  1.
    10030    2    1    2    0    0  0.00000000000E+00  0.00000000000E+00  0.85150163738E+03  0.32167847373E+04  0.31020394916E+04 0.  0.
        5    1    3    3  502    0  0.13664648843E+04  0.30088697197E+03 -0.26824356194E+03  0.14246880180E+04  0.46999998093E+01 0.  1.
       -5    1    3    3    0  502 -0.13664648843E+04 -0.30088697197E+03  0.11197451993E+04  0.17920967193E+04  0.46999998093E+01 0. -1.
</event>
<event>
 5   0  0.1171915E-06  0.3108931E+04  0.7818609E-02  0.8213291E-01
        1   -1    0    0  501    0  0.00000000000E+00  0.00000000000E+00  0.13880221835E+04  0.13880221835E+04  0.50400001928E-02 0.  1.
       -1   -1    0    0    0  501  0.00000000000E+00  0.00000000000E+00 -0.17408676974E+04  0.17408676975E+04  0.50400001928E-02 0. -1.
    10030    2    1    2    0    0  0.00000000000E+00  0.00000000000E+00 -0.35284551395E+03  0.31288898810E+04  0.31089309948E+04 0.  0.
        2    1    3    3  502    0 -0.30155157302E+03  0.14775607466E+04 -0.55599633885E+03  0.16072495263E+04  0.25500000920E-02 0.  1.
       -2    1    3    3    0  502  0.30155157302E+03 -0.14775607466E+04  0.20315082490E+03  0.15216403546E+04  0.25500000920E-02 0. -1.
</event>
<event>
 5   0  0.3374790E-06  0.2580722E+04  0.7818609E-02  0.8374779E-01
        2   -1    0    0  501    0  0.00000000000E+00  0.00000000000E+00  0.19876283453E+04  0.19876283453E+04  0.25500000920E-02 0.  1.
       -2   -1    0    0    0  501  0.00000000000E+00  0.00000000000E+00 -0.83769760874E+03  0.83769760874E+03  0.25500000920E-02 0. -1.
    10030    2    1    2    0    0  0.00000000000E+00  0.00000000000E+00  0.11499307365E+04  0.28253259540E+04  0.25807220012E+04 0.  0.
        2    1    3    3  502    0 -0.21670511002E+03 -0.12085391138E+04  0.10094481810E+04  0.15895010300E+04  0.25500000920E-02 0.  1.
       -2    1    3    3    0  502  0.21670511002E+03  0.12085391138E+04  0.14048255553E+03  0.12358249240E+04  0.25500000920E-02 0. -1.
</event>
<event>
 5   0  0.1250276E-06  0.3115292E+04  0.7818609E-02  0.8211554E-01
       -1   -1    0    0    0  501  0.00000000000E+00  0.00000000000E+00  0.21052284841E+04  0.21052284841E+04  0.50400001928E-02 0. -1.
        1   -1    0    0  501    0  0.00000000000E+00  0.00000000000E+00 -0.11524926710E+04  0.11524926710E+04  0.50400001928E-02 0.  1.
    10030    2    1    2    0    0  0.00000000000E+00  0.00000000000E+00  0.95273581315E+03  0.32577211551E+04  0.31152915746E+04 0.  0.
        5    1    3    3  502    0 -0.13751279020E+04  0.18056275223E+03 -0.26503074131E+03  0.14120350698E+04  0.46999998093E+01 0.  1.
       -5    1    3    3    0  502  0.13751279020E+04 -0.18056275223E+03  0.12177665545E+04  0.18456860853E+04  0.46999998093E+01 0. -1.
</event>
</LesHouchesEvents>
