<LesHouchesEvents version="3.0">
<header>
<!--
#*********************************************************************
#                                                                    *
#                        MadGraph5_aMC@NLO                           *
#                                                                    *
#                           Going Beyond                             *
#                                                                    *
#                   http://madgraph.hep.uiuc.edu                     *
#                   http://madgraph.phys.ucl.ac.be                   *
#                   http://amcatnlo.cern.ch                          *
#                                                                    *
#                     The MadGraph5_aMC@NLO team                     *
#                                                                    *
#....................................................................*
#                                                                    *
# This file contains all the information necessary to reproduce      *
# the events generated:                                              *
#                                                                    *
# 1. software version                                                *
# 2. proc_card          : code generation info including model       *
# 3. param_card         : model primary parameters in the LH format  *
# 4. run_card           : running parameters (collider and cuts)     *
# 5. pythia_card        : present only if pythia has been run        *
# 6. pgs_card           : present only if pgs has been run           *
# 7. delphes_cards      : present only if delphes has been run       *
#                                                                    *
#                                                                    *
#*********************************************************************
-->
<MGVersion>
#5.2.2.3
</MGVersion>
<MG5ProcCard>
#************************************************************
#*                     MadGraph5_aMC@NLO                    *
#*                                                          *
#*                *                       *                 *
#*                  *        * *        *                   *
#*                    * * * * 5 * * * *                     *
#*                  *        * *        *                   *
#*                *                       *                 *
#*                                                          *
#*                                                          *
#*         VERSION 2.2.3                 2015-02-10         *
#*                                                          *
#*    The MadGraph5_aMC@NLO Development Team - Find us at   *
#*    https://server06.fynu.ucl.ac.be/projects/madgraph     *
#*                                                          *
#************************************************************
#*                                                          *
#*               Command File for MadGraph5_aMC@NLO         *
#*                                                          *
#*     run as ./bin/mg5_aMC  filename                       *
#*                                                          *
#************************************************************
set group_subprocesses Auto
set ignore_six_quark_processes False
set loop_optimized_output True
set gauge unitary
set complex_mass_scheme False
import model sm
define p = g u c d s u~ c~ d~ s~
define j = g u c d s u~ c~ d~ s~
define l+ = e+ mu+
define l- = e- mu-
define vl = ve vm vt
define vl~ = ve~ vm~ vt~
import model Zprime_UFO
generate p p > zph, zph > j j
add process p p > zph, zph > b b~
output Dijet_signal
</MG5ProcCard>
<MGProcCard>
#*********************************************************************
#                        MadGraph/MadEvent                           *
#                   http://madgraph.hep.uiuc.edu                     *
#                                                                    *
#                          proc_card.dat                             *
#*********************************************************************
#                                                                    *
#            This Files is generated by MADGRAPH 5                   *
#                                                                    *
# WARNING: This Files is generated for MADEVENT (compatibility issue)*
#          This files is NOT a valid MG4 proc_card.dat               *
#          Running this in MG4 will NEVER reproduce the result of MG5*
#                                                                    *
#*********************************************************************
#*********************************************************************
# Process(es) requested : mg2 input                                  *
#*********************************************************************
# Begin PROCESS # This is TAG. Do not modify this line
p p > zph , zph > j j           #Process
# Be carefull the coupling are here in MG5 convention
          
end_coup           # End the couplings input

done               # this tells MG there are no more procs
# End PROCESS  # This is TAG. Do not modify this line
#*********************************************************************
# Model information                                                  *
#*********************************************************************
# Begin MODEL  # This is TAG. Do not modify this line
Zprime_UFO
# End   MODEL  # This is TAG. Do not modify this line
#*********************************************************************
# Start multiparticle definitions                                    *
#*********************************************************************
# Begin MULTIPARTICLES # This is TAG. Do not modify this line

# End  MULTIPARTICLES # This is TAG. Do not modify this line
</MGProcCard>
<MGRunCard>
#*********************************************************************
#                       MadGraph5_aMC@NLO                            *
#                                                                    *
#                     run_card.dat MadEvent                          *
#                                                                    *
#  This file is used to set the parameters of the run.               *
#                                                                    *
#  Some notation/conventions:                                        *
#                                                                    *
#   Lines starting with a '# ' are info or comments                  *
#                                                                    *
#   mind the format:   value    = variable     ! comment             *
#*********************************************************************
#
#*******************                                                 
# Running parameters
#*******************                                                 
#                                                                    
#*********************************************************************
# Tag name for the run (one word)                                    *
#*********************************************************************
  tag_1     = run_tag ! name of the run 
#*********************************************************************
# Run to generate the grid pack                                      *
#*********************************************************************
  .false.     = gridpack  !True = setting up the grid pack
#*********************************************************************
# Number of events and rnd seed                                      *
# Warning: Do not generate more than 1M events in a single run       *
# If you want to run Pythia, avoid more than 50k events in a run.    *
#*********************************************************************
  2000 = nevents ! Number of unweighted events requested 
 660 = iseed   ! rnd seed (0=assigned automatically=default))
#*********************************************************************
# Collider type and energy                                           *
# lpp: 0=No PDF, 1=proton, -1=antiproton, 2=photon from proton,      *
#                                         3=photon from electron     *
#*********************************************************************
        1     = lpp1    ! beam 1 type 
        1     = lpp2    ! beam 2 type
     4000     = ebeam1  ! beam 1 total energy in GeV
     4000     = ebeam2  ! beam 2 total energy in GeV
#*********************************************************************
# Beam polarization from -100 (left-handed) to 100 (right-handed)    *
#*********************************************************************
        0     = polbeam1 ! beam polarization for beam 1
        0     = polbeam2 ! beam polarization for beam 2
#*********************************************************************
# PDF CHOICE: this automatically fixes also alpha_s and its evol.    *
#*********************************************************************
 'nn23lo1'    = pdlabel     ! PDF set                                     
 230000    = lhaid     ! if pdlabel=lhapdf, this is the lhapdf number
#*********************************************************************
# Renormalization and factorization scales                           *
#*********************************************************************
 F        = fixed_ren_scale  ! if .true. use fixed ren scale
 F        = fixed_fac_scale  ! if .true. use fixed fac scale
 91.1880  = scale            ! fixed ren scale
 91.1880  = dsqrt_q2fact1    ! fixed fact scale for pdf1
 91.1880  = dsqrt_q2fact2    ! fixed fact scale for pdf2
 1        = scalefact        ! scale factor for event-by-event scales
#*********************************************************************
# Matching - Warning! ickkw > 1 is still beta
#*********************************************************************
 0        = ickkw            ! 0 no matching, 1 MLM, 2 CKKW matching
 1        = highestmult      ! for ickkw=2, highest mult group
 1        = ktscheme         ! for ickkw=1, 1 Durham kT, 2 Pythia pTE
 1        = alpsfact         ! scale factor for QCD emission vx
 F        = chcluster        ! cluster only according to channel diag
 T        = pdfwgt           ! for ickkw=1, perform pdf reweighting
 5        = asrwgtflavor     ! highest quark flavor for a_s reweight
 T        = clusinfo         ! include clustering tag in output
 3.0      = lhe_version       ! Change the way clustering information pass to shower.        
#*********************************************************************
#**********************************************************
#
#**********************************************************
# Automatic ptj and mjj cuts if xqcut > 0
# (turn off for VBF and single top processes)
#**********************************************************
   T  = auto_ptj_mjj  ! Automatic setting of ptj and mjj
#**********************************************************
#                                                                    
#**********************************
# BW cutoff (M+/-bwcutoff*Gamma)
#**********************************
  15  = bwcutoff      ! (M+/-bwcutoff*Gamma)
#**********************************************************
# Apply pt/E/eta/dr/mij cuts on decay products or not
# (note that etmiss/ptll/ptheavy/ht/sorted cuts always apply)
#**********************************************************
   T  = cut_decays    ! Cut decay products 
#*************************************************************
# Number of helicities to sum per event (0 = all helicities)
# 0 gives more stable result, but longer run time (needed for
# long decay chains e.g.).
# Use >=2 if most helicities contribute, e.g. pure QCD.
#*************************************************************
   0  = nhel          ! Number of helicities used per event
#*******************                                                 
# Standard Cuts
#*******************                                                 
#                                                                    
#*********************************************************************
# Minimum and maximum pt's (for max, -1 means no cut)                *
#*********************************************************************
 20  = ptj       ! minimum pt for the jets 
  0  = ptb       ! minimum pt for the b 
 10  = pta       ! minimum pt for the photons 
 10  = ptl       ! minimum pt for the charged leptons 
  0  = misset    ! minimum missing Et (sum of neutrino's momenta)
  0  = ptheavy   ! minimum pt for one heavy final state
 1.0 = ptonium   ! minimum pt for the quarkonium states
 -1  = ptjmax    ! maximum pt for the jets
 -1  = ptbmax    ! maximum pt for the b
 -1  = ptamax    ! maximum pt for the photons
 -1  = ptlmax    ! maximum pt for the charged leptons
 -1  = missetmax ! maximum missing Et (sum of neutrino's momenta)
#*********************************************************************
# Minimum and maximum E's (in the center of mass frame)              *
#*********************************************************************
  0  = ej     ! minimum E for the jets 
  0  = eb     ! minimum E for the b 
  0  = ea     ! minimum E for the photons 
  0  = el     ! minimum E for the charged leptons 
 -1   = ejmax ! maximum E for the jets
 -1   = ebmax ! maximum E for the b
 -1   = eamax ! maximum E for the photons
 -1   = elmax ! maximum E for the charged leptons
#*********************************************************************
# Maximum and minimum absolute rapidity (for max, -1 means no cut)   *
#*********************************************************************
   5  = etaj    ! max rap for the jets 
  -1  = etab    ! max rap for the b
 2.5  = etaa    ! max rap for the photons 
 2.5  = etal    ! max rap for the charged leptons 
 0.6  = etaonium ! max rap for the quarkonium states
   0  = etajmin ! min rap for the jets
   0  = etabmin ! min rap for the b
   0  = etaamin ! min rap for the photons
   0  = etalmin ! main rap for the charged leptons
#*********************************************************************
# Minimum and maximum DeltaR distance                                *
#*********************************************************************
 0.4 = drjj    ! min distance between jets 
 0   = drbb    ! min distance between b's 
 0.4 = drll    ! min distance between leptons 
 0.4 = draa    ! min distance between gammas 
 0   = drbj    ! min distance between b and jet 
 0.4 = draj    ! min distance between gamma and jet 
 0.4 = drjl    ! min distance between jet and lepton 
 0   = drab    ! min distance between gamma and b 
 0   = drbl    ! min distance between b and lepton 
 0.4 = dral    ! min distance between gamma and lepton 
 -1  = drjjmax ! max distance between jets
 -1  = drbbmax ! max distance between b's
 -1  = drllmax ! max distance between leptons
 -1  = draamax ! max distance between gammas
 -1  = drbjmax ! max distance between b and jet
 -1  = drajmax ! max distance between gamma and jet
 -1  = drjlmax ! max distance between jet and lepton
 -1  = drabmax ! max distance between gamma and b
 -1  = drblmax ! max distance between b and lepton
 -1  = dralmax ! maxdistance between gamma and lepton
#*********************************************************************
# Minimum and maximum invariant mass for pairs                       *
# WARNING: for four lepton final state mmll cut require to have      *
#          different lepton masses for each flavor!                  *           
#*********************************************************************
 0   = mmjj    ! min invariant mass of a jet pair 
 0   = mmbb    ! min invariant mass of a b pair 
 0   = mmaa    ! min invariant mass of gamma gamma pair
 0   = mmll    ! min invariant mass of l+l- (same flavour) lepton pair
 -1  = mmjjmax ! max invariant mass of a jet pair
 -1  = mmbbmax ! max invariant mass of a b pair
 -1  = mmaamax ! max invariant mass of gamma gamma pair
 -1  = mmllmax ! max invariant mass of l+l- (same flavour) lepton pair
#*********************************************************************
# Minimum and maximum invariant mass for all letpons                 *
#*********************************************************************
 0   = mmnl    ! min invariant mass for all letpons (l+- and vl) 
 -1  = mmnlmax ! max invariant mass for all letpons (l+- and vl) 
#*********************************************************************
# Minimum and maximum pt for 4-momenta sum of leptons                *
#*********************************************************************
 0   = ptllmin  ! Minimum pt for 4-momenta sum of leptons(l and vl)
 -1  = ptllmax  ! Maximum pt for 4-momenta sum of leptons(l and vl)
#*********************************************************************
# Inclusive cuts                                                     *
#*********************************************************************
 0  = xptj ! minimum pt for at least one jet  
 0  = xptb ! minimum pt for at least one b 
 0  = xpta ! minimum pt for at least one photon 
 0  = xptl ! minimum pt for at least one charged lepton 
#*********************************************************************
# Control the pt's of the jets sorted by pt                          *
#*********************************************************************
 0   = ptj1min ! minimum pt for the leading jet in pt
 0   = ptj2min ! minimum pt for the second jet in pt
 0   = ptj3min ! minimum pt for the third jet in pt
 0   = ptj4min ! minimum pt for the fourth jet in pt
 -1  = ptj1max ! maximum pt for the leading jet in pt 
 -1  = ptj2max ! maximum pt for the second jet in pt
 -1  = ptj3max ! maximum pt for the third jet in pt
 -1  = ptj4max ! maximum pt for the fourth jet in pt
 0   = cutuse  ! reject event if fails any (0) / all (1) jet pt cuts
#*********************************************************************
# Control the pt's of leptons sorted by pt                           *
#*********************************************************************
 0   = ptl1min ! minimum pt for the leading lepton in pt
 0   = ptl2min ! minimum pt for the second lepton in pt
 0   = ptl3min ! minimum pt for the third lepton in pt
 0   = ptl4min ! minimum pt for the fourth lepton in pt
 -1  = ptl1max ! maximum pt for the leading lepton in pt 
 -1  = ptl2max ! maximum pt for the second lepton in pt
 -1  = ptl3max ! maximum pt for the third lepton in pt
 -1  = ptl4max ! maximum pt for the fourth lepton in pt
#*********************************************************************
# Control the Ht(k)=Sum of k leading jets                            *
#*********************************************************************
 0   = htjmin ! minimum jet HT=Sum(jet pt)
 -1  = htjmax ! maximum jet HT=Sum(jet pt)
 0   = ihtmin  !inclusive Ht for all partons (including b)
 -1  = ihtmax  !inclusive Ht for all partons (including b)
 0   = ht2min ! minimum Ht for the two leading jets
 0   = ht3min ! minimum Ht for the three leading jets
 0   = ht4min ! minimum Ht for the four leading jets
 -1  = ht2max ! maximum Ht for the two leading jets
 -1  = ht3max ! maximum Ht for the three leading jets
 -1  = ht4max ! maximum Ht for the four leading jets
#***********************************************************************
# Photon-isolation cuts, according to hep-ph/9801442                   *
# When ptgmin=0, all the other parameters are ignored                  *
# When ptgmin>0, pta and draj are not going to be used                 *
#***********************************************************************
   0 = ptgmin ! Min photon transverse momentum
 0.4 = R0gamma ! Radius of isolation code
 1.0 = xn ! n parameter of eq.(3.4) in hep-ph/9801442
 1.0 = epsgamma ! epsilon_gamma parameter of eq.(3.4) in hep-ph/9801442
 .true. = isoEM ! isolate photons from EM energy (photons and leptons)
#*********************************************************************
# WBF cuts                                                           *
#*********************************************************************
 0   = xetamin ! minimum rapidity for two jets in the WBF case  
 0   = deltaeta ! minimum rapidity for two jets in the WBF case 
#*********************************************************************
# KT DURHAM CUT                                                      *
#*********************************************************************
 -1    =  ktdurham        
 0.4  =  dparameter 
#*********************************************************************
# maximal pdg code for quark to be considered as a light jet         *
# (otherwise b cuts are applied)                                     *
#*********************************************************************
 4 = maxjetflavor    ! Maximum jet pdg code
#*********************************************************************
# Jet measure cuts                                                   *
#*********************************************************************
 0   = xqcut   ! minimum kt jet measure between partons
#*********************************************************************
#
#*********************************************************************
# Store info for systematics studies                                 *
# WARNING: If use_syst is T, matched Pythia output is                *
#          meaningful ONLY if plotted taking matchscale              *
#          reweighting into account!                                 *
#*********************************************************************
   F  = use_syst      ! Enable systematics studies
#
#**************************************
# Parameter of the systematics study
#  will be used by SysCalc (if installed)
#**************************************                                  
#
0.5 1 2 = sys_scalefact  # factorization/renormalization scale factor
0.5 1 2 = sys_alpsfact  # \alpha_s emission scale factors
30 50 = sys_matchscale # variation of merging scale
# PDF sets and number of members (0 or none for all members).
CT10nlo.LHgrid = sys_pdf # matching scales
# MSTW2008nlo68cl.LHgrid 1  = sys_pdf
</MGRunCard>
<slha>
######################################################################
## PARAM_CARD AUTOMATICALY GENERATED BY MG5 FOLLOWING UFO MODEL   ####
######################################################################
##                                                                  ##
##  Width set on Auto will be computed following the information    ##
##        present in the decay.py files of the model.               ##
##        See  arXiv:1402.1178 for more details.                    ##
##                                                                  ##
######################################################################

###################################
## INFORMATION FOR CKMBLOCK
###################################
Block ckmblock 
    1 2.277360e-01 # cabi 

###################################
## INFORMATION FOR FRBLOCK
###################################
Block frblock 
    1 2.000000e-01 # gz 

###################################
## INFORMATION FOR MASS
###################################
Block mass 
    1 5.040000e-03 # MD 
    2 2.550000e-03 # MU 
    3 1.010000e-01 # MS 
    4 1.270000e+00 # MC 
    5 4.700000e+00 # MB 
    6 1.720000e+02 # MT 
   11 5.110000e-04 # Me 
   13 1.056600e-01 # MM 
   15 1.777000e+00 # MTA 
   23 9.118760e+01 # MZ 
   25 1.200000e+02 # MH 
  10030 2.300000e+03 # MZph 
  10031 3.000000e+02 # MZpl 
## Dependent parameters, given by model restrictions.
## Those values should be edited following the 
## analytical expression. MG5 ignores those values 
## but they are important for interfacing the output of MG5
## to external program such as Pythia.
  12 0.000000 # ve : 0.0 
  14 0.000000 # vm : 0.0 
  16 0.000000 # vt : 0.0 
  21 0.000000 # g : 0.0 
  22 0.000000 # a : 0.0 
  24 79.824360 # w+ : cmath.sqrt(MZ__exp__2/2. + cmath.sqrt(MZ__exp__4/4. - (aEW*cmath.pi*MZ__exp__2)/(Gf*sqrt__2))) 

###################################
## INFORMATION FOR SMINPUTS
###################################
Block sminputs 
    1 1.279000e+02 # aEWM1 
    2 1.166370e-05 # Gf 
    3 1.184000e-01 # aS 

###################################
## INFORMATION FOR YUKAWA
###################################
Block yukawa 
    1 5.040000e-03 # ymdo 
    2 2.550000e-03 # ymup 
    3 1.010000e-01 # yms 
    4 1.270000e+00 # ymc 
    5 4.700000e+00 # ymb 
    6 1.720000e+02 # ymt 
   11 5.110000e-04 # yme 
   13 1.056600e-01 # ymm 
   15 1.777000e+00 # ymtau 

###################################
## INFORMATION FOR DECAY
###################################
DECAY   6 1.508336e+00 # WT 
DECAY  23 2.495200e+00 # WZ 
DECAY  24 2.085000e+00 # WW 
DECAY  25 5.753088e-03 # WH 
## Dependent parameters, given by model restrictions.
## Those values should be edited following the 
## analytical expression. MG5 ignores those values 
## but they are important for interfacing the output of MG5
## to external program such as Pythia.
DECAY  1 0.000000 # d : 0.0 
DECAY  2 0.000000 # u : 0.0 
DECAY  3 0.000000 # s : 0.0 
DECAY  4 0.000000 # c : 0.0 
DECAY  5 0.000000 # b : 0.0 
DECAY  11 0.000000 # e- : 0.0 
DECAY  12 0.000000 # ve : 0.0 
DECAY  13 0.000000 # mu- : 0.0 
DECAY  14 0.000000 # vm : 0.0 
DECAY  15 0.000000 # ta- : 0.0 
DECAY  16 0.000000 # vt : 0.0 
DECAY  21 0.000000 # g : 0.0 
DECAY  22 0.000000 # a : 0.0 
DECAY  10030 0.308725 # zph : (gz__exp__2*MZph*(5 + cmath.sqrt(1 - (4*MT__exp__2)/MZph__exp__2)))/(144.*cmath.pi) 
DECAY  10031 0.132629 # zpl : (5*gz__exp__2*MZpl)/(144.*cmath.pi) 
#===========================================================
# QUANTUM NUMBERS OF NEW STATE(S) (NON SM PDG CODE)
#===========================================================

Block QNUMBERS 10030  # zph 
        1 0  # 3 times electric charge
        2 3  # number of spin states (2S+1)
        3 1  # colour rep (1: singlet, 3: triplet, 8: octet)
        4 0  # Particle/Antiparticle distinction (0=own anti)
Block QNUMBERS 10031  # zpl 
        1 0  # 3 times electric charge
        2 3  # number of spin states (2S+1)
        3 1  # colour rep (1: singlet, 3: triplet, 8: octet)
        4 0  # Particle/Antiparticle distinction (0=own anti)
</slha>
## END BANNER##
<MGGenerationInfo>
#  Number of Events        :         3976
#  Integrated weight (pb)  :  0.50553E-03
#  Max wgt                 :  0.18888E-06
#  Average wgt             :  0.12715E-06
</MGGenerationInfo>
</header>
<init>
     2212     2212  0.40000000000E+04  0.40000000000E+04 0 0  247000  247000 2   1
  0.50578981632E-03  0.12259297409E-05  0.18887790000E-06   0
</init>
<event>
 5   0  0.1744876E-06  0.2299787E+04  0.7818609E-02  0.8478005E-01
        2   -1    0    0  501    0  0.00000000000E+00  0.00000000000E+00  0.18012360672E+04  0.18012360672E+04  0.25500000920E-02 0. -1.
       -2   -1    0    0    0  501  0.00000000000E+00  0.00000000000E+00 -0.73408186971E+03  0.73408186972E+03  0.25500000920E-02 0.  1.
    10030    2    1    2    0    0  0.00000000000E+00  0.00000000000E+00  0.10671541975E+04  0.25353179369E+04  0.22997867205E+04 0.  0.
        1    1    3    3  502    0  0.84447481028E+02 -0.52558337651E+03  0.16572210148E+04  0.17406179232E+04  0.50400001928E-02 0. -1.
       -1    1    3    3    0  502 -0.84447481028E+02  0.52558337651E+03 -0.59006681737E+03  0.79470001365E+03  0.50400001928E-02 0.  1.
</event>
<event>
 5   0  0.1744876E-06  0.2303769E+04  0.7818609E-02  0.8476437E-01
       -2   -1    0    0    0  501  0.00000000000E+00  0.00000000000E+00  0.84124833084E+03  0.84124833084E+03  0.25500000920E-02 0. -1.
        2   -1    0    0  501    0  0.00000000000E+00  0.00000000000E+00 -0.15772251139E+04  0.15772251139E+04  0.25500000920E-02 0.  1.
    10030    2    1    2    0    0  0.00000000000E+00  0.00000000000E+00 -0.73597678305E+03  0.24184734447E+04  0.23037690808E+04 0.  0.
        1    1    3    3  502    0 -0.13203498264E+03  0.86975373654E+03  0.41262987526E+03  0.97168318543E+03  0.50400001928E-02 0. -1.
       -1    1    3    3    0  502  0.13203498264E+03 -0.86975373654E+03 -0.11486066583E+04  0.14467902593E+04  0.50400001928E-02 0.  1.
</event>
<event>
 5   0  0.1828646E-06  0.2299359E+04  0.7818609E-02  0.8478174E-01
       -2   -1    0    0    0  501  0.00000000000E+00  0.00000000000E+00  0.67135919594E+03  0.67135919595E+03  0.25500000920E-02 0. -1.
        2   -1    0    0  501    0  0.00000000000E+00  0.00000000000E+00 -0.19687858063E+04  0.19687858063E+04  0.25500000920E-02 0.  1.
    10030    2    1    2    0    0  0.00000000000E+00  0.00000000000E+00 -0.12974266103E+04  0.26401450022E+04  0.22993585678E+04 0.  0.
        3    1    3    3  502    0 -0.63184217690E+03  0.96232504812E+02 -0.17460057514E+04  0.18593066787E+04  0.10100000352E+00 0.  1.
       -3    1    3    3    0  502  0.63184217690E+03 -0.96232504812E+02  0.44857914104E+03  0.78083832351E+03  0.10100000352E+00 0. -1.
</event>
<event>
 5   0  0.1744876E-06  0.2300227E+04  0.7818609E-02  0.8477832E-01
       -2   -1    0    0    0  501  0.00000000000E+00  0.00000000000E+00  0.97021137316E+03  0.97021137316E+03  0.25500000920E-02 0.  1.
        2   -1    0    0  501    0  0.00000000000E+00  0.00000000000E+00 -0.13633739413E+04  0.13633739413E+04  0.25500000920E-02 0. -1.
    10030    2    1    2    0    0  0.00000000000E+00  0.00000000000E+00 -0.39316256816E+03  0.23335853145E+04  0.23002268616E+04 0.  0.
        1    1    3    3  502    0  0.21597554768E+03  0.11001689441E+04  0.63542632547E+02  0.11229669670E+04  0.50400001928E-02 0.  1.
       -1    1    3    3    0  502 -0.21597554768E+03 -0.11001689441E+04 -0.45670520071E+03  0.12106183475E+04  0.50400001928E-02 0. -1.
</event>
<event>
 5   0  0.1828646E-06  0.2299723E+04  0.7818609E-02  0.8478030E-01
        2   -1    0    0  501    0  0.00000000000E+00  0.00000000000E+00  0.13857698520E+04  0.13857698520E+04  0.25500000920E-02 0.  1.
       -2   -1    0    0    0  501  0.00000000000E+00  0.00000000000E+00 -0.95411298199E+03  0.95411298199E+03  0.25500000920E-02 0. -1.
    10030    2    1    2    0    0  0.00000000000E+00  0.00000000000E+00  0.43165687003E+03  0.23398828340E+04  0.22997225971E+04 0.  0.
        3    1    3    3  502    0  0.37232132622E+03 -0.81694588385E+03 -0.51515859964E+03  0.10350904019E+04  0.10100000352E+00 0. -1.
       -3    1    3    3    0  502 -0.37232132622E+03  0.81694588385E+03  0.94681546967E+03  0.13047924321E+04  0.10100000352E+00 0.  1.
</event>
<event>
 5   0  0.7761069E-07  0.2299661E+04  0.7818609E-02  0.8478055E-01
       -1   -1    0    0    0  501  0.00000000000E+00  0.00000000000E+00  0.57197545972E+03  0.57197545974E+03  0.50400001928E-02 0. -1.
        1   -1    0    0  501    0  0.00000000000E+00  0.00000000000E+00 -0.23114799646E+04  0.23114799646E+04  0.50400001928E-02 0.  1.
    10030    2    1    2    0    0  0.00000000000E+00  0.00000000000E+00 -0.17395045049E+04  0.28834554244E+04  0.22996606840E+04 0.  0.
        1    1    3    3  502    0 -0.99011945610E+03 -0.58425821649E+03 -0.84419025203E+03  0.14263069033E+04  0.50400001928E-02 0.  1.
       -1    1    3    3    0  502  0.99011945610E+03  0.58425821649E+03 -0.89531425286E+03  0.14571485210E+04  0.50400001928E-02 0. -1.
</event>
<event>
 5   0  0.8097672E-07  0.2299103E+04  0.7818609E-02  0.8478275E-01
       -1   -1    0    0    0  501  0.00000000000E+00  0.00000000000E+00  0.72894755187E+03  0.72894755189E+03  0.50400001928E-02 0. -1.
        1   -1    0    0  501    0  0.00000000000E+00  0.00000000000E+00 -0.18128450456E+04  0.18128450456E+04  0.50400001928E-02 0.  1.
    10030    2    1    2    0    0  0.00000000000E+00  0.00000000000E+00 -0.10838974937E+04  0.25417925974E+04  0.22991032668E+04 0.  0.
        3    1    3    3  502    0  0.80045206011E+03  0.81933957904E+03 -0.43460079712E+03  0.12251198755E+04  0.10100000352E+00 0.  1.
       -3    1    3    3    0  502 -0.80045206011E+03 -0.81933957904E+03 -0.64929669656E+03  0.13166727219E+04  0.10100000352E+00 0. -1.
</event>
<event>
 5   0  0.1744876E-06  0.2299567E+04  0.7818609E-02  0.8478092E-01
        2   -1    0    0  501    0  0.00000000000E+00  0.00000000000E+00  0.12029986077E+04  0.12029986077E+04  0.25500000920E-02 0. -1.
       -2   -1    0    0    0  501  0.00000000000E+00  0.00000000000E+00 -0.10989223508E+04  0.10989223508E+04  0.25500000920E-02 0.  1.
    10030    2    1    2    0    0  0.00000000000E+00  0.00000000000E+00  0.10407625689E+03  0.23019209586E+04  0.22995669662E+04 0.  0.
        1    1    3    3  502    0  0.99674368978E+03  0.56773178541E+03  0.13076146272E+03  0.11545197804E+04  0.50400001928E-02 0. -1.
       -1    1    3    3    0  502 -0.99674368978E+03 -0.56773178541E+03 -0.26685205828E+02  0.11474011781E+04  0.50400001928E-02 0.  1.
</event>
<event>
 5   0  0.7607231E-07  0.2299927E+04  0.7818609E-02  0.8477950E-01
       -1   -1    0    0    0  501  0.00000000000E+00  0.00000000000E+00  0.69773306593E+03  0.69773306595E+03  0.50400001928E-02 0.  1.
        1   -1    0    0  501    0  0.00000000000E+00  0.00000000000E+00 -0.18953039757E+04  0.18953039757E+04  0.50400001928E-02 0. -1.
    10030    2    1    2    0    0  0.00000000000E+00  0.00000000000E+00 -0.11975709097E+04  0.25930370416E+04  0.22999271761E+04 0.  0.
        2    1    3    3  502    0  0.10058256620E+04  0.31797203771E+03 -0.11149830065E+04  0.15349197320E+04  0.25500000920E-02 0. -1.
       -2    1    3    3    0  502 -0.10058256620E+04 -0.31797203771E+03 -0.82587903221E+02  0.10581173096E+04  0.25500000920E-02 0.  1.
</event>
<event>
 5   0  0.1744876E-06  0.2299754E+04  0.7818609E-02  0.8478018E-01
       -2   -1    0    0    0  501  0.00000000000E+00  0.00000000000E+00  0.71153582584E+03  0.71153582584E+03  0.25500000920E-02 0.  1.
        2   -1    0    0  501    0  0.00000000000E+00  0.00000000000E+00 -0.18582575004E+04  0.18582575004E+04  0.25500000920E-02 0. -1.
    10030    2    1    2    0    0  0.00000000000E+00  0.00000000000E+00 -0.11467216746E+04  0.25697933263E+04  0.22997537131E+04 0.  0.
        1    1    3    3  502    0 -0.88529271261E+02  0.10933730980E+04 -0.95869232359E+03  0.14568435519E+04  0.50400001928E-02 0. -1.
       -1    1    3    3    0  502  0.88529271261E+02 -0.10933730980E+04 -0.18802935100E+03  0.11129497744E+04  0.50400001928E-02 0.  1.
</event>
<event>
 5   0  0.1825521E-06  0.2303379E+04  0.7818609E-02  0.8476590E-01
       -2   -1    0    0    0  501  0.00000000000E+00  0.00000000000E+00  0.14845178954E+04  0.14845178954E+04  0.25500000920E-02 0. -1.
        2   -1    0    0  501    0  0.00000000000E+00  0.00000000000E+00 -0.89348111341E+03  0.89348111341E+03  0.25500000920E-02 0.  1.
    10030    2    1    2    0    0  0.00000000000E+00  0.00000000000E+00  0.59103678195E+03  0.23779990088E+04  0.23033789979E+04 0.  0.
        5    1    3    3  502    0  0.22770101490E+03 -0.53806622502E+03 -0.72910714412E+03  0.93433523550E+03  0.46999998093E+01 0.  1.
       -5    1    3    3    0  502 -0.22770101490E+03  0.53806622502E+03  0.13201439261E+04  0.14436637733E+04  0.46999998093E+01 0. -1.
</event>
<event>
 5   0  0.1825521E-06  0.2303042E+04  0.7818609E-02  0.8476723E-01
        2   -1    0    0  501    0  0.00000000000E+00  0.00000000000E+00  0.94260989246E+03  0.94260989247E+03  0.25500000920E-02 0. -1.
       -2   -1    0    0    0  501  0.00000000000E+00  0.00000000000E+00 -0.14067333849E+04  0.14067333849E+04  0.25500000920E-02 0.  1.
    10030    2    1    2    0    0  0.00000000000E+00  0.00000000000E+00 -0.46412349242E+03  0.23493432773E+04  0.23030421660E+04 0.  0.
        5    1    3    3  502    0  0.10625823305E+04  0.36214305333E+03 -0.49363430789E+03  0.12263464927E+04  0.46999998093E+01 0.  1.
       -5    1    3    3    0  502 -0.10625823305E+04 -0.36214305333E+03  0.29510815477E+02  0.11229967847E+04  0.46999998093E+01 0. -1.
</event>
<event>
 5   0  0.7932912E-07  0.2299530E+04  0.7818609E-02  0.8478106E-01
       -1   -1    0    0    0  501  0.00000000000E+00  0.00000000000E+00  0.10198616957E+04  0.10198616957E+04  0.50400001928E-02 0. -1.
        1   -1    0    0  501    0  0.00000000000E+00  0.00000000000E+00 -0.12962148743E+04  0.12962148743E+04  0.50400001928E-02 0.  1.
    10030    2    1    2    0    0  0.00000000000E+00  0.00000000000E+00 -0.27635317859E+03  0.23160765701E+04  0.22995302997E+04 0.  0.
        5    1    3    3  502    0  0.20784275312E+03  0.49348962270E+03 -0.11629489820E+04  0.12803136501E+04  0.46999998093E+01 0.  1.
       -5    1    3    3    0  502 -0.20784275312E+03 -0.49348962270E+03  0.88659580346E+03  0.10357629200E+04  0.46999998093E+01 0. -1.
</event>
<event>
 5   0  0.6319125E-07  0.2299098E+04  0.7818609E-02  0.8478277E-01
       -3   -1    0    0    0  501  0.00000000000E+00  0.00000000000E+00  0.98875436190E+03  0.98875436705E+03  0.10100000352E+00 0. -1.
        3   -1    0    0  501    0  0.00000000000E+00  0.00000000000E+00 -0.13364929026E+04  0.13364929064E+04  0.10100000352E+00 0.  1.
    10030    2    1    2    0    0  0.00000000000E+00  0.00000000000E+00 -0.34773854072E+03  0.23252472735E+04  0.22990982559E+04 0.  0.
        5    1    3    3  502    0 -0.38357769729E+03  0.12034806832E+03  0.91533154318E+03  0.99973468047E+03  0.46999998093E+01 0. -1.
       -5    1    3    3    0  502  0.38357769729E+03 -0.12034806832E+03 -0.12630700839E+04  0.13255125930E+04  0.46999998093E+01 0.  1.
</event>
<event>
 5   0  0.7761069E-07  0.2300834E+04  0.7818609E-02  0.8477592E-01
       -1   -1    0    0    0  501  0.00000000000E+00  0.00000000000E+00  0.14021230216E+04  0.14021230216E+04  0.50400001928E-02 0. -1.
        1   -1    0    0  501    0  0.00000000000E+00  0.00000000000E+00 -0.94389644046E+03  0.94389644047E+03  0.50400001928E-02 0.  1.
    10030    2    1    2    0    0  0.00000000000E+00  0.00000000000E+00  0.45822658113E+03  0.23460194621E+04  0.23008337004E+04 0.  0.
        1    1    3    3  502    0  0.68574652971E+03 -0.21385734128E+03 -0.68713062106E+03  0.99404816576E+03  0.50400001928E-02 0.  1.
       -1    1    3    3    0  502 -0.68574652971E+03  0.21385734128E+03  0.11453572022E+04  0.13519712963E+04  0.50400001928E-02 0. -1.
</event>
<event>
 5   0  0.8097672E-07  0.2300432E+04  0.7818609E-02  0.8477751E-01
        1   -1    0    0  501    0  0.00000000000E+00  0.00000000000E+00  0.15095605988E+04  0.15095605988E+04  0.50400001928E-02 0.  1.
       -1   -1    0    0    0  501  0.00000000000E+00  0.00000000000E+00 -0.87641170132E+03  0.87641170134E+03  0.50400001928E-02 0. -1.
    10030    2    1    2    0    0  0.00000000000E+00  0.00000000000E+00  0.63314889747E+03  0.23859723001E+04  0.23004317618E+04 0.  0.
        3    1    3    3  502    0 -0.49817357993E+03 -0.55472001337E+03  0.12249878846E+04  0.14340455141E+04  0.10100000352E+00 0.  1.
       -3    1    3    3    0  502  0.49817357993E+03  0.55472001337E+03 -0.59183898715E+03  0.95192678599E+03  0.10100000352E+00 0. -1.
</event>
<event>
 5   0  0.8097672E-07  0.2299760E+04  0.7818609E-02  0.8478016E-01
       -1   -1    0    0    0  501  0.00000000000E+00  0.00000000000E+00  0.82360265401E+03  0.82360265403E+03  0.50400001928E-02 0.  1.
        1   -1    0    0  501    0  0.00000000000E+00  0.00000000000E+00 -0.16054153322E+04  0.16054153322E+04  0.50400001928E-02 0. -1.
    10030    2    1    2    0    0  0.00000000000E+00  0.00000000000E+00 -0.78181267822E+03  0.24290179863E+04  0.22997602731E+04 0.  0.
        3    1    3    3  502    0 -0.18948665137E+03  0.78021887744E+03  0.47850979039E+03  0.93467551453E+03  0.10100000352E+00 0.  1.
       -3    1    3    3    0  502  0.18948665137E+03 -0.78021887744E+03 -0.12603224686E+04  0.14943424717E+04  0.10100000352E+00 0. -1.
</event>
<event>
 5   0  0.1744876E-06  0.2299097E+04  0.7818609E-02  0.8478277E-01
       -2   -1    0    0    0  501  0.00000000000E+00  0.00000000000E+00  0.11484538543E+04  0.11484538543E+04  0.25500000920E-02 0.  1.
        2   -1    0    0  501    0  0.00000000000E+00  0.00000000000E+00 -0.11506438480E+04  0.11506438480E+04  0.25500000920E-02 0. -1.
    10030    2    1    2    0    0  0.00000000000E+00  0.00000000000E+00 -0.21899937297E+01  0.22990977023E+04  0.22990966593E+04 0.  0.
        1    1    3    3  502    0  0.23870702874E+03 -0.95623156566E+03 -0.59278902851E+03  0.11501124663E+04  0.50400001928E-02 0. -1.
       -1    1    3    3    0  502 -0.23870702874E+03  0.95623156566E+03  0.59059903478E+03  0.11489852360E+04  0.50400001928E-02 0.  1.
</event>
<event>
 5   0  0.8108242E-07  0.2300500E+04  0.7818609E-02  0.8477724E-01
        1   -1    0    0  501    0  0.00000000000E+00  0.00000000000E+00  0.19838058760E+04  0.19838058760E+04  0.50400001928E-02 0.  1.
       -1   -1    0    0    0  501  0.00000000000E+00  0.00000000000E+00 -0.66693774000E+03  0.66693774002E+03  0.50400001928E-02 0. -1.
    10030    2    1    2    0    0  0.00000000000E+00  0.00000000000E+00  0.13168681360E+04  0.26507436160E+04  0.23004999522E+04 0.  0.
        4    1    3    3  502    0  0.18654529497E+03  0.21088360612E+03  0.19434874900E+04  0.19637760257E+04  0.12699999809E+01 0.  1.
       -4    1    3    3    0  502 -0.18654529497E+03 -0.21088360612E+03 -0.62661935402E+03  0.68696759031E+03  0.12699999809E+01 0. -1.
</event>
<event>
 5   0  0.7761069E-07  0.2300752E+04  0.7818609E-02  0.8477625E-01
       -1   -1    0    0    0  501  0.00000000000E+00  0.00000000000E+00  0.57931765229E+03  0.57931765231E+03  0.50400001928E-02 0.  1.
        1   -1    0    0  501    0  0.00000000000E+00  0.00000000000E+00 -0.22843502642E+04  0.22843502642E+04  0.50400001928E-02 0. -1.
    10030    2    1    2    0    0  0.00000000000E+00  0.00000000000E+00 -0.17050326119E+04  0.28636679165E+04  0.23007515573E+04 0.  0.
        1    1    3    3  502    0  0.88117344595E+03 -0.35262491096E+03 -0.16616005829E+04  0.19135640744E+04  0.50400001928E-02 0. -1.
       -1    1    3    3    0  502 -0.88117344595E+03  0.35262491096E+03 -0.43432029028E+02  0.95010384214E+03  0.50400001928E-02 0.  1.
</event>
<event>
 5   0  0.1689444E-06  0.2299900E+04  0.7818609E-02  0.8477961E-01
       -2   -1    0    0    0  501  0.00000000000E+00  0.00000000000E+00  0.64886073365E+03  0.64886073365E+03  0.25500000920E-02 0.  1.
        2   -1    0    0  501    0  0.00000000000E+00  0.00000000000E+00 -0.20380102810E+04  0.20380102810E+04  0.25500000920E-02 0. -1.
    10030    2    1    2    0    0  0.00000000000E+00  0.00000000000E+00 -0.13891495474E+04  0.26868710147E+04  0.22998998640E+04 0.  0.
        2    1    3    3  502    0  0.81082487734E+03 -0.68754665902E+03 -0.18236766682E+03  0.10786173353E+04  0.25500000920E-02 0.  1.
       -2    1    3    3    0  502 -0.81082487734E+03  0.68754665902E+03 -0.12067818806E+04  0.16082536794E+04  0.25500000920E-02 0. -1.
</event>
<event>
 5   0  0.8097672E-07  0.2301018E+04  0.7818609E-02  0.8477520E-01
       -1   -1    0    0    0  501  0.00000000000E+00  0.00000000000E+00  0.10287029424E+04  0.10287029425E+04  0.50400001928E-02 0. -1.
        1   -1    0    0  501    0  0.00000000000E+00  0.00000000000E+00 -0.12867374769E+04  0.12867374769E+04  0.50400001928E-02 0.  1.
    10030    2    1    2    0    0  0.00000000000E+00  0.00000000000E+00 -0.25803453448E+03  0.23154404194E+04  0.23010177128E+04 0.  0.
        3    1    3    3  502    0 -0.44329611309E+03  0.37339538224E+03 -0.11290952908E+04  0.12691697055E+04  0.10100000352E+00 0.  1.
       -3    1    3    3    0  502  0.44329611309E+03 -0.37339538224E+03  0.87106075634E+03  0.10462707139E+04  0.10100000352E+00 0. -1.
</event>
<event>
 5   0  0.1828646E-06  0.2300428E+04  0.7818609E-02  0.8477753E-01
       -2   -1    0    0    0  501  0.00000000000E+00  0.00000000000E+00  0.66772240468E+03  0.66772240468E+03  0.25500000920E-02 0. -1.
        2   -1    0    0  501    0  0.00000000000E+00  0.00000000000E+00 -0.19813501230E+04  0.19813501230E+04  0.25500000920E-02 0.  1.
    10030    2    1    2    0    0  0.00000000000E+00  0.00000000000E+00 -0.13136277183E+04  0.26490725277E+04  0.23004276721E+04 0.  0.
        3    1    3    3  502    0  0.19625749880E+03  0.41803704255E+03  0.55627314321E+03  0.72298810145E+03  0.10100000352E+00 0. -1.
       -3    1    3    3    0  502 -0.19625749880E+03 -0.41803704255E+03 -0.18699008615E+04  0.19260844262E+04  0.10100000352E+00 0.  1.
</event>
<event>
 5   0  0.7761069E-07  0.2301594E+04  0.7818609E-02  0.8477293E-01
        1   -1    0    0  501    0  0.00000000000E+00  0.00000000000E+00  0.14391889768E+04  0.14391889768E+04  0.50400001928E-02 0. -1.
       -1   -1    0    0    0  501  0.00000000000E+00  0.00000000000E+00 -0.92019419252E+03  0.92019419253E+03  0.50400001928E-02 0.  1.
    10030    2    1    2    0    0  0.00000000000E+00  0.00000000000E+00  0.51899478423E+03  0.23593831693E+04  0.23015936552E+04 0.  0.
        1    1    3    3  502    0 -0.18411533353E+03 -0.76101024123E+03  0.11240585284E+04  0.13698695626E+04  0.50400001928E-02 0. -1.
       -1    1    3    3    0  502  0.18411533353E+03  0.76101024123E+03 -0.60506374416E+03  0.98951360668E+03  0.50400001928E-02 0.  1.
</event>
<event>
 5   0  0.1689444E-06  0.2299768E+04  0.7818609E-02  0.8478012E-01
        2   -1    0    0  501    0  0.00000000000E+00  0.00000000000E+00  0.17073867349E+04  0.17073867349E+04  0.25500000920E-02 0.  1.
       -2   -1    0    0    0  501  0.00000000000E+00  0.00000000000E+00 -0.77441954779E+03  0.77441954779E+03  0.25500000920E-02 0. -1.
    10030    2    1    2    0    0  0.00000000000E+00  0.00000000000E+00  0.93296718715E+03  0.24818062827E+04  0.22997683911E+04 0.  0.
        2    1    3    3  502    0  0.10345950928E+04 -0.39957270460E+03  0.13882489045E+03  0.11177288144E+04  0.25500000920E-02 0.  1.
       -2    1    3    3    0  502 -0.10345950928E+04  0.39957270460E+03  0.79414229670E+03  0.13640774684E+04  0.25500000920E-02 0. -1.
</event>
<event>
 5   0  0.7607231E-07  0.2300296E+04  0.7818609E-02  0.8477804E-01
       -1   -1    0    0    0  501  0.00000000000E+00  0.00000000000E+00  0.84453325263E+03  0.84453325264E+03  0.50400001928E-02 0.  1.
        1   -1    0    0  501    0  0.00000000000E+00  0.00000000000E+00 -0.15663569727E+04  0.15663569727E+04  0.50400001928E-02 0. -1.
    10030    2    1    2    0    0  0.00000000000E+00  0.00000000000E+00 -0.72182372011E+03  0.24108902254E+04  0.23002961105E+04 0.  0.
        2    1    3    3  502    0 -0.63455119493E+03 -0.42060651304E+03 -0.12644959958E+04  0.14759793973E+04  0.25500000920E-02 0. -1.
       -2    1    3    3    0  502  0.63455119493E+03  0.42060651304E+03  0.54267227565E+03  0.93491082814E+03  0.25500000920E-02 0.  1.
</event>
<event>
 5   0  0.1828646E-06  0.2296883E+04  0.7818609E-02  0.8479151E-01
       -2   -1    0    0    0  501  0.00000000000E+00  0.00000000000E+00  0.68064450308E+03  0.68064450309E+03  0.25500000920E-02 0.  1.
        2   -1    0    0  501    0  0.00000000000E+00  0.00000000000E+00 -0.19377482296E+04  0.19377482296E+04  0.25500000920E-02 0. -1.
    10030    2    1    2    0    0  0.00000000000E+00  0.00000000000E+00 -0.12571037265E+04  0.26183927327E+04  0.22968828275E+04 0.  0.
        3    1    3    3  502    0  0.10213504803E+04  0.18259490726E+03 -0.11898326034E+04  0.15786701169E+04  0.10100000352E+00 0. -1.
       -3    1    3    3    0  502 -0.10213504803E+04 -0.18259490726E+03 -0.67271123195E+02  0.10397226158E+04  0.10100000352E+00 0.  1.
</event>
<event>
 5   0  0.1825521E-06  0.2300269E+04  0.7818609E-02  0.8477815E-01
        2   -1    0    0  501    0  0.00000000000E+00  0.00000000000E+00  0.14477896071E+04  0.14477896071E+04  0.25500000920E-02 0.  1.
       -2   -1    0    0    0  501  0.00000000000E+00  0.00000000000E+00 -0.91367489863E+03  0.91367489864E+03  0.25500000920E-02 0. -1.
    10030    2    1    2    0    0  0.00000000000E+00  0.00000000000E+00  0.53411470847E+03  0.23614645057E+04  0.23002686995E+04 0.  0.
        5    1    3    3  502    0  0.30827440287E+03  0.85222619571E+03 -0.45992334077E+03  0.10163041698E+04  0.46999998093E+01 0. -1.
       -5    1    3    3    0  502 -0.30827440287E+03 -0.85222619571E+03  0.99403804924E+03  0.13451603360E+04  0.46999998093E+01 0.  1.
</event>
<event>
 5   0  0.7607231E-07  0.2300007E+04  0.7818609E-02  0.8477918E-01
       -1   -1    0    0    0  501  0.00000000000E+00  0.00000000000E+00  0.98796286272E+03  0.98796286274E+03  0.50400001928E-02 0.  1.
        1   -1    0    0  501    0  0.00000000000E+00  0.00000000000E+00 -0.13386209157E+04  0.13386209157E+04  0.50400001928E-02 0. -1.
    10030    2    1    2    0    0  0.00000000000E+00  0.00000000000E+00 -0.35065805296E+03  0.23265837784E+04  0.23000067408E+04 0.  0.
        2    1    3    3  502    0 -0.10083830782E+04 -0.40566470024E+03 -0.55531239684E+03  0.12205622227E+04  0.25500000920E-02 0. -1.
       -2    1    3    3    0  502  0.10083830782E+04  0.40566470024E+03  0.20465434388E+03  0.11060215558E+04  0.25500000920E-02 0.  1.
</event>
<event>
 5   0  0.1828646E-06  0.2299728E+04  0.7818609E-02  0.8478029E-01
        2   -1    0    0  501    0  0.00000000000E+00  0.00000000000E+00  0.18825776158E+04  0.18825776158E+04  0.25500000920E-02 0. -1.
       -2   -1    0    0    0  501  0.00000000000E+00  0.00000000000E+00 -0.70232787761E+03  0.70232787762E+03  0.25500000920E-02 0.  1.
    10030    2    1    2    0    0  0.00000000000E+00  0.00000000000E+00  0.11802497382E+04  0.25849054934E+04  0.22997275850E+04 0.  0.
        3    1    3    3  502    0  0.10005700927E+04  0.12195322596E+03  0.12120701366E+04  0.15764285984E+04  0.10100000352E+00 0. -1.
       -3    1    3    3    0  502 -0.10005700927E+04 -0.12195322596E+03 -0.31820398411E+02  0.10084768950E+04  0.10100000352E+00 0.  1.
</event>
<event>
 5   0  0.1744876E-06  0.2299477E+04  0.7818609E-02  0.8478127E-01
       -2   -1    0    0    0  501  0.00000000000E+00  0.00000000000E+00  0.73235075366E+03  0.73235075367E+03  0.25500000920E-02 0. -1.
        2   -1    0    0  501    0  0.00000000000E+00  0.00000000000E+00 -0.18050081386E+04  0.18050081386E+04  0.25500000920E-02 0.  1.
    10030    2    1    2    0    0  0.00000000000E+00  0.00000000000E+00 -0.10726573849E+04  0.25373588923E+04  0.22994773934E+04 0.  0.
        1    1    3    3  502    0  0.11392252268E+03 -0.84729923271E+03  0.31196890541E+03  0.91006534320E+03  0.50400001928E-02 0. -1.
       -1    1    3    3    0  502 -0.11392252268E+03  0.84729923271E+03 -0.13846262904E+04  0.16272935491E+04  0.50400001928E-02 0.  1.
</event>
<event>
 5   0  0.8097672E-07  0.2303707E+04  0.7818609E-02  0.8476461E-01
       -1   -1    0    0    0  501  0.00000000000E+00  0.00000000000E+00  0.16392331208E+04  0.16392331208E+04  0.50400001928E-02 0.  1.
        1   -1    0    0  501    0  0.00000000000E+00  0.00000000000E+00 -0.80938231538E+03  0.80938231539E+03  0.50400001928E-02 0. -1.
    10030    2    1    2    0    0  0.00000000000E+00  0.00000000000E+00  0.82985080541E+03  0.24486154362E+04  0.23037068379E+04 0.  0.
        3    1    3    3  502    0 -0.84906861139E+03 -0.50619861963E+03 -0.21354723617E+03  0.10113144821E+04  0.10100000352E+00 0. -1.
       -3    1    3    3    0  502  0.84906861139E+03  0.50619861963E+03  0.10433980416E+04  0.14373009541E+04  0.10100000352E+00 0.  1.
</event>
<event>
 5   0  0.1828646E-06  0.2298136E+04  0.7818609E-02  0.8478656E-01
       -2   -1    0    0    0  501  0.00000000000E+00  0.00000000000E+00  0.71654353298E+03  0.71654353298E+03  0.25500000920E-02 0.  1.
        2   -1    0    0  501    0  0.00000000000E+00  0.00000000000E+00 -0.18426755937E+04  0.18426755937E+04  0.25500000920E-02 0. -1.
    10030    2    1    2    0    0  0.00000000000E+00  0.00000000000E+00 -0.11261320607E+04  0.25592191267E+04  0.22981360099E+04 0.  0.
        3    1    3    3  502    0 -0.80140211256E+03  0.64777382294E+03  0.31248334348E+01  0.10304688479E+04  0.10100000352E+00 0.  1.
       -3    1    3    3    0  502  0.80140211256E+03 -0.64777382294E+03 -0.11292568942E+04  0.15287502788E+04  0.10100000352E+00 0. -1.
</event>
<event>
 5   0  0.8108242E-07  0.2299762E+04  0.7818609E-02  0.8478015E-01
        1   -1    0    0  501    0  0.00000000000E+00  0.00000000000E+00  0.11261038883E+04  0.11261038883E+04  0.50400001928E-02 0. -1.
       -1   -1    0    0    0  501  0.00000000000E+00  0.00000000000E+00 -0.11741598538E+04  0.11741598538E+04  0.50400001928E-02 0.  1.
    10030    2    1    2    0    0  0.00000000000E+00  0.00000000000E+00 -0.48055965530E+02  0.23002637421E+04  0.22997617066E+04 0.  0.
        4    1    3    3  502    0 -0.13184619717E+03  0.19138329127E+03 -0.11504236236E+04  0.11736639683E+04  0.12699999809E+01 0.  1.
       -4    1    3    3    0  502  0.13184619717E+03 -0.19138329127E+03  0.11023676580E+04  0.11265997738E+04  0.12699999809E+01 0. -1.
</event>
<event>
 5   0  0.7761069E-07  0.2299355E+04  0.7818609E-02  0.8478175E-01
        1   -1    0    0  501    0  0.00000000000E+00  0.00000000000E+00  0.13243552792E+04  0.13243552792E+04  0.50400001928E-02 0.  1.
       -1   -1    0    0    0  501  0.00000000000E+00  0.00000000000E+00 -0.99803915588E+03  0.99803915589E+03  0.50400001928E-02 0. -1.
    10030    2    1    2    0    0  0.00000000000E+00  0.00000000000E+00  0.32631612333E+03  0.23223944351E+04  0.22993550617E+04 0.  0.
        1    1    3    3  502    0  0.98715333280E+03  0.29343486917E+03  0.67933921832E+03  0.12337250498E+04  0.50400001928E-02 0.  1.
       -1    1    3    3    0  502 -0.98715333280E+03 -0.29343486917E+03 -0.35302309499E+03  0.10886693853E+04  0.50400001928E-02 0. -1.
</event>
<event>
 5   0  0.8097672E-07  0.2299700E+04  0.7818609E-02  0.8478039E-01
       -1   -1    0    0    0  501  0.00000000000E+00  0.00000000000E+00  0.87905190696E+03  0.87905190698E+03  0.50400001928E-02 0. -1.
        1   -1    0    0  501    0  0.00000000000E+00  0.00000000000E+00 -0.15040696012E+04  0.15040696012E+04  0.50400001928E-02 0.  1.
    10030    2    1    2    0    0  0.00000000000E+00  0.00000000000E+00 -0.62501769419E+03  0.23831215081E+04  0.22997001988E+04 0.  0.
        3    1    3    3  502    0 -0.73404629504E+03  0.47776213504E+03  0.45955043498E+03  0.98907392719E+03  0.10100000352E+00 0. -1.
       -3    1    3    3    0  502  0.73404629504E+03 -0.47776213504E+03 -0.10845681292E+04  0.13940475810E+04  0.10100000352E+00 0.  1.
</event>
<event>
 5   0  0.1888779E-06  0.2301119E+04  0.7818609E-02  0.8477480E-01
       -2   -1    0    0    0  501  0.00000000000E+00  0.00000000000E+00  0.10890782984E+04  0.10890782984E+04  0.25500000920E-02 0. -1.
        2   -1    0    0  501    0  0.00000000000E+00  0.00000000000E+00 -0.12155117496E+04  0.12155117496E+04  0.25500000920E-02 0.  1.
    10030    2    1    2    0    0  0.00000000000E+00  0.00000000000E+00 -0.12643345124E+03  0.23045900480E+04  0.23011192650E+04 0.  0.
        4    1    3    3  502    0 -0.19460955744E+03  0.10938722774E+04 -0.36259303079E+03  0.11687192811E+04  0.12699999809E+01 0.  1.
       -4    1    3    3    0  502  0.19460955744E+03 -0.10938722774E+04  0.23615957955E+03  0.11358707669E+04  0.12699999809E+01 0. -1.
</event>
<event>
 5   0  0.1888779E-06  0.2300672E+04  0.7818609E-02  0.8477656E-01
        2   -1    0    0  501    0  0.00000000000E+00  0.00000000000E+00  0.21421801772E+04  0.21421801772E+04  0.25500000920E-02 0.  1.
       -2   -1    0    0    0  501  0.00000000000E+00  0.00000000000E+00 -0.61772249535E+03  0.61772249536E+03  0.25500000920E-02 0. -1.
    10030    2    1    2    0    0  0.00000000000E+00  0.00000000000E+00  0.15244576818E+04  0.27599026726E+04  0.23006719754E+04 0.  0.
        4    1    3    3  502    0 -0.77379725835E+03 -0.63991255090E+03  0.14355291577E+04  0.17518549727E+04  0.12699999809E+01 0.  1.
       -4    1    3    3    0  502  0.77379725835E+03  0.63991255090E+03  0.88928524099E+02  0.10080476998E+04  0.12699999809E+01 0. -1.
</event>
<event>
 5   0  0.6319125E-07  0.2292364E+04  0.7818609E-02  0.8480938E-01
       -4   -1    0    0    0  501  0.00000000000E+00  0.00000000000E+00  0.92846786359E+03  0.92846873217E+03  0.12699999809E+01 0.  1.
        4   -1    0    0  501    0  0.00000000000E+00  0.00000000000E+00 -0.14149451136E+04  0.14149456836E+04  0.12699999809E+01 0. -1.
    10030    2    1    2    0    0  0.00000000000E+00  0.00000000000E+00 -0.48647725003E+03  0.23434144157E+04  0.22923636293E+04 0.  0.
        3    1    3    3  502    0  0.90985394547E+03  0.57364029230E+03 -0.64808250048E+03  0.12557501044E+04  0.10100000352E+00 0. -1.
       -3    1    3    3    0  502 -0.90985394547E+03 -0.57364029230E+03  0.16160525045E+03  0.10876643114E+04  0.10100000352E+00 0.  1.
</event>
<event>
 5   0  0.8097672E-07  0.2300361E+04  0.7818609E-02  0.8477779E-01
        1   -1    0    0  501    0  0.00000000000E+00  0.00000000000E+00  0.20391924401E+04  0.20391924401E+04  0.50400001928E-02 0.  1.
       -1   -1    0    0    0  501  0.00000000000E+00  0.00000000000E+00 -0.64874476671E+03  0.64874476673E+03  0.50400001928E-02 0. -1.
    10030    2    1    2    0    0  0.00000000000E+00  0.00000000000E+00  0.13904476734E+04  0.26879372068E+04  0.23003612098E+04 0.  0.
        3    1    3    3  502    0 -0.89085978687E+03  0.56411762995E+03  0.12320349216E+04  0.16216565353E+04  0.10100000352E+00 0.  1.
       -3    1    3    3    0  502  0.89085978687E+03 -0.56411762995E+03  0.15841275177E+03  0.10662806715E+04  0.10100000352E+00 0. -1.
</event>
<event>
 5   0  0.7932912E-07  0.2298337E+04  0.7818609E-02  0.8478577E-01
       -1   -1    0    0    0  501  0.00000000000E+00  0.00000000000E+00  0.92115216776E+03  0.92115216777E+03  0.50400001928E-02 0. -1.
        1   -1    0    0  501    0  0.00000000000E+00  0.00000000000E+00 -0.14336259849E+04  0.14336259849E+04  0.50400001928E-02 0.  1.
    10030    2    1    2    0    0  0.00000000000E+00  0.00000000000E+00 -0.51247381717E+03  0.23547781527E+04  0.22983365148E+04 0.  0.
        5    1    3    3  502    0  0.47627883431E+03 -0.55323598860E+03  0.65305667008E+03  0.97949818347E+03  0.46999998093E+01 0. -1.
       -5    1    3    3    0  502 -0.47627883431E+03  0.55323598860E+03 -0.11655304872E+04  0.13752799692E+04  0.46999998093E+01 0.  1.
</event>
<event>
 5   0  0.1689444E-06  0.2293751E+04  0.7818609E-02  0.8480389E-01
        2   -1    0    0  501    0  0.00000000000E+00  0.00000000000E+00  0.19323016679E+04  0.19323016679E+04  0.25500000920E-02 0.  1.
       -2   -1    0    0    0  501  0.00000000000E+00  0.00000000000E+00 -0.68070295632E+03  0.68070295632E+03  0.25500000920E-02 0. -1.
    10030    2    1    2    0    0  0.00000000000E+00  0.00000000000E+00  0.12515987116E+04  0.26130046242E+04  0.22937510395E+04 0.  0.
        2    1    3    3  502    0  0.77902080781E+03 -0.70185041950E+03  0.96530925567E+02  0.10529889125E+04  0.25500000920E-02 0. -1.
       -2    1    3    3    0  502 -0.77902080781E+03  0.70185041950E+03  0.11550677860E+04  0.15600157116E+04  0.25500000920E-02 0.  1.
</event>
<event>
 5   0  0.1828646E-06  0.2301219E+04  0.7818609E-02  0.8477440E-01
       -2   -1    0    0    0  501  0.00000000000E+00  0.00000000000E+00  0.10240803442E+04  0.10240803442E+04  0.25500000920E-02 0. -1.
        2   -1    0    0  501    0  0.00000000000E+00  0.00000000000E+00 -0.12927722187E+04  0.12927722187E+04  0.25500000920E-02 0.  1.
    10030    2    1    2    0    0  0.00000000000E+00  0.00000000000E+00 -0.26869187456E+03  0.23168525629E+04  0.23012193452E+04 0.  0.
        3    1    3    3  502    0  0.50303101909E+03  0.10585880270E+03 -0.11707351807E+04  0.12786192419E+04  0.10100000352E+00 0.  1.
       -3    1    3    3    0  502 -0.50303101909E+03 -0.10585880270E+03  0.90204330617E+03  0.10382333209E+04  0.10100000352E+00 0. -1.
</event>
<event>
 5   0  0.1744876E-06  0.2299976E+04  0.7818609E-02  0.8477931E-01
        2   -1    0    0  501    0  0.00000000000E+00  0.00000000000E+00  0.21775132285E+04  0.21775132285E+04  0.25500000920E-02 0.  1.
       -2   -1    0    0    0  501  0.00000000000E+00  0.00000000000E+00 -0.60733154828E+03  0.60733154829E+03  0.25500000920E-02 0. -1.
    10030    2    1    2    0    0  0.00000000000E+00  0.00000000000E+00  0.15701816802E+04  0.27848447767E+04  0.22999760698E+04 0.  0.
        1    1    3    3  502    0  0.89347043493E+03  0.69963661674E+03  0.55956814165E+03  0.12652657107E+04  0.50400001928E-02 0. -1.
       -1    1    3    3    0  502 -0.89347043493E+03 -0.69963661674E+03  0.10106135385E+04  0.15195790660E+04  0.50400001928E-02 0.  1.
</event>
<event>
 5   0  0.1689444E-06  0.2300747E+04  0.7818609E-02  0.8477627E-01
       -2   -1    0    0    0  501  0.00000000000E+00  0.00000000000E+00  0.49751871962E+03  0.49751871963E+03  0.25500000920E-02 0.  1.
        2   -1    0    0  501    0  0.00000000000E+00  0.00000000000E+00 -0.26599183255E+04  0.26599183255E+04  0.25500000920E-02 0. -1.
    10030    2    1    2    0    0  0.00000000000E+00  0.00000000000E+00 -0.21623996058E+04  0.31574370451E+04  0.23007469740E+04 0.  0.
        2    1    3    3  502    0  0.62421110133E+03  0.52575232787E+03  0.31425744755E+02  0.81672675157E+03  0.25500000920E-02 0.  1.
       -2    1    3    3    0  502 -0.62421110133E+03 -0.52575232787E+03 -0.21938253506E+04  0.23407102935E+04  0.25500000920E-02 0. -1.
</event>
<event>
 5   0  0.1828646E-06  0.2300087E+04  0.7818609E-02  0.8477887E-01
       -2   -1    0    0    0  501  0.00000000000E+00  0.00000000000E+00  0.60785311523E+03  0.60785311523E+03  0.25500000920E-02 0. -1.
        2   -1    0    0  501    0  0.00000000000E+00  0.00000000000E+00 -0.21758538102E+04  0.21758538102E+04  0.25500000920E-02 0.  1.
    10030    2    1    2    0    0  0.00000000000E+00  0.00000000000E+00 -0.15680006950E+04  0.27837069255E+04  0.23000865347E+04 0.  0.
        3    1    3    3  502    0  0.16114141934E+00  0.37992071905E+03 -0.20977113930E+04  0.21318379106E+04  0.10100000352E+00 0.  1.
       -3    1    3    3    0  502 -0.16114141934E+00 -0.37992071905E+03  0.52971069799E+03  0.65186901483E+03  0.10100000352E+00 0. -1.
</event>
<event>
 5   0  0.8097672E-07  0.2299960E+04  0.7818609E-02  0.8477937E-01
       -1   -1    0    0    0  501  0.00000000000E+00  0.00000000000E+00  0.15160476740E+04  0.15160476740E+04  0.50400001928E-02 0.  1.
        1   -1    0    0  501    0  0.00000000000E+00  0.00000000000E+00 -0.87230348276E+03  0.87230348278E+03  0.50400001928E-02 0. -1.
    10030    2    1    2    0    0  0.00000000000E+00  0.00000000000E+00  0.64374419126E+03  0.23883511568E+04  0.22999597093E+04 0.  0.
        3    1    3    3  502    0  0.17210484233E+03  0.99225184007E+02 -0.85434974759E+03  0.87714264250E+03  0.10100000352E+00 0. -1.
       -3    1    3    3    0  502 -0.17210484233E+03 -0.99225184007E+02  0.14980939388E+04  0.15112085143E+04  0.10100000352E+00 0.  1.
</event>
<event>
 5   0  0.1825521E-06  0.2298026E+04  0.7818609E-02  0.8478700E-01
        2   -1    0    0  501    0  0.00000000000E+00  0.00000000000E+00  0.10880853306E+04  0.10880853306E+04  0.25500000920E-02 0. -1.
       -2   -1    0    0    0  501  0.00000000000E+00  0.00000000000E+00 -0.12133522832E+04  0.12133522832E+04  0.25500000920E-02 0.  1.
    10030    2    1    2    0    0  0.00000000000E+00  0.00000000000E+00 -0.12526695262E+03  0.23014376137E+04  0.22980259530E+04 0.  0.
        5    1    3    3  502    0  0.26194606399E+03  0.20599640461E+03  0.10386164415E+04  0.10907779158E+04  0.46999998093E+01 0. -1.
       -5    1    3    3    0  502 -0.26194606399E+03 -0.20599640461E+03 -0.11638833941E+04  0.12106596979E+04  0.46999998093E+01 0.  1.
</event>
<event>
 5   0  0.7932912E-07  0.2300067E+04  0.7818609E-02  0.8477895E-01
       -1   -1    0    0    0  501  0.00000000000E+00  0.00000000000E+00  0.60337060498E+03  0.60337060500E+03  0.50400001928E-02 0.  1.
        1   -1    0    0  501    0  0.00000000000E+00  0.00000000000E+00 -0.21919818446E+04  0.21919818446E+04  0.50400001928E-02 0. -1.
    10030    2    1    2    0    0  0.00000000000E+00  0.00000000000E+00 -0.15886112397E+04  0.27953524497E+04  0.23000673136E+04 0.  0.
        5    1    3    3  502    0  0.10708498156E+03  0.93864538560E+03 -0.15912846658E+04  0.18506029641E+04  0.46999998093E+01 0. -1.
       -5    1    3    3    0  502 -0.10708498156E+03 -0.93864538560E+03  0.26734261609E+01  0.94474948552E+03  0.46999998093E+01 0.  1.
</event>
<event>
 5   0  0.8097672E-07  0.2302245E+04  0.7818609E-02  0.8477036E-01
       -1   -1    0    0    0  501  0.00000000000E+00  0.00000000000E+00  0.87853020755E+03  0.87853020757E+03  0.50400001928E-02 0. -1.
        1   -1    0    0  501    0  0.00000000000E+00  0.00000000000E+00 -0.15082955627E+04  0.15082955627E+04  0.50400001928E-02 0.  1.
    10030    2    1    2    0    0  0.00000000000E+00  0.00000000000E+00 -0.62976535514E+03  0.23868257703E+04  0.23022451770E+04 0.  0.
        3    1    3    3  502    0  0.17071248125E+03  0.11285121346E+04 -0.47005027984E+03  0.12343539464E+04  0.10100000352E+00 0. -1.
       -3    1    3    3    0  502 -0.17071248125E+03 -0.11285121346E+04 -0.15971507530E+03  0.11524718238E+04  0.10100000352E+00 0.  1.
</event>
<event>
 5   0  0.1828646E-06  0.2301391E+04  0.7818609E-02  0.8477373E-01
        2   -1    0    0  501    0  0.00000000000E+00  0.00000000000E+00  0.22797038053E+04  0.22797038053E+04  0.25500000920E-02 0.  1.
       -2   -1    0    0    0  501  0.00000000000E+00  0.00000000000E+00 -0.58082097813E+03  0.58082097814E+03  0.25500000920E-02 0. -1.
    10030    2    1    2    0    0  0.00000000000E+00  0.00000000000E+00  0.16988828272E+04  0.28605247835E+04  0.23013907048E+04 0.  0.
        3    1    3    3  502    0  0.38742476472E+03 -0.18097434841E+02 -0.49712928822E+03  0.63052597478E+03  0.10100000352E+00 0. -1.
       -3    1    3    3    0  502 -0.38742476472E+03  0.18097434841E+02  0.21960121154E+04  0.22299988087E+04  0.10100000352E+00 0.  1.
</event>
<event>
 5   0  0.7761069E-07  0.2300184E+04  0.7818609E-02  0.8477848E-01
       -1   -1    0    0    0  501  0.00000000000E+00  0.00000000000E+00  0.54383006155E+03  0.54383006158E+03  0.50400001928E-02 0.  1.
        1   -1    0    0  501    0  0.00000000000E+00  0.00000000000E+00 -0.24322159171E+04  0.24322159171E+04  0.50400001928E-02 0. -1.
    10030    2    1    2    0    0  0.00000000000E+00  0.00000000000E+00 -0.18883858555E+04  0.29760459786E+04  0.23001844551E+04 0.  0.
        1    1    3    3  502    0 -0.83136848003E+03 -0.15529639667E+02  0.83809113813E+02  0.83572644261E+03  0.50400001928E-02 0.  1.
       -1    1    3    3    0  502  0.83136848003E+03  0.15529639667E+02 -0.19721949693E+04  0.21403195360E+04  0.50400001928E-02 0. -1.
</event>
<event>
 5   0  0.8097672E-07  0.2300416E+04  0.7818609E-02  0.8477757E-01
        1   -1    0    0  501    0  0.00000000000E+00  0.00000000000E+00  0.10717954290E+04  0.10717954290E+04  0.50400001928E-02 0.  1.
       -1   -1    0    0    0  501  0.00000000000E+00  0.00000000000E+00 -0.12343572949E+04  0.12343572949E+04  0.50400001928E-02 0. -1.
    10030    2    1    2    0    0  0.00000000000E+00  0.00000000000E+00 -0.16256186586E+03  0.23061527240E+04  0.23004160550E+04 0.  0.
        3    1    3    3  502    0  0.96527263726E+03 -0.28482629206E+02  0.54511000063E+03  0.11089217499E+04  0.10100000352E+00 0.  1.
       -3    1    3    3    0  502 -0.96527263726E+03  0.28482629206E+02 -0.70767186649E+03  0.11972309741E+04  0.10100000352E+00 0. -1.
</event>
<event>
 5   0  0.7607231E-07  0.2300284E+04  0.7818609E-02  0.8477809E-01
        1   -1    0    0  501    0  0.00000000000E+00  0.00000000000E+00  0.92361620636E+03  0.92361620637E+03  0.50400001928E-02 0.  1.
       -1   -1    0    0    0  501  0.00000000000E+00  0.00000000000E+00 -0.14322258293E+04  0.14322258293E+04  0.50400001928E-02 0. -1.
    10030    2    1    2    0    0  0.00000000000E+00  0.00000000000E+00 -0.50860962290E+03  0.23558420356E+04  0.23002843190E+04 0.  0.
        2    1    3    3  502    0 -0.27434948790E+03  0.10882002253E+04 -0.51213837252E+03  0.12335854589E+04  0.25500000920E-02 0.  1.
       -2    1    3    3    0  502  0.27434948790E+03 -0.10882002253E+04  0.35287496139E+01  0.11222565767E+04  0.25500000920E-02 0. -1.
</event>
<event>
 5   0  0.7932912E-07  0.2300589E+04  0.7818609E-02  0.8477689E-01
       -1   -1    0    0    0  501  0.00000000000E+00  0.00000000000E+00  0.86365592064E+03  0.86365592066E+03  0.50400001928E-02 0.  1.
        1   -1    0    0  501    0  0.00000000000E+00  0.00000000000E+00 -0.15320649569E+04  0.15320649569E+04  0.50400001928E-02 0. -1.
    10030    2    1    2    0    0  0.00000000000E+00  0.00000000000E+00 -0.66840903629E+03  0.23957208776E+04  0.23005885950E+04 0.  0.
        5    1    3    3  502    0 -0.11238452068E+04 -0.16261691776E+03 -0.14308727758E+03  0.11445384964E+04  0.46999998093E+01 0.  1.
       -5    1    3    3    0  502  0.11238452068E+04  0.16261691776E+03 -0.52532175871E+03  0.12511823812E+04  0.46999998093E+01 0. -1.
</event>
<event>
 5   0  0.1888779E-06  0.2300435E+04  0.7818609E-02  0.8477749E-01
       -2   -1    0    0    0  501  0.00000000000E+00  0.00000000000E+00  0.20149717588E+04  0.20149717588E+04  0.25500000920E-02 0. -1.
        2   -1    0    0  501    0  0.00000000000E+00  0.00000000000E+00 -0.65658530519E+03  0.65658530520E+03  0.25500000920E-02 0.  1.
    10030    2    1    2    0    0  0.00000000000E+00  0.00000000000E+00  0.13583864536E+04  0.26715570640E+04  0.23004354781E+04 0.  0.
        4    1    3    3  502    0  0.44662445302E+03  0.28533554316E+03  0.18647191843E+04  0.19385739665E+04  0.12699999809E+01 0. -1.
       -4    1    3    3    0  502 -0.44662445302E+03 -0.28533554316E+03 -0.50633273069E+03  0.73298309755E+03  0.12699999809E+01 0.  1.
</event>
<event>
 5   0  0.1744876E-06  0.2299445E+04  0.7818609E-02  0.8478140E-01
       -2   -1    0    0    0  501  0.00000000000E+00  0.00000000000E+00  0.88012252421E+03  0.88012252421E+03  0.25500000920E-02 0.  1.
        2   -1    0    0  501    0  0.00000000000E+00  0.00000000000E+00 -0.15019060311E+04  0.15019060311E+04  0.25500000920E-02 0. -1.
    10030    2    1    2    0    0  0.00000000000E+00  0.00000000000E+00 -0.62178350689E+03  0.23820285553E+04  0.22994445653E+04 0.  0.
        1    1    3    3  502    0  0.49940181473E+03 -0.24994336474E+03 -0.13519667401E+04  0.14627672148E+04  0.50400001928E-02 0. -1.
       -1    1    3    3    0  502 -0.49940181473E+03  0.24994336474E+03  0.73018323323E+03  0.91926134056E+03  0.50400001928E-02 0.  1.
</event>
<event>
 5   0  0.8108242E-07  0.2301189E+04  0.7818609E-02  0.8477453E-01
       -1   -1    0    0    0  501  0.00000000000E+00  0.00000000000E+00  0.67644479303E+03  0.67644479305E+03  0.50400001928E-02 0.  1.
        1   -1    0    0  501    0  0.00000000000E+00  0.00000000000E+00 -0.19570957557E+04  0.19570957558E+04  0.50400001928E-02 0. -1.
    10030    2    1    2    0    0  0.00000000000E+00  0.00000000000E+00 -0.12806509627E+04  0.26335405488E+04  0.23011885916E+04 0.  0.
        4    1    3    3  502    0 -0.10142147762E+04  0.40135145628E+03 -0.22116070386E+03  0.11129367788E+04  0.12699999809E+01 0.  1.
       -4    1    3    3    0  502  0.10142147762E+04 -0.40135145628E+03 -0.10594902589E+04  0.15206037700E+04  0.12699999809E+01 0. -1.
</event>
<event>
 5   0  0.1689444E-06  0.2302066E+04  0.7818609E-02  0.8477107E-01
       -2   -1    0    0    0  501  0.00000000000E+00  0.00000000000E+00  0.65057295842E+03  0.65057295843E+03  0.25500000920E-02 0. -1.
        2   -1    0    0  501    0  0.00000000000E+00  0.00000000000E+00 -0.20364764275E+04  0.20364764275E+04  0.25500000920E-02 0.  1.
    10030    2    1    2    0    0  0.00000000000E+00  0.00000000000E+00 -0.13859034691E+04  0.26870493859E+04  0.23020655892E+04 0.  0.
        2    1    3    3  502    0 -0.69611431051E+03  0.25253737368E+03 -0.17215268712E+04  0.18740344252E+04  0.25500000920E-02 0.  1.
       -2    1    3    3    0  502  0.69611431051E+03 -0.25253737368E+03  0.33562340212E+03  0.81301496078E+03  0.25500000920E-02 0. -1.
</event>
<event>
 5   0  0.7932912E-07  0.2306594E+04  0.7818609E-02  0.8475326E-01
       -1   -1    0    0    0  501  0.00000000000E+00  0.00000000000E+00  0.53280678345E+03  0.53280678347E+03  0.50400001928E-02 0.  1.
        1   -1    0    0  501    0  0.00000000000E+00  0.00000000000E+00 -0.24963905388E+04  0.24963905388E+04  0.50400001928E-02 0. -1.
    10030    2    1    2    0    0  0.00000000000E+00  0.00000000000E+00 -0.19635837554E+04  0.30291973223E+04  0.23065938639E+04 0.  0.
        5    1    3    3  502    0 -0.48022927334E+03  0.28354044409E+03 -0.23075232667E+04  0.23739631536E+04  0.46999998093E+01 0. -1.
       -5    1    3    3    0  502  0.48022927334E+03 -0.28354044409E+03  0.34393951129E+03  0.65523416870E+03  0.46999998093E+01 0.  1.
</event>
<event>
 5   0  0.1689444E-06  0.2295609E+04  0.7818609E-02  0.8479655E-01
       -2   -1    0    0    0  501  0.00000000000E+00  0.00000000000E+00  0.48416878594E+03  0.48416878595E+03  0.25500000920E-02 0.  1.
        2   -1    0    0  501    0  0.00000000000E+00  0.00000000000E+00 -0.27210649915E+04  0.27210649915E+04  0.25500000920E-02 0. -1.
    10030    2    1    2    0    0  0.00000000000E+00  0.00000000000E+00 -0.22368962055E+04  0.32052337774E+04  0.22956086194E+04 0.  0.
        2    1    3    3  502    0  0.99385725312E+03 -0.36271363146E+03 -0.17399599118E+04  0.20363629128E+04  0.25500000920E-02 0. -1.
       -2    1    3    3    0  502 -0.99385725312E+03  0.36271363146E+03 -0.49693629368E+03  0.11688708646E+04  0.25500000920E-02 0.  1.
</event>
<event>
 5   0  0.7607231E-07  0.2301028E+04  0.7818609E-02  0.8477516E-01
        1   -1    0    0  501    0  0.00000000000E+00  0.00000000000E+00  0.13958472235E+04  0.13958472236E+04  0.50400001928E-02 0.  1.
       -1   -1    0    0    0  501  0.00000000000E+00  0.00000000000E+00 -0.94830036151E+03  0.94830036152E+03  0.50400001928E-02 0. -1.
    10030    2    1    2    0    0  0.00000000000E+00  0.00000000000E+00  0.44754686204E+03  0.23441475851E+04  0.23010279674E+04 0.  0.
        2    1    3    3  502    0 -0.34481313263E+03  0.69477257808E+03 -0.64190167416E+03  0.10067982871E+04  0.25500000920E-02 0. -1.
       -2    1    3    3    0  502  0.34481313263E+03 -0.69477257808E+03  0.10894485362E+04  0.13373492979E+04  0.25500000920E-02 0.  1.
</event>
<event>
 5   0  0.7607231E-07  0.2301523E+04  0.7818609E-02  0.8477321E-01
       -1   -1    0    0    0  501  0.00000000000E+00  0.00000000000E+00  0.16651082944E+04  0.16651082944E+04  0.50400001928E-02 0. -1.
        1   -1    0    0  501    0  0.00000000000E+00  0.00000000000E+00 -0.79529515469E+03  0.79529515470E+03  0.50400001928E-02 0.  1.
    10030    2    1    2    0    0  0.00000000000E+00  0.00000000000E+00  0.86981313970E+03  0.24604034491E+04  0.23015234594E+04 0.  0.
        2    1    3    3  502    0  0.64439327249E+03  0.63252708221E+03 -0.32772610218E+03  0.96059231592E+03  0.25500000920E-02 0.  1.
       -2    1    3    3    0  502 -0.64439327249E+03 -0.63252708221E+03  0.11975392419E+04  0.14998111332E+04  0.25500000920E-02 0. -1.
</event>
<event>
 5   0  0.7607231E-07  0.2300618E+04  0.7818609E-02  0.8477678E-01
        1   -1    0    0  501    0  0.00000000000E+00  0.00000000000E+00  0.17244118310E+04  0.17244118310E+04  0.50400001928E-02 0.  1.
       -1   -1    0    0    0  501  0.00000000000E+00  0.00000000000E+00 -0.76734025380E+03  0.76734025382E+03  0.50400001928E-02 0. -1.
    10030    2    1    2    0    0  0.00000000000E+00  0.00000000000E+00  0.95707157723E+03  0.24917520849E+04  0.23006178406E+04 0.  0.
        2    1    3    3  502    0  0.11557719121E+03  0.65136599363E+03 -0.54069606585E+03  0.85439334058E+03  0.25500000920E-02 0. -1.
       -2    1    3    3    0  502 -0.11557719121E+03 -0.65136599363E+03  0.14977676431E+04  0.16373587443E+04  0.25500000920E-02 0.  1.
</event>
<event>
 5   0  0.1689444E-06  0.2299946E+04  0.7818609E-02  0.8477942E-01
        2   -1    0    0  501    0  0.00000000000E+00  0.00000000000E+00  0.13104000385E+04  0.13104000385E+04  0.25500000920E-02 0.  1.
       -2   -1    0    0    0  501  0.00000000000E+00  0.00000000000E+00 -0.10091863327E+04  0.10091863327E+04  0.25500000920E-02 0. -1.
    10030    2    1    2    0    0  0.00000000000E+00  0.00000000000E+00  0.30121370582E+03  0.23195863712E+04  0.22999459205E+04 0.  0.
        2    1    3    3  502    0  0.11108291722E+02 -0.79606039640E+03  0.98751374807E+03  0.12684711079E+04  0.25500000920E-02 0.  1.
       -2    1    3    3    0  502 -0.11108291722E+02  0.79606039640E+03 -0.68630004225E+03  0.10511152634E+04  0.25500000920E-02 0. -1.
</event>
<event>
 5   0  0.7932912E-07  0.2299812E+04  0.7818609E-02  0.8477995E-01
       -1   -1    0    0    0  501  0.00000000000E+00  0.00000000000E+00  0.89765366857E+03  0.89765366858E+03  0.50400001928E-02 0. -1.
        1   -1    0    0  501    0  0.00000000000E+00  0.00000000000E+00 -0.14730450776E+04  0.14730450777E+04  0.50400001928E-02 0.  1.
    10030    2    1    2    0    0  0.00000000000E+00  0.00000000000E+00 -0.57539140908E+03  0.23706987462E+04  0.22998124427E+04 0.  0.
        5    1    3    3  502    0 -0.57288277876E+03 -0.51799246186E+03  0.59047284556E+03  0.97220941164E+03  0.46999998093E+01 0. -1.
       -5    1    3    3    0  502  0.57288277876E+03  0.51799246186E+03 -0.11658642546E+04  0.13984893346E+04  0.46999998093E+01 0.  1.
</event>
<event>
 5   0  0.1825521E-06  0.2299942E+04  0.7818609E-02  0.8477944E-01
       -2   -1    0    0    0  501  0.00000000000E+00  0.00000000000E+00  0.26700593972E+04  0.26700593972E+04  0.25500000920E-02 0.  1.
        2   -1    0    0  501    0  0.00000000000E+00  0.00000000000E+00 -0.49528228857E+03  0.49528228857E+03  0.25500000920E-02 0. -1.
    10030    2    1    2    0    0  0.00000000000E+00  0.00000000000E+00  0.21747771086E+04  0.31653416858E+04  0.22999418505E+04 0.  0.
        5    1    3    3  502    0  0.41754111390E+02  0.22442124519E+03  0.26385512737E+04  0.26484114513E+04  0.46999998093E+01 0.  1.
       -5    1    3    3    0  502 -0.41754111390E+02 -0.22442124519E+03 -0.46377416511E+03  0.51693023449E+03  0.46999998093E+01 0. -1.
</event>
<event>
 5   0  0.1825521E-06  0.2299970E+04  0.7818609E-02  0.8477933E-01
        2   -1    0    0  501    0  0.00000000000E+00  0.00000000000E+00  0.13048421255E+04  0.13048421256E+04  0.25500000920E-02 0.  1.
       -2   -1    0    0    0  501  0.00000000000E+00  0.00000000000E+00 -0.10135060823E+04  0.10135060823E+04  0.25500000920E-02 0. -1.
    10030    2    1    2    0    0  0.00000000000E+00  0.00000000000E+00  0.29133604321E+03  0.23183482079E+04  0.22999699396E+04 0.  0.
        5    1    3    3  502    0 -0.37923688555E+03 -0.29887550145E+03  0.11977013356E+04  0.12913782405E+04  0.46999998093E+01 0.  1.
       -5    1    3    3    0  502  0.37923688555E+03  0.29887550145E+03 -0.90636529238E+03  0.10269699674E+04  0.46999998093E+01 0. -1.
</event>
<event>
 5   0  0.1888779E-06  0.2300446E+04  0.7818609E-02  0.8477745E-01
        2   -1    0    0  501    0  0.00000000000E+00  0.00000000000E+00  0.16698493921E+04  0.16698493921E+04  0.25500000920E-02 0.  1.
       -2   -1    0    0    0  501  0.00000000000E+00  0.00000000000E+00 -0.79229492539E+03  0.79229492539E+03  0.25500000920E-02 0. -1.
    10030    2    1    2    0    0  0.00000000000E+00  0.00000000000E+00  0.87755446674E+03  0.24621443175E+04  0.23004462172E+04 0.  0.
        4    1    3    3  502    0 -0.39172372260E+03 -0.97157213662E+03 -0.69595472312E+02  0.10498785807E+04  0.12699999809E+01 0. -1.
       -4    1    3    3    0  502  0.39172372260E+03  0.97157213662E+03  0.94714993905E+03  0.14122657368E+04  0.12699999809E+01 0.  1.
</event>
<event>
 5   0  0.8108242E-07  0.2299777E+04  0.7818609E-02  0.8478009E-01
        1   -1    0    0  501    0  0.00000000000E+00  0.00000000000E+00  0.17865952504E+04  0.17865952504E+04  0.50400001928E-02 0.  1.
       -1   -1    0    0    0  501  0.00000000000E+00  0.00000000000E+00 -0.74009096299E+03  0.74009096301E+03  0.50400001928E-02 0. -1.
    10030    2    1    2    0    0  0.00000000000E+00  0.00000000000E+00  0.10465042874E+04  0.25266862134E+04  0.22997765103E+04 0.  0.
        4    1    3    3  502    0  0.79244763622E+03 -0.24422448013E+03  0.13984846139E+04  0.16258473732E+04  0.12699999809E+01 0.  1.
       -4    1    3    3    0  502 -0.79244763622E+03  0.24422448013E+03 -0.35198032649E+03  0.90083884018E+03  0.12699999809E+01 0. -1.
</event>
<event>
 5   0  0.7607231E-07  0.2302311E+04  0.7818609E-02  0.8477011E-01
       -1   -1    0    0    0  501  0.00000000000E+00  0.00000000000E+00  0.77358539731E+03  0.77358539732E+03  0.50400001928E-02 0. -1.
        1   -1    0    0  501    0  0.00000000000E+00  0.00000000000E+00 -0.17130090037E+04  0.17130090037E+04  0.50400001928E-02 0.  1.
    10030    2    1    2    0    0  0.00000000000E+00  0.00000000000E+00 -0.93942360636E+03  0.24865944010E+04  0.23023107963E+04 0.  0.
        2    1    3    3  502    0  0.46945634544E+03  0.47543925295E+03 -0.14821487572E+04  0.16257910942E+04  0.25500000920E-02 0.  1.
       -2    1    3    3    0  502 -0.46945634544E+03 -0.47543925295E+03  0.54272515088E+03  0.86080330676E+03  0.25500000920E-02 0. -1.
</event>
<event>
 5   0  0.1689444E-06  0.2300612E+04  0.7818609E-02  0.8477680E-01
       -2   -1    0    0    0  501  0.00000000000E+00  0.00000000000E+00  0.10638948782E+04  0.10638948782E+04  0.25500000920E-02 0. -1.
        2   -1    0    0  501    0  0.00000000000E+00  0.00000000000E+00 -0.12437356378E+04  0.12437356378E+04  0.25500000920E-02 0.  1.
    10030    2    1    2    0    0  0.00000000000E+00  0.00000000000E+00 -0.17984075957E+03  0.23076305160E+04  0.23006120706E+04 0.  0.
        2    1    3    3  502    0 -0.12100933380E+03  0.47777511071E+03  0.95262121415E+03  0.10725667778E+04  0.25500000920E-02 0. -1.
       -2    1    3    3    0  502  0.12100933380E+03 -0.47777511071E+03 -0.11324619737E+04  0.12350637381E+04  0.25500000920E-02 0.  1.
</event>
<event>
 5   0  0.7607231E-07  0.2297135E+04  0.7818609E-02  0.8479052E-01
       -1   -1    0    0    0  501  0.00000000000E+00  0.00000000000E+00  0.87638479644E+03  0.87638479646E+03  0.50400001928E-02 0.  1.
        1   -1    0    0  501    0  0.00000000000E+00  0.00000000000E+00 -0.15052829729E+04  0.15052829729E+04  0.50400001928E-02 0. -1.
    10030    2    1    2    0    0  0.00000000000E+00  0.00000000000E+00 -0.62889817647E+03  0.23816677694E+04  0.22971348344E+04 0.  0.
        2    1    3    3  502    0 -0.44581280064E+03  0.10095716356E+04  0.15414714489E+02  0.11037307435E+04  0.25500000920E-02 0.  1.
       -2    1    3    3    0  502  0.44581280064E+03 -0.10095716356E+04 -0.64431289096E+03  0.12779370259E+04  0.25500000920E-02 0. -1.
</event>
<event>
 5   0  0.1828646E-06  0.2299539E+04  0.7818609E-02  0.8478103E-01
       -2   -1    0    0    0  501  0.00000000000E+00  0.00000000000E+00  0.80370742780E+03  0.80370742781E+03  0.25500000920E-02 0. -1.
        2   -1    0    0  501    0  0.00000000000E+00  0.00000000000E+00 -0.16448396537E+04  0.16448396537E+04  0.25500000920E-02 0.  1.
    10030    2    1    2    0    0  0.00000000000E+00  0.00000000000E+00 -0.84113222587E+03  0.24485470815E+04  0.22995389514E+04 0.  0.
        3    1    3    3  502    0 -0.29736695568E+03  0.78345046347E+03  0.41768722505E+03  0.93631424384E+03  0.10100000352E+00 0. -1.
       -3    1    3    3    0  502  0.29736695568E+03 -0.78345046347E+03 -0.12588194509E+04  0.15122328376E+04  0.10100000352E+00 0.  1.
</event>
<event>
 5   0  0.1825521E-06  0.2301881E+04  0.7818609E-02  0.8477180E-01
       -2   -1    0    0    0  501  0.00000000000E+00  0.00000000000E+00  0.59248578815E+03  0.59248578815E+03  0.25500000920E-02 0. -1.
        2   -1    0    0  501    0  0.00000000000E+00  0.00000000000E+00 -0.22357741235E+04  0.22357741235E+04  0.25500000920E-02 0.  1.
    10030    2    1    2    0    0  0.00000000000E+00  0.00000000000E+00 -0.16432883354E+04  0.28282599117E+04  0.23018813121E+04 0.  0.
        5    1    3    3  502    0  0.71132378481E+03 -0.24380552032E+03 -0.18922265919E+04  0.20361645866E+04  0.46999998093E+01 0.  1.
       -5    1    3    3    0  502 -0.71132378481E+03  0.24380552032E+03  0.24893825647E+03  0.79209532514E+03  0.46999998093E+01 0. -1.
</event>
<event>
 5   0  0.7932912E-07  0.2301831E+04  0.7818609E-02  0.8477200E-01
        1   -1    0    0  501    0  0.00000000000E+00  0.00000000000E+00  0.92644177899E+03  0.92644177900E+03  0.50400001928E-02 0.  1.
       -1   -1    0    0    0  501  0.00000000000E+00  0.00000000000E+00 -0.14297782619E+04  0.14297782619E+04  0.50400001928E-02 0. -1.
    10030    2    1    2    0    0  0.00000000000E+00  0.00000000000E+00 -0.50333648292E+03  0.23562200409E+04  0.23018308509E+04 0.  0.
        5    1    3    3  502    0  0.24717914269E+03 -0.31361123081E+03  0.85325092271E+03  0.94207683326E+03  0.46999998093E+01 0.  1.
       -5    1    3    3    0  502 -0.24717914269E+03  0.31361123081E+03 -0.13565874056E+04  0.14141432077E+04  0.46999998093E+01 0. -1.
</event>
<event>
 5   0  0.8097672E-07  0.2297860E+04  0.7818609E-02  0.8478765E-01
        1   -1    0    0  501    0  0.00000000000E+00  0.00000000000E+00  0.10582965862E+04  0.10582965862E+04  0.50400001928E-02 0. -1.
       -1   -1    0    0    0  501  0.00000000000E+00  0.00000000000E+00 -0.12473250988E+04  0.12473250989E+04  0.50400001928E-02 0.  1.
    10030    2    1    2    0    0  0.00000000000E+00  0.00000000000E+00 -0.18902851263E+03  0.23056216851E+04  0.22978597817E+04 0.  0.
        3    1    3    3  502    0 -0.94254616182E+03  0.59684193864E+03  0.18105196121E+03  0.11302182930E+04  0.10100000352E+00 0. -1.
       -3    1    3    3    0  502  0.94254616182E+03 -0.59684193864E+03 -0.37008047385E+03  0.11754033921E+04  0.10100000352E+00 0.  1.
</event>
<event>
 5   0  0.1828646E-06  0.2299656E+04  0.7818609E-02  0.8478057E-01
       -2   -1    0    0    0  501  0.00000000000E+00  0.00000000000E+00  0.12115044637E+04  0.12115044637E+04  0.25500000920E-02 0.  1.
        2   -1    0    0  501    0  0.00000000000E+00  0.00000000000E+00 -0.10912910721E+04  0.10912910721E+04  0.25500000920E-02 0. -1.
    10030    2    1    2    0    0  0.00000000000E+00  0.00000000000E+00  0.12021339154E+03  0.23027955358E+04  0.22996556308E+04 0.  0.
        3    1    3    3  502    0 -0.53723372886E+03  0.98324295820E+03  0.31875609879E+03  0.11649001052E+04  0.10100000352E+00 0. -1.
       -3    1    3    3    0  502  0.53723372886E+03 -0.98324295820E+03 -0.19854270726E+03  0.11378954306E+04  0.10100000352E+00 0.  1.
</event>
<event>
 5   0  0.1744876E-06  0.2299813E+04  0.7818609E-02  0.8477995E-01
       -2   -1    0    0    0  501  0.00000000000E+00  0.00000000000E+00  0.62183574121E+03  0.62183574122E+03  0.25500000920E-02 0. -1.
        2   -1    0    0  501    0  0.00000000000E+00  0.00000000000E+00 -0.21264212878E+04  0.21264212878E+04  0.25500000920E-02 0.  1.
    10030    2    1    2    0    0  0.00000000000E+00  0.00000000000E+00 -0.15045855465E+04  0.27482570290E+04  0.22998128251E+04 0.  0.
        1    1    3    3  502    0  0.49308737164E+03  0.10020440169E+04 -0.10796798895E+04  0.15533628139E+04  0.50400001928E-02 0.  1.
       -1    1    3    3    0  502 -0.49308737164E+03 -0.10020440169E+04 -0.42490565701E+03  0.11948942151E+04  0.50400001928E-02 0. -1.
</event>
<event>
 5   0  0.1744876E-06  0.2300574E+04  0.7818609E-02  0.8477695E-01
        2   -1    0    0  501    0  0.00000000000E+00  0.00000000000E+00  0.84897439636E+03  0.84897439637E+03  0.25500000920E-02 0. -1.
       -2   -1    0    0    0  501  0.00000000000E+00  0.00000000000E+00 -0.15585399299E+04  0.15585399299E+04  0.25500000920E-02 0.  1.
    10030    2    1    2    0    0  0.00000000000E+00  0.00000000000E+00 -0.70956553357E+03  0.24075143263E+04  0.23005742729E+04 0.  0.
        1    1    3    3  502    0  0.43759547363E+03 -0.10012808807E+04 -0.73080022860E+03  0.13145806079E+04  0.50400001928E-02 0.  1.
       -1    1    3    3    0  502 -0.43759547363E+03  0.10012808807E+04  0.21234695033E+02  0.10929337184E+04  0.50400001928E-02 0. -1.
</event>
<event>
 5   0  0.1689444E-06  0.2300005E+04  0.7818609E-02  0.8477919E-01
       -2   -1    0    0    0  501  0.00000000000E+00  0.00000000000E+00  0.11674797648E+04  0.11674797648E+04  0.25500000920E-02 0.  1.
        2   -1    0    0  501    0  0.00000000000E+00  0.00000000000E+00 -0.11327867581E+04  0.11327867581E+04  0.25500000920E-02 0. -1.
    10030    2    1    2    0    0  0.00000000000E+00  0.00000000000E+00  0.34693006610E+02  0.23002665229E+04  0.23000048851E+04 0.  0.
        2    1    3    3  502    0 -0.27060737164E+03  0.22220579585E+03  0.11128714271E+04  0.11666561526E+04  0.25500000920E-02 0.  1.
       -2    1    3    3    0  502  0.27060737164E+03 -0.22220579585E+03 -0.10781784204E+04  0.11336103703E+04  0.25500000920E-02 0. -1.
</event>
<event>
 5   0  0.7761069E-07  0.2301863E+04  0.7818609E-02  0.8477187E-01
        1   -1    0    0  501    0  0.00000000000E+00  0.00000000000E+00  0.95441381115E+03  0.95441381116E+03  0.50400001928E-02 0. -1.
       -1   -1    0    0    0  501  0.00000000000E+00  0.00000000000E+00 -0.13879125242E+04  0.13879125242E+04  0.50400001928E-02 0.  1.
    10030    2    1    2    0    0  0.00000000000E+00  0.00000000000E+00 -0.43349871303E+03  0.23423263354E+04  0.23018626212E+04 0.  0.
        1    1    3    3  502    0  0.97841841173E+03  0.59744539732E+03 -0.32051888822E+03  0.11903679889E+04  0.50400001928E-02 0.  1.
       -1    1    3    3    0  502 -0.97841841173E+03 -0.59744539732E+03 -0.11297982481E+03  0.11519583465E+04  0.50400001928E-02 0. -1.
</event>
<event>
 5   0  0.1744876E-06  0.2299978E+04  0.7818609E-02  0.8477930E-01
       -2   -1    0    0    0  501  0.00000000000E+00  0.00000000000E+00  0.53777477887E+03  0.53777477888E+03  0.25500000920E-02 0.  1.
        2   -1    0    0  501    0  0.00000000000E+00  0.00000000000E+00 -0.24591615806E+04  0.24591615806E+04  0.25500000920E-02 0. -1.
    10030    2    1    2    0    0  0.00000000000E+00  0.00000000000E+00 -0.19213868017E+04  0.29969363594E+04  0.22999783262E+04 0.  0.
        1    1    3    3  502    0 -0.86605785024E+03  0.56870465739E+03 -0.16108951305E+04  0.19153235520E+04  0.50400001928E-02 0. -1.
       -1    1    3    3    0  502  0.86605785024E+03 -0.56870465739E+03 -0.31049167114E+03  0.10816128074E+04  0.50400001928E-02 0.  1.
</event>
<event>
 5   0  0.1888779E-06  0.2300352E+04  0.7818609E-02  0.8477782E-01
        2   -1    0    0  501    0  0.00000000000E+00  0.00000000000E+00  0.20982653464E+04  0.20982653464E+04  0.25500000920E-02 0. -1.
       -2   -1    0    0    0  501  0.00000000000E+00  0.00000000000E+00 -0.63047558673E+03  0.63047558674E+03  0.25500000920E-02 0.  1.
    10030    2    1    2    0    0  0.00000000000E+00  0.00000000000E+00  0.14677897597E+04  0.27287409332E+04  0.23003522125E+04 0.  0.
        4    1    3    3  502    0 -0.52304040820E+03  0.83402795514E+03  0.28384109565E+02  0.98487622021E+03  0.12699999809E+01 0.  1.
       -4    1    3    3    0  502  0.52304040820E+03 -0.83402795514E+03  0.14394056501E+04  0.17438647130E+04  0.12699999809E+01 0. -1.
</event>
<event>
 5   0  0.1828646E-06  0.2299345E+04  0.7818609E-02  0.8478179E-01
       -2   -1    0    0    0  501  0.00000000000E+00  0.00000000000E+00  0.12770760187E+04  0.12770760187E+04  0.25500000920E-02 0. -1.
        2   -1    0    0  501    0  0.00000000000E+00  0.00000000000E+00 -0.10349791847E+04  0.10349791847E+04  0.25500000920E-02 0.  1.
    10030    2    1    2    0    0  0.00000000000E+00  0.00000000000E+00  0.24209683396E+03  0.23120552034E+04  0.22993452082E+04 0.  0.
        3    1    3    3  502    0  0.99227880167E+03  0.56253757220E+03  0.26565345419E+03  0.11711692911E+04  0.10100000352E+00 0. -1.
       -3    1    3    3    0  502 -0.99227880167E+03 -0.56253757220E+03 -0.23556620237E+02  0.11408859123E+04  0.10100000352E+00 0.  1.
</event>
<event>
 5   0  0.8097672E-07  0.2299259E+04  0.7818609E-02  0.8478213E-01
       -1   -1    0    0    0  501  0.00000000000E+00  0.00000000000E+00  0.16539023230E+04  0.16539023230E+04  0.50400001928E-02 0. -1.
        1   -1    0    0  501    0  0.00000000000E+00  0.00000000000E+00 -0.79910908112E+03  0.79910908113E+03  0.50400001928E-02 0.  1.
    10030    2    1    2    0    0  0.00000000000E+00  0.00000000000E+00  0.85479324183E+03  0.24530114041E+04  0.22992593291E+04 0.  0.
        3    1    3    3  502    0  0.10550474394E+04 -0.36190183220E+03  0.13029610443E+03  0.11229760107E+04  0.10100000352E+00 0.  1.
       -3    1    3    3    0  502 -0.10550474394E+04  0.36190183220E+03  0.72449713740E+03  0.13300353934E+04  0.10100000352E+00 0. -1.
</event>
<event>
 5   0  0.7607231E-07  0.2299689E+04  0.7818609E-02  0.8478044E-01
        1   -1    0    0  501    0  0.00000000000E+00  0.00000000000E+00  0.80142606324E+03  0.80142606325E+03  0.50400001928E-02 0. -1.
       -1   -1    0    0    0  501  0.00000000000E+00  0.00000000000E+00 -0.16497369101E+04  0.16497369101E+04  0.50400001928E-02 0.  1.
    10030    2    1    2    0    0  0.00000000000E+00  0.00000000000E+00 -0.84831084684E+03  0.24511629733E+04  0.22996888113E+04 0.  0.
        2    1    3    3  502    0 -0.41174086822E+03  0.13128076790E+03  0.71156950055E+03  0.83252407575E+03  0.25500000920E-02 0. -1.
       -2    1    3    3    0  502  0.41174086822E+03 -0.13128076790E+03 -0.15598803474E+04  0.16186388976E+04  0.25500000920E-02 0.  1.
</event>
<event>
 5   0  0.1744876E-06  0.2299797E+04  0.7818609E-02  0.8478001E-01
       -2   -1    0    0    0  501  0.00000000000E+00  0.00000000000E+00  0.79213968447E+03  0.79213968447E+03  0.25500000920E-02 0.  1.
        2   -1    0    0  501    0  0.00000000000E+00  0.00000000000E+00 -0.16692340383E+04  0.16692340383E+04  0.25500000920E-02 0. -1.
    10030    2    1    2    0    0  0.00000000000E+00  0.00000000000E+00 -0.87709435383E+03  0.24613737228E+04  0.22997969688E+04 0.  0.
        1    1    3    3  502    0 -0.62694401261E+02  0.11481846502E+04 -0.43553038743E+03  0.12296118483E+04  0.50400001928E-02 0.  1.
       -1    1    3    3    0  502  0.62694401261E+02 -0.11481846502E+04 -0.44156396640E+03  0.12317618745E+04  0.50400001928E-02 0. -1.
</event>
<event>
 5   0  0.1888779E-06  0.2300276E+04  0.7818609E-02  0.8477812E-01
       -2   -1    0    0    0  501  0.00000000000E+00  0.00000000000E+00  0.73065390673E+03  0.73065390673E+03  0.25500000920E-02 0. -1.
        2   -1    0    0  501    0  0.00000000000E+00  0.00000000000E+00 -0.18104564097E+04  0.18104564097E+04  0.25500000920E-02 0.  1.
    10030    2    1    2    0    0  0.00000000000E+00  0.00000000000E+00 -0.10798025030E+04  0.25411103164E+04  0.23002756780E+04 0.  0.
        4    1    3    3  502    0  0.66139211409E+03  0.46877030717E+03  0.36137966509E+03  0.88757084490E+03  0.12699999809E+01 0. -1.
       -4    1    3    3    0  502 -0.66139211409E+03 -0.46877030717E+03 -0.14411821680E+04  0.16535394715E+04  0.12699999809E+01 0.  1.
</event>
<event>
 5   0  0.1828646E-06  0.2299890E+04  0.7818609E-02  0.8477965E-01
       -2   -1    0    0    0  501  0.00000000000E+00  0.00000000000E+00  0.53280139493E+03  0.53280139493E+03  0.25500000920E-02 0. -1.
        2   -1    0    0  501    0  0.00000000000E+00  0.00000000000E+00 -0.24819248751E+04  0.24819248751E+04  0.25500000920E-02 0.  1.
    10030    2    1    2    0    0  0.00000000000E+00  0.00000000000E+00 -0.19491234801E+04  0.30147262700E+04  0.22998895935E+04 0.  0.
        3    1    3    3  502    0 -0.15745066027E+03 -0.67181549014E+03 -0.21804006094E+04  0.22869791409E+04  0.10100000352E+00 0.  1.
       -3    1    3    3    0  502  0.15745066027E+03  0.67181549014E+03  0.23127712925E+03  0.72774712911E+03  0.10100000352E+00 0. -1.
</event>
<event>
 5   0  0.7761069E-07  0.2299724E+04  0.7818609E-02  0.8478030E-01
        1   -1    0    0  501    0  0.00000000000E+00  0.00000000000E+00  0.15634898419E+04  0.15634898419E+04  0.50400001928E-02 0.  1.
       -1   -1    0    0    0  501  0.00000000000E+00  0.00000000000E+00 -0.84566135728E+03  0.84566135730E+03  0.50400001928E-02 0. -1.
    10030    2    1    2    0    0  0.00000000000E+00  0.00000000000E+00  0.71782848457E+03  0.24091511992E+04  0.22997242807E+04 0.  0.
        1    1    3    3  502    0 -0.85458590801E+03 -0.35676413129E+03  0.10729516793E+04  0.14173295403E+04  0.50400001928E-02 0.  1.
       -1    1    3    3    0  502  0.85458590801E+03  0.35676413129E+03 -0.35512319475E+03  0.99182165888E+03  0.50400001928E-02 0. -1.
</event>
<event>
 5   0  0.1689444E-06  0.2297381E+04  0.7818609E-02  0.8478954E-01
       -2   -1    0    0    0  501  0.00000000000E+00  0.00000000000E+00  0.12827323438E+04  0.12827323438E+04  0.25500000920E-02 0. -1.
        2   -1    0    0  501    0  0.00000000000E+00  0.00000000000E+00 -0.10286559434E+04  0.10286559434E+04  0.25500000920E-02 0.  1.
    10030    2    1    2    0    0  0.00000000000E+00  0.00000000000E+00  0.25407640042E+03  0.23113882873E+04  0.22973813348E+04 0.  0.
        2    1    3    3  502    0 -0.50048113655E+03 -0.82919140023E+03  0.74842055407E+03  0.12239988039E+04  0.25500000920E-02 0. -1.
       -2    1    3    3    0  502  0.50048113655E+03  0.82919140023E+03 -0.49434415365E+03  0.10873894834E+04  0.25500000920E-02 0.  1.
</event>
<event>
 5   0  0.7761069E-07  0.2305136E+04  0.7818609E-02  0.8475899E-01
        1   -1    0    0  501    0  0.00000000000E+00  0.00000000000E+00  0.19405138842E+04  0.19405138842E+04  0.50400001928E-02 0.  1.
       -1   -1    0    0    0  501  0.00000000000E+00  0.00000000000E+00 -0.68456758145E+03  0.68456758147E+03  0.50400001928E-02 0. -1.
    10030    2    1    2    0    0  0.00000000000E+00  0.00000000000E+00  0.12559463027E+04  0.26250814657E+04  0.23051359149E+04 0.  0.
        1    1    3    3  502    0  0.28443157839E+03 -0.38813587186E+03 -0.56470226438E+03  0.74191604999E+03  0.50400001928E-02 0. -1.
       -1    1    3    3    0  502 -0.28443157839E+03  0.38813587186E+03  0.18206485671E+04  0.18831654157E+04  0.50400001928E-02 0.  1.
</event>
<event>
 5   0  0.7607231E-07  0.2301471E+04  0.7818609E-02  0.8477341E-01
        1   -1    0    0  501    0  0.00000000000E+00  0.00000000000E+00  0.17001647167E+04  0.17001647167E+04  0.50400001928E-02 0. -1.
       -1   -1    0    0    0  501  0.00000000000E+00  0.00000000000E+00 -0.77886132213E+03  0.77886132215E+03  0.50400001928E-02 0.  1.
    10030    2    1    2    0    0  0.00000000000E+00  0.00000000000E+00  0.92130339457E+03  0.24790260389E+04  0.23014713026E+04 0.  0.
        2    1    3    3  502    0 -0.12042247333E+03 -0.10038601656E+04 -0.13124670225E+03  0.10195403381E+04  0.25500000920E-02 0.  1.
       -2    1    3    3    0  502  0.12042247333E+03  0.10038601656E+04  0.10525500968E+04  0.14594857007E+04  0.25500000920E-02 0. -1.
</event>
<event>
 5   0  0.1825521E-06  0.2300793E+04  0.7818609E-02  0.8477609E-01
       -2   -1    0    0    0  501  0.00000000000E+00  0.00000000000E+00  0.10371783215E+04  0.10371783215E+04  0.25500000920E-02 0. -1.
        2   -1    0    0  501    0  0.00000000000E+00  0.00000000000E+00 -0.12759731234E+04  0.12759731234E+04  0.25500000920E-02 0.  1.
    10030    2    1    2    0    0  0.00000000000E+00  0.00000000000E+00 -0.23879480193E+03  0.23131514450E+04  0.23007926134E+04 0.  0.
        5    1    3    3  502    0 -0.17172189824E+02  0.97425516538E+03 -0.73417331928E+03  0.12200412141E+04  0.46999998093E+01 0. -1.
       -5    1    3    3    0  502  0.17172189824E+02 -0.97425516538E+03  0.49537851735E+03  0.10931102309E+04  0.46999998093E+01 0.  1.
</event>
<event>
 5   0  0.7761069E-07  0.2300343E+04  0.7818609E-02  0.8477786E-01
        1   -1    0    0  501    0  0.00000000000E+00  0.00000000000E+00  0.84939546599E+03  0.84939546600E+03  0.50400001928E-02 0. -1.
       -1   -1    0    0    0  501  0.00000000000E+00  0.00000000000E+00 -0.15574537049E+04  0.15574537049E+04  0.50400001928E-02 0.  1.
    10030    2    1    2    0    0  0.00000000000E+00  0.00000000000E+00 -0.70805823887E+03  0.24068491709E+04  0.23003426835E+04 0.  0.
        1    1    3    3  502    0 -0.11011043245E+04  0.31287696982E+03 -0.23671565053E+03  0.11689127559E+04  0.50400001928E-02 0. -1.
       -1    1    3    3    0  502  0.11011043245E+04 -0.31287696982E+03 -0.47134258834E+03  0.12379364149E+04  0.50400001928E-02 0.  1.
</event>
<event>
 5   0  0.1888779E-06  0.2299822E+04  0.7818609E-02  0.8477991E-01
        2   -1    0    0  501    0  0.00000000000E+00  0.00000000000E+00  0.26963416605E+04  0.26963416605E+04  0.25500000920E-02 0.  1.
       -2   -1    0    0    0  501  0.00000000000E+00  0.00000000000E+00 -0.49040341609E+03  0.49040341609E+03  0.25500000920E-02 0. -1.
    10030    2    1    2    0    0  0.00000000000E+00  0.00000000000E+00  0.22059382444E+04  0.31867450766E+04  0.22998218725E+04 0.  0.
        4    1    3    3  502    0  0.40484451906E+03 -0.64281783226E+03 -0.93175331068E+02  0.76537383370E+03  0.12699999809E+01 0. -1.
       -4    1    3    3    0  502 -0.40484451906E+03  0.64281783226E+03  0.22991135755E+04  0.24213712429E+04  0.12699999809E+01 0.  1.
</event>
<event>
 5   0  0.7932912E-07  0.2300668E+04  0.7818609E-02  0.8477658E-01
        1   -1    0    0  501    0  0.00000000000E+00  0.00000000000E+00  0.16497559653E+04  0.16497559653E+04  0.50400001928E-02 0.  1.
       -1   -1    0    0    0  501  0.00000000000E+00  0.00000000000E+00 -0.80209920766E+03  0.80209920768E+03  0.50400001928E-02 0. -1.
    10030    2    1    2    0    0  0.00000000000E+00  0.00000000000E+00  0.84765675765E+03  0.24518551730E+04  0.23006676880E+04 0.  0.
        5    1    3    3  502    0  0.23633197195E+03  0.82480090854E+03 -0.39274585987E+03  0.94362107868E+03  0.46999998093E+01 0. -1.
       -5    1    3    3    0  502 -0.23633197195E+03 -0.82480090854E+03  0.12404026175E+04  0.15082340943E+04  0.46999998093E+01 0.  1.
</event>
<event>
 5   0  0.1828646E-06  0.2299839E+04  0.7818609E-02  0.8477984E-01
        2   -1    0    0  501    0  0.00000000000E+00  0.00000000000E+00  0.63177860889E+03  0.63177860890E+03  0.25500000920E-02 0. -1.
       -2   -1    0    0    0  501  0.00000000000E+00  0.00000000000E+00 -0.20930040593E+04  0.20930040593E+04  0.25500000920E-02 0.  1.
    10030    2    1    2    0    0  0.00000000000E+00  0.00000000000E+00 -0.14612254504E+04  0.27247826682E+04  0.22998392926E+04 0.  0.
        3    1    3    3  502    0  0.39351928026E+03 -0.88169785572E+03 -0.14705651349E+04  0.17592073099E+04  0.10100000352E+00 0.  1.
       -3    1    3    3    0  502 -0.39351928026E+03  0.88169785572E+03  0.93396845483E+01  0.96557535834E+03  0.10100000352E+00 0. -1.
</event>
<event>
 5   0  0.1828646E-06  0.2298685E+04  0.7818609E-02  0.8478440E-01
        2   -1    0    0  501    0  0.00000000000E+00  0.00000000000E+00  0.26049826623E+04  0.26049826623E+04  0.25500000920E-02 0.  1.
       -2   -1    0    0    0  501  0.00000000000E+00  0.00000000000E+00 -0.50710060227E+03  0.50710060228E+03  0.25500000920E-02 0. -1.
    10030    2    1    2    0    0  0.00000000000E+00  0.00000000000E+00  0.20978820601E+04  0.31120832646E+04  0.22986850824E+04 0.  0.
        3    1    3    3  502    0  0.50799691751E+03 -0.89072730945E+03  0.17518144272E+04  0.20298546267E+04  0.10100000352E+00 0.  1.
       -3    1    3    3    0  502 -0.50799691751E+03  0.89072730945E+03  0.34606763287E+03  0.10822286379E+04  0.10100000352E+00 0. -1.
</event>
<event>
 5   0  0.8097672E-07  0.2296811E+04  0.7818609E-02  0.8479179E-01
        1   -1    0    0  501    0  0.00000000000E+00  0.00000000000E+00  0.17106054783E+04  0.17106054783E+04  0.50400001928E-02 0. -1.
       -1   -1    0    0    0  501  0.00000000000E+00  0.00000000000E+00 -0.77097598235E+03  0.77097598237E+03  0.50400001928E-02 0.  1.
    10030    2    1    2    0    0  0.00000000000E+00  0.00000000000E+00  0.93962949596E+03  0.24815814607E+04  0.22968114760E+04 0.  0.
        3    1    3    3  502    0 -0.93384165067E+03 -0.66108985462E+03  0.36320746430E+03  0.12004247984E+04  0.10100000352E+00 0.  1.
       -3    1    3    3    0  502  0.93384165067E+03  0.66108985462E+03  0.57642203166E+03  0.12811566622E+04  0.10100000352E+00 0. -1.
</event>
<event>
 5   0  0.1689444E-06  0.2300072E+04  0.7818609E-02  0.8477893E-01
        2   -1    0    0  501    0  0.00000000000E+00  0.00000000000E+00  0.20015744673E+04  0.20015744673E+04  0.25500000920E-02 0.  1.
       -2   -1    0    0    0  501  0.00000000000E+00  0.00000000000E+00 -0.66077125105E+03  0.66077125106E+03  0.25500000920E-02 0. -1.
    10030    2    1    2    0    0  0.00000000000E+00  0.00000000000E+00  0.13408032163E+04  0.26623457184E+04  0.23000720553E+04 0.  0.
        2    1    3    3  502    0  0.67191336249E+03 -0.88676821733E+03  0.33341558352E+03  0.11614608858E+04  0.25500000920E-02 0. -1.
       -2    1    3    3    0  502 -0.67191336249E+03  0.88676821733E+03  0.10073876327E+04  0.15008848325E+04  0.25500000920E-02 0.  1.
</event>
<event>
 5   0  0.1689444E-06  0.2300522E+04  0.7818609E-02  0.8477715E-01
       -2   -1    0    0    0  501  0.00000000000E+00  0.00000000000E+00  0.16266683294E+04  0.16266683294E+04  0.25500000920E-02 0. -1.
        2   -1    0    0  501    0  0.00000000000E+00  0.00000000000E+00 -0.81338076306E+03  0.81338076306E+03  0.25500000920E-02 0.  1.
    10030    2    1    2    0    0  0.00000000000E+00  0.00000000000E+00  0.81328756634E+03  0.24400490925E+04  0.23005223120E+04 0.  0.
        2    1    3    3  502    0  0.33298848082E+03 -0.61314096744E+03 -0.56330172089E+03  0.89673407601E+03  0.25500000920E-02 0.  1.
       -2    1    3    3    0  502 -0.33298848082E+03  0.61314096744E+03  0.13765892872E+04  0.15433150165E+04  0.25500000920E-02 0. -1.
</event>
<event>
 5   0  0.1888779E-06  0.2301366E+04  0.7818609E-02  0.8477383E-01
        2   -1    0    0  501    0  0.00000000000E+00  0.00000000000E+00  0.16619362996E+04  0.16619362996E+04  0.25500000920E-02 0. -1.
       -2   -1    0    0    0  501  0.00000000000E+00  0.00000000000E+00 -0.79670375939E+03  0.79670375940E+03  0.25500000920E-02 0.  1.
    10030    2    1    2    0    0  0.00000000000E+00  0.00000000000E+00  0.86523254020E+03  0.24586400590E+04  0.23013655927E+04 0.  0.
        4    1    3    3  502    0 -0.83866122311E+01 -0.52086465588E+03 -0.66351214086E+03  0.84357589996E+03  0.12699999809E+01 0.  1.
       -4    1    3    3    0  502  0.83866122311E+01  0.52086465588E+03  0.15287446811E+04  0.16150641590E+04  0.12699999809E+01 0. -1.
</event>
<event>
 5   0  0.8108242E-07  0.2299898E+04  0.7818609E-02  0.8477961E-01
       -1   -1    0    0    0  501  0.00000000000E+00  0.00000000000E+00  0.92511602559E+03  0.92511602561E+03  0.50400001928E-02 0.  1.
        1   -1    0    0  501    0  0.00000000000E+00  0.00000000000E+00 -0.14294235073E+04  0.14294235073E+04  0.50400001928E-02 0. -1.
    10030    2    1    2    0    0  0.00000000000E+00  0.00000000000E+00 -0.50430748168E+03  0.23545395329E+04  0.22998979055E+04 0.  0.
        4    1    3    3  502    0  0.39400129587E+03 -0.13154831900E+03  0.84562785677E+03  0.94214121363E+03  0.12699999809E+01 0.  1.
       -4    1    3    3    0  502 -0.39400129587E+03  0.13154831900E+03 -0.13499353384E+04  0.14123983193E+04  0.12699999809E+01 0. -1.
</event>
<event>
 5   0  0.8097672E-07  0.2299423E+04  0.7818609E-02  0.8478149E-01
        1   -1    0    0  501    0  0.00000000000E+00  0.00000000000E+00  0.96586601888E+03  0.96586601889E+03  0.50400001928E-02 0. -1.
       -1   -1    0    0    0  501  0.00000000000E+00  0.00000000000E+00 -0.13685505563E+04  0.13685505563E+04  0.50400001928E-02 0.  1.
    10030    2    1    2    0    0  0.00000000000E+00  0.00000000000E+00 -0.40268453741E+03  0.23344165752E+04  0.22994229515E+04 0.  0.
        3    1    3    3  502    0 -0.37280865737E+03  0.26209022773E+03 -0.12729431454E+04  0.13520583730E+04  0.10100000352E+00 0.  1.
       -3    1    3    3    0  502  0.37280865737E+03 -0.26209022773E+03  0.87025860796E+03  0.98235820219E+03  0.10100000352E+00 0. -1.
</event>
<event>
 5   0  0.7761069E-07  0.2302358E+04  0.7818609E-02  0.8476992E-01
        1   -1    0    0  501    0  0.00000000000E+00  0.00000000000E+00  0.15215959045E+04  0.15215959045E+04  0.50400001928E-02 0. -1.
       -1   -1    0    0    0  501  0.00000000000E+00  0.00000000000E+00 -0.87093600549E+03  0.87093600550E+03  0.50400001928E-02 0.  1.
    10030    2    1    2    0    0  0.00000000000E+00  0.00000000000E+00  0.65065989905E+03  0.23925319101E+04  0.23023576257E+04 0.  0.
        1    1    3    3  502    0 -0.73096814875E+03 -0.59049381564E+03 -0.36570788665E+03  0.10083350828E+04  0.50400001928E-02 0.  1.
       -1    1    3    3    0  502  0.73096814875E+03  0.59049381564E+03  0.10163677857E+04  0.13841968273E+04  0.50400001928E-02 0. -1.
</event>
<event>
 5   0  0.7607231E-07  0.2300142E+04  0.7818609E-02  0.8477865E-01
       -1   -1    0    0    0  501  0.00000000000E+00  0.00000000000E+00  0.10439195663E+04  0.10439195663E+04  0.50400001928E-02 0. -1.
        1   -1    0    0  501    0  0.00000000000E+00  0.00000000000E+00 -0.12670166510E+04  0.12670166510E+04  0.50400001928E-02 0.  1.
    10030    2    1    2    0    0  0.00000000000E+00  0.00000000000E+00 -0.22309708473E+03  0.23109362173E+04  0.23001421458E+04 0.  0.
        2    1    3    3  502    0  0.72440690414E+03  0.64970896525E+03 -0.72743125924E+03  0.12149252402E+04  0.25500000920E-02 0.  1.
       -2    1    3    3    0  502 -0.72440690414E+03 -0.64970896525E+03  0.50433417452E+03  0.10960109771E+04  0.25500000920E-02 0. -1.
</event>
<event>
 5   0  0.7761069E-07  0.2299122E+04  0.7818609E-02  0.8478267E-01
       -1   -1    0    0    0  501  0.00000000000E+00  0.00000000000E+00  0.15098435593E+04  0.15098435593E+04  0.50400001928E-02 0.  1.
        1   -1    0    0  501    0  0.00000000000E+00  0.00000000000E+00 -0.87525015703E+03  0.87525015704E+03  0.50400001928E-02 0. -1.
    10030    2    1    2    0    0  0.00000000000E+00  0.00000000000E+00  0.63459340231E+03  0.23850937164E+04  0.22991222781E+04 0.  0.
        1    1    3    3  502    0 -0.23678125127E+03 -0.10397789077E+04 -0.12804021310E+03  0.10740576493E+04  0.50400001928E-02 0.  1.
       -1    1    3    3    0  502  0.23678125127E+03  0.10397789077E+04  0.76263361541E+03  0.13110360671E+04  0.50400001928E-02 0. -1.
</event>
<event>
 5   0  0.1689444E-06  0.2299635E+04  0.7818609E-02  0.8478065E-01
        2   -1    0    0  501    0  0.00000000000E+00  0.00000000000E+00  0.15456408504E+04  0.15456408504E+04  0.25500000920E-02 0.  1.
       -2   -1    0    0    0  501  0.00000000000E+00  0.00000000000E+00 -0.85536057177E+03  0.85536057178E+03  0.25500000920E-02 0. -1.
    10030    2    1    2    0    0  0.00000000000E+00  0.00000000000E+00  0.69028027860E+03  0.24010014222E+04  0.22996349637E+04 0.  0.
        2    1    3    3  502    0 -0.21374236199E+03  0.14711691670E+02  0.15246162330E+04  0.15395963397E+04  0.25500000920E-02 0.  1.
       -2    1    3    3    0  502  0.21374236199E+03 -0.14711691670E+02 -0.83433595444E+03  0.86140508244E+03  0.25500000920E-02 0. -1.
</event>
<event>
 5   0  0.8108242E-07  0.2299911E+04  0.7818609E-02  0.8477956E-01
        1   -1    0    0  501    0  0.00000000000E+00  0.00000000000E+00  0.19464068389E+04  0.19464068389E+04  0.50400001928E-02 0.  1.
       -1   -1    0    0    0  501  0.00000000000E+00  0.00000000000E+00 -0.67940439042E+03  0.67940439044E+03  0.50400001928E-02 0. -1.
    10030    2    1    2    0    0  0.00000000000E+00  0.00000000000E+00  0.12670024485E+04  0.26258112294E+04  0.22999107391E+04 0.  0.
        4    1    3    3  502    0  0.30794736480E+03  0.29317614476E+03  0.18533662084E+04  0.19015130151E+04  0.12699999809E+01 0.  1.
       -4    1    3    3    0  502 -0.30794736480E+03 -0.29317614476E+03 -0.58636375990E+03  0.72429821425E+03  0.12699999809E+01 0. -1.
</event>
<event>
 5   0  0.1689444E-06  0.2299863E+04  0.7818609E-02  0.8477975E-01
       -2   -1    0    0    0  501  0.00000000000E+00  0.00000000000E+00  0.57001591855E+03  0.57001591855E+03  0.25500000920E-02 0. -1.
        2   -1    0    0  501    0  0.00000000000E+00  0.00000000000E+00 -0.23198348704E+04  0.23198348704E+04  0.25500000920E-02 0.  1.
    10030    2    1    2    0    0  0.00000000000E+00  0.00000000000E+00 -0.17498189519E+04  0.28898507890E+04  0.22998633042E+04 0.  0.
        2    1    3    3  502    0  0.92687117766E+03 -0.21626806943E+03 -0.16858161230E+04  0.19359333817E+04  0.25500000920E-02 0.  1.
       -2    1    3    3    0  502 -0.92687117766E+03  0.21626806943E+03 -0.64002828908E+02  0.95391740730E+03  0.25500000920E-02 0. -1.
</event>
<event>
 5   0  0.7761069E-07  0.2299826E+04  0.7818609E-02  0.8477990E-01
       -1   -1    0    0    0  501  0.00000000000E+00  0.00000000000E+00  0.14316291693E+04  0.14316291693E+04  0.50400001928E-02 0. -1.
        1   -1    0    0  501    0  0.00000000000E+00  0.00000000000E+00 -0.92363310255E+03  0.92363310256E+03  0.50400001928E-02 0.  1.
    10030    2    1    2    0    0  0.00000000000E+00  0.00000000000E+00  0.50799606672E+03  0.23552622718E+04  0.22998261598E+04 0.  0.
        1    1    3    3  502    0  0.50662748287E+03  0.38268383782E+03  0.12358476294E+04  0.13894019178E+04  0.50400001928E-02 0. -1.
       -1    1    3    3    0  502 -0.50662748287E+03 -0.38268383782E+03 -0.72785156268E+03  0.96586035401E+03  0.50400001928E-02 0.  1.
</event>
<event>
 5   0  0.8097672E-07  0.2300621E+04  0.7818609E-02  0.8477676E-01
        1   -1    0    0  501    0  0.00000000000E+00  0.00000000000E+00  0.13096826468E+04  0.13096826468E+04  0.50400001928E-02 0.  1.
       -1   -1    0    0    0  501  0.00000000000E+00  0.00000000000E+00 -0.10103317543E+04  0.10103317543E+04  0.50400001928E-02 0. -1.
    10030    2    1    2    0    0  0.00000000000E+00  0.00000000000E+00  0.29935089250E+03  0.23200144012E+04  0.23006207564E+04 0.  0.
        3    1    3    3  502    0  0.11013012267E+04  0.15532574971E+03 -0.14643819142E+03  0.11217997301E+04  0.10100000352E+00 0.  1.
       -3    1    3    3    0  502 -0.11013012267E+04 -0.15532574971E+03  0.44578908392E+03  0.11982146710E+04  0.10100000352E+00 0. -1.
</event>
<event>
 5   0  0.1689444E-06  0.2299653E+04  0.7818609E-02  0.8478058E-01
        2   -1    0    0  501    0  0.00000000000E+00  0.00000000000E+00  0.13045088487E+04  0.13045088487E+04  0.25500000920E-02 0. -1.
       -2   -1    0    0    0  501  0.00000000000E+00  0.00000000000E+00 -0.10134860549E+04  0.10134860549E+04  0.25500000920E-02 0.  1.
    10030    2    1    2    0    0  0.00000000000E+00  0.00000000000E+00  0.29102279383E+03  0.23179949036E+04  0.22996534753E+04 0.  0.
        2    1    3    3  502    0  0.11385862557E+04  0.15010755266E+03  0.20244719415E+03  0.11661457051E+04  0.25500000920E-02 0. -1.
       -2    1    3    3    0  502 -0.11385862557E+04 -0.15010755266E+03  0.88575599683E+02  0.11518491985E+04  0.25500000920E-02 0.  1.
</event>
<event>
 5   0  0.1744876E-06  0.2299573E+04  0.7818609E-02  0.8478089E-01
        2   -1    0    0  501    0  0.00000000000E+00  0.00000000000E+00  0.18757838862E+04  0.18757838862E+04  0.25500000920E-02 0.  1.
       -2   -1    0    0    0  501  0.00000000000E+00  0.00000000000E+00 -0.70477699532E+03  0.70477699533E+03  0.25500000920E-02 0. -1.
    10030    2    1    2    0    0  0.00000000000E+00  0.00000000000E+00  0.11710068908E+04  0.25805608815E+04  0.22995732919E+04 0.  0.
        1    1    3    3  502    0 -0.51983527614E+03 -0.40349437502E+03  0.16435654429E+04  0.17704078033E+04  0.50400001928E-02 0.  1.
       -1    1    3    3    0  502  0.51983527614E+03  0.40349437502E+03 -0.47255855202E+03  0.81015307819E+03  0.50400001928E-02 0. -1.
</event>
<event>
 5   0  0.1825521E-06  0.2299733E+04  0.7818609E-02  0.8478026E-01
       -2   -1    0    0    0  501  0.00000000000E+00  0.00000000000E+00  0.69161394694E+03  0.69161394694E+03  0.25500000920E-02 0. -1.
        2   -1    0    0  501    0  0.00000000000E+00  0.00000000000E+00 -0.19117503806E+04  0.19117503806E+04  0.25500000920E-02 0.  1.
    10030    2    1    2    0    0  0.00000000000E+00  0.00000000000E+00 -0.12201364336E+04  0.26033643275E+04  0.22997332248E+04 0.  0.
        5    1    3    3  502    0 -0.91790429841E+02  0.10249695673E+04 -0.11908145002E+04  0.15738644671E+04  0.46999998093E+01 0.  1.
       -5    1    3    3    0  502  0.91790429841E+02 -0.10249695673E+04 -0.29321933399E+02  0.10294998604E+04  0.46999998093E+01 0. -1.
</event>
<event>
 5   0  0.8108242E-07  0.2299512E+04  0.7818609E-02  0.8478114E-01
        1   -1    0    0  501    0  0.00000000000E+00  0.00000000000E+00  0.15479965638E+04  0.15479965638E+04  0.50400001928E-02 0.  1.
       -1   -1    0    0    0  501  0.00000000000E+00  0.00000000000E+00 -0.85396753085E+03  0.85396753087E+03  0.50400001928E-02 0. -1.
    10030    2    1    2    0    0  0.00000000000E+00  0.00000000000E+00  0.69402903292E+03  0.24019640946E+04  0.22995119511E+04 0.  0.
        4    1    3    3  502    0 -0.14305384008E+03 -0.71276945732E+03 -0.58342003669E+03  0.93214014642E+03  0.12699999809E+01 0. -1.
       -4    1    3    3    0  502  0.14305384008E+03  0.71276945732E+03  0.12774490696E+04  0.14698239482E+04  0.12699999809E+01 0.  1.
</event>
<event>
 5   0  0.7761069E-07  0.2299145E+04  0.7818609E-02  0.8478258E-01
        1   -1    0    0  501    0  0.00000000000E+00  0.00000000000E+00  0.11922095340E+04  0.11922095340E+04  0.50400001928E-02 0.  1.
       -1   -1    0    0    0  501  0.00000000000E+00  0.00000000000E+00 -0.11084606651E+04  0.11084606651E+04  0.50400001928E-02 0. -1.
    10030    2    1    2    0    0  0.00000000000E+00  0.00000000000E+00  0.83748868846E+02  0.23006701991E+04  0.22991453830E+04 0.  0.
        1    1    3    3  502    0 -0.13016194896E+03  0.34910029061E+03 -0.10463688793E+04  0.11107209269E+04  0.50400001928E-02 0. -1.
       -1    1    3    3    0  502  0.13016194896E+03 -0.34910029061E+03  0.11301177481E+04  0.11899492722E+04  0.50400001928E-02 0.  1.
</event>
<event>
 5   0  0.8097672E-07  0.2299622E+04  0.7818609E-02  0.8478070E-01
       -1   -1    0    0    0  501  0.00000000000E+00  0.00000000000E+00  0.68923739990E+03  0.68923739992E+03  0.50400001928E-02 0. -1.
        1   -1    0    0  501    0  0.00000000000E+00  0.00000000000E+00 -0.19181575173E+04  0.19181575173E+04  0.50400001928E-02 0.  1.
    10030    2    1    2    0    0  0.00000000000E+00  0.00000000000E+00 -0.12289201174E+04  0.26073949172E+04  0.22996224906E+04 0.  0.
        3    1    3    3  502    0  0.39062361236E+03  0.52100069759E+03 -0.16889379121E+04  0.18101214917E+04  0.10100000352E+00 0.  1.
       -3    1    3    3    0  502 -0.39062361236E+03 -0.52100069759E+03  0.46001779472E+03  0.79727342555E+03  0.10100000352E+00 0. -1.
</event>
<event>
 5   0  0.1828646E-06  0.2297789E+04  0.7818609E-02  0.8478794E-01
       -2   -1    0    0    0  501  0.00000000000E+00  0.00000000000E+00  0.15255079379E+04  0.15255079379E+04  0.25500000920E-02 0.  1.
        2   -1    0    0  501    0  0.00000000000E+00  0.00000000000E+00 -0.86525816343E+03  0.86525816344E+03  0.25500000920E-02 0. -1.
    10030    2    1    2    0    0  0.00000000000E+00  0.00000000000E+00  0.66024977443E+03  0.23907661013E+04  0.22977886732E+04 0.  0.
        3    1    3    3  502    0  0.62677978268E+02 -0.32585299494E+03 -0.81431418528E+03  0.87932718929E+03  0.10100000352E+00 0. -1.
       -3    1    3    3    0  502 -0.62677978268E+02  0.32585299494E+03  0.14745639597E+04  0.15114389120E+04  0.10100000352E+00 0.  1.
</event>
<event>
 5   0  0.1689444E-06  0.2299626E+04  0.7818609E-02  0.8478069E-01
        2   -1    0    0  501    0  0.00000000000E+00  0.00000000000E+00  0.19171656146E+04  0.19171656146E+04  0.25500000920E-02 0.  1.
       -2   -1    0    0    0  501  0.00000000000E+00  0.00000000000E+00 -0.68959618378E+03  0.68959618378E+03  0.25500000920E-02 0. -1.
    10030    2    1    2    0    0  0.00000000000E+00  0.00000000000E+00  0.12275694309E+04  0.26067617984E+04  0.22996261362E+04 0.  0.
        2    1    3    3  502    0 -0.10430553071E+04 -0.10478973638E+03  0.78335776593E+02  0.10512286889E+04  0.25500000920E-02 0.  1.
       -2    1    3    3    0  502  0.10430553071E+04  0.10478973638E+03  0.11492336543E+04  0.15555331095E+04  0.25500000920E-02 0. -1.
</event>
<event>
 5   0  0.6319125E-07  0.2301564E+04  0.7818609E-02  0.8477305E-01
        4   -1    0    0  501    0  0.00000000000E+00  0.00000000000E+00  0.94901625747E+03  0.94901710724E+03  0.12699999809E+01 0.  1.
       -4   -1    0    0    0  501  0.00000000000E+00  0.00000000000E+00 -0.13954421644E+04  0.13954427423E+04  0.12699999809E+01 0. -1.
    10030    2    1    2    0    0  0.00000000000E+00  0.00000000000E+00 -0.44642590691E+03  0.23444598495E+04  0.23015637935E+04 0.  0.
        5    1    3    3  502    0 -0.26455981495E+03  0.11187961406E+04 -0.27495518019E+03  0.11820825441E+04  0.46999998093E+01 0. -1.
       -5    1    3    3    0  502  0.26455981495E+03 -0.11187961406E+04 -0.17147072672E+03  0.11623773054E+04  0.46999998093E+01 0.  1.
</event>
<event>
 5   0  0.7607231E-07  0.2300235E+04  0.7818609E-02  0.8477828E-01
        1   -1    0    0  501    0  0.00000000000E+00  0.00000000000E+00  0.13288144129E+04  0.13288144129E+04  0.50400001928E-02 0. -1.
       -1   -1    0    0    0  501  0.00000000000E+00  0.00000000000E+00 -0.99545185416E+03  0.99545185418E+03  0.50400001928E-02 0.  1.
    10030    2    1    2    0    0  0.00000000000E+00  0.00000000000E+00  0.33336255872E+03  0.23242662671E+04  0.23002354411E+04 0.  0.
        2    1    3    3  502    0 -0.10417456012E+03 -0.89845174351E+03 -0.55116505542E+03  0.10591745808E+04  0.25500000920E-02 0.  1.
       -2    1    3    3    0  502  0.10417456012E+03  0.89845174351E+03  0.88452761414E+03  0.12650916862E+04  0.25500000920E-02 0. -1.
</event>
<event>
 5   0  0.1888779E-06  0.2299632E+04  0.7818609E-02  0.8478066E-01
        2   -1    0    0  501    0  0.00000000000E+00  0.00000000000E+00  0.23103027553E+04  0.23103027553E+04  0.25500000920E-02 0. -1.
       -2   -1    0    0    0  501  0.00000000000E+00  0.00000000000E+00 -0.57225253687E+03  0.57225253688E+03  0.25500000920E-02 0.  1.
    10030    2    1    2    0    0  0.00000000000E+00  0.00000000000E+00  0.17380502184E+04  0.28825552922E+04  0.22996318076E+04 0.  0.
        4    1    3    3  502    0 -0.84196881604E+03  0.40833919811E+03  0.31510422574E+02  0.93629424196E+03  0.12699999809E+01 0.  1.
       -4    1    3    3    0  502  0.84196881604E+03 -0.40833919811E+03  0.17065397958E+04  0.19462610502E+04  0.12699999809E+01 0. -1.
</event>
<event>
 5   0  0.8097672E-07  0.2300727E+04  0.7818609E-02  0.8477635E-01
        1   -1    0    0  501    0  0.00000000000E+00  0.00000000000E+00  0.16495353231E+04  0.16495353231E+04  0.50400001928E-02 0.  1.
       -1   -1    0    0    0  501  0.00000000000E+00  0.00000000000E+00 -0.80224763722E+03  0.80224763724E+03  0.50400001928E-02 0. -1.
    10030    2    1    2    0    0  0.00000000000E+00  0.00000000000E+00  0.84728768589E+03  0.24517829604E+04  0.23007266813E+04 0.  0.
        3    1    3    3  502    0  0.10146791301E+04  0.46087677775E+03  0.72759809363E+03  0.13309320559E+04  0.10100000352E+00 0. -1.
       -3    1    3    3    0  502 -0.10146791301E+04 -0.46087677775E+03  0.11968959226E+03  0.11208509045E+04  0.10100000352E+00 0.  1.
</event>
<event>
 5   0  0.1744876E-06  0.2301954E+04  0.7818609E-02  0.8477151E-01
        2   -1    0    0  501    0  0.00000000000E+00  0.00000000000E+00  0.16745039855E+04  0.16745039855E+04  0.25500000920E-02 0.  1.
       -2   -1    0    0    0  501  0.00000000000E+00  0.00000000000E+00 -0.79112839663E+03  0.79112839663E+03  0.25500000920E-02 0. -1.
    10030    2    1    2    0    0  0.00000000000E+00  0.00000000000E+00  0.88337558891E+03  0.24656323822E+04  0.23019536513E+04 0.  0.
        1    1    3    3  502    0 -0.65079065293E+03  0.85154598170E+03 -0.77787752636E+01  0.10717833467E+04  0.50400001928E-02 0. -1.
       -1    1    3    3    0  502  0.65079065293E+03 -0.85154598170E+03  0.89115436418E+03  0.13938490355E+04  0.50400001928E-02 0.  1.
</event>
<event>
 5   0  0.7607231E-07  0.2299920E+04  0.7818609E-02  0.8477953E-01
       -1   -1    0    0    0  501  0.00000000000E+00  0.00000000000E+00  0.17296160194E+04  0.17296160194E+04  0.50400001928E-02 0.  1.
        1   -1    0    0  501    0  0.00000000000E+00  0.00000000000E+00 -0.76456705975E+03  0.76456705977E+03  0.50400001928E-02 0. -1.
    10030    2    1    2    0    0  0.00000000000E+00  0.00000000000E+00  0.96504895960E+03  0.24941830791E+04  0.22999195068E+04 0.  0.
        2    1    3    3  502    0 -0.72994711106E+03  0.44496789398E+03 -0.35158959910E+03  0.92435623967E+03  0.25500000920E-02 0. -1.
       -2    1    3    3    0  502  0.72994711106E+03 -0.44496789398E+03  0.13166385587E+04  0.15698268395E+04  0.25500000920E-02 0.  1.
</event>
<event>
 5   0  0.8108242E-07  0.2300138E+04  0.7818609E-02  0.8477867E-01
        1   -1    0    0  501    0  0.00000000000E+00  0.00000000000E+00  0.15686702660E+04  0.15686702660E+04  0.50400001928E-02 0. -1.
       -1   -1    0    0    0  501  0.00000000000E+00  0.00000000000E+00 -0.84317206949E+03  0.84317206950E+03  0.50400001928E-02 0.  1.
    10030    2    1    2    0    0  0.00000000000E+00  0.00000000000E+00  0.72549819651E+03  0.24118423355E+04  0.23001382172E+04 0.  0.
        4    1    3    3  502    0 -0.57746389748E+03 -0.40674961878E+03  0.13144315133E+04  0.14921935603E+04  0.12699999809E+01 0. -1.
       -4    1    3    3    0  502  0.57746389748E+03  0.40674961878E+03 -0.58893331679E+03  0.91964877524E+03  0.12699999809E+01 0.  1.
</event>
<event>
 5   0  0.1888779E-06  0.2299844E+04  0.7818609E-02  0.8477982E-01
        2   -1    0    0  501    0  0.00000000000E+00  0.00000000000E+00  0.11581430840E+04  0.11581430840E+04  0.25500000920E-02 0.  1.
       -2   -1    0    0    0  501  0.00000000000E+00  0.00000000000E+00 -0.11417597486E+04  0.11417597486E+04  0.25500000920E-02 0. -1.
    10030    2    1    2    0    0  0.00000000000E+00  0.00000000000E+00  0.16383335431E+02  0.22999028326E+04  0.22998444786E+04 0.  0.
        4    1    3    3  502    0 -0.35196759693E+03  0.84981787442E+03  0.69831636843E+03  0.11548675129E+04  0.12699999809E+01 0.  1.
       -4    1    3    3    0  502  0.35196759693E+03 -0.84981787442E+03 -0.68193303300E+03  0.11450353197E+04  0.12699999809E+01 0. -1.
</event>
<event>
 5   0  0.1689444E-06  0.2298729E+04  0.7818609E-02  0.8478422E-01
        2   -1    0    0  501    0  0.00000000000E+00  0.00000000000E+00  0.18488404408E+04  0.18488404408E+04  0.25500000920E-02 0. -1.
       -2   -1    0    0    0  501  0.00000000000E+00  0.00000000000E+00 -0.71452287863E+03  0.71452287863E+03  0.25500000920E-02 0.  1.
    10030    2    1    2    0    0  0.00000000000E+00  0.00000000000E+00  0.11343175621E+04  0.25633633194E+04  0.22987290348E+04 0.  0.
        2    1    3    3  502    0 -0.34821695180E+02  0.30826570886E+03  0.18012711536E+04  0.18277904876E+04  0.25500000920E-02 0. -1.
       -2    1    3    3    0  502  0.34821695180E+02 -0.30826570886E+03 -0.66695359147E+03  0.73557283180E+03  0.25500000920E-02 0.  1.
</event>
<event>
 5   0  0.7932912E-07  0.2297605E+04  0.7818609E-02  0.8478866E-01
        1   -1    0    0  501    0  0.00000000000E+00  0.00000000000E+00  0.80654553299E+03  0.80654553300E+03  0.50400001928E-02 0.  1.
       -1   -1    0    0    0  501  0.00000000000E+00  0.00000000000E+00 -0.16362961384E+04  0.16362961384E+04  0.50400001928E-02 0. -1.
    10030    2    1    2    0    0  0.00000000000E+00  0.00000000000E+00 -0.82975060540E+03  0.24428416714E+04  0.22976051367E+04 0.  0.
        5    1    3    3  502    0 -0.52066046799E+03 -0.47395107857E+03  0.55025448599E+03  0.89359892410E+03  0.46999998093E+01 0.  1.
       -5    1    3    3    0  502  0.52066046799E+03  0.47395107857E+03 -0.13800050914E+04  0.15492427473E+04  0.46999998093E+01 0. -1.
</event>
<event>
 5   0  0.1825521E-06  0.2295860E+04  0.7818609E-02  0.8479555E-01
        2   -1    0    0  501    0  0.00000000000E+00  0.00000000000E+00  0.82115417086E+03  0.82115417086E+03  0.25500000920E-02 0.  1.
       -2   -1    0    0    0  501  0.00000000000E+00  0.00000000000E+00 -0.16047447324E+04  0.16047447324E+04  0.25500000920E-02 0. -1.
    10030    2    1    2    0    0  0.00000000000E+00  0.00000000000E+00 -0.78359056154E+03  0.24258989033E+04  0.22958596039E+04 0.  0.
        5    1    3    3  502    0  0.82453736007E+03  0.78300491504E+03 -0.22552223435E+03  0.11592415293E+04  0.46999998093E+01 0.  1.
       -5    1    3    3    0  502 -0.82453736007E+03 -0.78300491504E+03 -0.55806832719E+03  0.12666573739E+04  0.46999998093E+01 0. -1.
</event>
<event>
 5   0  0.1689444E-06  0.2299677E+04  0.7818609E-02  0.8478048E-01
       -2   -1    0    0    0  501  0.00000000000E+00  0.00000000000E+00  0.22863790639E+04  0.22863790639E+04  0.25500000920E-02 0.  1.
        2   -1    0    0  501    0  0.00000000000E+00  0.00000000000E+00 -0.57826321347E+03  0.57826321348E+03  0.25500000920E-02 0. -1.
    10030    2    1    2    0    0  0.00000000000E+00  0.00000000000E+00  0.17081158504E+04  0.28646422773E+04  0.22996772858E+04 0.  0.
        2    1    3    3  502    0  0.67840122024E+03 -0.36626866744E+03 -0.20860125282E+03  0.79868356378E+03  0.25500000920E-02 0. -1.
       -2    1    3    3    0  502 -0.67840122024E+03  0.36626866744E+03  0.19167171032E+04  0.20659587136E+04  0.25500000920E-02 0.  1.
</event>
<event>
 5   0  0.1825521E-06  0.2299575E+04  0.7818609E-02  0.8478089E-01
        2   -1    0    0  501    0  0.00000000000E+00  0.00000000000E+00  0.17985923265E+04  0.17985923265E+04  0.25500000920E-02 0. -1.
       -2   -1    0    0    0  501  0.00000000000E+00  0.00000000000E+00 -0.73502544546E+03  0.73502544547E+03  0.25500000920E-02 0.  1.
    10030    2    1    2    0    0  0.00000000000E+00  0.00000000000E+00  0.10635668810E+04  0.25336177720E+04  0.22995748529E+04 0.  0.
        5    1    3    3  502    0  0.35938770988E+03  0.10725163381E+04  0.30454428069E+03  0.11714179998E+04  0.46999998093E+01 0.  1.
       -5    1    3    3    0  502 -0.35938770988E+03 -0.10725163381E+04  0.75902260036E+03  0.13621997722E+04  0.46999998093E+01 0. -1.
</event>
<event>
 5   0  0.8097672E-07  0.2299673E+04  0.7818609E-02  0.8478050E-01
        1   -1    0    0  501    0  0.00000000000E+00  0.00000000000E+00  0.22705546690E+04  0.22705546690E+04  0.50400001928E-02 0.  1.
       -1   -1    0    0    0  501  0.00000000000E+00  0.00000000000E+00 -0.58229108457E+03  0.58229108460E+03  0.50400001928E-02 0. -1.
    10030    2    1    2    0    0  0.00000000000E+00  0.00000000000E+00  0.16882635844E+04  0.28528457536E+04  0.22996727948E+04 0.  0.
        3    1    3    3  502    0  0.73986096975E+03 -0.52733169849E+03  0.17183861261E+04  0.19437911059E+04  0.10100000352E+00 0.  1.
       -3    1    3    3    0  502 -0.73986096975E+03  0.52733169849E+03 -0.30122541668E+02  0.90905464771E+03  0.10100000352E+00 0. -1.
</event>
<event>
 5   0  0.1744876E-06  0.2299390E+04  0.7818609E-02  0.8478162E-01
       -2   -1    0    0    0  501  0.00000000000E+00  0.00000000000E+00  0.22278022577E+04  0.22278022577E+04  0.25500000920E-02 0.  1.
        2   -1    0    0  501    0  0.00000000000E+00  0.00000000000E+00 -0.59331948513E+03  0.59331948514E+03  0.25500000920E-02 0. -1.
    10030    2    1    2    0    0  0.00000000000E+00  0.00000000000E+00  0.16344827726E+04  0.28211217429E+04  0.22993899091E+04 0.  0.
        1    1    3    3  502    0  0.35926283567E+02  0.59566875254E+03  0.20229081621E+04  0.21090920779E+04  0.50400001928E-02 0.  1.
       -1    1    3    3    0  502 -0.35926283567E+02 -0.59566875254E+03 -0.38842538951E+03  0.71202966500E+03  0.50400001928E-02 0. -1.
</event>
<event>
 5   0  0.8097672E-07  0.2299668E+04  0.7818609E-02  0.8478052E-01
       -1   -1    0    0    0  501  0.00000000000E+00  0.00000000000E+00  0.65187445623E+03  0.65187445625E+03  0.50400001928E-02 0.  1.
        1   -1    0    0  501    0  0.00000000000E+00  0.00000000000E+00 -0.20281800433E+04  0.20281800433E+04  0.50400001928E-02 0. -1.
    10030    2    1    2    0    0  0.00000000000E+00  0.00000000000E+00 -0.13763055870E+04  0.26800544995E+04  0.22996684656E+04 0.  0.
        3    1    3    3  502    0  0.21463501539E+03  0.27518237538E+03 -0.19649674574E+04  0.19957180784E+04  0.10100000352E+00 0. -1.
       -3    1    3    3    0  502 -0.21463501539E+03 -0.27518237538E+03  0.58866187034E+03  0.68433642117E+03  0.10100000352E+00 0.  1.
</event>
<event>
 5   0  0.1689444E-06  0.2299423E+04  0.7818609E-02  0.8478149E-01
       -2   -1    0    0    0  501  0.00000000000E+00  0.00000000000E+00  0.99665060779E+03  0.99665060779E+03  0.25500000920E-02 0.  1.
        2   -1    0    0  501    0  0.00000000000E+00  0.00000000000E+00 -0.13262786878E+04  0.13262786879E+04  0.25500000920E-02 0. -1.
    10030    2    1    2    0    0  0.00000000000E+00  0.00000000000E+00 -0.32962808006E+03  0.23229292956E+04  0.22994229366E+04 0.  0.
        2    1    3    3  502    0  0.18546644779E+02 -0.24681962140E+02  0.99623176574E+03  0.99671004227E+03  0.25500000920E-02 0.  1.
       -2    1    3    3    0  502 -0.18546644779E+02  0.24681962140E+02 -0.13258598458E+04  0.13262192534E+04  0.25500000920E-02 0. -1.
</event>
<event>
 5   0  0.1828646E-06  0.2294735E+04  0.7818609E-02  0.8480000E-01
       -2   -1    0    0    0  501  0.00000000000E+00  0.00000000000E+00  0.13528933137E+04  0.13528933137E+04  0.25500000920E-02 0. -1.
        2   -1    0    0  501    0  0.00000000000E+00  0.00000000000E+00 -0.97306391384E+03  0.97306391384E+03  0.25500000920E-02 0.  1.
    10030    2    1    2    0    0  0.00000000000E+00  0.00000000000E+00  0.37982939991E+03  0.23259572276E+04  0.22947345493E+04 0.  0.
        3    1    3    3  502    0 -0.54633803380E+03 -0.10049565777E+04  0.28073677280E+03  0.11778098811E+04  0.10100000352E+00 0. -1.
       -3    1    3    3    0  502  0.54633803380E+03  0.10049565777E+04  0.99092627116E+02  0.11481473465E+04  0.10100000352E+00 0.  1.
</event>
<event>
 5   0  0.1744876E-06  0.2294551E+04  0.7818609E-02  0.8480073E-01
        2   -1    0    0  501    0  0.00000000000E+00  0.00000000000E+00  0.11609389055E+04  0.11609389055E+04  0.25500000920E-02 0.  1.
       -2   -1    0    0    0  501  0.00000000000E+00  0.00000000000E+00 -0.11337726879E+04  0.11337726879E+04  0.25500000920E-02 0. -1.
    10030    2    1    2    0    0  0.00000000000E+00  0.00000000000E+00  0.27166217624E+02  0.22947115935E+04  0.22945507826E+04 0.  0.
        1    1    3    3  502    0 -0.10508317414E+04 -0.32844846756E+03  0.33627440530E+03  0.11511760162E+04  0.50400001928E-02 0.  1.
       -1    1    3    3    0  502  0.10508317414E+04  0.32844846756E+03 -0.30910818767E+03  0.11435355772E+04  0.50400001928E-02 0. -1.
</event>
<event>
 5   0  0.1825521E-06  0.2300398E+04  0.7818609E-02  0.8477764E-01
       -2   -1    0    0    0  501  0.00000000000E+00  0.00000000000E+00  0.11359433905E+04  0.11359433905E+04  0.25500000920E-02 0. -1.
        2   -1    0    0  501    0  0.00000000000E+00  0.00000000000E+00 -0.11646333249E+04  0.11646333249E+04  0.25500000920E-02 0.  1.
    10030    2    1    2    0    0  0.00000000000E+00  0.00000000000E+00 -0.28689934375E+02  0.23005767154E+04  0.23003978158E+04 0.  0.
        5    1    3    3  502    0 -0.90282823109E+03 -0.62737741289E+03  0.32366682724E+03  0.11460730946E+04  0.46999998093E+01 0.  1.
       -5    1    3    3    0  502  0.90282823109E+03  0.62737741289E+03 -0.35235676161E+03  0.11545036208E+04  0.46999998093E+01 0. -1.
</event>
<event>
 5   0  0.8108242E-07  0.2299926E+04  0.7818609E-02  0.8477950E-01
        1   -1    0    0  501    0  0.00000000000E+00  0.00000000000E+00  0.13787577305E+04  0.13787577305E+04  0.50400001928E-02 0. -1.
       -1   -1    0    0    0  501  0.00000000000E+00  0.00000000000E+00 -0.95913484553E+03  0.95913484554E+03  0.50400001928E-02 0.  1.
    10030    2    1    2    0    0  0.00000000000E+00  0.00000000000E+00  0.41962288501E+03  0.23378925761E+04  0.22999257231E+04 0.  0.
        4    1    3    3  502    0  0.55190600051E+03  0.86101404775E+03  0.74429311814E+03  0.12648791572E+04  0.12699999809E+01 0. -1.
       -4    1    3    3    0  502 -0.55190600051E+03 -0.86101404775E+03 -0.32467023313E+03  0.10730134188E+04  0.12699999809E+01 0.  1.
</event>
<event>
 5   0  0.7932912E-07  0.2299414E+04  0.7818609E-02  0.8478152E-01
        1   -1    0    0  501    0  0.00000000000E+00  0.00000000000E+00  0.13224516848E+04  0.13224516848E+04  0.50400001928E-02 0.  1.
       -1   -1    0    0    0  501  0.00000000000E+00  0.00000000000E+00 -0.99952727063E+03  0.99952727065E+03  0.50400001928E-02 0. -1.
    10030    2    1    2    0    0  0.00000000000E+00  0.00000000000E+00  0.32292441414E+03  0.23219789554E+04  0.22994142933E+04 0.  0.
        5    1    3    3  502    0  0.98082119484E+03  0.13694799195E+03 -0.42825441801E+03  0.10789758595E+04  0.46999998093E+01 0. -1.
       -5    1    3    3    0  502 -0.98082119484E+03 -0.13694799195E+03  0.75117883214E+03  0.12430030960E+04  0.46999998093E+01 0.  1.
</event>
<event>
 5   0  0.1888779E-06  0.2303898E+04  0.7818609E-02  0.8476386E-01
        2   -1    0    0  501    0  0.00000000000E+00  0.00000000000E+00  0.10997633476E+04  0.10997633476E+04  0.25500000920E-02 0. -1.
       -2   -1    0    0    0  501  0.00000000000E+00  0.00000000000E+00 -0.12066111912E+04  0.12066111912E+04  0.25500000920E-02 0.  1.
    10030    2    1    2    0    0  0.00000000000E+00  0.00000000000E+00 -0.10684784366E+03  0.23063745388E+04  0.23038982294E+04 0.  0.
        4    1    3    3  502    0 -0.97391959004E+03 -0.45745678787E+03 -0.46520418704E+03  0.11722638906E+04  0.12699999809E+01 0.  1.
       -4    1    3    3    0  502  0.97391959004E+03  0.45745678787E+03  0.35835634338E+03  0.11341106482E+04  0.12699999809E+01 0. -1.
</event>
<event>
 5   0  0.8108242E-07  0.2299583E+04  0.7818609E-02  0.8478086E-01
        1   -1    0    0  501    0  0.00000000000E+00  0.00000000000E+00  0.15391341971E+04  0.15391341971E+04  0.50400001928E-02 0. -1.
       -1   -1    0    0    0  501  0.00000000000E+00  0.00000000000E+00 -0.85893783949E+03  0.85893783951E+03  0.50400001928E-02 0.  1.
    10030    2    1    2    0    0  0.00000000000E+00  0.00000000000E+00  0.68019635757E+03  0.23980720366E+04  0.22995830943E+04 0.  0.
        4    1    3    3  502    0 -0.10835595243E+04  0.25978972923E+03  0.44355386820E+02  0.11151506442E+04  0.12699999809E+01 0.  1.
       -4    1    3    3    0  502  0.10835595243E+04 -0.25978972923E+03  0.63584097075E+03  0.12829213924E+04  0.12699999809E+01 0. -1.
</event>
<event>
 5   0  0.7761069E-07  0.2308522E+04  0.7818609E-02  0.8474569E-01
        1   -1    0    0  501    0  0.00000000000E+00  0.00000000000E+00  0.10377039219E+04  0.10377039219E+04  0.50400001928E-02 0.  1.
       -1   -1    0    0    0  501  0.00000000000E+00  0.00000000000E+00 -0.12839100271E+04  0.12839100271E+04  0.50400001928E-02 0. -1.
    10030    2    1    2    0    0  0.00000000000E+00  0.00000000000E+00 -0.24620610514E+03  0.23216139490E+04  0.23085220125E+04 0.  0.
        1    1    3    3  502    0  0.96780477529E+03 -0.72054224804E+00  0.50948876663E+03  0.10937208993E+04  0.50400001928E-02 0.  1.
       -1    1    3    3    0  502 -0.96780477529E+03  0.72054224804E+00 -0.75569487178E+03  0.12278930497E+04  0.50400001928E-02 0. -1.
</event>
<event>
 5   0  0.1744876E-06  0.2300163E+04  0.7818609E-02  0.8477857E-01
       -2   -1    0    0    0  501  0.00000000000E+00  0.00000000000E+00  0.23317782593E+04  0.23317782593E+04  0.25500000920E-02 0.  1.
        2   -1    0    0  501    0  0.00000000000E+00  0.00000000000E+00 -0.56724396157E+03  0.56724396158E+03  0.25500000920E-02 0. -1.
    10030    2    1    2    0    0  0.00000000000E+00  0.00000000000E+00  0.17645342977E+04  0.28990222209E+04  0.23001627223E+04 0.  0.
        1    1    3    3  502    0 -0.11179837690E+04  0.25215856087E+03  0.76127639227E+03  0.13758682324E+04  0.50400001928E-02 0.  1.
       -1    1    3    3    0  502  0.11179837690E+04 -0.25215856087E+03  0.10032579054E+04  0.15231539884E+04  0.50400001928E-02 0. -1.
</event>
<event>
 5   0  0.7932912E-07  0.2299605E+04  0.7818609E-02  0.8478077E-01
       -1   -1    0    0    0  501  0.00000000000E+00  0.00000000000E+00  0.66473854094E+03  0.66473854096E+03  0.50400001928E-02 0. -1.
        1   -1    0    0  501    0  0.00000000000E+00  0.00000000000E+00 -0.19888208696E+04  0.19888208696E+04  0.50400001928E-02 0.  1.
    10030    2    1    2    0    0  0.00000000000E+00  0.00000000000E+00 -0.13240823287E+04  0.26535594106E+04  0.22996050818E+04 0.  0.
        5    1    3    3  502    0  0.40906722974E+03 -0.93851909026E+03 -0.58165458344E+02  0.10254556996E+04  0.46999998093E+01 0. -1.
       -5    1    3    3    0  502 -0.40906722974E+03  0.93851909026E+03 -0.12659168703E+04  0.16281037110E+04  0.46999998093E+01 0.  1.
</event>
<event>
 5   0  0.1689444E-06  0.2292207E+04  0.7818609E-02  0.8481000E-01
        2   -1    0    0  501    0  0.00000000000E+00  0.00000000000E+00  0.16708874107E+04  0.16708874107E+04  0.25500000920E-02 0.  1.
       -2   -1    0    0    0  501  0.00000000000E+00  0.00000000000E+00 -0.78614114212E+03  0.78614114213E+03  0.25500000920E-02 0. -1.
    10030    2    1    2    0    0  0.00000000000E+00  0.00000000000E+00  0.88474626855E+03  0.24570285528E+04  0.22922070913E+04 0.  0.
        2    1    3    3  502    0 -0.84308281550E+03 -0.90363434347E+02 -0.38417565651E+03  0.93088405245E+03  0.25500000920E-02 0. -1.
       -2    1    3    3    0  502  0.84308281550E+03  0.90363434347E+02  0.12689219251E+04  0.15261445004E+04  0.25500000920E-02 0.  1.
</event>
<event>
 5   0  0.1744876E-06  0.2299056E+04  0.7818609E-02  0.8478293E-01
        2   -1    0    0  501    0  0.00000000000E+00  0.00000000000E+00  0.27799201987E+04  0.27799201987E+04  0.25500000920E-02 0. -1.
       -2   -1    0    0    0  501  0.00000000000E+00  0.00000000000E+00 -0.47534266838E+03  0.47534266839E+03  0.25500000920E-02 0.  1.
    10030    2    1    2    0    0  0.00000000000E+00  0.00000000000E+00  0.23045775303E+04  0.32552628671E+04  0.22990560543E+04 0.  0.
        1    1    3    3  502    0  0.43693395605E+03 -0.56857834434E+03 -0.11984569640E+03  0.72701829865E+03  0.50400001928E-02 0.  1.
       -1    1    3    3    0  502 -0.43693395605E+03  0.56857834434E+03  0.24244232267E+04  0.25282445684E+04  0.50400001928E-02 0. -1.
</event>
<event>
 5   0  0.1828646E-06  0.2300458E+04  0.7818609E-02  0.8477741E-01
       -2   -1    0    0    0  501  0.00000000000E+00  0.00000000000E+00  0.83490680449E+03  0.83490680449E+03  0.25500000920E-02 0. -1.
        2   -1    0    0  501    0  0.00000000000E+00  0.00000000000E+00 -0.15846401282E+04  0.15846401282E+04  0.25500000920E-02 0.  1.
    10030    2    1    2    0    0  0.00000000000E+00  0.00000000000E+00 -0.74973332368E+03  0.24195469327E+04  0.23004580637E+04 0.  0.
        3    1    3    3  502    0  0.12373956988E+03 -0.37323669921E+02  0.82724523900E+03  0.83728085679E+03  0.10100000352E+00 0. -1.
       -3    1    3    3    0  502 -0.12373956988E+03  0.37323669921E+02 -0.15769785627E+04  0.15822660759E+04  0.10100000352E+00 0.  1.
</event>
<event>
 5   0  0.1689444E-06  0.2301033E+04  0.7818609E-02  0.8477514E-01
       -2   -1    0    0    0  501  0.00000000000E+00  0.00000000000E+00  0.12423240135E+04  0.12423240135E+04  0.25500000920E-02 0. -1.
        2   -1    0    0  501    0  0.00000000000E+00  0.00000000000E+00 -0.10654935021E+04  0.10654935021E+04  0.25500000920E-02 0.  1.
    10030    2    1    2    0    0  0.00000000000E+00  0.00000000000E+00  0.17683051139E+03  0.23078175155E+04  0.23010329540E+04 0.  0.
        2    1    3    3  502    0  0.13797393549E+03 -0.98270793587E+02 -0.10529181788E+04  0.10664570535E+04  0.25500000920E-02 0.  1.
       -2    1    3    3    0  502 -0.13797393549E+03  0.98270793587E+02  0.12297486902E+04  0.12413604620E+04  0.25500000920E-02 0. -1.
</event>
<event>
 5   0  0.1744876E-06  0.2296742E+04  0.7818609E-02  0.8479207E-01
       -2   -1    0    0    0  501  0.00000000000E+00  0.00000000000E+00  0.89608117898E+03  0.89608117898E+03  0.25500000920E-02 0.  1.
        2   -1    0    0  501    0  0.00000000000E+00  0.00000000000E+00 -0.14716927663E+04  0.14716927663E+04  0.25500000920E-02 0. -1.
    10030    2    1    2    0    0  0.00000000000E+00  0.00000000000E+00 -0.57561158727E+03  0.23677739452E+04  0.22967422050E+04 0.  0.
        1    1    3    3  502    0  0.22229093082E+03 -0.10821847790E+04  0.35285918682E+02  0.11053425939E+04  0.50400001928E-02 0.  1.
       -1    1    3    3    0  502 -0.22229093082E+03  0.10821847790E+04 -0.61089750595E+03  0.12624313513E+04  0.50400001928E-02 0. -1.
</event>
<event>
 5   0  0.1828646E-06  0.2295119E+04  0.7818609E-02  0.8479848E-01
       -2   -1    0    0    0  501  0.00000000000E+00  0.00000000000E+00  0.10523017723E+04  0.10523017723E+04  0.25500000920E-02 0.  1.
        2   -1    0    0  501    0  0.00000000000E+00  0.00000000000E+00 -0.12514398232E+04  0.12514398232E+04  0.25500000920E-02 0. -1.
    10030    2    1    2    0    0  0.00000000000E+00  0.00000000000E+00 -0.19913805095E+03  0.23037415955E+04  0.22951185973E+04 0.  0.
        3    1    3    3  502    0 -0.71786435416E+02 -0.81641607706E+03 -0.90583271268E+03  0.12215651504E+04  0.10100000352E+00 0. -1.
       -3    1    3    3    0  502  0.71786435416E+02  0.81641607706E+03  0.70669466173E+03  0.10821764451E+04  0.10100000352E+00 0.  1.
</event>
<event>
 5   0  0.1689444E-06  0.2300064E+04  0.7818609E-02  0.8477896E-01
       -2   -1    0    0    0  501  0.00000000000E+00  0.00000000000E+00  0.78810009688E+03  0.78810009689E+03  0.25500000920E-02 0. -1.
        2   -1    0    0  501    0  0.00000000000E+00  0.00000000000E+00 -0.16781791670E+04  0.16781791670E+04  0.25500000920E-02 0.  1.
    10030    2    1    2    0    0  0.00000000000E+00  0.00000000000E+00 -0.89007907014E+03  0.24662792639E+04  0.23000636201E+04 0.  0.
        2    1    3    3  502    0  0.69550292078E+03  0.45664371019E+03  0.40626470693E+03  0.92590431631E+03  0.25500000920E-02 0. -1.
       -2    1    3    3    0  502 -0.69550292078E+03 -0.45664371019E+03 -0.12963437771E+04  0.15403749476E+04  0.25500000920E-02 0.  1.
</event>
<event>
 5   0  0.8097672E-07  0.2299998E+04  0.7818609E-02  0.8477922E-01
        1   -1    0    0  501    0  0.00000000000E+00  0.00000000000E+00  0.10329759901E+04  0.10329759902E+04  0.50400001928E-02 0.  1.
       -1   -1    0    0    0  501  0.00000000000E+00  0.00000000000E+00 -0.12802797357E+04  0.12802797357E+04  0.50400001928E-02 0. -1.
    10030    2    1    2    0    0  0.00000000000E+00  0.00000000000E+00 -0.24730374552E+03  0.23132557258E+04  0.22999984588E+04 0.  0.
        3    1    3    3  502    0  0.11458845703E+04  0.20126415987E+02 -0.28015948806E+02  0.11464036919E+04  0.10100000352E+00 0.  1.
       -3    1    3    3    0  502 -0.11458845703E+04 -0.20126415987E+02 -0.21928779672E+03  0.11668520340E+04  0.10100000352E+00 0. -1.
</event>
<event>
 5   0  0.7761069E-07  0.2298537E+04  0.7818609E-02  0.8478498E-01
       -1   -1    0    0    0  501  0.00000000000E+00  0.00000000000E+00  0.65272670487E+03  0.65272670489E+03  0.50400001928E-02 0. -1.
        1   -1    0    0  501    0  0.00000000000E+00  0.00000000000E+00 -0.20235399266E+04  0.20235399266E+04  0.50400001928E-02 0.  1.
    10030    2    1    2    0    0  0.00000000000E+00  0.00000000000E+00 -0.13708132218E+04  0.26762666315E+04  0.22985374032E+04 0.  0.
        1    1    3    3  502    0 -0.37333119422E+03  0.14891743860E+03  0.56822330296E+03  0.69601027733E+03  0.50400001928E-02 0. -1.
       -1    1    3    3    0  502  0.37333119422E+03 -0.14891743860E+03 -0.19390365247E+04  0.19802563542E+04  0.50400001928E-02 0.  1.
</event>
<event>
 5   0  0.1689444E-06  0.2299340E+04  0.7818609E-02  0.8478182E-01
        2   -1    0    0  501    0  0.00000000000E+00  0.00000000000E+00  0.10328300113E+04  0.10328300113E+04  0.25500000920E-02 0.  1.
       -2   -1    0    0    0  501  0.00000000000E+00  0.00000000000E+00 -0.12797271484E+04  0.12797271484E+04  0.25500000920E-02 0. -1.
    10030    2    1    2    0    0  0.00000000000E+00  0.00000000000E+00 -0.24689713710E+03  0.23125571597E+04  0.22993395619E+04 0.  0.
        2    1    3    3  502    0 -0.39494252762E+03  0.39264249551E+03  0.88811282342E+03  0.10482805524E+04  0.25500000920E-02 0.  1.
       -2    1    3    3    0  502  0.39494252762E+03 -0.39264249551E+03 -0.11350099605E+04  0.12642766073E+04  0.25500000920E-02 0. -1.
</event>
<event>
 5   0  0.1825521E-06  0.2298467E+04  0.7818609E-02  0.8478526E-01
       -2   -1    0    0    0  501  0.00000000000E+00  0.00000000000E+00  0.82609592179E+03  0.82609592179E+03  0.25500000920E-02 0.  1.
        2   -1    0    0  501    0  0.00000000000E+00  0.00000000000E+00 -0.15987698728E+04  0.15987698728E+04  0.25500000920E-02 0. -1.
    10030    2    1    2    0    0  0.00000000000E+00  0.00000000000E+00 -0.77267395103E+03  0.24248657946E+04  0.22984666818E+04 0.  0.
        5    1    3    3  502    0 -0.39011922050E+01 -0.77209386670E+03  0.51169122672E+03  0.92627974165E+03  0.46999998093E+01 0.  1.
       -5    1    3    3    0  502  0.39011922050E+01  0.77209386670E+03 -0.12843651777E+04  0.14985860530E+04  0.46999998093E+01 0. -1.
</event>
<event>
 5   0  0.1825521E-06  0.2299151E+04  0.7818609E-02  0.8478256E-01
       -2   -1    0    0    0  501  0.00000000000E+00  0.00000000000E+00  0.80486782095E+03  0.80486782096E+03  0.25500000920E-02 0. -1.
        2   -1    0    0  501    0  0.00000000000E+00  0.00000000000E+00 -0.16419142792E+04  0.16419142792E+04  0.25500000920E-02 0.  1.
    10030    2    1    2    0    0  0.00000000000E+00  0.00000000000E+00 -0.83704645825E+03  0.24467821002E+04  0.22991511200E+04 0.  0.
        5    1    3    3  502    0 -0.59555842750E+03  0.97648536103E+03 -0.29584605848E+03  0.11814230746E+04  0.46999998093E+01 0. -1.
       -5    1    3    3    0  502  0.59555842750E+03 -0.97648536103E+03 -0.54120039977E+03  0.12653590256E+04  0.46999998093E+01 0.  1.
</event>
<event>
 5   0  0.8108242E-07  0.2298908E+04  0.7818609E-02  0.8478352E-01
        1   -1    0    0  501    0  0.00000000000E+00  0.00000000000E+00  0.15197698411E+04  0.15197698411E+04  0.50400001928E-02 0. -1.
       -1   -1    0    0    0  501  0.00000000000E+00  0.00000000000E+00 -0.86937127870E+03  0.86937127871E+03  0.50400001928E-02 0.  1.
    10030    2    1    2    0    0  0.00000000000E+00  0.00000000000E+00  0.65039856240E+03  0.23891411198E+04  0.22989077842E+04 0.  0.
        4    1    3    3  502    0 -0.18099470212E+03  0.11350327960E+04  0.33930046295E+03  0.11984093404E+04  0.12699999809E+01 0.  1.
       -4    1    3    3    0  502  0.18099470212E+03 -0.11350327960E+04  0.31109809945E+03  0.11907317794E+04  0.12699999809E+01 0. -1.
</event>
<event>
 5   0  0.7932912E-07  0.2297362E+04  0.7818609E-02  0.8478962E-01
       -1   -1    0    0    0  501  0.00000000000E+00  0.00000000000E+00  0.87347179774E+03  0.87347179776E+03  0.50400001928E-02 0. -1.
        1   -1    0    0  501    0  0.00000000000E+00  0.00000000000E+00 -0.15106012737E+04  0.15106012737E+04  0.50400001928E-02 0.  1.
    10030    2    1    2    0    0  0.00000000000E+00  0.00000000000E+00 -0.63712947591E+03  0.23840730714E+04  0.22973616260E+04 0.  0.
        5    1    3    3  502    0 -0.27016722593E+03  0.97125280504E+03 -0.88991150358E+03  0.13447255911E+04  0.46999998093E+01 0.  1.
       -5    1    3    3    0  502  0.27016722593E+03 -0.97125280504E+03  0.25278202766E+03  0.10393474803E+04  0.46999998093E+01 0. -1.
</event>
<event>
 5   0  0.1744876E-06  0.2300621E+04  0.7818609E-02  0.8477676E-01
        2   -1    0    0  501    0  0.00000000000E+00  0.00000000000E+00  0.15021754566E+04  0.15021754566E+04  0.25500000920E-02 0.  1.
       -2   -1    0    0    0  501  0.00000000000E+00  0.00000000000E+00 -0.88086528948E+03  0.88086528948E+03  0.25500000920E-02 0. -1.
    10030    2    1    2    0    0  0.00000000000E+00  0.00000000000E+00  0.62131016714E+03  0.23830407461E+04  0.23006209757E+04 0.  0.
        1    1    3    3  502    0  0.99996024475E+03 -0.10076118401E+03  0.89029234843E+03  0.13426443211E+04  0.50400001928E-02 0. -1.
       -1    1    3    3    0  502 -0.99996024475E+03  0.10076118401E+03 -0.26898218129E+03  0.10403964250E+04  0.50400001928E-02 0.  1.
</event>
<event>
 5   0  0.1888779E-06  0.2301338E+04  0.7818609E-02  0.8477394E-01
        2   -1    0    0  501    0  0.00000000000E+00  0.00000000000E+00  0.12521236573E+04  0.12521236573E+04  0.25500000920E-02 0.  1.
       -2   -1    0    0    0  501  0.00000000000E+00  0.00000000000E+00 -0.10574345913E+04  0.10574345913E+04  0.25500000920E-02 0. -1.
    10030    2    1    2    0    0  0.00000000000E+00  0.00000000000E+00  0.19468906601E+03  0.23095582486E+04  0.23013377569E+04 0.  0.
        4    1    3    3  502    0  0.10561688540E+04 -0.35958293889E+03  0.37985446192E+03  0.11785938925E+04  0.12699999809E+01 0.  1.
       -4    1    3    3    0  502 -0.10561688540E+04  0.35958293889E+03 -0.18516539591E+03  0.11309643562E+04  0.12699999809E+01 0. -1.
</event>
<event>
 5   0  0.1689444E-06  0.2300048E+04  0.7818609E-02  0.8477902E-01
        2   -1    0    0  501    0  0.00000000000E+00  0.00000000000E+00  0.12176845792E+04  0.12176845792E+04  0.25500000920E-02 0. -1.
       -2   -1    0    0    0  501  0.00000000000E+00  0.00000000000E+00 -0.10861226573E+04  0.10861226573E+04  0.25500000920E-02 0.  1.
    10030    2    1    2    0    0  0.00000000000E+00  0.00000000000E+00  0.13156192193E+03  0.23038072365E+04  0.23000476612E+04 0.  0.
        2    1    3    3  502    0 -0.19680425065E+03  0.41775962576E+03 -0.98917363521E+03  0.10916590579E+04  0.25500000920E-02 0.  1.
       -2    1    3    3    0  502  0.19680425065E+03 -0.41775962576E+03  0.11207355571E+04  0.12121481787E+04  0.25500000920E-02 0. -1.
</event>
<event>
 5   0  0.1689444E-06  0.2307439E+04  0.7818609E-02  0.8474994E-01
        2   -1    0    0  501    0  0.00000000000E+00  0.00000000000E+00  0.14284092535E+04  0.14284092535E+04  0.25500000920E-02 0. -1.
       -2   -1    0    0    0  501  0.00000000000E+00  0.00000000000E+00 -0.93185398929E+03  0.93185398930E+03  0.25500000920E-02 0.  1.
    10030    2    1    2    0    0  0.00000000000E+00  0.00000000000E+00  0.49655526417E+03  0.23602632428E+04  0.23074391530E+04 0.  0.
        2    1    3    3  502    0 -0.32339639677E+03  0.84508091807E+03 -0.48387501138E+03  0.10261003919E+04  0.25500000920E-02 0.  1.
       -2    1    3    3    0  502  0.32339639677E+03 -0.84508091807E+03  0.98043027555E+03  0.13341628509E+04  0.25500000920E-02 0. -1.
</event>
<event>
 5   0  0.6319125E-07  0.2305521E+04  0.7818609E-02  0.8475747E-01
        4   -1    0    0  501    0  0.00000000000E+00  0.00000000000E+00  0.14070325758E+04  0.14070331489E+04  0.12699999809E+01 0. -1.
       -4   -1    0    0    0  501  0.00000000000E+00  0.00000000000E+00 -0.94443829770E+03  0.94443915159E+03  0.12699999809E+01 0.  1.
    10030    2    1    2    0    0  0.00000000000E+00  0.00000000000E+00  0.46259427809E+03  0.23514723005E+04  0.23055213107E+04 0.  0.
        3    1    3    3  502    0 -0.57753792636E+03 -0.28753805028E+02  0.12484092238E+04  0.13758279100E+04  0.10100000352E+00 0. -1.
       -3    1    3    3    0  502  0.57753792636E+03  0.28753805028E+02 -0.78581494570E+03  0.97564439053E+03  0.10100000352E+00 0.  1.
</event>
<event>
 5   0  0.8097672E-07  0.2299931E+04  0.7818609E-02  0.8477948E-01
       -1   -1    0    0    0  501  0.00000000000E+00  0.00000000000E+00  0.96169818488E+03  0.96169818489E+03  0.50400001928E-02 0.  1.
        1   -1    0    0  501    0  0.00000000000E+00  0.00000000000E+00 -0.13750893058E+04  0.13750893058E+04  0.50400001928E-02 0. -1.
    10030    2    1    2    0    0  0.00000000000E+00  0.00000000000E+00 -0.41339112089E+03  0.23367874907E+04  0.22999312072E+04 0.  0.
        3    1    3    3  502    0  0.92456983928E+02  0.48333495997E+03 -0.12627067035E+04  0.13552081783E+04  0.10100000352E+00 0. -1.
       -3    1    3    3    0  502 -0.92456983928E+02 -0.48333495997E+03  0.84931558258E+03  0.98157931234E+03  0.10100000352E+00 0.  1.
</event>
<event>
 5   0  0.1825521E-06  0.2299828E+04  0.7818609E-02  0.8477989E-01
       -2   -1    0    0    0  501  0.00000000000E+00  0.00000000000E+00  0.41884433651E+03  0.41884433651E+03  0.25500000920E-02 0.  1.
        2   -1    0    0  501    0  0.00000000000E+00  0.00000000000E+00 -0.31570264192E+04  0.31570264192E+04  0.25500000920E-02 0. -1.
    10030    2    1    2    0    0  0.00000000000E+00  0.00000000000E+00 -0.27381820827E+04  0.35758707557E+04  0.22998283726E+04 0.  0.
        5    1    3    3  502    0  0.70972066107E+03  0.15267591112E+03 -0.27556646191E+04  0.28496882169E+04  0.46999998093E+01 0. -1.
       -5    1    3    3    0  502 -0.70972066107E+03 -0.15267591112E+03  0.17482536416E+02  0.72618253880E+03  0.46999998093E+01 0.  1.
</event>
<event>
 5   0  0.1744876E-06  0.2288538E+04  0.7818609E-02  0.8482454E-01
        2   -1    0    0  501    0  0.00000000000E+00  0.00000000000E+00  0.31369156900E+04  0.31369156900E+04  0.25500000920E-02 0.  1.
       -2   -1    0    0    0  501  0.00000000000E+00  0.00000000000E+00 -0.41740080677E+03  0.41740080678E+03  0.25500000920E-02 0. -1.
    10030    2    1    2    0    0  0.00000000000E+00  0.00000000000E+00  0.27195148832E+04  0.35543164968E+04  0.22885376464E+04 0.  0.
        1    1    3    3  502    0 -0.10054250568E+04 -0.31394355174E+03  0.20541681780E+04  0.23084728723E+04  0.50400001928E-02 0.  1.
       -1    1    3    3    0  502  0.10054250568E+04  0.31394355174E+03  0.66534670523E+03  0.12458436245E+04  0.50400001928E-02 0. -1.
</event>
<event>
 5   0  0.8108242E-07  0.2301635E+04  0.7818609E-02  0.8477277E-01
        1   -1    0    0  501    0  0.00000000000E+00  0.00000000000E+00  0.10396303387E+04  0.10396303387E+04  0.50400001928E-02 0. -1.
       -1   -1    0    0    0  501  0.00000000000E+00  0.00000000000E+00 -0.12738957021E+04  0.12738957021E+04  0.50400001928E-02 0.  1.
    10030    2    1    2    0    0  0.00000000000E+00  0.00000000000E+00 -0.23426536340E+03  0.23135260408E+04  0.23016347410E+04 0.  0.
        4    1    3    3  502    0  0.74599955943E+03  0.38468900792E+03  0.67425832519E+03  0.10766275482E+04  0.12699999809E+01 0. -1.
       -4    1    3    3    0  502 -0.74599955943E+03 -0.38468900792E+03 -0.90852368859E+03  0.12368984927E+04  0.12699999809E+01 0.  1.
</event>
<event>
 5   0  0.8097672E-07  0.2301322E+04  0.7818609E-02  0.8477400E-01
       -1   -1    0    0    0  501  0.00000000000E+00  0.00000000000E+00  0.87706093727E+03  0.87706093728E+03  0.50400001928E-02 0. -1.
        1   -1    0    0  501    0  0.00000000000E+00  0.00000000000E+00 -0.15096111509E+04  0.15096111510E+04  0.50400001928E-02 0.  1.
    10030    2    1    2    0    0  0.00000000000E+00  0.00000000000E+00 -0.63255021367E+03  0.23866720882E+04  0.23013222034E+04 0.  0.
        3    1    3    3  502    0 -0.59009613222E+03 -0.15216179967E+03  0.69596372322E+03  0.92505792942E+03  0.10100000352E+00 0. -1.
       -3    1    3    3    0  502  0.59009613222E+03  0.15216179967E+03 -0.13285139369E+04  0.14616141588E+04  0.10100000352E+00 0.  1.
</event>
<event>
 5   0  0.1825521E-06  0.2302514E+04  0.7818609E-02  0.8476930E-01
        2   -1    0    0  501    0  0.00000000000E+00  0.00000000000E+00  0.20326447416E+04  0.20326447416E+04  0.25500000920E-02 0. -1.
       -2   -1    0    0    0  501  0.00000000000E+00  0.00000000000E+00 -0.65205340153E+03  0.65205340153E+03  0.25500000920E-02 0.  1.
    10030    2    1    2    0    0  0.00000000000E+00  0.00000000000E+00  0.13805913401E+04  0.26846981431E+04  0.23025142066E+04 0.  0.
        5    1    3    3  502    0  0.10329093054E+03 -0.11377289237E+04  0.52427183403E+03  0.12569722217E+04  0.46999998093E+01 0. -1.
       -5    1    3    3    0  502 -0.10329093054E+03  0.11377289237E+04  0.85631950603E+03  0.14277259214E+04  0.46999998093E+01 0.  1.
</event>
<event>
 5   0  0.1825521E-06  0.2299128E+04  0.7818609E-02  0.8478265E-01
       -2   -1    0    0    0  501  0.00000000000E+00  0.00000000000E+00  0.55340023337E+03  0.55340023337E+03  0.25500000920E-02 0.  1.
        2   -1    0    0  501    0  0.00000000000E+00  0.00000000000E+00 -0.23879603004E+04  0.23879603004E+04  0.25500000920E-02 0. -1.
    10030    2    1    2    0    0  0.00000000000E+00  0.00000000000E+00 -0.18345600670E+04  0.29413605338E+04  0.22991283457E+04 0.  0.
        5    1    3    3  502    0 -0.96399980036E+03  0.16331920768E+03 -0.14382896065E+03  0.98827002313E+03  0.46999998093E+01 0.  1.
       -5    1    3    3    0  502  0.96399980036E+03 -0.16331920768E+03 -0.16907311064E+04  0.19530905106E+04  0.46999998093E+01 0. -1.
</event>
<event>
 5   0  0.1689444E-06  0.2312036E+04  0.7818609E-02  0.8473190E-01
       -2   -1    0    0    0  501  0.00000000000E+00  0.00000000000E+00  0.80802114972E+03  0.80802114973E+03  0.25500000920E-02 0.  1.
        2   -1    0    0  501    0  0.00000000000E+00  0.00000000000E+00 -0.16538896996E+04  0.16538896997E+04  0.25500000920E-02 0. -1.
    10030    2    1    2    0    0  0.00000000000E+00  0.00000000000E+00 -0.84586854993E+03  0.24619108494E+04  0.23120362079E+04 0.  0.
        2    1    3    3  502    0 -0.10056443455E+04  0.35551263982E+03  0.51681017463E+02  0.10678860961E+04  0.25500000920E-02 0.  1.
       -2    1    3    3    0  502  0.10056443455E+04 -0.35551263982E+03 -0.89754956739E+03  0.13940247532E+04  0.25500000920E-02 0. -1.
</event>
<event>
 5   0  0.1888779E-06  0.2300806E+04  0.7818609E-02  0.8477604E-01
       -2   -1    0    0    0  501  0.00000000000E+00  0.00000000000E+00  0.52261125259E+03  0.52261125260E+03  0.25500000920E-02 0.  1.
        2   -1    0    0  501    0  0.00000000000E+00  0.00000000000E+00 -0.25323347849E+04  0.25323347849E+04  0.25500000920E-02 0. -1.
    10030    2    1    2    0    0  0.00000000000E+00  0.00000000000E+00 -0.20097235323E+04  0.30549460375E+04  0.23008056449E+04 0.  0.
        4    1    3    3  502    0  0.77866431042E+03 -0.69159120736E+03 -0.35600545842E+03  0.11006171022E+04  0.12699999809E+01 0.  1.
       -4    1    3    3    0  502 -0.77866431042E+03  0.69159120736E+03 -0.16537180739E+04  0.19543289353E+04  0.12699999809E+01 0. -1.
</event>
<event>
 5   0  0.7761069E-07  0.2300434E+04  0.7818609E-02  0.8477750E-01
       -1   -1    0    0    0  501  0.00000000000E+00  0.00000000000E+00  0.18745202396E+04  0.18745202397E+04  0.50400001928E-02 0. -1.
        1   -1    0    0  501    0  0.00000000000E+00  0.00000000000E+00 -0.70578010886E+03  0.70578010888E+03  0.50400001928E-02 0.  1.
    10030    2    1    2    0    0  0.00000000000E+00  0.00000000000E+00  0.11687401308E+04  0.25803003485E+04  0.23004339580E+04 0.  0.
        1    1    3    3  502    0  0.29015116683E+03 -0.11049844810E+04  0.43463523928E+03  0.12223281859E+04  0.50400001928E-02 0.  1.
       -1    1    3    3    0  502 -0.29015116683E+03  0.11049844810E+04  0.73410489150E+03  0.13579721626E+04  0.50400001928E-02 0. -1.
</event>
<event>
 5   0  0.7761069E-07  0.2300459E+04  0.7818609E-02  0.8477740E-01
        1   -1    0    0  501    0  0.00000000000E+00  0.00000000000E+00  0.80119706714E+03  0.80119706716E+03  0.50400001928E-02 0.  1.
       -1   -1    0    0    0  501  0.00000000000E+00  0.00000000000E+00 -0.16513140102E+04  0.16513140102E+04  0.50400001928E-02 0. -1.
    10030    2    1    2    0    0  0.00000000000E+00  0.00000000000E+00 -0.85011694301E+03  0.24525110773E+04  0.23004590341E+04 0.  0.
        1    1    3    3  502    0 -0.32865002199E+03 -0.10636677830E+04 -0.73335753494E+03  0.13331216237E+04  0.50400001928E-02 0. -1.
       -1    1    3    3    0  502  0.32865002199E+03  0.10636677830E+04 -0.11675940807E+03  0.11193894536E+04  0.50400001928E-02 0.  1.
</event>
<event>
 5   0  0.8097672E-07  0.2300166E+04  0.7818609E-02  0.8477856E-01
       -1   -1    0    0    0  501  0.00000000000E+00  0.00000000000E+00  0.77375717389E+03  0.77375717390E+03  0.50400001928E-02 0.  1.
        1   -1    0    0  501    0  0.00000000000E+00  0.00000000000E+00 -0.17094394357E+04  0.17094394357E+04  0.50400001928E-02 0. -1.
    10030    2    1    2    0    0  0.00000000000E+00  0.00000000000E+00 -0.93568226177E+03  0.24831966096E+04  0.23001661042E+04 0.  0.
        3    1    3    3  502    0 -0.22310339382E+03 -0.65687166170E+03 -0.14581309767E+04  0.16147450138E+04  0.10100000352E+00 0. -1.
       -3    1    3    3    0  502  0.22310339382E+03  0.65687166170E+03  0.52244871490E+03  0.86845159576E+03  0.10100000352E+00 0.  1.
</event>
<event>
 5   0  0.1744876E-06  0.2299750E+04  0.7818609E-02  0.8478020E-01
        2   -1    0    0  501    0  0.00000000000E+00  0.00000000000E+00  0.10286249728E+04  0.10286249728E+04  0.25500000920E-02 0. -1.
       -2   -1    0    0    0  501  0.00000000000E+00  0.00000000000E+00 -0.12854174812E+04  0.12854174812E+04  0.25500000920E-02 0.  1.
    10030    2    1    2    0    0  0.00000000000E+00  0.00000000000E+00 -0.25679250838E+03  0.23140424540E+04  0.22997500053E+04 0.  0.
        1    1    3    3  502    0  0.10457171672E+04 -0.47632782170E+03 -0.17108555152E+03  0.11617585177E+04  0.50400001928E-02 0.  1.
       -1    1    3    3    0  502 -0.10457171672E+04  0.47632782170E+03 -0.85706956853E+02  0.11522839363E+04  0.50400001928E-02 0. -1.
</event>
<event>
 5   0  0.6319125E-07  0.2300178E+04  0.7818609E-02  0.8477851E-01
       -3   -1    0    0    0  501  0.00000000000E+00  0.00000000000E+00  0.47497924283E+03  0.47497925357E+03  0.10100000352E+00 0. -1.
        3   -1    0    0  501    0  0.00000000000E+00  0.00000000000E+00 -0.27847621507E+04  0.27847621526E+04  0.10100000352E+00 0.  1.
    10030    2    1    2    0    0  0.00000000000E+00  0.00000000000E+00 -0.23097829079E+04  0.32597414061E+04  0.23001775917E+04 0.  0.
        3    1    3    3  502    0 -0.72291888639E+03  0.83177448907E+03 -0.68863686675E+03  0.12994926939E+04  0.10100000352E+00 0.  1.
       -3    1    3    3    0  502  0.72291888639E+03 -0.83177448907E+03 -0.16211460412E+04  0.19602487123E+04  0.10100000352E+00 0. -1.
</event>
<event>
 5   0  0.1689444E-06  0.2300422E+04  0.7818609E-02  0.8477755E-01
        2   -1    0    0  501    0  0.00000000000E+00  0.00000000000E+00  0.14978930790E+04  0.14978930790E+04  0.25500000920E-02 0. -1.
       -2   -1    0    0    0  501  0.00000000000E+00  0.00000000000E+00 -0.88323084144E+03  0.88323084144E+03  0.25500000920E-02 0.  1.
    10030    2    1    2    0    0  0.00000000000E+00  0.00000000000E+00  0.61466223756E+03  0.23811239204E+04  0.23004220174E+04 0.  0.
        2    1    3    3  502    0 -0.34504460381E+03 -0.40801256456E+03 -0.74695669361E+03  0.91840858750E+03  0.25500000920E-02 0.  1.
       -2    1    3    3    0  502  0.34504460381E+03  0.40801256456E+03  0.13616189312E+04  0.14627153329E+04  0.25500000920E-02 0. -1.
</event>
<event>
 5   0  0.8108242E-07  0.2300526E+04  0.7818609E-02  0.8477714E-01
       -1   -1    0    0    0  501  0.00000000000E+00  0.00000000000E+00  0.15271230273E+04  0.15271230274E+04  0.50400001928E-02 0. -1.
        1   -1    0    0  501    0  0.00000000000E+00  0.00000000000E+00 -0.86640401443E+03  0.86640401444E+03  0.50400001928E-02 0.  1.
    10030    2    1    2    0    0  0.00000000000E+00  0.00000000000E+00  0.66071901292E+03  0.23935270418E+04  0.23005264801E+04 0.  0.
        4    1    3    3  502    0  0.45468341291E+03  0.76547508585E+03  0.10880972439E+04  0.14059325510E+04  0.12699999809E+01 0. -1.
       -4    1    3    3    0  502 -0.45468341291E+03 -0.76547508585E+03 -0.42737823094E+03  0.98759449077E+03  0.12699999809E+01 0.  1.
</event>
<event>
 5   0  0.7932912E-07  0.2299974E+04  0.7818609E-02  0.8477931E-01
        1   -1    0    0  501    0  0.00000000000E+00  0.00000000000E+00  0.11293269197E+04  0.11293269197E+04  0.50400001928E-02 0. -1.
       -1   -1    0    0    0  501  0.00000000000E+00  0.00000000000E+00 -0.11710253161E+04  0.11710253161E+04  0.50400001928E-02 0.  1.
    10030    2    1    2    0    0  0.00000000000E+00  0.00000000000E+00 -0.41698396393E+02  0.23003522357E+04  0.22999742721E+04 0.  0.
        5    1    3    3  502    0  0.10440475663E+04 -0.30644711620E+03 -0.39307049344E+03  0.11569233590E+04  0.46999998093E+01 0.  1.
       -5    1    3    3    0  502 -0.10440475663E+04  0.30644711620E+03  0.35137209705E+03  0.11434288768E+04  0.46999998093E+01 0. -1.
</event>
<event>
 5   0  0.1744876E-06  0.2300120E+04  0.7818609E-02  0.8477874E-01
        2   -1    0    0  501    0  0.00000000000E+00  0.00000000000E+00  0.17877863444E+04  0.17877863444E+04  0.25500000920E-02 0.  1.
       -2   -1    0    0    0  501  0.00000000000E+00  0.00000000000E+00 -0.73981874467E+03  0.73981874467E+03  0.25500000920E-02 0. -1.
    10030    2    1    2    0    0  0.00000000000E+00  0.00000000000E+00  0.10479675997E+04  0.25276050891E+04  0.23001198656E+04 0.  0.
        1    1    3    3  502    0  0.50135045114E+03  0.75219196444E+03  0.13052809660E+04  0.15877353137E+04  0.50400001928E-02 0.  1.
       -1    1    3    3    0  502 -0.50135045114E+03 -0.75219196444E+03 -0.25731336622E+03  0.93986977539E+03  0.50400001928E-02 0. -1.
</event>
<event>
 5   0  0.8097672E-07  0.2299847E+04  0.7818609E-02  0.8477981E-01
        1   -1    0    0  501    0  0.00000000000E+00  0.00000000000E+00  0.20602016834E+04  0.20602016834E+04  0.50400001928E-02 0. -1.
       -1   -1    0    0    0  501  0.00000000000E+00  0.00000000000E+00 -0.64184225932E+03  0.64184225934E+03  0.50400001928E-02 0.  1.
    10030    2    1    2    0    0  0.00000000000E+00  0.00000000000E+00  0.14183594240E+04  0.27020439427E+04  0.22998473890E+04 0.  0.
        3    1    3    3  502    0  0.21722819353E+03 -0.55537924026E+03  0.18643262224E+04  0.19573825539E+04  0.10100000352E+00 0. -1.
       -3    1    3    3    0  502 -0.21722819353E+03  0.55537924026E+03 -0.44596679835E+03  0.74466138883E+03  0.10100000352E+00 0.  1.
</event>
<event>
 5   0  0.1689444E-06  0.2299536E+04  0.7818609E-02  0.8478104E-01
        2   -1    0    0  501    0  0.00000000000E+00  0.00000000000E+00  0.62120769075E+03  0.62120769076E+03  0.25500000920E-02 0. -1.
       -2   -1    0    0    0  501  0.00000000000E+00  0.00000000000E+00 -0.21280583530E+04  0.21280583530E+04  0.25500000920E-02 0.  1.
    10030    2    1    2    0    0  0.00000000000E+00  0.00000000000E+00 -0.15068506622E+04  0.27492660437E+04  0.22995357925E+04 0.  0.
        2    1    3    3  502    0 -0.11218584910E+04  0.14752332637E+03 -0.99738288712E+03  0.15083442011E+04  0.25500000920E-02 0.  1.
       -2    1    3    3    0  502  0.11218584910E+04 -0.14752332637E+03 -0.50946777509E+03  0.12409218426E+04  0.25500000920E-02 0. -1.
</event>
<event>
 5   0  0.1689444E-06  0.2300187E+04  0.7818609E-02  0.8477847E-01
       -2   -1    0    0    0  501  0.00000000000E+00  0.00000000000E+00  0.92391496166E+03  0.92391496167E+03  0.25500000920E-02 0. -1.
        2   -1    0    0  501    0  0.00000000000E+00  0.00000000000E+00 -0.14316412098E+04  0.14316412098E+04  0.25500000920E-02 0.  1.
    10030    2    1    2    0    0  0.00000000000E+00  0.00000000000E+00 -0.50772624813E+03  0.23555561715E+04  0.23001867172E+04 0.  0.
        2    1    3    3  502    0 -0.78711526849E+03  0.74573973995E+03  0.13882068328E+03  0.10931374057E+04  0.25500000920E-02 0. -1.
       -2    1    3    3    0  502  0.78711526849E+03 -0.74573973995E+03 -0.64654693141E+03  0.12624187658E+04  0.25500000920E-02 0.  1.
</event>
<event>
 5   0  0.1689444E-06  0.2301762E+04  0.7818609E-02  0.8477227E-01
        2   -1    0    0  501    0  0.00000000000E+00  0.00000000000E+00  0.15950641015E+04  0.15950641015E+04  0.25500000920E-02 0. -1.
       -2   -1    0    0    0  501  0.00000000000E+00  0.00000000000E+00 -0.83039110374E+03  0.83039110374E+03  0.25500000920E-02 0.  1.
    10030    2    1    2    0    0  0.00000000000E+00  0.00000000000E+00  0.76467299775E+03  0.24254552052E+04  0.23017619684E+04 0.  0.
        2    1    3    3  502    0 -0.41607124314E+03  0.10730224458E+04  0.38853399235E+03  0.12146814857E+04  0.25500000920E-02 0.  1.
       -2    1    3    3    0  502  0.41607124314E+03 -0.10730224458E+04  0.37613900540E+03  0.12107737195E+04  0.25500000920E-02 0. -1.
</event>
<event>
 5   0  0.1828646E-06  0.2300067E+04  0.7818609E-02  0.8477895E-01
       -2   -1    0    0    0  501  0.00000000000E+00  0.00000000000E+00  0.12699279225E+04  0.12699279225E+04  0.25500000920E-02 0.  1.
        2   -1    0    0  501    0  0.00000000000E+00  0.00000000000E+00 -0.10414580230E+04  0.10414580230E+04  0.25500000920E-02 0. -1.
    10030    2    1    2    0    0  0.00000000000E+00  0.00000000000E+00  0.22846989957E+03  0.23113859455E+04  0.23000666282E+04 0.  0.
        3    1    3    3  502    0  0.29061752447E+03 -0.11072719563E+04  0.22462491473E+03  0.11666045145E+04  0.10100000352E+00 0.  1.
       -3    1    3    3    0  502 -0.29061752447E+03  0.11072719563E+04  0.38449848340E+01  0.11447814310E+04  0.10100000352E+00 0. -1.
</event>
<event>
 5   0  0.1744876E-06  0.2299885E+04  0.7818609E-02  0.8477966E-01
       -2   -1    0    0    0  501  0.00000000000E+00  0.00000000000E+00  0.90814811596E+03  0.90814811596E+03  0.25500000920E-02 0. -1.
        2   -1    0    0  501    0  0.00000000000E+00  0.00000000000E+00 -0.14561147827E+04  0.14561147827E+04  0.25500000920E-02 0.  1.
    10030    2    1    2    0    0  0.00000000000E+00  0.00000000000E+00 -0.54796666671E+03  0.23642628986E+04  0.22998851245E+04 0.  0.
        1    1    3    3  502    0  0.26344291863E+03 -0.10155178259E+04 -0.75800183165E+03  0.12943127145E+04  0.50400001928E-02 0.  1.
       -1    1    3    3    0  502 -0.26344291863E+03  0.10155178259E+04  0.21003516494E+03  0.10699501842E+04  0.50400001928E-02 0. -1.
</event>
<event>
 5   0  0.1825521E-06  0.2299458E+04  0.7818609E-02  0.8478135E-01
        2   -1    0    0  501    0  0.00000000000E+00  0.00000000000E+00  0.11115666449E+04  0.11115666449E+04  0.25500000920E-02 0.  1.
       -2   -1    0    0    0  501  0.00000000000E+00  0.00000000000E+00 -0.11892017046E+04  0.11892017046E+04  0.25500000920E-02 0. -1.
    10030    2    1    2    0    0  0.00000000000E+00  0.00000000000E+00 -0.77635059703E+02  0.23007683494E+04  0.22994581525E+04 0.  0.
        5    1    3    3  502    0  0.45402730047E+03  0.10373951654E+04 -0.23774061756E+03  0.11570964566E+04  0.46999998093E+01 0. -1.
       -5    1    3    3    0  502 -0.45402730047E+03 -0.10373951654E+04  0.16010555786E+03  0.11436718928E+04  0.46999998093E+01 0.  1.
</event>
<event>
 5   0  0.8108242E-07  0.2299305E+04  0.7818609E-02  0.8478195E-01
       -1   -1    0    0    0  501  0.00000000000E+00  0.00000000000E+00  0.87426992343E+03  0.87426992345E+03  0.50400001928E-02 0.  1.
        1   -1    0    0  501    0  0.00000000000E+00  0.00000000000E+00 -0.15117765271E+04  0.15117765271E+04  0.50400001928E-02 0. -1.
    10030    2    1    2    0    0  0.00000000000E+00  0.00000000000E+00 -0.63750660368E+03  0.23860464506E+04  0.22993048938E+04 0.  0.
        4    1    3    3  502    0  0.18233801118E+03  0.47817382454E+03  0.74955020127E+03  0.90759268062E+03  0.12699999809E+01 0.  1.
       -4    1    3    3    0  502 -0.18233801118E+03 -0.47817382454E+03 -0.13870568050E+04  0.14784537699E+04  0.12699999809E+01 0. -1.
</event>
<event>
 5   0  0.7932912E-07  0.2301188E+04  0.7818609E-02  0.8477453E-01
        1   -1    0    0  501    0  0.00000000000E+00  0.00000000000E+00  0.71132169349E+03  0.71132169351E+03  0.50400001928E-02 0.  1.
       -1   -1    0    0    0  501  0.00000000000E+00  0.00000000000E+00 -0.18611365743E+04  0.18611365743E+04  0.50400001928E-02 0. -1.
    10030    2    1    2    0    0  0.00000000000E+00  0.00000000000E+00 -0.11498148808E+04  0.25724582678E+04  0.23011882321E+04 0.  0.
        5    1    3    3  502    0  0.19915806718E+03  0.63277769627E+03  0.47600516870E+03  0.81650141412E+03  0.46999998093E+01 0.  1.
       -5    1    3    3    0  502 -0.19915806718E+03 -0.63277769627E+03 -0.16258200495E+04  0.17559568537E+04  0.46999998093E+01 0. -1.
</event>
<event>
 5   0  0.1888779E-06  0.2302348E+04  0.7818609E-02  0.8476996E-01
       -2   -1    0    0    0  501  0.00000000000E+00  0.00000000000E+00  0.59360203552E+03  0.59360203552E+03  0.25500000920E-02 0. -1.
        2   -1    0    0  501    0  0.00000000000E+00  0.00000000000E+00 -0.22324756271E+04  0.22324756271E+04  0.25500000920E-02 0.  1.
    10030    2    1    2    0    0  0.00000000000E+00  0.00000000000E+00 -0.16388735916E+04  0.28260776626E+04  0.23023484328E+04 0.  0.
        4    1    3    3  502    0  0.17558652978E+03 -0.37315409667E+03  0.49981500327E+03  0.64799016944E+03  0.12699999809E+01 0. -1.
       -4    1    3    3    0  502 -0.17558652978E+03  0.37315409667E+03 -0.21386885948E+04  0.21780874932E+04  0.12699999809E+01 0.  1.
</event>
<event>
 5   0  0.1689444E-06  0.2302137E+04  0.7818609E-02  0.8477079E-01
        2   -1    0    0  501    0  0.00000000000E+00  0.00000000000E+00  0.17386520070E+04  0.17386520070E+04  0.25500000920E-02 0.  1.
       -2   -1    0    0    0  501  0.00000000000E+00  0.00000000000E+00 -0.76206111195E+03  0.76206111195E+03  0.25500000920E-02 0. -1.
    10030    2    1    2    0    0  0.00000000000E+00  0.00000000000E+00  0.97659089506E+03  0.25007131190E+04  0.23021373389E+04 0.  0.
        2    1    3    3  502    0  0.28559572063E+03  0.22091288625E+03 -0.69895511315E+03  0.78670557972E+03  0.25500000920E-02 0. -1.
       -2    1    3    3    0  502 -0.28559572063E+03 -0.22091288625E+03  0.16755460082E+04  0.17140075392E+04  0.25500000920E-02 0.  1.
</event>
<event>
 5   0  0.7932912E-07  0.2300216E+04  0.7818609E-02  0.8477836E-01
       -1   -1    0    0    0  501  0.00000000000E+00  0.00000000000E+00  0.51076833909E+03  0.51076833911E+03  0.50400001928E-02 0. -1.
        1   -1    0    0  501    0  0.00000000000E+00  0.00000000000E+00 -0.25897217549E+04  0.25897217549E+04  0.50400001928E-02 0.  1.
    10030    2    1    2    0    0  0.00000000000E+00  0.00000000000E+00 -0.20789534158E+04  0.31004900940E+04  0.23002155373E+04 0.  0.
        5    1    3    3  502    0  0.10502949076E+04 -0.12734154425E+03 -0.16473697564E+04  0.19578520031E+04  0.46999998093E+01 0.  1.
       -5    1    3    3    0  502 -0.10502949076E+04  0.12734154425E+03 -0.43158365943E+03  0.11426380909E+04  0.46999998093E+01 0. -1.
</event>
<event>
 5   0  0.7607231E-07  0.2301445E+04  0.7818609E-02  0.8477352E-01
       -1   -1    0    0    0  501  0.00000000000E+00  0.00000000000E+00  0.10836038434E+04  0.10836038435E+04  0.50400001928E-02 0. -1.
        1   -1    0    0  501    0  0.00000000000E+00  0.00000000000E+00 -0.12219983878E+04  0.12219983878E+04  0.50400001928E-02 0.  1.
    10030    2    1    2    0    0  0.00000000000E+00  0.00000000000E+00 -0.13839454439E+03  0.23056022313E+04  0.23014448938E+04 0.  0.
        2    1    3    3  502    0 -0.91565838620E+03  0.71727943214E+00  0.62900598863E+03  0.11108912316E+04  0.25500000920E-02 0. -1.
       -2    1    3    3    0  502  0.91565838620E+03 -0.71727943214E+00 -0.76740053302E+03  0.11947109997E+04  0.25500000920E-02 0.  1.
</event>
<event>
 5   0  0.1825521E-06  0.2299376E+04  0.7818609E-02  0.8478167E-01
        2   -1    0    0  501    0  0.00000000000E+00  0.00000000000E+00  0.12035760327E+04  0.12035760327E+04  0.25500000920E-02 0. -1.
       -2   -1    0    0    0  501  0.00000000000E+00  0.00000000000E+00 -0.10982122422E+04  0.10982122422E+04  0.25500000920E-02 0.  1.
    10030    2    1    2    0    0  0.00000000000E+00  0.00000000000E+00  0.10536379052E+03  0.23017882748E+04  0.22993755095E+04 0.  0.
        5    1    3    3  502    0 -0.72359844916E+03 -0.87695207565E+03 -0.11814353987E+03  0.11430746453E+04  0.46999998093E+01 0.  1.
       -5    1    3    3    0  502  0.72359844916E+03  0.87695207565E+03  0.22350733039E+03  0.11587136296E+04  0.46999998093E+01 0. -1.
</event>
<event>
 5   0  0.7607231E-07  0.2303626E+04  0.7818609E-02  0.8476493E-01
        1   -1    0    0  501    0  0.00000000000E+00  0.00000000000E+00  0.10034989958E+04  0.10034989958E+04  0.50400001928E-02 0.  1.
       -1   -1    0    0    0  501  0.00000000000E+00  0.00000000000E+00 -0.13220473942E+04  0.13220473942E+04  0.50400001928E-02 0. -1.
    10030    2    1    2    0    0  0.00000000000E+00  0.00000000000E+00 -0.31854839834E+03  0.23255463900E+04  0.23036260395E+04 0.  0.
        2    1    3    3  502    0  0.57720774183E+02  0.78945272658E+03  0.68541104695E+03  0.10470700065E+04  0.25500000920E-02 0.  1.
       -2    1    3    3    0  502 -0.57720774183E+02 -0.78945272658E+03 -0.10039594453E+04  0.12784763835E+04  0.25500000920E-02 0. -1.
</event>
<event>
 5   0  0.8097672E-07  0.2299835E+04  0.7818609E-02  0.8477986E-01
        1   -1    0    0  501    0  0.00000000000E+00  0.00000000000E+00  0.13104168746E+04  0.13104168746E+04  0.50400001928E-02 0. -1.
       -1   -1    0    0    0  501  0.00000000000E+00  0.00000000000E+00 -0.10090761541E+04  0.10090761542E+04  0.50400001928E-02 0.  1.
    10030    2    1    2    0    0  0.00000000000E+00  0.00000000000E+00  0.30134072047E+03  0.23194930288E+04  0.22998351421E+04 0.  0.
        3    1    3    3  502    0  0.35186531521E+03 -0.38773345018E+03  0.11832201002E+04  0.12938918982E+04  0.10100000352E+00 0. -1.
       -3    1    3    3    0  502 -0.35186531521E+03  0.38773345018E+03 -0.88187937975E+03  0.10256011306E+04  0.10100000352E+00 0.  1.
</event>
<event>
 5   0  0.7761069E-07  0.2300335E+04  0.7818609E-02  0.8477789E-01
       -1   -1    0    0    0  501  0.00000000000E+00  0.00000000000E+00  0.17531479519E+04  0.17531479519E+04  0.50400001928E-02 0. -1.
        1   -1    0    0  501    0  0.00000000000E+00  0.00000000000E+00 -0.75457727499E+03  0.75457727501E+03  0.50400001928E-02 0.  1.
    10030    2    1    2    0    0  0.00000000000E+00  0.00000000000E+00  0.99857067687E+03  0.25077252269E+04  0.23003352836E+04 0.  0.
        1    1    3    3  502    0  0.10509796261E+04 -0.39834965086E+03  0.23304382344E+03  0.11478458270E+04  0.50400001928E-02 0. -1.
       -1    1    3    3    0  502 -0.10509796261E+04  0.39834965086E+03  0.76552685343E+03  0.13598793999E+04  0.50400001928E-02 0.  1.
</event>
<event>
 5   0  0.1744876E-06  0.2301916E+04  0.7818609E-02  0.8477166E-01
       -2   -1    0    0    0  501  0.00000000000E+00  0.00000000000E+00  0.11263074353E+04  0.11263074353E+04  0.25500000920E-02 0. -1.
        2   -1    0    0  501    0  0.00000000000E+00  0.00000000000E+00 -0.11761482488E+04  0.11761482488E+04  0.25500000920E-02 0.  1.
    10030    2    1    2    0    0  0.00000000000E+00  0.00000000000E+00 -0.49840813449E+02  0.23024556841E+04  0.23019161736E+04 0.  0.
        1    1    3    3  502    0 -0.41603320683E+03 -0.92696188873E+03 -0.56575273373E+03  0.11629351349E+04  0.50400001928E-02 0. -1.
       -1    1    3    3    0  502  0.41603320683E+03  0.92696188873E+03  0.51591192028E+03  0.11395205491E+04  0.50400001928E-02 0.  1.
</event>
<event>
 5   0  0.6319125E-07  0.2298471E+04  0.7818609E-02  0.8478524E-01
        3   -1    0    0  501    0  0.00000000000E+00  0.00000000000E+00  0.11186315892E+04  0.11186315937E+04  0.10100000352E+00 0.  1.
       -3   -1    0    0    0  501  0.00000000000E+00  0.00000000000E+00 -0.11806769947E+04  0.11806769990E+04  0.10100000352E+00 0. -1.
    10030    2    1    2    0    0  0.00000000000E+00  0.00000000000E+00 -0.62045405512E+02  0.22993085927E+04  0.22984713120E+04 0.  0.
        5    1    3    3  502    0  0.58059990675E+03 -0.86689901352E+03  0.45093112022E+03  0.11366490736E+04  0.46999998093E+01 0. -1.
       -5    1    3    3    0  502 -0.58059990675E+03  0.86689901352E+03 -0.51297652574E+03  0.11626595191E+04  0.46999998093E+01 0.  1.
</event>
<event>
 5   0  0.1828646E-06  0.2301946E+04  0.7818609E-02  0.8477154E-01
       -2   -1    0    0    0  501  0.00000000000E+00  0.00000000000E+00  0.13878042868E+04  0.13878042868E+04  0.25500000920E-02 0. -1.
        2   -1    0    0  501    0  0.00000000000E+00  0.00000000000E+00 -0.95455767898E+03  0.95455767898E+03  0.25500000920E-02 0.  1.
    10030    2    1    2    0    0  0.00000000000E+00  0.00000000000E+00  0.43324660787E+03  0.23423619658E+04  0.23019463408E+04 0.  0.
        3    1    3    3  502    0 -0.50931835554E+03 -0.20671704093E+03  0.12456156710E+04  0.13615048778E+04  0.10100000352E+00 0. -1.
       -3    1    3    3    0  502  0.50931835554E+03  0.20671704093E+03 -0.81236906309E+03  0.98085708804E+03  0.10100000352E+00 0.  1.
</event>
<event>
 5   0  0.1825521E-06  0.2299608E+04  0.7818609E-02  0.8478076E-01
       -2   -1    0    0    0  501  0.00000000000E+00  0.00000000000E+00  0.21077389614E+04  0.21077389614E+04  0.25500000920E-02 0.  1.
        2   -1    0    0  501    0  0.00000000000E+00  0.00000000000E+00 -0.62723563255E+03  0.62723563255E+03  0.25500000920E-02 0. -1.
    10030    2    1    2    0    0  0.00000000000E+00  0.00000000000E+00  0.14805033289E+04  0.27349745940E+04  0.22996077759E+04 0.  0.
        5    1    3    3  502    0 -0.16254363002E+03 -0.89561373033E+03 -0.95227085469E+02  0.91522383788E+03  0.46999998093E+01 0. -1.
       -5    1    3    3    0  502  0.16254363002E+03  0.89561373033E+03  0.15757304143E+04  0.18197507561E+04  0.46999998093E+01 0.  1.
</event>
<event>
 5   0  0.1888779E-06  0.2301016E+04  0.7818609E-02  0.8477520E-01
       -2   -1    0    0    0  501  0.00000000000E+00  0.00000000000E+00  0.15469300647E+04  0.15469300647E+04  0.25500000920E-02 0.  1.
        2   -1    0    0  501    0  0.00000000000E+00  0.00000000000E+00 -0.85567480907E+03  0.85567480907E+03  0.25500000920E-02 0. -1.
    10030    2    1    2    0    0  0.00000000000E+00  0.00000000000E+00  0.69125525565E+03  0.24026048738E+04  0.23010163735E+04 0.  0.
        4    1    3    3  502    0  0.15137157221E+03  0.10203350356E+04 -0.18644875553E+03  0.10482183404E+04  0.12699999809E+01 0. -1.
       -4    1    3    3    0  502 -0.15137157221E+03 -0.10203350356E+04  0.87770401118E+03  0.13543865334E+04  0.12699999809E+01 0.  1.
</event>
<event>
 5   0  0.1744876E-06  0.2299636E+04  0.7818609E-02  0.8478065E-01
        2   -1    0    0  501    0  0.00000000000E+00  0.00000000000E+00  0.15668211584E+04  0.15668211584E+04  0.25500000920E-02 0.  1.
       -2   -1    0    0    0  501  0.00000000000E+00  0.00000000000E+00 -0.84379865284E+03  0.84379865284E+03  0.25500000920E-02 0. -1.
    10030    2    1    2    0    0  0.00000000000E+00  0.00000000000E+00  0.72302250555E+03  0.24106198112E+04  0.22996361301E+04 0.  0.
        1    1    3    3  502    0  0.99613508701E+03  0.53167711727E+01  0.96348005910E+03  0.13858597346E+04  0.50400001928E-02 0.  1.
       -1    1    3    3    0  502 -0.99613508701E+03 -0.53167711727E+01 -0.24045755354E+03  0.10247600767E+04  0.50400001928E-02 0. -1.
</event>
<event>
 5   0  0.7607231E-07  0.2300949E+04  0.7818609E-02  0.8477547E-01
       -1   -1    0    0    0  501  0.00000000000E+00  0.00000000000E+00  0.72416976855E+03  0.72416976857E+03  0.50400001928E-02 0. -1.
        1   -1    0    0  501    0  0.00000000000E+00  0.00000000000E+00 -0.18277360706E+04  0.18277360706E+04  0.50400001928E-02 0.  1.
    10030    2    1    2    0    0  0.00000000000E+00  0.00000000000E+00 -0.11035663021E+04  0.25519058392E+04  0.23009486802E+04 0.  0.
        2    1    3    3  502    0  0.44491736431E+03  0.89882882828E+03  0.73386792015E+02  0.10055994953E+04  0.25500000920E-02 0. -1.
       -2    1    3    3    0  502 -0.44491736431E+03 -0.89882882828E+03 -0.11769530941E+04  0.15463063439E+04  0.25500000920E-02 0.  1.
</event>
<event>
 5   0  0.8097672E-07  0.2301232E+04  0.7818609E-02  0.8477436E-01
        1   -1    0    0  501    0  0.00000000000E+00  0.00000000000E+00  0.17771040088E+04  0.17771040088E+04  0.50400001928E-02 0.  1.
       -1   -1    0    0    0  501  0.00000000000E+00  0.00000000000E+00 -0.74498570475E+03  0.74498570476E+03  0.50400001928E-02 0. -1.
    10030    2    1    2    0    0  0.00000000000E+00  0.00000000000E+00  0.10321183041E+04  0.25220897136E+04  0.23012319157E+04 0.  0.
        3    1    3    3  502    0  0.43540650313E+03  0.97371545427E+03  0.98900256317E+03  0.14545881510E+04  0.10100000352E+00 0.  1.
       -3    1    3    3    0  502 -0.43540650313E+03 -0.97371545427E+03  0.43115740916E+02  0.10675015626E+04  0.10100000352E+00 0. -1.
</event>
<event>
 5   0  0.1828646E-06  0.2302049E+04  0.7818609E-02  0.8477113E-01
        2   -1    0    0  501    0  0.00000000000E+00  0.00000000000E+00  0.21871740704E+04  0.21871740704E+04  0.25500000920E-02 0. -1.
       -2   -1    0    0    0  501  0.00000000000E+00  0.00000000000E+00 -0.60573958616E+03  0.60573958617E+03  0.25500000920E-02 0.  1.
    10030    2    1    2    0    0  0.00000000000E+00  0.00000000000E+00  0.15814344843E+04  0.27929136566E+04  0.23020494489E+04 0.  0.
        3    1    3    3  502    0  0.86271507279E+03  0.40346003921E+03  0.15749182466E+04  0.18404958010E+04  0.10100000352E+00 0. -1.
       -3    1    3    3    0  502 -0.86271507279E+03 -0.40346003921E+03  0.65162377096E+01  0.95241785557E+03  0.10100000352E+00 0.  1.
</event>
<event>
 5   0  0.1828646E-06  0.2301083E+04  0.7818609E-02  0.8477494E-01
        2   -1    0    0  501    0  0.00000000000E+00  0.00000000000E+00  0.22918456846E+04  0.22918456846E+04  0.25500000920E-02 0. -1.
       -2   -1    0    0    0  501  0.00000000000E+00  0.00000000000E+00 -0.57758959446E+03  0.57758959446E+03  0.25500000920E-02 0.  1.
    10030    2    1    2    0    0  0.00000000000E+00  0.00000000000E+00  0.17142560901E+04  0.28694352790E+04  0.23010834140E+04 0.  0.
        3    1    3    3  502    0  0.47596518898E+03  0.97668070831E+03  0.13291740772E+04  0.17167270618E+04  0.10100000352E+00 0. -1.
       -3    1    3    3    0  502 -0.47596518898E+03 -0.97668070831E+03  0.38508201287E+03  0.11527082172E+04  0.10100000352E+00 0.  1.
</event>
<event>
 5   0  0.7607231E-07  0.2299190E+04  0.7818609E-02  0.8478241E-01
       -1   -1    0    0    0  501  0.00000000000E+00  0.00000000000E+00  0.76077335475E+03  0.76077335476E+03  0.50400001928E-02 0. -1.
        1   -1    0    0  501    0  0.00000000000E+00  0.00000000000E+00 -0.17371381332E+04  0.17371381332E+04  0.50400001928E-02 0.  1.
    10030    2    1    2    0    0  0.00000000000E+00  0.00000000000E+00 -0.97636477845E+03  0.24979114880E+04  0.22991897749E+04 0.  0.
        2    1    3    3  502    0 -0.38234263959E+03  0.42840307250E+03 -0.15701791270E+04  0.16718784577E+04  0.25500000920E-02 0.  1.
       -2    1    3    3    0  502  0.38234263959E+03 -0.42840307250E+03  0.59381434852E+03  0.82603303026E+03  0.25500000920E-02 0. -1.
</event>
<event>
 5   0  0.7761069E-07  0.2302509E+04  0.7818609E-02  0.8476933E-01
       -1   -1    0    0    0  501  0.00000000000E+00  0.00000000000E+00  0.11584208772E+04  0.11584208772E+04  0.50400001928E-02 0.  1.
        1   -1    0    0  501    0  0.00000000000E+00  0.00000000000E+00 -0.11441323277E+04  0.11441323277E+04  0.50400001928E-02 0. -1.
    10030    2    1    2    0    0  0.00000000000E+00  0.00000000000E+00  0.14288549545E+02  0.23025532049E+04  0.23025088705E+04 0.  0.
        1    1    3    3  502    0  0.84341602051E+03  0.73519143891E+03  0.27831317198E+03  0.11529593476E+04  0.50400001928E-02 0.  1.
       -1    1    3    3    0  502 -0.84341602051E+03 -0.73519143891E+03 -0.26402462243E+03  0.11495938573E+04  0.50400001928E-02 0. -1.
</event>
<event>
 5   0  0.1825521E-06  0.2299014E+04  0.7818609E-02  0.8478310E-01
       -2   -1    0    0    0  501  0.00000000000E+00  0.00000000000E+00  0.17926537956E+04  0.17926537956E+04  0.25500000920E-02 0.  1.
        2   -1    0    0  501    0  0.00000000000E+00  0.00000000000E+00 -0.73710086499E+03  0.73710086499E+03  0.25500000920E-02 0. -1.
    10030    2    1    2    0    0  0.00000000000E+00  0.00000000000E+00  0.10555529306E+04  0.25297546606E+04  0.22990142787E+04 0.  0.
        5    1    3    3  502    0 -0.83186407945E+03 -0.26468154557E+03 -0.29513937271E+03  0.92151153361E+03  0.46999998093E+01 0. -1.
       -5    1    3    3    0  502  0.83186407945E+03  0.26468154557E+03  0.13506923033E+04  0.16082431270E+04  0.46999998093E+01 0.  1.
</event>
<event>
 5   0  0.8108242E-07  0.2298473E+04  0.7818609E-02  0.8478523E-01
        1   -1    0    0  501    0  0.00000000000E+00  0.00000000000E+00  0.12612059409E+04  0.12612059409E+04  0.50400001928E-02 0.  1.
       -1   -1    0    0    0  501  0.00000000000E+00  0.00000000000E+00 -0.10472081180E+04  0.10472081180E+04  0.50400001928E-02 0. -1.
    10030    2    1    2    0    0  0.00000000000E+00  0.00000000000E+00  0.21399782282E+03  0.23084140589E+04  0.22984734933E+04 0.  0.
        4    1    3    3  502    0 -0.64434059944E+03 -0.82720655742E+03 -0.36545880421E+03  0.11104085947E+04  0.12699999809E+01 0. -1.
       -4    1    3    3    0  502  0.64434059944E+03  0.82720655742E+03  0.57945662704E+03  0.11980054642E+04  0.12699999809E+01 0.  1.
</event>
<event>
 5   0  0.7761069E-07  0.2297747E+04  0.7818609E-02  0.8478810E-01
       -1   -1    0    0    0  501  0.00000000000E+00  0.00000000000E+00  0.91654637515E+03  0.91654637517E+03  0.50400001928E-02 0.  1.
        1   -1    0    0  501    0  0.00000000000E+00  0.00000000000E+00 -0.14400910158E+04  0.14400910158E+04  0.50400001928E-02 0. -1.
    10030    2    1    2    0    0  0.00000000000E+00  0.00000000000E+00 -0.52354464069E+03  0.23566373910E+04  0.22977468968E+04 0.  0.
        1    1    3    3  502    0  0.50966540955E+03  0.91723630777E+03 -0.74155320475E+03  0.12849056111E+04  0.50400001928E-02 0. -1.
       -1    1    3    3    0  502 -0.50966540955E+03 -0.91723630777E+03  0.21800856407E+03  0.10717317799E+04  0.50400001928E-02 0.  1.
</event>
<event>
 5   0  0.1888779E-06  0.2299452E+04  0.7818609E-02  0.8478137E-01
       -2   -1    0    0    0  501  0.00000000000E+00  0.00000000000E+00  0.87666640295E+03  0.87666640295E+03  0.25500000920E-02 0. -1.
        2   -1    0    0  501    0  0.00000000000E+00  0.00000000000E+00 -0.15078366024E+04  0.15078366024E+04  0.25500000920E-02 0.  1.
    10030    2    1    2    0    0  0.00000000000E+00  0.00000000000E+00 -0.63117019941E+03  0.23845030053E+04  0.22994518394E+04 0.  0.
        4    1    3    3  502    0  0.10412388804E+03 -0.17947611839E+03 -0.14882592499E+04  0.15026545407E+04  0.12699999809E+01 0.  1.
       -4    1    3    3    0  502 -0.10412388804E+03  0.17947611839E+03  0.85708905046E+03  0.88184846456E+03  0.12699999809E+01 0. -1.
</event>
<event>
 5   0  0.7761069E-07  0.2299817E+04  0.7818609E-02  0.8477993E-01
       -1   -1    0    0    0  501  0.00000000000E+00  0.00000000000E+00  0.76703567493E+03  0.76703567495E+03  0.50400001928E-02 0. -1.
        1   -1    0    0  501    0  0.00000000000E+00  0.00000000000E+00 -0.17238963431E+04  0.17238963431E+04  0.50400001928E-02 0.  1.
    10030    2    1    2    0    0  0.00000000000E+00  0.00000000000E+00 -0.95686066819E+03  0.24909320181E+04  0.22998173798E+04 0.  0.
        1    1    3    3  502    0 -0.10591552021E+04  0.38675247294E+03 -0.23406518725E+03  0.11515961659E+04  0.50400001928E-02 0. -1.
       -1    1    3    3    0  502  0.10591552021E+04 -0.38675247294E+03 -0.72279548093E+03  0.13393358521E+04  0.50400001928E-02 0.  1.
</event>
<event>
 5   0  0.7761069E-07  0.2301656E+04  0.7818609E-02  0.8477269E-01
       -1   -1    0    0    0  501  0.00000000000E+00  0.00000000000E+00  0.14019989359E+04  0.14019989359E+04  0.50400001928E-02 0.  1.
        1   -1    0    0  501    0  0.00000000000E+00  0.00000000000E+00 -0.94465456270E+03  0.94465456272E+03  0.50400001928E-02 0. -1.
    10030    2    1    2    0    0  0.00000000000E+00  0.00000000000E+00  0.45734437319E+03  0.23466534986E+04  0.23016556578E+04 0.  0.
        1    1    3    3  502    0 -0.61727093695E+03 -0.96219443820E+03  0.93555258745E+02  0.11469935192E+04  0.50400001928E-02 0. -1.
       -1    1    3    3    0  502  0.61727093695E+03  0.96219443820E+03  0.36378911444E+03  0.11996599795E+04  0.50400001928E-02 0.  1.
</event>
<event>
 5   0  0.7761069E-07  0.2296571E+04  0.7818609E-02  0.8479274E-01
        1   -1    0    0  501    0  0.00000000000E+00  0.00000000000E+00  0.10069688299E+04  0.10069688299E+04  0.50400001928E-02 0. -1.
       -1   -1    0    0    0  501  0.00000000000E+00  0.00000000000E+00 -0.13094341149E+04  0.13094341149E+04  0.50400001928E-02 0.  1.
    10030    2    1    2    0    0  0.00000000000E+00  0.00000000000E+00 -0.30246528495E+03  0.23164029448E+04  0.22965707815E+04 0.  0.
        1    1    3    3  502    0  0.22224245381E+03  0.27226169302E+03 -0.12538522534E+04  0.13021764901E+04  0.50400001928E-02 0.  1.
       -1    1    3    3    0  502 -0.22224245381E+03 -0.27226169302E+03  0.95138696849E+03  0.10142264548E+04  0.50400001928E-02 0. -1.
</event>
<event>
 5   0  0.7932912E-07  0.2300967E+04  0.7818609E-02  0.8477540E-01
        1   -1    0    0  501    0  0.00000000000E+00  0.00000000000E+00  0.20193869950E+04  0.20193869950E+04  0.50400001928E-02 0. -1.
       -1   -1    0    0    0  501  0.00000000000E+00  0.00000000000E+00 -0.65545252607E+03  0.65545252609E+03  0.50400001928E-02 0.  1.
    10030    2    1    2    0    0  0.00000000000E+00  0.00000000000E+00  0.13639344689E+04  0.26748395211E+04  0.23009670202E+04 0.  0.
        5    1    3    3  502    0 -0.37547241782E+03 -0.53800944089E+03  0.17805964004E+04  0.18976246536E+04  0.46999998093E+01 0. -1.
       -5    1    3    3    0  502  0.37547241782E+03  0.53800944089E+03 -0.41666193148E+03  0.77721486744E+03  0.46999998093E+01 0.  1.
</event>
<event>
 5   0  0.7932912E-07  0.2299702E+04  0.7818609E-02  0.8478039E-01
       -1   -1    0    0    0  501  0.00000000000E+00  0.00000000000E+00  0.12447360642E+04  0.12447360643E+04  0.50400001928E-02 0.  1.
        1   -1    0    0  501    0  0.00000000000E+00  0.00000000000E+00 -0.10621988519E+04  0.10621988519E+04  0.50400001928E-02 0. -1.
    10030    2    1    2    0    0  0.00000000000E+00  0.00000000000E+00  0.18253721233E+03  0.23069349162E+04  0.22997019097E+04 0.  0.
        5    1    3    3  502    0 -0.38724085257E+03 -0.46126376128E+03 -0.89130962332E+03  0.10757205353E+04  0.46999998093E+01 0. -1.
       -5    1    3    3    0  502  0.38724085257E+03  0.46126376128E+03  0.10738468356E+04  0.12312143809E+04  0.46999998093E+01 0.  1.
</event>
<event>
 5   0  0.7607231E-07  0.2299423E+04  0.7818609E-02  0.8478149E-01
       -1   -1    0    0    0  501  0.00000000000E+00  0.00000000000E+00  0.68225577926E+03  0.68225577928E+03  0.50400001928E-02 0.  1.
        1   -1    0    0  501    0  0.00000000000E+00  0.00000000000E+00 -0.19374497118E+04  0.19374497118E+04  0.50400001928E-02 0. -1.
    10030    2    1    2    0    0  0.00000000000E+00  0.00000000000E+00 -0.12551939326E+04  0.26197054911E+04  0.22994227649E+04 0.  0.
        2    1    3    3  502    0  0.92779213618E+02  0.75984238743E+03  0.34971575398E+03  0.84158751465E+03  0.25500000920E-02 0.  1.
       -2    1    3    3    0  502 -0.92779213618E+02 -0.75984238743E+03 -0.16049096865E+04  0.17781179764E+04  0.25500000920E-02 0. -1.
</event>
<event>
 5   0  0.7607231E-07  0.2300176E+04  0.7818609E-02  0.8477852E-01
        1   -1    0    0  501    0  0.00000000000E+00  0.00000000000E+00  0.18628726798E+04  0.18628726798E+04  0.50400001928E-02 0.  1.
       -1   -1    0    0    0  501  0.00000000000E+00  0.00000000000E+00 -0.71003361537E+03  0.71003361538E+03  0.50400001928E-02 0. -1.
    10030    2    1    2    0    0  0.00000000000E+00  0.00000000000E+00  0.11528390644E+04  0.25729062952E+04  0.23001758401E+04 0.  0.
        2    1    3    3  502    0  0.11371810992E+04  0.23440846464E+02  0.76681272083E+03  0.13717623972E+04  0.25500000920E-02 0.  1.
       -2    1    3    3    0  502 -0.11371810992E+04 -0.23440846464E+02  0.38602634358E+03  0.12011438979E+04  0.25500000920E-02 0. -1.
</event>
<event>
 5   0  0.7607231E-07  0.2299927E+04  0.7818609E-02  0.8477950E-01
        1   -1    0    0  501    0  0.00000000000E+00  0.00000000000E+00  0.82162552082E+03  0.82162552083E+03  0.50400001928E-02 0. -1.
       -1   -1    0    0    0  501  0.00000000000E+00  0.00000000000E+00 -0.16095120091E+04  0.16095120091E+04  0.50400001928E-02 0.  1.
    10030    2    1    2    0    0  0.00000000000E+00  0.00000000000E+00 -0.78788648827E+03  0.24311375299E+04  0.22999270795E+04 0.  0.
        2    1    3    3  502    0  0.11299864559E+04 -0.19737741738E+03 -0.47974618218E+03  0.12433759024E+04  0.25500000920E-02 0. -1.
       -2    1    3    3    0  502 -0.11299864559E+04  0.19737741738E+03 -0.30814030609E+03  0.11877616275E+04  0.25500000920E-02 0.  1.
</event>
<event>
 5   0  0.1828646E-06  0.2303410E+04  0.7818609E-02  0.8476578E-01
       -2   -1    0    0    0  501  0.00000000000E+00  0.00000000000E+00  0.10179619634E+04  0.10179619634E+04  0.25500000920E-02 0.  1.
        2   -1    0    0  501    0  0.00000000000E+00  0.00000000000E+00 -0.13030193577E+04  0.13030193577E+04  0.25500000920E-02 0. -1.
    10030    2    1    2    0    0  0.00000000000E+00  0.00000000000E+00 -0.28505739429E+03  0.23209813211E+04  0.23034097713E+04 0.  0.
        3    1    3    3  502    0  0.51377757252E+03 -0.60520480637E+03  0.69821268157E+03  0.10572328081E+04  0.10100000352E+00 0.  1.
       -3    1    3    3    0  502 -0.51377757252E+03  0.60520480637E+03 -0.98327007585E+03  0.12637485129E+04  0.10100000352E+00 0. -1.
</event>
<event>
 5   0  0.7761069E-07  0.2303262E+04  0.7818609E-02  0.8476636E-01
       -1   -1    0    0    0  501  0.00000000000E+00  0.00000000000E+00  0.67299412304E+03  0.67299412306E+03  0.50400001928E-02 0.  1.
        1   -1    0    0  501    0  0.00000000000E+00  0.00000000000E+00 -0.19706766114E+04  0.19706766114E+04  0.50400001928E-02 0. -1.
    10030    2    1    2    0    0  0.00000000000E+00  0.00000000000E+00 -0.12976824884E+04  0.26436707345E+04  0.23032618418E+04 0.  0.
        1    1    3    3  502    0 -0.99161458147E+03 -0.48699884012E+03 -0.10221593299E+04  0.15050837332E+04  0.50400001928E-02 0. -1.
       -1    1    3    3    0  502  0.99161458147E+03  0.48699884012E+03 -0.27552315851E+03  0.11385870012E+04  0.50400001928E-02 0.  1.
</event>
<event>
 5   0  0.6319125E-07  0.2299355E+04  0.7818609E-02  0.8478175E-01
        3   -1    0    0  501    0  0.00000000000E+00  0.00000000000E+00  0.61878600060E+03  0.61878600885E+03  0.10100000352E+00 0. -1.
       -3   -1    0    0    0  501  0.00000000000E+00  0.00000000000E+00 -0.21360509614E+04  0.21360509637E+04  0.10100000352E+00 0.  1.
    10030    2    1    2    0    0  0.00000000000E+00  0.00000000000E+00 -0.15172649608E+04  0.27548369726E+04  0.22993550801E+04 0.  0.
        2    1    3    3  502    0 -0.18604886288E+03 -0.32364179987E+03 -0.20614155830E+04  0.20949444861E+04  0.25500000920E-02 0.  1.
       -2    1    3    3    0  502  0.18604886288E+03  0.32364179987E+03  0.54415062226E+03  0.65989248648E+03  0.25500000920E-02 0. -1.
</event>
<event>
 5   0  0.1828646E-06  0.2298438E+04  0.7818609E-02  0.8478537E-01
        2   -1    0    0  501    0  0.00000000000E+00  0.00000000000E+00  0.12022328855E+04  0.12022328855E+04  0.25500000920E-02 0. -1.
       -2   -1    0    0    0  501  0.00000000000E+00  0.00000000000E+00 -0.10985431083E+04  0.10985431083E+04  0.25500000920E-02 0.  1.
    10030    2    1    2    0    0  0.00000000000E+00  0.00000000000E+00  0.10368977725E+03  0.23007759938E+04  0.22984382967E+04 0.  0.
        3    1    3    3  502    0 -0.74187891161E+03  0.82079616629E+03 -0.25929913435E+03  0.11363655738E+04  0.10100000352E+00 0. -1.
       -3    1    3    3    0  502  0.74187891161E+03 -0.82079616629E+03  0.36298891160E+03  0.11644104200E+04  0.10100000352E+00 0.  1.
</event>
<event>
 5   0  0.8108242E-07  0.2309709E+04  0.7818609E-02  0.8474103E-01
       -1   -1    0    0    0  501  0.00000000000E+00  0.00000000000E+00  0.10895637388E+04  0.10895637388E+04  0.50400001928E-02 0.  1.
        1   -1    0    0  501    0  0.00000000000E+00  0.00000000000E+00 -0.12240575583E+04  0.12240575583E+04  0.50400001928E-02 0. -1.
    10030    2    1    2    0    0  0.00000000000E+00  0.00000000000E+00 -0.13449381947E+03  0.23136212971E+04  0.23097088385E+04 0.  0.
        4    1    3    3  502    0  0.10436624354E+03  0.85149948372E+02 -0.12161615779E+04  0.12235985546E+04  0.12699999809E+01 0. -1.
       -4    1    3    3    0  502 -0.10436624354E+03 -0.85149948372E+02  0.10816677584E+04  0.10900227424E+04  0.12699999809E+01 0.  1.
</event>
<event>
 5   0  0.1888779E-06  0.2299490E+04  0.7818609E-02  0.8478122E-01
       -2   -1    0    0    0  501  0.00000000000E+00  0.00000000000E+00  0.93031247355E+03  0.93031247355E+03  0.25500000920E-02 0. -1.
        2   -1    0    0  501    0  0.00000000000E+00  0.00000000000E+00 -0.14209348856E+04  0.14209348856E+04  0.25500000920E-02 0.  1.
    10030    2    1    2    0    0  0.00000000000E+00  0.00000000000E+00 -0.49062241207E+03  0.23512473592E+04  0.22994898984E+04 0.  0.
        4    1    3    3  502    0  0.10272238582E+04 -0.45327928429E+03 -0.49839153949E+03  0.12284326208E+04  0.12699999809E+01 0.  1.
       -4    1    3    3    0  502 -0.10272238582E+04  0.45327928429E+03  0.77691274141E+01  0.11228147383E+04  0.12699999809E+01 0. -1.
</event>
<event>
 5   0  0.1744876E-06  0.2304698E+04  0.7818609E-02  0.8476071E-01
        2   -1    0    0  501    0  0.00000000000E+00  0.00000000000E+00  0.14948195715E+04  0.14948195715E+04  0.25500000920E-02 0. -1.
       -2   -1    0    0    0  501  0.00000000000E+00  0.00000000000E+00 -0.88833992471E+03  0.88833992471E+03  0.25500000920E-02 0.  1.
    10030    2    1    2    0    0  0.00000000000E+00  0.00000000000E+00  0.60647964677E+03  0.23831594962E+04  0.23046977291E+04 0.  0.
        1    1    3    3  502    0  0.27500985904E+02 -0.70960128628E+03  0.12416699652E+04  0.14303966556E+04  0.50400001928E-02 0. -1.
       -1    1    3    3    0  502 -0.27500985904E+02  0.70960128628E+03 -0.63519031848E+03  0.95276284060E+03  0.50400001928E-02 0.  1.
</event>
<event>
 5   0  0.8097672E-07  0.2299336E+04  0.7818609E-02  0.8478183E-01
       -1   -1    0    0    0  501  0.00000000000E+00  0.00000000000E+00  0.97623369509E+03  0.97623369511E+03  0.50400001928E-02 0. -1.
        1   -1    0    0  501    0  0.00000000000E+00  0.00000000000E+00 -0.13539145512E+04  0.13539145512E+04  0.50400001928E-02 0.  1.
    10030    2    1    2    0    0  0.00000000000E+00  0.00000000000E+00 -0.37768085609E+03  0.23301482463E+04  0.22993364305E+04 0.  0.
        3    1    3    3  502    0 -0.14584177855E+02  0.57737405224E+03  0.81854447026E+03  0.10017926704E+04  0.10100000352E+00 0. -1.
       -3    1    3    3    0  502  0.14584177855E+02 -0.57737405224E+03 -0.11962253264E+04  0.13283555759E+04  0.10100000352E+00 0.  1.
</event>
<event>
 5   0  0.1828646E-06  0.2285317E+04  0.7818609E-02  0.8483733E-01
       -2   -1    0    0    0  501  0.00000000000E+00  0.00000000000E+00  0.16274235317E+04  0.16274235317E+04  0.25500000920E-02 0.  1.
        2   -1    0    0  501    0  0.00000000000E+00  0.00000000000E+00 -0.80229177608E+03  0.80229177609E+03  0.25500000920E-02 0. -1.
    10030    2    1    2    0    0  0.00000000000E+00  0.00000000000E+00  0.82513175565E+03  0.24297153078E+04  0.22853170596E+04 0.  0.
        3    1    3    3  502    0  0.99199973727E+03 -0.18539326867E+03  0.98237201895E+03  0.14083639219E+04  0.10100000352E+00 0.  1.
       -3    1    3    3    0  502 -0.99199973727E+03  0.18539326867E+03 -0.15724026331E+03  0.10213513859E+04  0.10100000352E+00 0. -1.
</event>
<event>
 5   0  0.8108242E-07  0.2300998E+04  0.7818609E-02  0.8477528E-01
       -1   -1    0    0    0  501  0.00000000000E+00  0.00000000000E+00  0.93998692837E+03  0.93998692838E+03  0.50400001928E-02 0.  1.
        1   -1    0    0  501    0  0.00000000000E+00  0.00000000000E+00 -0.14081554738E+04  0.14081554738E+04  0.50400001928E-02 0. -1.
    10030    2    1    2    0    0  0.00000000000E+00  0.00000000000E+00 -0.46816854541E+03  0.23481424022E+04  0.23009978170E+04 0.  0.
        4    1    3    3  502    0 -0.21401067119E+03 -0.24107744078E+02  0.91923254216E+03  0.94412490178E+03  0.12699999809E+01 0.  1.
       -4    1    3    3    0  502  0.21401067119E+03  0.24107744078E+02 -0.13874010876E+04  0.14040175004E+04  0.12699999809E+01 0. -1.
</event>
<event>
 5   0  0.1689444E-06  0.2299658E+04  0.7818609E-02  0.8478056E-01
       -2   -1    0    0    0  501  0.00000000000E+00  0.00000000000E+00  0.15814011344E+04  0.15814011344E+04  0.25500000920E-02 0.  1.
        2   -1    0    0  501    0  0.00000000000E+00  0.00000000000E+00 -0.83603466447E+03  0.83603466447E+03  0.25500000920E-02 0. -1.
    10030    2    1    2    0    0  0.00000000000E+00  0.00000000000E+00  0.74536646990E+03  0.24174357988E+04  0.22996575108E+04 0.  0.
        2    1    3    3  502    0 -0.68363106334E+03 -0.72373144064E+03 -0.23207875518E+03  0.10222520127E+04  0.25500000920E-02 0. -1.
       -2    1    3    3    0  502  0.68363106334E+03  0.72373144064E+03  0.97744522508E+03  0.13951837861E+04  0.25500000920E-02 0.  1.
</event>
<event>
 5   0  0.8108242E-07  0.2300633E+04  0.7818609E-02  0.8477672E-01
       -1   -1    0    0    0  501  0.00000000000E+00  0.00000000000E+00  0.78695298031E+03  0.78695298032E+03  0.50400001928E-02 0.  1.
        1   -1    0    0  501    0  0.00000000000E+00  0.00000000000E+00 -0.16814570083E+04  0.16814570083E+04  0.50400001928E-02 0. -1.
    10030    2    1    2    0    0  0.00000000000E+00  0.00000000000E+00 -0.89450402797E+03  0.24684099886E+04  0.23006326121E+04 0.  0.
        4    1    3    3  502    0 -0.33795729963E+03 -0.10284947952E+03 -0.16218165229E+04  0.16598444501E+04  0.12699999809E+01 0. -1.
       -4    1    3    3    0  502  0.33795729963E+03  0.10284947952E+03  0.72731249493E+03  0.80856553847E+03  0.12699999809E+01 0.  1.
</event>
<event>
 5   0  0.8108242E-07  0.2300274E+04  0.7818609E-02  0.8477813E-01
        1   -1    0    0  501    0  0.00000000000E+00  0.00000000000E+00  0.16205819550E+04  0.16205819550E+04  0.50400001928E-02 0.  1.
       -1   -1    0    0    0  501  0.00000000000E+00  0.00000000000E+00 -0.81625962988E+03  0.81625962990E+03  0.50400001928E-02 0. -1.
    10030    2    1    2    0    0  0.00000000000E+00  0.00000000000E+00  0.80432232513E+03  0.24368415849E+04  0.23002744417E+04 0.  0.
        4    1    3    3  502    0  0.44797130209E+03 -0.57527393455E+03  0.13444620114E+04  0.15294437225E+04  0.12699999809E+01 0.  1.
       -4    1    3    3    0  502 -0.44797130209E+03  0.57527393455E+03 -0.54013968623E+03  0.90739786247E+03  0.12699999809E+01 0. -1.
</event>
<event>
 5   0  0.7607231E-07  0.2300767E+04  0.7818609E-02  0.8477619E-01
       -1   -1    0    0    0  501  0.00000000000E+00  0.00000000000E+00  0.73446520365E+03  0.73446520367E+03  0.50400001928E-02 0.  1.
        1   -1    0    0  501    0  0.00000000000E+00  0.00000000000E+00 -0.18018302999E+04  0.18018302999E+04  0.50400001928E-02 0. -1.
    10030    2    1    2    0    0  0.00000000000E+00  0.00000000000E+00 -0.10673650962E+04  0.25362955036E+04  0.23007665316E+04 0.  0.
        2    1    3    3  502    0 -0.71125639033E+03 -0.17467364239E+03  0.44425374097E+03  0.85659670820E+03  0.25500000920E-02 0.  1.
       -2    1    3    3    0  502  0.71125639033E+03  0.17467364239E+03 -0.15116188372E+04  0.16796987954E+04  0.25500000920E-02 0. -1.
</event>
<event>
 5   0  0.1689444E-06  0.2300385E+04  0.7818609E-02  0.8477769E-01
        2   -1    0    0  501    0  0.00000000000E+00  0.00000000000E+00  0.15146278661E+04  0.15146278661E+04  0.25500000920E-02 0.  1.
       -2   -1    0    0    0  501  0.00000000000E+00  0.00000000000E+00 -0.87344399456E+03  0.87344399457E+03  0.25500000920E-02 0. -1.
    10030    2    1    2    0    0  0.00000000000E+00  0.00000000000E+00  0.64118387158E+03  0.23880718607E+04  0.23003848493E+04 0.  0.
        2    1    3    3  502    0  0.43871468377E+03 -0.74807971877E+03  0.11049374717E+04  0.14046282980E+04  0.25500000920E-02 0.  1.
       -2    1    3    3    0  502 -0.43871468377E+03  0.74807971877E+03 -0.46375360007E+03  0.98344356268E+03  0.25500000920E-02 0. -1.
</event>
<event>
 5   0  0.1744876E-06  0.2306135E+04  0.7818609E-02  0.8475506E-01
        2   -1    0    0  501    0  0.00000000000E+00  0.00000000000E+00  0.15923530972E+04  0.15923530972E+04  0.25500000920E-02 0.  1.
       -2   -1    0    0    0  501  0.00000000000E+00  0.00000000000E+00 -0.83496847017E+03  0.83496847018E+03  0.25500000920E-02 0. -1.
    10030    2    1    2    0    0  0.00000000000E+00  0.00000000000E+00  0.75738462702E+03  0.24273215674E+04  0.23061349740E+04 0.  0.
        1    1    3    3  502    0 -0.73959380300E+03 -0.48961622506E+03 -0.39680294851E+03  0.97168699757E+03  0.50400001928E-02 0. -1.
       -1    1    3    3    0  502  0.73959380300E+03  0.48961622506E+03  0.11541875755E+04  0.14556345698E+04  0.50400001928E-02 0.  1.
</event>
<event>
 5   0  0.1825521E-06  0.2300294E+04  0.7818609E-02  0.8477805E-01
        2   -1    0    0  501    0  0.00000000000E+00  0.00000000000E+00  0.82882770930E+03  0.82882770930E+03  0.25500000920E-02 0. -1.
       -2   -1    0    0    0  501  0.00000000000E+00  0.00000000000E+00 -0.15960347277E+04  0.15960347277E+04  0.25500000920E-02 0.  1.
    10030    2    1    2    0    0  0.00000000000E+00  0.00000000000E+00 -0.76720701838E+03  0.24248624370E+04  0.23002937267E+04 0.  0.
        5    1    3    3  502    0  0.70840717928E+03  0.86555003616E+03 -0.10114130164E+03  0.11230624424E+04  0.46999998093E+01 0. -1.
       -5    1    3    3    0  502 -0.70840717928E+03 -0.86555003616E+03 -0.66606571674E+03  0.13017999945E+04  0.46999998093E+01 0.  1.
</event>
<event>
 5   0  0.1744876E-06  0.2300840E+04  0.7818609E-02  0.8477590E-01
       -2   -1    0    0    0  501  0.00000000000E+00  0.00000000000E+00  0.12485304729E+04  0.12485304729E+04  0.25500000920E-02 0. -1.
        2   -1    0    0  501    0  0.00000000000E+00  0.00000000000E+00 -0.10600192461E+04  0.10600192461E+04  0.25500000920E-02 0.  1.
    10030    2    1    2    0    0  0.00000000000E+00  0.00000000000E+00  0.18851122680E+03  0.23085497190E+04  0.23008401341E+04 0.  0.
        1    1    3    3  502    0 -0.47670829083E+03 -0.20299607950E+02  0.11445695355E+04  0.12400412454E+04  0.50400001928E-02 0. -1.
       -1    1    3    3    0  502  0.47670829083E+03  0.20299607950E+02 -0.95605830868E+03  0.10685084736E+04  0.50400001928E-02 0.  1.
</event>
<event>
 5   0  0.7761069E-07  0.2299987E+04  0.7818609E-02  0.8477926E-01
       -1   -1    0    0    0  501  0.00000000000E+00  0.00000000000E+00  0.67793786590E+03  0.67793786591E+03  0.50400001928E-02 0.  1.
        1   -1    0    0  501    0  0.00000000000E+00  0.00000000000E+00 -0.19507470244E+04  0.19507470244E+04  0.50400001928E-02 0. -1.
    10030    2    1    2    0    0  0.00000000000E+00  0.00000000000E+00 -0.12728091585E+04  0.26286848903E+04  0.22999871953E+04 0.  0.
        1    1    3    3  502    0 -0.11287273598E+03 -0.73405851375E+03  0.36708533500E+03  0.82845265364E+03  0.50400001928E-02 0.  1.
       -1    1    3    3    0  502  0.11287273598E+03  0.73405851375E+03 -0.16398944935E+04  0.18002322367E+04  0.50400001928E-02 0. -1.
</event>
<event>
 5   0  0.1825521E-06  0.2298492E+04  0.7818609E-02  0.8478516E-01
        2   -1    0    0  501    0  0.00000000000E+00  0.00000000000E+00  0.18612660779E+04  0.18612660779E+04  0.25500000920E-02 0.  1.
       -2   -1    0    0    0  501  0.00000000000E+00  0.00000000000E+00 -0.70960628529E+03  0.70960628529E+03  0.25500000920E-02 0. -1.
    10030    2    1    2    0    0  0.00000000000E+00  0.00000000000E+00  0.11516597927E+04  0.25708723632E+04  0.22984917729E+04 0.  0.
        5    1    3    3  502    0 -0.22351696196E+03 -0.86174002257E+03  0.13887202280E+04  0.16495822684E+04  0.46999998093E+01 0.  1.
       -5    1    3    3    0  502  0.22351696196E+03  0.86174002257E+03 -0.23706043531E+03  0.92129009480E+03  0.46999998093E+01 0. -1.
</event>
<event>
 5   0  0.6319125E-07  0.2299737E+04  0.7818609E-02  0.8478025E-01
       -3   -1    0    0    0  501  0.00000000000E+00  0.00000000000E+00  0.18373451045E+04  0.18373451073E+04  0.10100000352E+00 0. -1.
        3   -1    0    0  501    0  0.00000000000E+00  0.00000000000E+00 -0.71962390625E+03  0.71962391334E+03  0.10100000352E+00 0.  1.
    10030    2    1    2    0    0  0.00000000000E+00  0.00000000000E+00  0.11177211983E+04  0.25569690206E+04  0.22997369187E+04 0.  0.
        1    1    3    3  502    0 -0.49909454195E+03  0.42781273373E+03  0.16078266540E+04  0.17370163057E+04  0.50400001928E-02 0. -1.
       -1    1    3    3    0  502  0.49909454195E+03 -0.42781273373E+03 -0.49010545573E+03  0.81995271492E+03  0.50400001928E-02 0.  1.
</event>
<event>
 5   0  0.1888779E-06  0.2300160E+04  0.7818609E-02  0.8477858E-01
       -2   -1    0    0    0  501  0.00000000000E+00  0.00000000000E+00  0.83340169646E+03  0.83340169646E+03  0.25500000920E-02 0. -1.
        2   -1    0    0  501    0  0.00000000000E+00  0.00000000000E+00 -0.15870902816E+04  0.15870902816E+04  0.25500000920E-02 0.  1.
    10030    2    1    2    0    0  0.00000000000E+00  0.00000000000E+00 -0.75368858517E+03  0.24204919781E+04  0.23001597624E+04 0.  0.
        4    1    3    3  502    0  0.15958665251E+03 -0.15675003663E+03 -0.15639764040E+04  0.15798931226E+04  0.12699999809E+01 0.  1.
       -4    1    3    3    0  502 -0.15958665251E+03  0.15675003663E+03  0.81028781883E+03  0.84059885551E+03  0.12699999809E+01 0. -1.
</event>
<event>
 5   0  0.1888779E-06  0.2297921E+04  0.7818609E-02  0.8478741E-01
       -2   -1    0    0    0  501  0.00000000000E+00  0.00000000000E+00  0.78662642041E+03  0.78662642042E+03  0.25500000920E-02 0.  1.
        2   -1    0    0  501    0  0.00000000000E+00  0.00000000000E+00 -0.16781927251E+04  0.16781927252E+04  0.25500000920E-02 0. -1.
    10030    2    1    2    0    0  0.00000000000E+00  0.00000000000E+00 -0.89156630474E+03  0.24648191456E+04  0.22979214400E+04 0.  0.
        4    1    3    3  502    0 -0.88353568655E+00 -0.31013536486E+03  0.74087923639E+03  0.80317394192E+03  0.12699999809E+01 0.  1.
       -4    1    3    3    0  502  0.88353568655E+00  0.31013536486E+03 -0.16324455411E+04  0.16616452036E+04  0.12699999809E+01 0. -1.
</event>
<event>
 5   0  0.7607231E-07  0.2300072E+04  0.7818609E-02  0.8477893E-01
       -1   -1    0    0    0  501  0.00000000000E+00  0.00000000000E+00  0.12747179368E+04  0.12747179368E+04  0.50400001928E-02 0.  1.
        1   -1    0    0  501    0  0.00000000000E+00  0.00000000000E+00 -0.10375491893E+04  0.10375491893E+04  0.50400001928E-02 0. -1.
    10030    2    1    2    0    0  0.00000000000E+00  0.00000000000E+00  0.23716874751E+03  0.23122671261E+04  0.23000717918E+04 0.  0.
        2    1    3    3  502    0 -0.79104331062E+03 -0.23771185907E+03  0.92303097299E+03  0.12386454797E+04  0.25500000920E-02 0.  1.
       -2    1    3    3    0  502  0.79104331062E+03  0.23771185907E+03 -0.68586222549E+03  0.10736216464E+04  0.25500000920E-02 0. -1.
</event>
<event>
 5   0  0.7761069E-07  0.2300472E+04  0.7818609E-02  0.8477735E-01
       -1   -1    0    0    0  501  0.00000000000E+00  0.00000000000E+00  0.14240479425E+04  0.14240479425E+04  0.50400001928E-02 0. -1.
        1   -1    0    0  501    0  0.00000000000E+00  0.00000000000E+00 -0.92907182025E+03  0.92907182026E+03  0.50400001928E-02 0.  1.
    10030    2    1    2    0    0  0.00000000000E+00  0.00000000000E+00  0.49497612223E+03  0.23531197627E+04  0.23004719638E+04 0.  0.
        1    1    3    3  502    0  0.27320215097E+02  0.10644554817E+04  0.69245031193E+03  0.12701571954E+04  0.50400001928E-02 0. -1.
       -1    1    3    3    0  502 -0.27320215097E+02 -0.10644554817E+04 -0.19747418970E+03  0.10829625673E+04  0.50400001928E-02 0.  1.
</event>
<event>
 5   0  0.7932912E-07  0.2299134E+04  0.7818609E-02  0.8478263E-01
        1   -1    0    0  501    0  0.00000000000E+00  0.00000000000E+00  0.17535201430E+04  0.17535201430E+04  0.50400001928E-02 0.  1.
       -1   -1    0    0    0  501  0.00000000000E+00  0.00000000000E+00 -0.75362906031E+03  0.75362906033E+03  0.50400001928E-02 0. -1.
    10030    2    1    2    0    0  0.00000000000E+00  0.00000000000E+00  0.99989108266E+03  0.25071492033E+04  0.22991335217E+04 0.  0.
        5    1    3    3  502    0  0.27972240035E+03  0.23141936447E+03  0.16893551726E+04  0.17279301296E+04  0.46999998093E+01 0.  1.
       -5    1    3    3    0  502 -0.27972240035E+03 -0.23141936447E+03 -0.68946408995E+03  0.77921907372E+03  0.46999998093E+01 0. -1.
</event>
<event>
 5   0  0.1888779E-06  0.2300010E+04  0.7818609E-02  0.8477917E-01
       -2   -1    0    0    0  501  0.00000000000E+00  0.00000000000E+00  0.13131999638E+04  0.13131999639E+04  0.25500000920E-02 0.  1.
        2   -1    0    0  501    0  0.00000000000E+00  0.00000000000E+00 -0.10070904981E+04  0.10070904981E+04  0.25500000920E-02 0. -1.
    10030    2    1    2    0    0  0.00000000000E+00  0.00000000000E+00  0.30610946572E+03  0.23202904620E+04  0.23000097441E+04 0.  0.
        4    1    3    3  502    0  0.61898438058E+03  0.21044727266E+03 -0.80137415361E+03  0.10342300832E+04  0.12699999809E+01 0. -1.
       -4    1    3    3    0  502 -0.61898438058E+03 -0.21044727266E+03  0.11074836193E+04  0.12860603788E+04  0.12699999809E+01 0.  1.
</event>
<event>
 5   0  0.1825521E-06  0.2302397E+04  0.7818609E-02  0.8476976E-01
       -2   -1    0    0    0  501  0.00000000000E+00  0.00000000000E+00  0.69276105691E+03  0.69276105692E+03  0.25500000920E-02 0. -1.
        2   -1    0    0  501    0  0.00000000000E+00  0.00000000000E+00 -0.19130093352E+04  0.19130093352E+04  0.25500000920E-02 0.  1.
    10030    2    1    2    0    0  0.00000000000E+00  0.00000000000E+00 -0.12202482783E+04  0.26057703921E+04  0.23023973323E+04 0.  0.
        5    1    3    3  502    0  0.12124870450E+03 -0.59729593917E+03 -0.17154193564E+04  0.18204805260E+04  0.46999998093E+01 0.  1.
       -5    1    3    3    0  502 -0.12124870450E+03  0.59729593917E+03  0.49517107807E+03  0.78528986614E+03  0.46999998093E+01 0. -1.
</event>
<event>
 5   0  0.1744876E-06  0.2298610E+04  0.7818609E-02  0.8478470E-01
        2   -1    0    0  501    0  0.00000000000E+00  0.00000000000E+00  0.16828179821E+04  0.16828179821E+04  0.25500000920E-02 0.  1.
       -2   -1    0    0    0  501  0.00000000000E+00  0.00000000000E+00 -0.78493426264E+03  0.78493426264E+03  0.25500000920E-02 0. -1.
    10030    2    1    2    0    0  0.00000000000E+00  0.00000000000E+00  0.89788371944E+03  0.24677522447E+04  0.22986095727E+04 0.  0.
        1    1    3    3  502    0  0.42788010367E+03  0.83176414751E+02 -0.69274970122E+03  0.81847531891E+03  0.50400001928E-02 0. -1.
       -1    1    3    3    0  502 -0.42788010367E+03 -0.83176414751E+02  0.15906334207E+04  0.16492769258E+04  0.50400001928E-02 0.  1.
</event>
<event>
 5   0  0.1744876E-06  0.2300343E+04  0.7818609E-02  0.8477786E-01
       -2   -1    0    0    0  501  0.00000000000E+00  0.00000000000E+00  0.13507743547E+04  0.13507743547E+04  0.25500000920E-02 0. -1.
        2   -1    0    0  501    0  0.00000000000E+00  0.00000000000E+00 -0.97936021083E+03  0.97936021083E+03  0.25500000920E-02 0.  1.
    10030    2    1    2    0    0  0.00000000000E+00  0.00000000000E+00  0.37141414392E+03  0.23301345656E+04  0.23003431543E+04 0.  0.
        1    1    3    3  502    0  0.68318022935E+03 -0.91383591657E+03  0.33271883422E+03  0.11885003706E+04  0.50400001928E-02 0.  1.
       -1    1    3    3    0  502 -0.68318022935E+03  0.91383591657E+03  0.38695309701E+02  0.11416341950E+04  0.50400001928E-02 0. -1.
</event>
<event>
 5   0  0.7932912E-07  0.2300812E+04  0.7818609E-02  0.8477601E-01
        1   -1    0    0  501    0  0.00000000000E+00  0.00000000000E+00  0.17504451266E+04  0.17504451266E+04  0.50400001928E-02 0.  1.
       -1   -1    0    0    0  501  0.00000000000E+00  0.00000000000E+00 -0.75605563166E+03  0.75605563168E+03  0.50400001928E-02 0. -1.
    10030    2    1    2    0    0  0.00000000000E+00  0.00000000000E+00  0.99438949496E+03  0.25065007583E+04  0.23008119401E+04 0.  0.
        5    1    3    3  502    0  0.44718644730E+03  0.10261282373E+04  0.78644371273E+03  0.13680024420E+04  0.46999998093E+01 0.  1.
       -5    1    3    3    0  502 -0.44718644730E+03 -0.10261282373E+04  0.20794578222E+03  0.11384983163E+04  0.46999998093E+01 0. -1.
</event>
<event>
 5   0  0.7932912E-07  0.2298828E+04  0.7818609E-02  0.8478383E-01
        1   -1    0    0  501    0  0.00000000000E+00  0.00000000000E+00  0.99906638400E+03  0.99906638401E+03  0.50400001928E-02 0.  1.
       -1   -1    0    0    0  501  0.00000000000E+00  0.00000000000E+00 -0.13223869875E+04  0.13223869875E+04  0.50400001928E-02 0. -1.
    10030    2    1    2    0    0  0.00000000000E+00  0.00000000000E+00 -0.32332060347E+03  0.23214533715E+04  0.22988278629E+04 0.  0.
        5    1    3    3  502    0  0.31842727854E+03  0.79008581972E+03  0.61762044028E+03  0.10521922982E+04  0.46999998093E+01 0.  1.
       -5    1    3    3    0  502 -0.31842727854E+03 -0.79008581972E+03 -0.94094104374E+03  0.12692610732E+04  0.46999998093E+01 0. -1.
</event>
<event>
 5   0  0.1888779E-06  0.2297482E+04  0.7818609E-02  0.8478915E-01
        2   -1    0    0  501    0  0.00000000000E+00  0.00000000000E+00  0.12950390590E+04  0.12950390590E+04  0.25500000920E-02 0. -1.
       -2   -1    0    0    0  501  0.00000000000E+00  0.00000000000E+00 -0.10189697249E+04  0.10189697249E+04  0.25500000920E-02 0.  1.
    10030    2    1    2    0    0  0.00000000000E+00  0.00000000000E+00  0.27606933409E+03  0.23140087840E+04  0.22974817464E+04 0.  0.
        4    1    3    3  502    0 -0.28502131741E+03 -0.36096637462E+03 -0.92218670082E+03  0.10305162779E+04  0.12699999809E+01 0.  1.
       -4    1    3    3    0  502  0.28502131741E+03  0.36096637462E+03  0.11982560349E+04  0.12834925061E+04  0.12699999809E+01 0. -1.
</event>
<event>
 5   0  0.8108242E-07  0.2297007E+04  0.7818609E-02  0.8479102E-01
       -1   -1    0    0    0  501  0.00000000000E+00  0.00000000000E+00  0.46890847820E+03  0.46890847823E+03  0.50400001928E-02 0. -1.
        1   -1    0    0  501    0  0.00000000000E+00  0.00000000000E+00 -0.28130430819E+04  0.28130430819E+04  0.50400001928E-02 0.  1.
    10030    2    1    2    0    0  0.00000000000E+00  0.00000000000E+00 -0.23441346037E+04  0.32819515601E+04  0.22970065308E+04 0.  0.
        4    1    3    3  502    0  0.11438238873E+04  0.70208619227E+02 -0.10632928951E+04  0.15632836368E+04  0.12699999809E+01 0.  1.
       -4    1    3    3    0  502 -0.11438238873E+04 -0.70208619227E+02 -0.12808417086E+04  0.17186679233E+04  0.12699999809E+01 0. -1.
</event>
<event>
 5   0  0.1888779E-06  0.2301250E+04  0.7818609E-02  0.8477428E-01
        2   -1    0    0  501    0  0.00000000000E+00  0.00000000000E+00  0.11798544114E+04  0.11798544114E+04  0.25500000920E-02 0.  1.
       -2   -1    0    0    0  501  0.00000000000E+00  0.00000000000E+00 -0.11221195132E+04  0.11221195132E+04  0.25500000920E-02 0. -1.
    10030    2    1    2    0    0  0.00000000000E+00  0.00000000000E+00  0.57734898197E+02  0.23019739246E+04  0.23012497976E+04 0.  0.
        4    1    3    3  502    0 -0.69148632817E+03 -0.79083577782E+03 -0.44070701573E+03  0.11392097507E+04  0.12699999809E+01 0. -1.
       -4    1    3    3    0  502  0.69148632817E+03  0.79083577782E+03  0.49844191393E+03  0.11627641738E+04  0.12699999809E+01 0.  1.
</event>
<event>
 5   0  0.8097672E-07  0.2303251E+04  0.7818609E-02  0.8476640E-01
        1   -1    0    0  501    0  0.00000000000E+00  0.00000000000E+00  0.10924026247E+04  0.10924026247E+04  0.50400001928E-02 0. -1.
       -1   -1    0    0    0  501  0.00000000000E+00  0.00000000000E+00 -0.12140591977E+04  0.12140591977E+04  0.50400001928E-02 0.  1.
    10030    2    1    2    0    0  0.00000000000E+00  0.00000000000E+00 -0.12165657307E+03  0.23064618224E+04  0.23032511406E+04 0.  0.
        3    1    3    3  502    0  0.71592090803E+03 -0.28425054969E+03 -0.91811764296E+03  0.11984494725E+04  0.10100000352E+00 0.  1.
       -3    1    3    3    0  502 -0.71592090803E+03  0.28425054969E+03  0.79646106989E+03  0.11080123499E+04  0.10100000352E+00 0. -1.
</event>
<event>
 5   0  0.8108242E-07  0.2298764E+04  0.7818609E-02  0.8478409E-01
        1   -1    0    0  501    0  0.00000000000E+00  0.00000000000E+00  0.13481418428E+04  0.13481418428E+04  0.50400001928E-02 0.  1.
       -1   -1    0    0    0  501  0.00000000000E+00  0.00000000000E+00 -0.97992579992E+03  0.97992579993E+03  0.50400001928E-02 0. -1.
    10030    2    1    2    0    0  0.00000000000E+00  0.00000000000E+00  0.36821604283E+03  0.23280676427E+04  0.22987639928E+04 0.  0.
        4    1    3    3  502    0  0.51088026979E+03 -0.15184620270E+03 -0.84721586574E+03  0.10009157084E+04  0.12699999809E+01 0. -1.
       -4    1    3    3    0  502 -0.51088026979E+03  0.15184620270E+03  0.12154319086E+04  0.13271519343E+04  0.12699999809E+01 0.  1.
</event>
<event>
 5   0  0.7607231E-07  0.2300737E+04  0.7818609E-02  0.8477630E-01
        1   -1    0    0  501    0  0.00000000000E+00  0.00000000000E+00  0.10009821385E+04  0.10009821385E+04  0.50400001928E-02 0. -1.
       -1   -1    0    0    0  501  0.00000000000E+00  0.00000000000E+00 -0.13220496528E+04  0.13220496528E+04  0.50400001928E-02 0.  1.
    10030    2    1    2    0    0  0.00000000000E+00  0.00000000000E+00 -0.32106751436E+03  0.23230317913E+04  0.23007373502E+04 0.  0.
        2    1    3    3  502    0  0.65347134302E+03 -0.92560662766E+03  0.40330291365E+02  0.11337543639E+04  0.25500000920E-02 0. -1.
       -2    1    3    3    0  502 -0.65347134302E+03  0.92560662766E+03 -0.36139780573E+03  0.11892774274E+04  0.25500000920E-02 0.  1.
</event>
<event>
 5   0  0.1744876E-06  0.2297111E+04  0.7818609E-02  0.8479061E-01
       -2   -1    0    0    0  501  0.00000000000E+00  0.00000000000E+00  0.62011971265E+03  0.62011971266E+03  0.25500000920E-02 0. -1.
        2   -1    0    0  501    0  0.00000000000E+00  0.00000000000E+00 -0.21272984354E+04  0.21272984354E+04  0.25500000920E-02 0.  1.
    10030    2    1    2    0    0  0.00000000000E+00  0.00000000000E+00 -0.15071787228E+04  0.27474181481E+04  0.22971109634E+04 0.  0.
        1    1    3    3  502    0  0.88628103951E+03  0.72871455111E+03 -0.81528324211E+03  0.14075531048E+04  0.50400001928E-02 0.  1.
       -1    1    3    3    0  502 -0.88628103951E+03 -0.72871455111E+03 -0.69189548067E+03  0.13398650433E+04  0.50400001928E-02 0. -1.
</event>
<event>
 5   0  0.7761069E-07  0.2300313E+04  0.7818609E-02  0.8477798E-01
        1   -1    0    0  501    0  0.00000000000E+00  0.00000000000E+00  0.12068313825E+04  0.12068313825E+04  0.50400001928E-02 0. -1.
       -1   -1    0    0    0  501  0.00000000000E+00  0.00000000000E+00 -0.10961432651E+04  0.10961432651E+04  0.50400001928E-02 0.  1.
    10030    2    1    2    0    0  0.00000000000E+00  0.00000000000E+00  0.11068811742E+03  0.23029746475E+04  0.23003131021E+04 0.  0.
        1    1    3    3  502    0 -0.70798475518E+03 -0.90289361319E+03 -0.24753520046E+02  0.11476375853E+04  0.50400001928E-02 0.  1.
       -1    1    3    3    0  502  0.70798475518E+03  0.90289361319E+03  0.13544163746E+03  0.11553370623E+04  0.50400001928E-02 0. -1.
</event>
<event>
 5   0  0.1744876E-06  0.2300306E+04  0.7818609E-02  0.8477801E-01
        2   -1    0    0  501    0  0.00000000000E+00  0.00000000000E+00  0.10948630267E+04  0.10948630267E+04  0.25500000920E-02 0.  1.
       -2   -1    0    0    0  501  0.00000000000E+00  0.00000000000E+00 -0.12082345743E+04  0.12082345743E+04  0.25500000920E-02 0. -1.
    10030    2    1    2    0    0  0.00000000000E+00  0.00000000000E+00 -0.11337154764E+03  0.23030976010E+04  0.23003055127E+04 0.  0.
        1    1    3    3  502    0  0.44680962411E+03 -0.23357855691E+03 -0.10916975599E+04  0.12024979604E+04  0.50400001928E-02 0. -1.
       -1    1    3    3    0  502 -0.44680962411E+03  0.23357855691E+03  0.97832601229E+03  0.11005996406E+04  0.50400001928E-02 0.  1.
</event>
<event>
 5   0  0.1689444E-06  0.2298364E+04  0.7818609E-02  0.8478567E-01
       -2   -1    0    0    0  501  0.00000000000E+00  0.00000000000E+00  0.89719676109E+03  0.89719676110E+03  0.25500000920E-02 0. -1.
        2   -1    0    0  501    0  0.00000000000E+00  0.00000000000E+00 -0.14719389482E+04  0.14719389482E+04  0.25500000920E-02 0.  1.
    10030    2    1    2    0    0  0.00000000000E+00  0.00000000000E+00 -0.57474218706E+03  0.23691357093E+04  0.22983636412E+04 0.  0.
        2    1    3    3  502    0  0.48642167461E+03  0.16501369689E+03  0.77228310940E+03  0.92750027857E+03  0.25500000920E-02 0. -1.
       -2    1    3    3    0  502 -0.48642167461E+03 -0.16501369689E+03 -0.13470252965E+04  0.14416354307E+04  0.25500000920E-02 0.  1.
</event>
<event>
 5   0  0.1888779E-06  0.2299456E+04  0.7818609E-02  0.8478136E-01
        2   -1    0    0  501    0  0.00000000000E+00  0.00000000000E+00  0.10413937151E+04  0.10413937151E+04  0.25500000920E-02 0.  1.
       -2   -1    0    0    0  501  0.00000000000E+00  0.00000000000E+00 -0.12693319739E+04  0.12693319739E+04  0.25500000920E-02 0. -1.
    10030    2    1    2    0    0  0.00000000000E+00  0.00000000000E+00 -0.22793825879E+03  0.23107256889E+04  0.22994558834E+04 0.  0.
        4    1    3    3  502    0 -0.41091782369E+03 -0.10328878917E+04  0.18100292615E+03  0.11262657443E+04  0.12699999809E+01 0.  1.
       -4    1    3    3    0  502  0.41091782369E+03  0.10328878917E+04 -0.40894118494E+03  0.11844599446E+04  0.12699999809E+01 0. -1.
</event>
<event>
 5   0  0.7607231E-07  0.2297748E+04  0.7818609E-02  0.8478810E-01
       -1   -1    0    0    0  501  0.00000000000E+00  0.00000000000E+00  0.91551560370E+03  0.91551560371E+03  0.50400001928E-02 0. -1.
        1   -1    0    0  501    0  0.00000000000E+00  0.00000000000E+00 -0.14417135366E+04  0.14417135366E+04  0.50400001928E-02 0.  1.
    10030    2    1    2    0    0  0.00000000000E+00  0.00000000000E+00 -0.52619793288E+03  0.23572291403E+04  0.22977478006E+04 0.  0.
        2    1    3    3  502    0 -0.56674150912E+03  0.60492746334E+03 -0.10791647147E+04  0.13607827364E+04  0.25500000920E-02 0.  1.
       -2    1    3    3    0  502  0.56674150912E+03 -0.60492746334E+03  0.55296678186E+03  0.99644640393E+03  0.25500000920E-02 0. -1.
</event>
<event>
 5   0  0.7761069E-07  0.2301698E+04  0.7818609E-02  0.8477252E-01
       -1   -1    0    0    0  501  0.00000000000E+00  0.00000000000E+00  0.22520654871E+04  0.22520654871E+04  0.50400001928E-02 0.  1.
        1   -1    0    0  501    0  0.00000000000E+00  0.00000000000E+00 -0.58810633483E+03  0.58810633485E+03  0.50400001928E-02 0. -1.
    10030    2    1    2    0    0  0.00000000000E+00  0.00000000000E+00  0.16639591523E+04  0.28401718220E+04  0.23016984854E+04 0.  0.
        1    1    3    3  502    0 -0.77699887556E+03  0.63348786331E+03  0.13458729575E+03  0.10115077191E+04  0.50400001928E-02 0. -1.
       -1    1    3    3    0  502  0.77699887556E+03 -0.63348786331E+03  0.15293718565E+04  0.18286641029E+04  0.50400001928E-02 0.  1.
</event>
<event>
 5   0  0.1888779E-06  0.2299681E+04  0.7818609E-02  0.8478047E-01
       -2   -1    0    0    0  501  0.00000000000E+00  0.00000000000E+00  0.11132422809E+04  0.11132422809E+04  0.25500000920E-02 0.  1.
        2   -1    0    0  501    0  0.00000000000E+00  0.00000000000E+00 -0.11876419073E+04  0.11876419073E+04  0.25500000920E-02 0. -1.
    10030    2    1    2    0    0  0.00000000000E+00  0.00000000000E+00 -0.74399626387E+02  0.23008841882E+04  0.22996810090E+04 0.  0.
        4    1    3    3  502    0  0.30653184612E+03  0.84867650320E+03  0.67585671434E+03  0.11273852451E+04  0.12699999809E+01 0. -1.
       -4    1    3    3    0  502 -0.30653184612E+03 -0.84867650320E+03 -0.75025634072E+03  0.11734989431E+04  0.12699999809E+01 0.  1.
</event>
<event>
 5   0  0.1828646E-06  0.2299012E+04  0.7818609E-02  0.8478311E-01
       -2   -1    0    0    0  501  0.00000000000E+00  0.00000000000E+00  0.11653906339E+04  0.11653906339E+04  0.25500000920E-02 0. -1.
        2   -1    0    0  501    0  0.00000000000E+00  0.00000000000E+00 -0.11338378210E+04  0.11338378210E+04  0.25500000920E-02 0.  1.
    10030    2    1    2    0    0  0.00000000000E+00  0.00000000000E+00  0.31552812889E+02  0.22992284549E+04  0.22990119416E+04 0.  0.
        3    1    3    3  502    0  0.14610941970E+03  0.14255245014E+03  0.11471189051E+04  0.11651398870E+04  0.10100000352E+00 0. -1.
       -3    1    3    3    0  502 -0.14610941970E+03 -0.14255245014E+03 -0.11155660922E+04  0.11340885679E+04  0.10100000352E+00 0.  1.
</event>
<event>
 5   0  0.7607231E-07  0.2298552E+04  0.7818609E-02  0.8478492E-01
       -1   -1    0    0    0  501  0.00000000000E+00  0.00000000000E+00  0.14760339533E+04  0.14760339533E+04  0.50400001928E-02 0.  1.
        1   -1    0    0  501    0  0.00000000000E+00  0.00000000000E+00 -0.89485424087E+03  0.89485424089E+03  0.50400001928E-02 0. -1.
    10030    2    1    2    0    0  0.00000000000E+00  0.00000000000E+00  0.58117971247E+03  0.23708881942E+04  0.22985519292E+04 0.  0.
        2    1    3    3  502    0  0.64908647564E+03 -0.92091213705E+03  0.56641950031E+02  0.11280960631E+04  0.25500000920E-02 0. -1.
       -2    1    3    3    0  502 -0.64908647564E+03  0.92091213705E+03  0.52453776244E+03  0.12427921312E+04  0.25500000920E-02 0.  1.
</event>
<event>
 5   0  0.6319125E-07  0.2299821E+04  0.7818609E-02  0.8477992E-01
       -3   -1    0    0    0  501  0.00000000000E+00  0.00000000000E+00  0.15072726120E+04  0.15072726154E+04  0.10100000352E+00 0.  1.
        3   -1    0    0  501    0  0.00000000000E+00  0.00000000000E+00 -0.87727594911E+03  0.87727595492E+03  0.10100000352E+00 0. -1.
    10030    2    1    2    0    0  0.00000000000E+00  0.00000000000E+00  0.62999666292E+03  0.23845485703E+04  0.22998208819E+04 0.  0.
        5    1    3    3  502    0 -0.83178757932E+03  0.73690329373E+03  0.62148069134E+03  0.12732467872E+04  0.46999998093E+01 0. -1.
       -5    1    3    3    0  502  0.83178757932E+03 -0.73690329373E+03  0.85159715757E+01  0.11113017831E+04  0.46999998093E+01 0.  1.
</event>
<event>
 5   0  0.8097672E-07  0.2299312E+04  0.7818609E-02  0.8478192E-01
        1   -1    0    0  501    0  0.00000000000E+00  0.00000000000E+00  0.29441117711E+04  0.29441117711E+04  0.50400001928E-02 0. -1.
       -1   -1    0    0    0  501  0.00000000000E+00  0.00000000000E+00 -0.44893313770E+03  0.44893313773E+03  0.50400001928E-02 0.  1.
    10030    2    1    2    0    0  0.00000000000E+00  0.00000000000E+00  0.24951786334E+04  0.33930449088E+04  0.22993123626E+04 0.  0.
        3    1    3    3  502    0  0.61625852995E+03  0.39519398604E+03  0.25556732586E+04  0.26584617126E+04  0.10100000352E+00 0. -1.
       -3    1    3    3    0  502 -0.61625852995E+03 -0.39519398604E+03 -0.60494625195E+02  0.73458319625E+03  0.10100000352E+00 0.  1.
</event>
<event>
 5   0  0.1689444E-06  0.2298996E+04  0.7818609E-02  0.8478317E-01
        2   -1    0    0  501    0  0.00000000000E+00  0.00000000000E+00  0.16991348877E+04  0.16991348877E+04  0.25500000920E-02 0.  1.
       -2   -1    0    0    0  501  0.00000000000E+00  0.00000000000E+00 -0.77765789722E+03  0.77765789722E+03  0.25500000920E-02 0. -1.
    10030    2    1    2    0    0  0.00000000000E+00  0.00000000000E+00  0.92147699048E+03  0.24767927849E+04  0.22989960103E+04 0.  0.
        2    1    3    3  502    0  0.83667830711E+03 -0.70074110523E+03  0.84959135180E+03  0.13830669366E+04  0.25500000920E-02 0.  1.
       -2    1    3    3    0  502 -0.83667830711E+03  0.70074110523E+03  0.71885638688E+02  0.10937258483E+04  0.25500000920E-02 0. -1.
</event>
<event>
 5   0  0.1888779E-06  0.2300339E+04  0.7818609E-02  0.8477788E-01
        2   -1    0    0  501    0  0.00000000000E+00  0.00000000000E+00  0.14130122139E+04  0.14130122139E+04  0.25500000920E-02 0.  1.
       -2   -1    0    0    0  501  0.00000000000E+00  0.00000000000E+00 -0.93621931753E+03  0.93621931754E+03  0.25500000920E-02 0. -1.
    10030    2    1    2    0    0  0.00000000000E+00  0.00000000000E+00  0.47679289633E+03  0.23492315314E+04  0.23003385234E+04 0.  0.
        4    1    3    3  502    0 -0.79014497770E+03 -0.67739068000E+03 -0.26160186295E+03  0.10731376271E+04  0.12699999809E+01 0.  1.
       -4    1    3    3    0  502  0.79014497770E+03  0.67739068000E+03  0.73839475928E+03  0.12760939043E+04  0.12699999809E+01 0. -1.
</event>
<event>
 5   0  0.7761069E-07  0.2299487E+04  0.7818609E-02  0.8478124E-01
        1   -1    0    0  501    0  0.00000000000E+00  0.00000000000E+00  0.14505785716E+04  0.14505785716E+04  0.50400001928E-02 0.  1.
       -1   -1    0    0    0  501  0.00000000000E+00  0.00000000000E+00 -0.91129816823E+03  0.91129816824E+03  0.50400001928E-02 0. -1.
    10030    2    1    2    0    0  0.00000000000E+00  0.00000000000E+00  0.53928040338E+03  0.23618767399E+04  0.22994865472E+04 0.  0.
        1    1    3    3  502    0  0.34989810954E+03 -0.10855055066E+04  0.41904717938E+03  0.12150520279E+04  0.50400001928E-02 0. -1.
       -1    1    3    3    0  502 -0.34989810954E+03  0.10855055066E+04  0.12023322399E+03  0.11468247120E+04  0.50400001928E-02 0.  1.
</event>
<event>
 5   0  0.7761069E-07  0.2299175E+04  0.7818609E-02  0.8478247E-01
       -1   -1    0    0    0  501  0.00000000000E+00  0.00000000000E+00  0.10299038262E+04  0.10299038262E+04  0.50400001928E-02 0.  1.
        1   -1    0    0  501    0  0.00000000000E+00  0.00000000000E+00 -0.12831788904E+04  0.12831788904E+04  0.50400001928E-02 0. -1.
    10030    2    1    2    0    0  0.00000000000E+00  0.00000000000E+00 -0.25327506416E+03  0.23130827166E+04  0.22991745031E+04 0.  0.
        1    1    3    3  502    0 -0.63733254881E+02 -0.44198264194E+03 -0.11923567613E+04  0.12732341615E+04  0.50400001928E-02 0. -1.
       -1    1    3    3    0  502  0.63733254881E+02  0.44198264194E+03  0.93908169718E+03  0.10398485551E+04  0.50400001928E-02 0.  1.
</event>
<event>
 5   0  0.1828646E-06  0.2304943E+04  0.7818609E-02  0.8475975E-01
       -2   -1    0    0    0  501  0.00000000000E+00  0.00000000000E+00  0.13889724713E+04  0.13889724713E+04  0.25500000920E-02 0.  1.
        2   -1    0    0  501    0  0.00000000000E+00  0.00000000000E+00 -0.95623932962E+03  0.95623932963E+03  0.25500000920E-02 0. -1.
    10030    2    1    2    0    0  0.00000000000E+00  0.00000000000E+00  0.43273314170E+03  0.23452118010E+04  0.23049426065E+04 0.  0.
        3    1    3    3  502    0 -0.22875000643E+03 -0.10671037597E+04 -0.16044546092E+03  0.11030774023E+04  0.10100000352E+00 0. -1.
       -3    1    3    3    0  502  0.22875000643E+03  0.10671037597E+04  0.59317860262E+03  0.12421343986E+04  0.10100000352E+00 0.  1.
</event>
<event>
 5   0  0.8108242E-07  0.2303924E+04  0.7818609E-02  0.8476375E-01
        1   -1    0    0  501    0  0.00000000000E+00  0.00000000000E+00  0.11813163528E+04  0.11813163528E+04  0.50400001928E-02 0. -1.
       -1   -1    0    0    0  501  0.00000000000E+00  0.00000000000E+00 -0.11233372710E+04  0.11233372710E+04  0.50400001928E-02 0.  1.
    10030    2    1    2    0    0  0.00000000000E+00  0.00000000000E+00  0.57979081791E+02  0.23046536239E+04  0.23039242071E+04 0.  0.
        4    1    3    3  502    0 -0.68252947965E+02 -0.11334050672E+04  0.22334352340E+03  0.11572162519E+04  0.12699999809E+01 0. -1.
       -4    1    3    3    0  502  0.68252947965E+02  0.11334050672E+04 -0.16536444161E+03  0.11474373720E+04  0.12699999809E+01 0.  1.
</event>
<event>
 5   0  0.7761069E-07  0.2298641E+04  0.7818609E-02  0.8478457E-01
        1   -1    0    0  501    0  0.00000000000E+00  0.00000000000E+00  0.12702310857E+04  0.12702310857E+04  0.50400001928E-02 0. -1.
       -1   -1    0    0    0  501  0.00000000000E+00  0.00000000000E+00 -0.10399193235E+04  0.10399193235E+04  0.50400001928E-02 0.  1.
    10030    2    1    2    0    0  0.00000000000E+00  0.00000000000E+00  0.23031176228E+03  0.23101504092E+04  0.22986412085E+04 0.  0.
        1    1    3    3  502    0  0.27478823612E+03 -0.86256336338E+03 -0.59649530183E+03  0.10841267341E+04  0.50400001928E-02 0.  1.
       -1    1    3    3    0  502 -0.27478823612E+03  0.86256336338E+03  0.82680706411E+03  0.12260236751E+04  0.50400001928E-02 0. -1.
</event>
<event>
 5   0  0.7761069E-07  0.2299180E+04  0.7818609E-02  0.8478245E-01
        1   -1    0    0  501    0  0.00000000000E+00  0.00000000000E+00  0.10819528771E+04  0.10819528771E+04  0.50400001928E-02 0.  1.
       -1   -1    0    0    0  501  0.00000000000E+00  0.00000000000E+00 -0.12214551852E+04  0.12214551852E+04  0.50400001928E-02 0. -1.
    10030    2    1    2    0    0  0.00000000000E+00  0.00000000000E+00 -0.13950230812E+03  0.23034080623E+04  0.22991798119E+04 0.  0.
        1    1    3    3  502    0  0.35243131514E+03  0.10717921856E+04  0.15113249770E+03  0.11383265581E+04  0.50400001928E-02 0. -1.
       -1    1    3    3    0  502 -0.35243131514E+03 -0.10717921856E+04 -0.29063480582E+03  0.11650815042E+04  0.50400001928E-02 0.  1.
</event>
<event>
 5   0  0.8097672E-07  0.2299975E+04  0.7818609E-02  0.8477931E-01
        1   -1    0    0  501    0  0.00000000000E+00  0.00000000000E+00  0.23983230629E+04  0.23983230629E+04  0.50400001928E-02 0.  1.
       -1   -1    0    0    0  501  0.00000000000E+00  0.00000000000E+00 -0.55141497352E+03  0.55141497354E+03  0.50400001928E-02 0. -1.
    10030    2    1    2    0    0  0.00000000000E+00  0.00000000000E+00  0.18469080894E+04  0.29497380364E+04  0.22999749983E+04 0.  0.
        3    1    3    3  502    0  0.10452612732E+04  0.22921134883E+03  0.14635749017E+04  0.18130528053E+04  0.10100000352E+00 0.  1.
       -3    1    3    3    0  502 -0.10452612732E+04 -0.22921134883E+03  0.38333318768E+03  0.11366852311E+04  0.10100000352E+00 0. -1.
</event>
<event>
 5   0  0.1825521E-06  0.2292169E+04  0.7818609E-02  0.8481015E-01
       -2   -1    0    0    0  501  0.00000000000E+00  0.00000000000E+00  0.68467841687E+03  0.68467841687E+03  0.25500000920E-02 0. -1.
        2   -1    0    0  501    0  0.00000000000E+00  0.00000000000E+00 -0.19184334826E+04  0.19184334826E+04  0.25500000920E-02 0.  1.
    10030    2    1    2    0    0  0.00000000000E+00  0.00000000000E+00 -0.12337550657E+04  0.26031118995E+04  0.22921692780E+04 0.  0.
        5    1    3    3  502    0 -0.51044666804E+03  0.82816648495E+03 -0.13049307108E+04  0.16276614444E+04  0.46999998093E+01 0.  1.
       -5    1    3    3    0  502  0.51044666804E+03 -0.82816648495E+03  0.71175645102E+02  0.97545045500E+03  0.46999998093E+01 0. -1.
</event>
<event>
 5   0  0.8108242E-07  0.2299900E+04  0.7818609E-02  0.8477960E-01
       -1   -1    0    0    0  501  0.00000000000E+00  0.00000000000E+00  0.54562742723E+03  0.54562742726E+03  0.50400001928E-02 0.  1.
        1   -1    0    0  501    0  0.00000000000E+00  0.00000000000E+00 -0.24236052175E+04  0.24236052175E+04  0.50400001928E-02 0. -1.
    10030    2    1    2    0    0  0.00000000000E+00  0.00000000000E+00 -0.18779777903E+04  0.29692326448E+04  0.22999004148E+04 0.  0.
        4    1    3    3  502    0 -0.73524851642E+03 -0.80898103559E+03 -0.13996939985E+04  0.17760027025E+04  0.12699999809E+01 0.  1.
       -4    1    3    3    0  502  0.73524851642E+03  0.80898103559E+03 -0.47828379180E+03  0.11932299423E+04  0.12699999809E+01 0. -1.
</event>
<event>
 5   0  0.7761069E-07  0.2300178E+04  0.7818609E-02  0.8477851E-01
        1   -1    0    0  501    0  0.00000000000E+00  0.00000000000E+00  0.17902218554E+04  0.17902218554E+04  0.50400001928E-02 0.  1.
       -1   -1    0    0    0  501  0.00000000000E+00  0.00000000000E+00 -0.73884977890E+03  0.73884977892E+03  0.50400001928E-02 0. -1.
    10030    2    1    2    0    0  0.00000000000E+00  0.00000000000E+00  0.10513720765E+04  0.25290716344E+04  0.23001782732E+04 0.  0.
        1    1    3    3  502    0 -0.40883407186E+03 -0.10646077720E+04  0.68939883671E+03  0.13325936225E+04  0.50400001928E-02 0. -1.
       -1    1    3    3    0  502  0.40883407186E+03  0.10646077720E+04  0.36197323983E+03  0.11964780119E+04  0.50400001928E-02 0.  1.
</event>
<event>
 5   0  0.7761069E-07  0.2299618E+04  0.7818609E-02  0.8478072E-01
       -1   -1    0    0    0  501  0.00000000000E+00  0.00000000000E+00  0.11052024505E+04  0.11052024505E+04  0.50400001928E-02 0. -1.
        1   -1    0    0  501    0  0.00000000000E+00  0.00000000000E+00 -0.11962160494E+04  0.11962160495E+04  0.50400001928E-02 0.  1.
    10030    2    1    2    0    0  0.00000000000E+00  0.00000000000E+00 -0.91013598919E+02  0.23014185000E+04  0.22996181502E+04 0.  0.
        1    1    3    3  502    0  0.55665693329E+03  0.37100109898E+03 -0.98141387068E+03  0.11877213235E+04  0.50400001928E-02 0.  1.
       -1    1    3    3    0  502 -0.55665693329E+03 -0.37100109898E+03  0.89040027176E+03  0.11136971764E+04  0.50400001928E-02 0. -1.
</event>
<event>
 5   0  0.1825521E-06  0.2297643E+04  0.7818609E-02  0.8478851E-01
        2   -1    0    0  501    0  0.00000000000E+00  0.00000000000E+00  0.25045653039E+04  0.25045653039E+04  0.25500000920E-02 0.  1.
       -2   -1    0    0    0  501  0.00000000000E+00  0.00000000000E+00 -0.52695414571E+03  0.52695414572E+03  0.25500000920E-02 0. -1.
    10030    2    1    2    0    0  0.00000000000E+00  0.00000000000E+00  0.19776111582E+04  0.30315194496E+04  0.22976432013E+04 0.  0.
        5    1    3    3  502    0 -0.63140885083E+03 -0.51522577238E+03 -0.79532198517E+02  0.81882977109E+03  0.46999998093E+01 0. -1.
       -5    1    3    3    0  502  0.63140885083E+03  0.51522577238E+03  0.20571433567E+04  0.22126896785E+04  0.46999998093E+01 0.  1.
</event>
<event>
 5   0  0.1888779E-06  0.2299215E+04  0.7818609E-02  0.8478231E-01
        2   -1    0    0  501    0  0.00000000000E+00  0.00000000000E+00  0.17186212857E+04  0.17186212857E+04  0.25500000920E-02 0. -1.
       -2   -1    0    0    0  501  0.00000000000E+00  0.00000000000E+00 -0.76898719293E+03  0.76898719294E+03  0.25500000920E-02 0.  1.
    10030    2    1    2    0    0  0.00000000000E+00  0.00000000000E+00  0.94963409281E+03  0.24876084787E+04  0.22992153081E+04 0.  0.
        4    1    3    3  502    0 -0.11188089689E+04  0.23231826950E+03  0.33842907749E+03  0.11917387048E+04  0.12699999809E+01 0.  1.
       -4    1    3    3    0  502  0.11188089689E+04 -0.23231826950E+03  0.61120501532E+03  0.12958697739E+04  0.12699999809E+01 0. -1.
</event>
<event>
 5   0  0.7932912E-07  0.2300207E+04  0.7818609E-02  0.8477840E-01
       -1   -1    0    0    0  501  0.00000000000E+00  0.00000000000E+00  0.21268228546E+04  0.21268228546E+04  0.50400001928E-02 0.  1.
        1   -1    0    0  501    0  0.00000000000E+00  0.00000000000E+00 -0.62193142835E+03  0.62193142837E+03  0.50400001928E-02 0. -1.
    10030    2    1    2    0    0  0.00000000000E+00  0.00000000000E+00  0.15048914263E+04  0.27487542830E+04  0.23002069262E+04 0.  0.
        5    1    3    3  502    0 -0.16416870911E+03 -0.43858721914E+03 -0.50282280794E+03  0.68714116456E+03  0.46999998093E+01 0. -1.
       -5    1    3    3    0  502  0.16416870911E+03  0.43858721914E+03  0.20077142342E+04  0.20616131184E+04  0.46999998093E+01 0.  1.
</event>
<event>
 5   0  0.1888779E-06  0.2299816E+04  0.7818609E-02  0.8477994E-01
        2   -1    0    0  501    0  0.00000000000E+00  0.00000000000E+00  0.13351277188E+04  0.13351277188E+04  0.25500000920E-02 0.  1.
       -2   -1    0    0    0  501  0.00000000000E+00  0.00000000000E+00 -0.99038303674E+03  0.99038303675E+03  0.25500000920E-02 0. -1.
    10030    2    1    2    0    0  0.00000000000E+00  0.00000000000E+00  0.34474468210E+03  0.23255107556E+04  0.22998155097E+04 0.  0.
        4    1    3    3  502    0  0.48456277789E+02  0.18879512208E+02 -0.98919263898E+03  0.99055950692E+03  0.12699999809E+01 0. -1.
       -4    1    3    3    0  502 -0.48456277789E+02 -0.18879512208E+02  0.13339373211E+04  0.13349512487E+04  0.12699999809E+01 0.  1.
</event>
<event>
 5   0  0.8097672E-07  0.2299018E+04  0.7818609E-02  0.8478308E-01
       -1   -1    0    0    0  501  0.00000000000E+00  0.00000000000E+00  0.13281116677E+04  0.13281116677E+04  0.50400001928E-02 0. -1.
        1   -1    0    0  501    0  0.00000000000E+00  0.00000000000E+00 -0.99492497536E+03  0.99492497538E+03  0.50400001928E-02 0.  1.
    10030    2    1    2    0    0  0.00000000000E+00  0.00000000000E+00  0.33318669237E+03  0.23230366431E+04  0.22990184587E+04 0.  0.
        3    1    3    3  502    0 -0.29546591899E+03  0.34074173857E+03 -0.90179214330E+03  0.10082827588E+04  0.10100000352E+00 0.  1.
       -3    1    3    3    0  502  0.29546591899E+03 -0.34074173857E+03  0.12349788357E+04  0.13147538844E+04  0.10100000352E+00 0. -1.
</event>
<event>
 5   0  0.1689444E-06  0.2300890E+04  0.7818609E-02  0.8477570E-01
        2   -1    0    0  501    0  0.00000000000E+00  0.00000000000E+00  0.14604998126E+04  0.14604998126E+04  0.25500000920E-02 0.  1.
       -2   -1    0    0    0  501  0.00000000000E+00  0.00000000000E+00 -0.90621307986E+03  0.90621307987E+03  0.25500000920E-02 0. -1.
    10030    2    1    2    0    0  0.00000000000E+00  0.00000000000E+00  0.55428673275E+03  0.23667128925E+04  0.23008902915E+04 0.  0.
        2    1    3    3  502    0 -0.99586099862E+02  0.41071796387E+03 -0.82347496534E+03  0.92559043625E+03  0.25500000920E-02 0. -1.
       -2    1    3    3    0  502  0.99586099862E+02 -0.41071796387E+03  0.13777616981E+04  0.14411224562E+04  0.25500000920E-02 0.  1.
</event>
<event>
 5   0  0.1744876E-06  0.2299614E+04  0.7818609E-02  0.8478073E-01
       -2   -1    0    0    0  501  0.00000000000E+00  0.00000000000E+00  0.11814799859E+04  0.11814799859E+04  0.25500000920E-02 0. -1.
        2   -1    0    0  501    0  0.00000000000E+00  0.00000000000E+00 -0.11189832397E+04  0.11189832397E+04  0.25500000920E-02 0.  1.
    10030    2    1    2    0    0  0.00000000000E+00  0.00000000000E+00  0.62496746164E+02  0.23004632256E+04  0.22996141435E+04 0.  0.
        1    1    3    3  502    0 -0.89074621778E+03 -0.43465733425E+03  0.61430186955E+03  0.11660714428E+04  0.50400001928E-02 0. -1.
       -1    1    3    3    0  502  0.89074621778E+03  0.43465733425E+03 -0.55180512338E+03  0.11343917828E+04  0.50400001928E-02 0.  1.
</event>
<event>
 5   0  0.8108242E-07  0.2300110E+04  0.7818609E-02  0.8477878E-01
        1   -1    0    0  501    0  0.00000000000E+00  0.00000000000E+00  0.27409189852E+04  0.27409189852E+04  0.50400001928E-02 0. -1.
       -1   -1    0    0    0  501  0.00000000000E+00  0.00000000000E+00 -0.48254851396E+03  0.48254851398E+03  0.50400001928E-02 0.  1.
    10030    2    1    2    0    0  0.00000000000E+00  0.00000000000E+00  0.22583704712E+04  0.32234674992E+04  0.23001098958E+04 0.  0.
        4    1    3    3  502    0 -0.87270953673E+03  0.50707656006E+03  0.19017289274E+04  0.21529800509E+04  0.12699999809E+01 0. -1.
       -4    1    3    3    0  502  0.87270953673E+03 -0.50707656006E+03  0.35664154381E+03  0.10704874483E+04  0.12699999809E+01 0.  1.
</event>
<event>
 5   0  0.1744876E-06  0.2300397E+04  0.7818609E-02  0.8477765E-01
        2   -1    0    0  501    0  0.00000000000E+00  0.00000000000E+00  0.10055063267E+04  0.10055063267E+04  0.25500000920E-02 0. -1.
       -2   -1    0    0    0  501  0.00000000000E+00  0.00000000000E+00 -0.13157116395E+04  0.13157116395E+04  0.25500000920E-02 0.  1.
    10030    2    1    2    0    0  0.00000000000E+00  0.00000000000E+00 -0.31020531285E+03  0.23212179662E+04  0.23003968159E+04 0.  0.
        1    1    3    3  502    0  0.67188452224E+03  0.13923510496E+03  0.77636747858E+03  0.10361282196E+04  0.50400001928E-02 0. -1.
       -1    1    3    3    0  502 -0.67188452224E+03 -0.13923510496E+03 -0.10865727914E+04  0.12850897466E+04  0.50400001928E-02 0.  1.
</event>
<event>
 5   0  0.7607231E-07  0.2300281E+04  0.7818609E-02  0.8477810E-01
       -1   -1    0    0    0  501  0.00000000000E+00  0.00000000000E+00  0.12529938619E+04  0.12529938619E+04  0.50400001928E-02 0.  1.
        1   -1    0    0  501    0  0.00000000000E+00  0.00000000000E+00 -0.10557296808E+04  0.10557296808E+04  0.50400001928E-02 0. -1.
    10030    2    1    2    0    0  0.00000000000E+00  0.00000000000E+00  0.19726418107E+03  0.23087235427E+04  0.23002806871E+04 0.  0.
        2    1    3    3  502    0 -0.18066027649E+03 -0.72435711494E+02  0.12363435730E+04  0.12515712118E+04  0.25500000920E-02 0.  1.
       -2    1    3    3    0  502  0.18066027649E+03  0.72435711494E+02 -0.10390793919E+04  0.10571523308E+04  0.25500000920E-02 0. -1.
</event>
<event>
 5   0  0.1888779E-06  0.2299407E+04  0.7818609E-02  0.8478155E-01
       -2   -1    0    0    0  501  0.00000000000E+00  0.00000000000E+00  0.65064086784E+03  0.65064086784E+03  0.25500000920E-02 0. -1.
        2   -1    0    0  501    0  0.00000000000E+00  0.00000000000E+00 -0.20315626257E+04  0.20315626257E+04  0.25500000920E-02 0.  1.
    10030    2    1    2    0    0  0.00000000000E+00  0.00000000000E+00 -0.13809217578E+04  0.26822034935E+04  0.22994065929E+04 0.  0.
        4    1    3    3  502    0  0.14881823473E+03  0.11395393616E+04 -0.72948528004E+03  0.13611933038E+04  0.12699999809E+01 0.  1.
       -4    1    3    3    0  502 -0.14881823473E+03 -0.11395393616E+04 -0.65143647781E+03  0.13210101897E+04  0.12699999809E+01 0. -1.
</event>
<event>
 5   0  0.1828646E-06  0.2297114E+04  0.7818609E-02  0.8479060E-01
        2   -1    0    0  501    0  0.00000000000E+00  0.00000000000E+00  0.11786578958E+04  0.11786578958E+04  0.25500000920E-02 0.  1.
       -2   -1    0    0    0  501  0.00000000000E+00  0.00000000000E+00 -0.11192246713E+04  0.11192246713E+04  0.25500000920E-02 0. -1.
    10030    2    1    2    0    0  0.00000000000E+00  0.00000000000E+00  0.59433224511E+02  0.22978825670E+04  0.22971138378E+04 0.  0.
        3    1    3    3  502    0  0.37369989215E+02  0.11477974619E+04  0.48363025342E+02  0.11494235607E+04  0.10100000352E+00 0.  1.
       -3    1    3    3    0  502 -0.37369989215E+02 -0.11477974619E+04  0.11070199170E+02  0.11484590063E+04  0.10100000352E+00 0. -1.
</event>
<event>
 5   0  0.7607231E-07  0.2300439E+04  0.7818609E-02  0.8477748E-01
       -1   -1    0    0    0  501  0.00000000000E+00  0.00000000000E+00  0.86159310676E+03  0.86159310677E+03  0.50400001928E-02 0.  1.
        1   -1    0    0  501    0  0.00000000000E+00  0.00000000000E+00 -0.15355329566E+04  0.15355329566E+04  0.50400001928E-02 0. -1.
    10030    2    1    2    0    0  0.00000000000E+00  0.00000000000E+00 -0.67393984987E+03  0.23971260634E+04  0.23004387500E+04 0.  0.
        2    1    3    3  502    0  0.19144003235E+03  0.84586336438E+03 -0.11242857802E+04  0.14199128962E+04  0.25500000920E-02 0. -1.
       -2    1    3    3    0  502 -0.19144003235E+03 -0.84586336438E+03  0.45034593035E+03  0.97721316721E+03  0.25500000920E-02 0.  1.
</event>
<event>
 5   0  0.8108242E-07  0.2300737E+04  0.7818609E-02  0.8477631E-01
        1   -1    0    0  501    0  0.00000000000E+00  0.00000000000E+00  0.67120800813E+03  0.67120800815E+03  0.50400001928E-02 0. -1.
       -1   -1    0    0    0  501  0.00000000000E+00  0.00000000000E+00 -0.19715902314E+04  0.19715902314E+04  0.50400001928E-02 0.  1.
    10030    2    1    2    0    0  0.00000000000E+00  0.00000000000E+00 -0.13003822232E+04  0.26427982395E+04  0.23007365360E+04 0.  0.
        4    1    3    3  502    0  0.10510530782E+04 -0.36875715772E+03 -0.31995732582E+03  0.11589084165E+04  0.12699999809E+01 0. -1.
       -4    1    3    3    0  502 -0.10510530782E+04  0.36875715772E+03 -0.98042489740E+03  0.14838898230E+04  0.12699999809E+01 0.  1.
</event>
<event>
 5   0  0.8097672E-07  0.2301856E+04  0.7818609E-02  0.8477190E-01
        1   -1    0    0  501    0  0.00000000000E+00  0.00000000000E+00  0.10614192374E+04  0.10614192374E+04  0.50400001928E-02 0. -1.
       -1   -1    0    0    0  501  0.00000000000E+00  0.00000000000E+00 -0.12479844539E+04  0.12479844539E+04  0.50400001928E-02 0.  1.
    10030    2    1    2    0    0  0.00000000000E+00  0.00000000000E+00 -0.18656521647E+03  0.23094036913E+04  0.23018555188E+04 0.  0.
        3    1    3    3  502    0 -0.10511690407E+04  0.18978745958E+03  0.33667731798E+03  0.11199675257E+04  0.10100000352E+00 0. -1.
       -3    1    3    3    0  502  0.10511690407E+04 -0.18978745958E+03 -0.52324253445E+03  0.11894361656E+04  0.10100000352E+00 0.  1.
</event>
<event>
 5   0  0.8097672E-07  0.2301096E+04  0.7818609E-02  0.8477489E-01
       -1   -1    0    0    0  501  0.00000000000E+00  0.00000000000E+00  0.17107280909E+04  0.17107280909E+04  0.50400001928E-02 0.  1.
        1   -1    0    0  501    0  0.00000000000E+00  0.00000000000E+00 -0.77379950674E+03  0.77379950676E+03  0.50400001928E-02 0. -1.
    10030    2    1    2    0    0  0.00000000000E+00  0.00000000000E+00  0.93692858417E+03  0.24845275977E+04  0.23010958719E+04 0.  0.
        3    1    3    3  502    0 -0.10686309310E+04  0.34757405962E+03  0.73509212926E+03  0.13428105757E+04  0.10100000352E+00 0.  1.
       -3    1    3    3    0  502  0.10686309310E+04 -0.34757405962E+03  0.20183645492E+03  0.11417170220E+04  0.10100000352E+00 0. -1.
</event>
<event>
 5   0  0.1744876E-06  0.2299255E+04  0.7818609E-02  0.8478215E-01
        2   -1    0    0  501    0  0.00000000000E+00  0.00000000000E+00  0.16780015279E+04  0.16780015279E+04  0.25500000920E-02 0. -1.
       -2   -1    0    0    0  501  0.00000000000E+00  0.00000000000E+00 -0.78762914867E+03  0.78762914867E+03  0.25500000920E-02 0.  1.
    10030    2    1    2    0    0  0.00000000000E+00  0.00000000000E+00  0.89037237923E+03  0.24656306766E+04  0.22992545878E+04 0.  0.
        1    1    3    3  502    0 -0.54921910502E+02 -0.94685304564E+03  0.11418872681E+04  0.14844034625E+04  0.50400001928E-02 0.  1.
       -1    1    3    3    0  502  0.54921910502E+02  0.94685304564E+03 -0.25151488890E+03  0.98122721409E+03  0.50400001928E-02 0. -1.
</event>
<event>
 5   0  0.1825521E-06  0.2303156E+04  0.7818609E-02  0.8476678E-01
       -2   -1    0    0    0  501  0.00000000000E+00  0.00000000000E+00  0.87795806086E+03  0.87795806087E+03  0.25500000920E-02 0. -1.
        2   -1    0    0  501    0  0.00000000000E+00  0.00000000000E+00 -0.15104733149E+04  0.15104733149E+04  0.25500000920E-02 0.  1.
    10030    2    1    2    0    0  0.00000000000E+00  0.00000000000E+00 -0.63251525405E+03  0.23884313758E+04  0.23031562887E+04 0.  0.
        5    1    3    3  502    0 -0.77242045742E+03  0.73798545908E+03 -0.76212331966E+03  0.13122918674E+04  0.46999998093E+01 0.  1.
       -5    1    3    3    0  502  0.77242045742E+03 -0.73798545908E+03  0.12960806562E+03  0.10761395084E+04  0.46999998093E+01 0. -1.
</event>
<event>
 5   0  0.1689444E-06  0.2299225E+04  0.7818609E-02  0.8478227E-01
       -2   -1    0    0    0  501  0.00000000000E+00  0.00000000000E+00  0.83310150643E+03  0.83310150643E+03  0.25500000920E-02 0. -1.
        2   -1    0    0  501    0  0.00000000000E+00  0.00000000000E+00 -0.15863722218E+04  0.15863722218E+04  0.25500000920E-02 0.  1.
    10030    2    1    2    0    0  0.00000000000E+00  0.00000000000E+00 -0.75327071537E+03  0.24194737282E+04  0.22992251632E+04 0.  0.
        2    1    3    3  502    0 -0.81466455508E+03 -0.42808258924E+03 -0.11016354560E+04  0.14354559270E+04  0.25500000920E-02 0.  1.
       -2    1    3    3    0  502  0.81466455508E+03  0.42808258924E+03  0.34836474065E+03  0.98401780119E+03  0.25500000920E-02 0. -1.
</event>
<event>
 5   0  0.7761069E-07  0.2299469E+04  0.7818609E-02  0.8478131E-01
        1   -1    0    0  501    0  0.00000000000E+00  0.00000000000E+00  0.10461414913E+04  0.10461414913E+04  0.50400001928E-02 0. -1.
       -1   -1    0    0    0  501  0.00000000000E+00  0.00000000000E+00 -0.12635852674E+04  0.12635852674E+04  0.50400001928E-02 0.  1.
    10030    2    1    2    0    0  0.00000000000E+00  0.00000000000E+00 -0.21744377616E+03  0.23097267587E+04  0.22994686134E+04 0.  0.
        1    1    3    3  502    0 -0.92956135067E+03 -0.25194847437E+03 -0.73947757894E+03  0.12142443857E+04  0.50400001928E-02 0.  1.
       -1    1    3    3    0  502  0.92956135067E+03  0.25194847437E+03  0.52203380277E+03  0.10954823730E+04  0.50400001928E-02 0. -1.
</event>
<event>
 5   0  0.1689444E-06  0.2299068E+04  0.7818609E-02  0.8478289E-01
       -2   -1    0    0    0  501  0.00000000000E+00  0.00000000000E+00  0.81349377982E+03  0.81349377983E+03  0.25500000920E-02 0. -1.
        2   -1    0    0  501    0  0.00000000000E+00  0.00000000000E+00 -0.16243867501E+04  0.16243867501E+04  0.25500000920E-02 0.  1.
    10030    2    1    2    0    0  0.00000000000E+00  0.00000000000E+00 -0.81089297027E+03  0.24378805299E+04  0.22990680871E+04 0.  0.
        2    1    3    3  502    0  0.64533193615E+03 -0.47624558910E+03  0.46778298362E+03  0.92848483495E+03  0.25500000920E-02 0. -1.
       -2    1    3    3    0  502 -0.64533193615E+03  0.47624558910E+03 -0.12786759539E+04  0.15093956950E+04  0.25500000920E-02 0.  1.
</event>
<event>
 5   0  0.7761069E-07  0.2295075E+04  0.7818609E-02  0.8479865E-01
        1   -1    0    0  501    0  0.00000000000E+00  0.00000000000E+00  0.17275450881E+04  0.17275450881E+04  0.50400001928E-02 0.  1.
       -1   -1    0    0    0  501  0.00000000000E+00  0.00000000000E+00 -0.76226221789E+03  0.76226221790E+03  0.50400001928E-02 0. -1.
    10030    2    1    2    0    0  0.00000000000E+00  0.00000000000E+00  0.96528287021E+03  0.24898073060E+04  0.22950750318E+04 0.  0.
        1    1    3    3  502    0  0.28329859779E+03  0.66463277876E+03  0.14498291279E+04  0.16198763306E+04  0.50400001928E-02 0.  1.
       -1    1    3    3    0  502 -0.28329859779E+03 -0.66463277876E+03 -0.48454625772E+03  0.86993097543E+03  0.50400001928E-02 0. -1.
</event>
<event>
 5   0  0.7932912E-07  0.2301434E+04  0.7818609E-02  0.8477356E-01
        1   -1    0    0  501    0  0.00000000000E+00  0.00000000000E+00  0.12304599525E+04  0.12304599525E+04  0.50400001928E-02 0. -1.
       -1   -1    0    0    0  501  0.00000000000E+00  0.00000000000E+00 -0.10761423569E+04  0.10761423569E+04  0.50400001928E-02 0.  1.
    10030    2    1    2    0    0  0.00000000000E+00  0.00000000000E+00  0.15431759558E+03  0.23066023095E+04  0.23014343992E+04 0.  0.
        5    1    3    3  502    0 -0.11211458825E+04  0.25788622361E+03  0.51516405112E+02  0.11515856131E+04  0.46999998093E+01 0.  1.
       -5    1    3    3    0  502  0.11211458825E+04 -0.25788622361E+03  0.10280119047E+03  0.11550166964E+04  0.46999998093E+01 0. -1.
</event>
<event>
 5   0  0.1888779E-06  0.2299502E+04  0.7818609E-02  0.8478117E-01
        2   -1    0    0  501    0  0.00000000000E+00  0.00000000000E+00  0.25510128026E+04  0.25510128026E+04  0.25500000920E-02 0.  1.
       -2   -1    0    0    0  501  0.00000000000E+00  0.00000000000E+00 -0.51819728147E+03  0.51819728148E+03  0.25500000920E-02 0. -1.
    10030    2    1    2    0    0  0.00000000000E+00  0.00000000000E+00  0.20328155211E+04  0.30692100841E+04  0.22995024673E+04 0.  0.
        4    1    3    3  502    0 -0.25569650205E+03 -0.98757475743E+03  0.30857186742E+03  0.10657874145E+04  0.12699999809E+01 0. -1.
       -4    1    3    3    0  502  0.25569650205E+03  0.98757475743E+03  0.17242436537E+04  0.20034226696E+04  0.12699999809E+01 0.  1.
</event>
<event>
 5   0  0.7761069E-07  0.2300199E+04  0.7818609E-02  0.8477842E-01
       -1   -1    0    0    0  501  0.00000000000E+00  0.00000000000E+00  0.50772418398E+03  0.50772418401E+03  0.50400001928E-02 0. -1.
        1   -1    0    0  501    0  0.00000000000E+00  0.00000000000E+00 -0.26052124914E+04  0.26052124914E+04  0.50400001928E-02 0.  1.
    10030    2    1    2    0    0  0.00000000000E+00  0.00000000000E+00 -0.20974883074E+04  0.31129366754E+04  0.23001994577E+04 0.  0.
        1    1    3    3  502    0 -0.59965307978E+03  0.54646124067E+03 -0.21519604656E+04  0.22998125030E+04  0.50400001928E-02 0.  1.
       -1    1    3    3    0  502  0.59965307978E+03 -0.54646124067E+03  0.54472158189E+02  0.81312417236E+03  0.50400001928E-02 0. -1.
</event>
<event>
 5   0  0.6319125E-07  0.2299434E+04  0.7818609E-02  0.8478144E-01
       -3   -1    0    0    0  501  0.00000000000E+00  0.00000000000E+00  0.16221359301E+04  0.16221359333E+04  0.10100000352E+00 0.  1.
        3   -1    0    0  501    0  0.00000000000E+00  0.00000000000E+00 -0.81488197802E+03  0.81488198428E+03  0.10100000352E+00 0. -1.
    10030    2    1    2    0    0  0.00000000000E+00  0.00000000000E+00  0.80725395213E+03  0.24370179176E+04  0.22994341450E+04 0.  0.
        2    1    3    3  502    0  0.87419739490E+03  0.45539979079E+03 -0.22359343018E+03  0.10107443182E+04  0.25500000920E-02 0. -1.
       -2    1    3    3    0  502 -0.87419739490E+03 -0.45539979079E+03  0.10308473823E+04  0.14262735994E+04  0.25500000920E-02 0.  1.
</event>
<event>
 5   0  0.7761069E-07  0.2300419E+04  0.7818609E-02  0.8477756E-01
       -1   -1    0    0    0  501  0.00000000000E+00  0.00000000000E+00  0.66792440850E+03  0.66792440852E+03  0.50400001928E-02 0. -1.
        1   -1    0    0  501    0  0.00000000000E+00  0.00000000000E+00 -0.19807358048E+04  0.19807358049E+04  0.50400001928E-02 0.  1.
    10030    2    1    2    0    0  0.00000000000E+00  0.00000000000E+00 -0.13128113964E+04  0.26486602134E+04  0.23004189104E+04 0.  0.
        1    1    3    3  502    0 -0.28708841325E+03  0.87175164653E+03 -0.14546139580E+04  0.17199629232E+04  0.50400001928E-02 0.  1.
       -1    1    3    3    0  502  0.28708841325E+03 -0.87175164653E+03  0.14180256168E+03  0.92869729018E+03  0.50400001928E-02 0. -1.
</event>
<event>
 5   0  0.7607231E-07  0.2301675E+04  0.7818609E-02  0.8477261E-01
       -1   -1    0    0    0  501  0.00000000000E+00  0.00000000000E+00  0.16047216013E+04  0.16047216013E+04  0.50400001928E-02 0.  1.
        1   -1    0    0  501    0  0.00000000000E+00  0.00000000000E+00 -0.82533115108E+03  0.82533115110E+03  0.50400001928E-02 0. -1.
    10030    2    1    2    0    0  0.00000000000E+00  0.00000000000E+00  0.77939045026E+03  0.24300527524E+04  0.23016748045E+04 0.  0.
        2    1    3    3  502    0 -0.10918558150E+04  0.27808544983E+03  0.63717523639E+03  0.12944006026E+04  0.25500000920E-02 0. -1.
       -2    1    3    3    0  502  0.10918558150E+04 -0.27808544983E+03  0.14221521386E+03  0.11356521498E+04  0.25500000920E-02 0.  1.
</event>
<event>
 5   0  0.8108242E-07  0.2295519E+04  0.7818609E-02  0.8479690E-01
       -1   -1    0    0    0  501  0.00000000000E+00  0.00000000000E+00  0.74831754024E+03  0.74831754026E+03  0.50400001928E-02 0. -1.
        1   -1    0    0  501    0  0.00000000000E+00  0.00000000000E+00 -0.17604188372E+04  0.17604188372E+04  0.50400001928E-02 0.  1.
    10030    2    1    2    0    0  0.00000000000E+00  0.00000000000E+00 -0.10121012970E+04  0.25087363775E+04  0.22955193696E+04 0.  0.
        4    1    3    3  502    0  0.10283694128E+04 -0.50561770390E+03 -0.43558064830E+03  0.12259384266E+04  0.12699999809E+01 0.  1.
       -4    1    3    3    0  502 -0.10283694128E+04  0.50561770390E+03 -0.57652064868E+03  0.12827979509E+04  0.12699999809E+01 0. -1.
</event>
<event>
 5   0  0.7932912E-07  0.2298667E+04  0.7818609E-02  0.8478447E-01
        1   -1    0    0  501    0  0.00000000000E+00  0.00000000000E+00  0.11921291013E+04  0.11921291013E+04  0.50400001928E-02 0. -1.
       -1   -1    0    0    0  501  0.00000000000E+00  0.00000000000E+00 -0.11080740177E+04  0.11080740178E+04  0.50400001928E-02 0.  1.
    10030    2    1    2    0    0  0.00000000000E+00  0.00000000000E+00  0.84055083543E+02  0.23002031191E+04  0.22986668162E+04 0.  0.
        5    1    3    3  502    0 -0.10472429581E+04  0.16285544439E+03  0.48696556366E+03  0.11663606900E+04  0.46999998093E+01 0. -1.
       -5    1    3    3    0  502  0.10472429581E+04 -0.16285544439E+03 -0.40291048011E+03  0.11338424291E+04  0.46999998093E+01 0.  1.
</event>
<event>
 5   0  0.1744876E-06  0.2301133E+04  0.7818609E-02  0.8477475E-01
       -2   -1    0    0    0  501  0.00000000000E+00  0.00000000000E+00  0.18777606686E+04  0.18777606686E+04  0.25500000920E-02 0. -1.
        2   -1    0    0  501    0  0.00000000000E+00  0.00000000000E+00 -0.70499035266E+03  0.70499035266E+03  0.25500000920E-02 0.  1.
    10030    2    1    2    0    0  0.00000000000E+00  0.00000000000E+00  0.11727703160E+04  0.25827510213E+04  0.23011329001E+04 0.  0.
        1    1    3    3  502    0  0.89861213273E+03 -0.46950798521E+03 -0.24114144854E+02  0.10141612324E+04  0.50400001928E-02 0.  1.
       -1    1    3    3    0  502 -0.89861213273E+03  0.46950798521E+03  0.11968844608E+04  0.15685897889E+04  0.50400001928E-02 0. -1.
</event>
<event>
 5   0  0.7607231E-07  0.2299801E+04  0.7818609E-02  0.8478000E-01
        1   -1    0    0  501    0  0.00000000000E+00  0.00000000000E+00  0.11864214243E+04  0.11864214243E+04  0.50400001928E-02 0.  1.
       -1   -1    0    0    0  501  0.00000000000E+00  0.00000000000E+00 -0.11145038882E+04  0.11145038882E+04  0.50400001928E-02 0. -1.
    10030    2    1    2    0    0  0.00000000000E+00  0.00000000000E+00  0.71917536092E+02  0.23009253125E+04  0.22998011135E+04 0.  0.
        2    1    3    3  502    0  0.93784244814E+03 -0.44310620466E+03  0.53256792619E+03  0.11659846320E+04  0.25500000920E-02 0.  1.
       -2    1    3    3    0  502 -0.93784244814E+03  0.44310620466E+03 -0.46065039010E+03  0.11349406804E+04  0.25500000920E-02 0. -1.
</event>
<event>
 5   0  0.1828646E-06  0.2299362E+04  0.7818609E-02  0.8478173E-01
        2   -1    0    0  501    0  0.00000000000E+00  0.00000000000E+00  0.19351174032E+04  0.19351174032E+04  0.25500000920E-02 0. -1.
       -2   -1    0    0    0  501  0.00000000000E+00  0.00000000000E+00 -0.68304183298E+03  0.68304183298E+03  0.25500000920E-02 0.  1.
    10030    2    1    2    0    0  0.00000000000E+00  0.00000000000E+00  0.12520755702E+04  0.26181592362E+04  0.22993617707E+04 0.  0.
        3    1    3    3  502    0 -0.13835960429E+03 -0.85587066899E+03  0.14857782610E+04  0.17202310987E+04  0.10100000352E+00 0. -1.
       -3    1    3    3    0  502  0.13835960429E+03  0.85587066899E+03 -0.23370269075E+03  0.89792813744E+03  0.10100000352E+00 0.  1.
</event>
<event>
 5   0  0.8108242E-07  0.2298951E+04  0.7818609E-02  0.8478335E-01
       -1   -1    0    0    0  501  0.00000000000E+00  0.00000000000E+00  0.78800986741E+03  0.78800986742E+03  0.50400001928E-02 0.  1.
        1   -1    0    0  501    0  0.00000000000E+00  0.00000000000E+00 -0.16767482393E+04  0.16767482393E+04  0.50400001928E-02 0. -1.
    10030    2    1    2    0    0  0.00000000000E+00  0.00000000000E+00 -0.88873837187E+03  0.24647581067E+04  0.22989512024E+04 0.  0.
        4    1    3    3  502    0 -0.27486561525E+03  0.11109649053E+04 -0.32940472973E+03  0.11909253613E+04  0.12699999809E+01 0.  1.
       -4    1    3    3    0  502  0.27486561525E+03 -0.11109649053E+04 -0.55933364215E+03  0.12738327454E+04  0.12699999809E+01 0. -1.
</event>
<event>
 5   0  0.1744876E-06  0.2300615E+04  0.7818609E-02  0.8477679E-01
       -2   -1    0    0    0  501  0.00000000000E+00  0.00000000000E+00  0.92071585482E+03  0.92071585483E+03  0.25500000920E-02 0.  1.
        2   -1    0    0  501    0  0.00000000000E+00  0.00000000000E+00 -0.14371510448E+04  0.14371510448E+04  0.25500000920E-02 0. -1.
    10030    2    1    2    0    0  0.00000000000E+00  0.00000000000E+00 -0.51643518995E+03  0.23578668996E+04  0.23006153548E+04 0.  0.
        1    1    3    3  502    0 -0.74539273689E+03  0.47021959022E+03  0.49942915016E+03  0.10129887814E+04  0.50400001928E-02 0.  1.
       -1    1    3    3    0  502  0.74539273689E+03 -0.47021959022E+03 -0.10158643401E+04  0.13448781182E+04  0.50400001928E-02 0. -1.
</event>
<event>
 5   0  0.8097672E-07  0.2298935E+04  0.7818609E-02  0.8478341E-01
        1   -1    0    0  501    0  0.00000000000E+00  0.00000000000E+00  0.15017426009E+04  0.15017426009E+04  0.50400001928E-02 0. -1.
       -1   -1    0    0    0  501  0.00000000000E+00  0.00000000000E+00 -0.87982851646E+03  0.87982851648E+03  0.50400001928E-02 0.  1.
    10030    2    1    2    0    0  0.00000000000E+00  0.00000000000E+00  0.62191408443E+03  0.23815711174E+04  0.22989353751E+04 0.  0.
        3    1    3    3  502    0  0.73130582248E+03  0.88677555338E+03  0.32115289077E+03  0.11934480624E+04  0.10100000352E+00 0.  1.
       -3    1    3    3    0  502 -0.73130582248E+03 -0.88677555338E+03  0.30076119366E+03  0.11881230550E+04  0.10100000352E+00 0. -1.
</event>
<event>
 5   0  0.1888779E-06  0.2298209E+04  0.7818609E-02  0.8478628E-01
        2   -1    0    0  501    0  0.00000000000E+00  0.00000000000E+00  0.13994458372E+04  0.13994458372E+04  0.25500000920E-02 0.  1.
       -2   -1    0    0    0  501  0.00000000000E+00  0.00000000000E+00 -0.94354577335E+03  0.94354577335E+03  0.25500000920E-02 0. -1.
    10030    2    1    2    0    0  0.00000000000E+00  0.00000000000E+00  0.45590006385E+03  0.23429916106E+04  0.22982090460E+04 0.  0.
        4    1    3    3  502    0 -0.16924591205E+03  0.31923524345E+03 -0.88412365750E+03  0.95510814784E+03  0.12699999809E+01 0. -1.
       -4    1    3    3    0  502  0.16924591205E+03 -0.31923524345E+03  0.13400237214E+04  0.13878834627E+04  0.12699999809E+01 0.  1.
</event>
<event>
 5   0  0.6319125E-07  0.2299123E+04  0.7818609E-02  0.8478267E-01
       -3   -1    0    0    0  501  0.00000000000E+00  0.00000000000E+00  0.98344480665E+03  0.98344481183E+03  0.10100000352E+00 0.  1.
        3   -1    0    0  501    0  0.00000000000E+00  0.00000000000E+00 -0.13437373368E+04  0.13437373406E+04  0.10100000352E+00 0. -1.
    10030    2    1    2    0    0  0.00000000000E+00  0.00000000000E+00 -0.36029253018E+03  0.23271821525E+04  0.22991228900E+04 0.  0.
        5    1    3    3  502    0 -0.58708446610E+03 -0.34307843352E+03  0.75804126990E+03  0.10183416120E+04  0.46999998093E+01 0.  1.
       -5    1    3    3    0  502  0.58708446610E+03  0.34307843352E+03 -0.11183338001E+04  0.13088405404E+04  0.46999998093E+01 0. -1.
</event>
<event>
 5   0  0.1689444E-06  0.2298922E+04  0.7818609E-02  0.8478346E-01
        2   -1    0    0  501    0  0.00000000000E+00  0.00000000000E+00  0.12139181865E+04  0.12139181865E+04  0.25500000920E-02 0. -1.
       -2   -1    0    0    0  501  0.00000000000E+00  0.00000000000E+00 -0.10884267191E+04  0.10884267191E+04  0.25500000920E-02 0.  1.
    10030    2    1    2    0    0  0.00000000000E+00  0.00000000000E+00  0.12549146743E+03  0.23023449057E+04  0.22989223467E+04 0.  0.
        2    1    3    3  502    0 -0.49212082116E+03 -0.22090511758E+03  0.10792834797E+04  0.12065797956E+04  0.25500000920E-02 0. -1.
       -2    1    3    3    0  502  0.49212082116E+03  0.22090511758E+03 -0.95379201231E+03  0.10957651100E+04  0.25500000920E-02 0.  1.
</event>
<event>
 5   0  0.1825521E-06  0.2306916E+04  0.7818609E-02  0.8475199E-01
       -2   -1    0    0    0  501  0.00000000000E+00  0.00000000000E+00  0.11697163189E+04  0.11697163189E+04  0.25500000920E-02 0.  1.
        2   -1    0    0  501    0  0.00000000000E+00  0.00000000000E+00 -0.11374254116E+04  0.11374254116E+04  0.25500000920E-02 0. -1.
    10030    2    1    2    0    0  0.00000000000E+00  0.00000000000E+00  0.32290907270E+02  0.23071417305E+04  0.23069157466E+04 0.  0.
        5    1    3    3  502    0  0.68213841054E+03  0.29483793669E+03 -0.86609783876E+03  0.11412229302E+04  0.46999998093E+01 0. -1.
       -5    1    3    3    0  502 -0.68213841054E+03 -0.29483793669E+03  0.89838874603E+03  0.11659188004E+04  0.46999998093E+01 0.  1.
</event>
<event>
 5   0  0.1689444E-06  0.2304802E+04  0.7818609E-02  0.8476030E-01
        2   -1    0    0  501    0  0.00000000000E+00  0.00000000000E+00  0.16345061988E+04  0.16345061988E+04  0.25500000920E-02 0.  1.
       -2   -1    0    0    0  501  0.00000000000E+00  0.00000000000E+00 -0.81249501474E+03  0.81249501474E+03  0.25500000920E-02 0. -1.
    10030    2    1    2    0    0  0.00000000000E+00  0.00000000000E+00  0.82201118405E+03  0.24470012135E+04  0.23048020636E+04 0.  0.
        2    1    3    3  502    0  0.59862054623E+03 -0.77824281651E+03 -0.22955909504E+03  0.10083183118E+04  0.25500000920E-02 0. -1.
       -2    1    3    3    0  502 -0.59862054623E+03  0.77824281651E+03  0.10515702791E+04  0.14386829017E+04  0.25500000920E-02 0.  1.
</event>
<event>
 5   0  0.1828646E-06  0.2298802E+04  0.7818609E-02  0.8478394E-01
        2   -1    0    0  501    0  0.00000000000E+00  0.00000000000E+00  0.22463727082E+04  0.22463727082E+04  0.25500000920E-02 0. -1.
       -2   -1    0    0    0  501  0.00000000000E+00  0.00000000000E+00 -0.58811370458E+03  0.58811370458E+03  0.25500000920E-02 0.  1.
    10030    2    1    2    0    0  0.00000000000E+00  0.00000000000E+00  0.16582590036E+04  0.28344864128E+04  0.22988019273E+04 0.  0.
        3    1    3    3  502    0 -0.10208691765E+04  0.29629580990E+03  0.29003056136E+03  0.11018542640E+04  0.10100000352E+00 0.  1.
       -3    1    3    3    0  502  0.10208691765E+04 -0.29629580990E+03  0.13682284422E+04  0.17326321487E+04  0.10100000352E+00 0. -1.
</event>
<event>
 5   0  0.1828646E-06  0.2300425E+04  0.7818609E-02  0.8477754E-01
       -2   -1    0    0    0  501  0.00000000000E+00  0.00000000000E+00  0.80696072644E+03  0.80696072644E+03  0.25500000920E-02 0.  1.
        2   -1    0    0  501    0  0.00000000000E+00  0.00000000000E+00 -0.16394704452E+04  0.16394704452E+04  0.25500000920E-02 0. -1.
    10030    2    1    2    0    0  0.00000000000E+00  0.00000000000E+00 -0.83250971879E+03  0.24464311717E+04  0.23004245360E+04 0.  0.
        3    1    3    3  502    0  0.37448577214E+03 -0.67197983006E+03  0.49311521154E+03  0.91376096852E+03  0.10100000352E+00 0.  1.
       -3    1    3    3    0  502 -0.37448577214E+03  0.67197983006E+03 -0.13256249303E+04  0.15326702032E+04  0.10100000352E+00 0. -1.
</event>
<event>
 5   0  0.1689444E-06  0.2295292E+04  0.7818609E-02  0.8479780E-01
        2   -1    0    0  501    0  0.00000000000E+00  0.00000000000E+00  0.12149472022E+04  0.12149472022E+04  0.25500000920E-02 0. -1.
       -2   -1    0    0    0  501  0.00000000000E+00  0.00000000000E+00 -0.10840724705E+04  0.10840724705E+04  0.25500000920E-02 0.  1.
    10030    2    1    2    0    0  0.00000000000E+00  0.00000000000E+00  0.13087473175E+03  0.22990196727E+04  0.22952915414E+04 0.  0.
        2    1    3    3  502    0 -0.10096886892E+04  0.40178959839E+03  0.43506885844E+03  0.11705515973E+04  0.25500000920E-02 0. -1.
       -2    1    3    3    0  502  0.10096886892E+04 -0.40178959839E+03 -0.30419412669E+03  0.11284680754E+04  0.25500000920E-02 0.  1.
</event>
<event>
 5   0  0.6319125E-07  0.2299142E+04  0.7818609E-02  0.8478259E-01
       -3   -1    0    0    0  501  0.00000000000E+00  0.00000000000E+00  0.94056018471E+03  0.94056019013E+03  0.10100000352E+00 0. -1.
        3   -1    0    0  501    0  0.00000000000E+00  0.00000000000E+00 -0.14050284197E+04  0.14050284233E+04  0.10100000352E+00 0.  1.
    10030    2    1    2    0    0  0.00000000000E+00  0.00000000000E+00 -0.46446823497E+03  0.23455886134E+04  0.22991422753E+04 0.  0.
        4    1    3    3  502    0 -0.63513959316E+03  0.93705178787E+03 -0.28082036446E+02  0.11323685662E+04  0.12699999809E+01 0. -1.
       -4    1    3    3    0  502  0.63513959316E+03 -0.93705178787E+03 -0.43638619852E+03  0.12132200473E+04  0.12699999809E+01 0.  1.
</event>
<event>
 5   0  0.1825521E-06  0.2300133E+04  0.7818609E-02  0.8477869E-01
       -2   -1    0    0    0  501  0.00000000000E+00  0.00000000000E+00  0.59644899312E+03  0.59644899313E+03  0.25500000920E-02 0. -1.
        2   -1    0    0  501    0  0.00000000000E+00  0.00000000000E+00 -0.22175464352E+04  0.22175464352E+04  0.25500000920E-02 0.  1.
    10030    2    1    2    0    0  0.00000000000E+00  0.00000000000E+00 -0.16210974421E+04  0.28139954284E+04  0.23001333340E+04 0.  0.
        5    1    3    3  502    0 -0.78593276080E+03  0.60645282529E+03 -0.10017683210E+03  0.99776391070E+03  0.46999998093E+01 0. -1.
       -5    1    3    3    0  502  0.78593276080E+03 -0.60645282529E+03 -0.15209206100E+04  0.18162315177E+04  0.46999998093E+01 0.  1.
</event>
<event>
 5   0  0.1828646E-06  0.2299717E+04  0.7818609E-02  0.8478033E-01
       -2   -1    0    0    0  501  0.00000000000E+00  0.00000000000E+00  0.11905992941E+04  0.11905992941E+04  0.25500000920E-02 0.  1.
        2   -1    0    0  501    0  0.00000000000E+00  0.00000000000E+00 -0.11105118838E+04  0.11105118838E+04  0.25500000920E-02 0. -1.
    10030    2    1    2    0    0  0.00000000000E+00  0.00000000000E+00  0.80087410273E+02  0.23011111779E+04  0.22997170825E+04 0.  0.
        3    1    3    3  502    0 -0.34004881173E+03  0.66199994647E+03 -0.83701347776E+03  0.11200306673E+04  0.10100000352E+00 0. -1.
       -3    1    3    3    0  502  0.34004881173E+03 -0.66199994647E+03  0.91710088803E+03  0.11810805106E+04  0.10100000352E+00 0.  1.
</event>
<event>
 5   0  0.8108242E-07  0.2300852E+04  0.7818609E-02  0.8477585E-01
       -1   -1    0    0    0  501  0.00000000000E+00  0.00000000000E+00  0.15644509161E+04  0.15644509161E+04  0.50400001928E-02 0. -1.
        1   -1    0    0  501    0  0.00000000000E+00  0.00000000000E+00 -0.84597075804E+03  0.84597075806E+03  0.50400001928E-02 0.  1.
    10030    2    1    2    0    0  0.00000000000E+00  0.00000000000E+00  0.71848015806E+03  0.24104216742E+04  0.23008517792E+04 0.  0.
        4    1    3    3  502    0  0.47482218706E+03 -0.67349785860E+03  0.12002280351E+04  0.14558861302E+04  0.12699999809E+01 0. -1.
       -4    1    3    3    0  502 -0.47482218706E+03  0.67349785860E+03 -0.48174787703E+03  0.95453554401E+03  0.12699999809E+01 0.  1.
</event>
<event>
 5   0  0.1744876E-06  0.2297849E+04  0.7818609E-02  0.8478770E-01
       -2   -1    0    0    0  501  0.00000000000E+00  0.00000000000E+00  0.13482091413E+04  0.13482091413E+04  0.25500000920E-02 0.  1.
        2   -1    0    0  501    0  0.00000000000E+00  0.00000000000E+00 -0.97909715504E+03  0.97909715505E+03  0.25500000920E-02 0. -1.
    10030    2    1    2    0    0  0.00000000000E+00  0.00000000000E+00  0.36911198629E+03  0.23273062964E+04  0.22978491984E+04 0.  0.
        1    1    3    3  502    0  0.83739851335E+03  0.59884789919E+03 -0.33205405355E+03  0.10817185267E+04  0.50400001928E-02 0. -1.
       -1    1    3    3    0  502 -0.83739851335E+03 -0.59884789919E+03  0.70116603984E+03  0.12455877697E+04  0.50400001928E-02 0.  1.
</event>
<event>
 5   0  0.1689444E-06  0.2299039E+04  0.7818609E-02  0.8478300E-01
        2   -1    0    0  501    0  0.00000000000E+00  0.00000000000E+00  0.21973655433E+04  0.21973655433E+04  0.25500000920E-02 0. -1.
       -2   -1    0    0    0  501  0.00000000000E+00  0.00000000000E+00 -0.60135412326E+03  0.60135412326E+03  0.25500000920E-02 0.  1.
    10030    2    1    2    0    0  0.00000000000E+00  0.00000000000E+00  0.15960114200E+04  0.27987196665E+04  0.22990387815E+04 0.  0.
        2    1    3    3  502    0  0.84755687522E+03  0.69319413562E+03  0.37189367753E+03  0.11563631237E+04  0.25500000920E-02 0.  1.
       -2    1    3    3    0  502 -0.84755687522E+03 -0.69319413562E+03  0.12241177425E+04  0.16423565428E+04  0.25500000920E-02 0. -1.
</event>
<event>
 5   0  0.7607231E-07  0.2299141E+04  0.7818609E-02  0.8478260E-01
        1   -1    0    0  501    0  0.00000000000E+00  0.00000000000E+00  0.20056551635E+04  0.20056551635E+04  0.50400001928E-02 0.  1.
       -1   -1    0    0    0  501  0.00000000000E+00  0.00000000000E+00 -0.65889337204E+03  0.65889337206E+03  0.50400001928E-02 0. -1.
    10030    2    1    2    0    0  0.00000000000E+00  0.00000000000E+00  0.13467617915E+04  0.26645485356E+04  0.22991414866E+04 0.  0.
        2    1    3    3  502    0 -0.23597674989E+03  0.12040950986E+03  0.19697950517E+04  0.19875301312E+04  0.25500000920E-02 0.  1.
       -2    1    3    3    0  502  0.23597674989E+03 -0.12040950986E+03 -0.62303326023E+03  0.67701840441E+03  0.25500000920E-02 0. -1.
</event>
<event>
 5   0  0.1825521E-06  0.2299751E+04  0.7818609E-02  0.8478019E-01
       -2   -1    0    0    0  501  0.00000000000E+00  0.00000000000E+00  0.65004894104E+03  0.65004894105E+03  0.25500000920E-02 0.  1.
        2   -1    0    0  501    0  0.00000000000E+00  0.00000000000E+00 -0.20340210922E+04  0.20340210922E+04  0.25500000920E-02 0. -1.
    10030    2    1    2    0    0  0.00000000000E+00  0.00000000000E+00 -0.13839721511E+04  0.26840700332E+04  0.22997506448E+04 0.  0.
        5    1    3    3  502    0 -0.62621905698E+03 -0.75681189037E+03  0.56282559729E+01  0.98232800632E+03  0.46999998093E+01 0.  1.
       -5    1    3    3    0  502  0.62621905698E+03  0.75681189037E+03 -0.13896004071E+04  0.17017420269E+04  0.46999998093E+01 0. -1.
</event>
<event>
 5   0  0.8097672E-07  0.2303496E+04  0.7818609E-02  0.8476544E-01
        1   -1    0    0  501    0  0.00000000000E+00  0.00000000000E+00  0.97601493594E+03  0.97601493595E+03  0.50400001928E-02 0. -1.
       -1   -1    0    0    0  501  0.00000000000E+00  0.00000000000E+00 -0.13591224601E+04  0.13591224601E+04  0.50400001928E-02 0.  1.
    10030    2    1    2    0    0  0.00000000000E+00  0.00000000000E+00 -0.38310752416E+03  0.23351373961E+04  0.23034963172E+04 0.  0.
        3    1    3    3  502    0 -0.12244179948E+03  0.10169406619E+03 -0.13479197182E+04  0.13572845148E+04  0.10100000352E+00 0.  1.
       -3    1    3    3    0  502  0.12244179948E+03 -0.10169406619E+03  0.96481219403E+03  0.97785288122E+03  0.10100000352E+00 0. -1.
</event>
<event>
 5   0  0.8097672E-07  0.2301334E+04  0.7818609E-02  0.8477395E-01
       -1   -1    0    0    0  501  0.00000000000E+00  0.00000000000E+00  0.62730626715E+03  0.62730626717E+03  0.50400001928E-02 0. -1.
        1   -1    0    0  501    0  0.00000000000E+00  0.00000000000E+00 -0.21106672767E+04  0.21106672767E+04  0.50400001928E-02 0.  1.
    10030    2    1    2    0    0  0.00000000000E+00  0.00000000000E+00 -0.14833610096E+04  0.27379735439E+04  0.23013342309E+04 0.  0.
        3    1    3    3  502    0  0.38518593829E+03  0.93499570223E+03 -0.13948966760E+04  0.17228818639E+04  0.10100000352E+00 0.  1.
       -3    1    3    3    0  502 -0.38518593829E+03 -0.93499570223E+03 -0.88464333628E+02  0.10150916800E+04  0.10100000352E+00 0. -1.
</event>
<event>
 5   0  0.8108242E-07  0.2299791E+04  0.7818609E-02  0.8478004E-01
        1   -1    0    0  501    0  0.00000000000E+00  0.00000000000E+00  0.88537302366E+03  0.88537302368E+03  0.50400001928E-02 0. -1.
       -1   -1    0    0    0  501  0.00000000000E+00  0.00000000000E+00 -0.14934487243E+04  0.14934487243E+04  0.50400001928E-02 0.  1.
    10030    2    1    2    0    0  0.00000000000E+00  0.00000000000E+00 -0.60807570064E+03  0.23788217480E+04  0.22997906103E+04 0.  0.
        4    1    3    3  502    0 -0.46857393628E+03 -0.48207758791E+03 -0.12689936335E+04  0.14360733927E+04  0.12699999809E+01 0.  1.
       -4    1    3    3    0  502  0.46857393628E+03  0.48207758791E+03  0.66091793285E+03  0.94274835528E+03  0.12699999809E+01 0. -1.
</event>
<event>
 5   0  0.1888779E-06  0.2300392E+04  0.7818609E-02  0.8477766E-01
       -2   -1    0    0    0  501  0.00000000000E+00  0.00000000000E+00  0.61132780062E+03  0.61132780063E+03  0.25500000920E-02 0. -1.
        2   -1    0    0  501    0  0.00000000000E+00  0.00000000000E+00 -0.21640616495E+04  0.21640616495E+04  0.25500000920E-02 0.  1.
    10030    2    1    2    0    0  0.00000000000E+00  0.00000000000E+00 -0.15527338488E+04  0.27753894501E+04  0.23003921827E+04 0.  0.
        4    1    3    3  502    0  0.58234884287E+03 -0.47808114457E+03 -0.18248697982E+04  0.19742956083E+04  0.12699999809E+01 0.  1.
       -4    1    3    3    0  502 -0.58234884287E+03  0.47808114457E+03  0.27213594935E+03  0.80109384183E+03  0.12699999809E+01 0. -1.
</event>
<event>
 5   0  0.1689444E-06  0.2300274E+04  0.7818609E-02  0.8477813E-01
       -2   -1    0    0    0  501  0.00000000000E+00  0.00000000000E+00  0.76381420417E+03  0.76381420417E+03  0.25500000920E-02 0.  1.
        2   -1    0    0  501    0  0.00000000000E+00  0.00000000000E+00 -0.17318543160E+04  0.17318543160E+04  0.25500000920E-02 0. -1.
    10030    2    1    2    0    0  0.00000000000E+00  0.00000000000E+00 -0.96804011186E+03  0.24956685202E+04  0.23002738325E+04 0.  0.
        2    1    3    3  502    0 -0.62759133644E+03  0.70261741081E+03 -0.11998141880E+04  0.15254822835E+04  0.25500000920E-02 0. -1.
       -2    1    3    3    0  502  0.62759133644E+03 -0.70261741081E+03  0.23177407612E+03  0.97018623672E+03  0.25500000920E-02 0.  1.
</event>
<event>
 5   0  0.1888779E-06  0.2302037E+04  0.7818609E-02  0.8477119E-01
        2   -1    0    0  501    0  0.00000000000E+00  0.00000000000E+00  0.14481595289E+04  0.14481595289E+04  0.25500000920E-02 0. -1.
       -2   -1    0    0    0  501  0.00000000000E+00  0.00000000000E+00 -0.91484620739E+03  0.91484620740E+03  0.25500000920E-02 0.  1.
    10030    2    1    2    0    0  0.00000000000E+00  0.00000000000E+00  0.53331332153E+03  0.23630057363E+04  0.23020367093E+04 0.  0.
        4    1    3    3  502    0  0.20620179279E+03  0.46616455093E+03  0.13259835598E+04  0.14205852954E+04  0.12699999809E+01 0. -1.
       -4    1    3    3    0  502 -0.20620179279E+03 -0.46616455093E+03 -0.79267023825E+03  0.94242044089E+03  0.12699999809E+01 0.  1.
</event>
<event>
 5   0  0.1744876E-06  0.2301794E+04  0.7818609E-02  0.8477214E-01
        2   -1    0    0  501    0  0.00000000000E+00  0.00000000000E+00  0.23974885492E+04  0.23974885492E+04  0.25500000920E-02 0. -1.
       -2   -1    0    0    0  501  0.00000000000E+00  0.00000000000E+00 -0.55247969001E+03  0.55247969002E+03  0.25500000920E-02 0.  1.
    10030    2    1    2    0    0  0.00000000000E+00  0.00000000000E+00  0.18450088592E+04  0.29499682392E+04  0.23017938487E+04 0.  0.
        1    1    3    3  502    0  0.97504837000E+03 -0.20138789403E+03  0.16623827677E+04  0.19377287927E+04  0.50400001928E-02 0. -1.
       -1    1    3    3    0  502 -0.97504837000E+03  0.20138789403E+03  0.18262609146E+03  0.10122394465E+04  0.50400001928E-02 0.  1.
</event>
<event>
 5   0  0.1828646E-06  0.2294488E+04  0.7818609E-02  0.8480097E-01
        2   -1    0    0  501    0  0.00000000000E+00  0.00000000000E+00  0.18610799544E+04  0.18610799544E+04  0.25500000920E-02 0. -1.
       -2   -1    0    0    0  501  0.00000000000E+00  0.00000000000E+00 -0.70720731448E+03  0.70720731448E+03  0.25500000920E-02 0.  1.
    10030    2    1    2    0    0  0.00000000000E+00  0.00000000000E+00  0.11538726399E+04  0.25682872689E+04  0.22944884890E+04 0.  0.
        3    1    3    3  502    0  0.46534472716E+03 -0.86740097077E+03 -0.82650670558E+02  0.98780630831E+03  0.10100000352E+00 0.  1.
       -3    1    3    3    0  502 -0.46534472716E+03  0.86740097077E+03  0.12365233105E+04  0.15804809606E+04  0.10100000352E+00 0. -1.
</event>
<event>
 5   0  0.7761069E-07  0.2300048E+04  0.7818609E-02  0.8477902E-01
        1   -1    0    0  501    0  0.00000000000E+00  0.00000000000E+00  0.93818754229E+03  0.93818754230E+03  0.50400001928E-02 0.  1.
       -1   -1    0    0    0  501  0.00000000000E+00  0.00000000000E+00 -0.14096919933E+04  0.14096919933E+04  0.50400001928E-02 0. -1.
    10030    2    1    2    0    0  0.00000000000E+00  0.00000000000E+00 -0.47150445104E+03  0.23478795356E+04  0.23000482314E+04 0.  0.
        1    1    3    3  502    0  0.42087777358E+03 -0.77220870067E+03 -0.99218262570E+03  0.13258471784E+04  0.50400001928E-02 0. -1.
       -1    1    3    3    0  502 -0.42087777358E+03  0.77220870067E+03  0.52067817466E+03  0.10220323573E+04  0.50400001928E-02 0.  1.
</event>
<event>
 5   0  0.1689444E-06  0.2300421E+04  0.7818609E-02  0.8477755E-01
       -2   -1    0    0    0  501  0.00000000000E+00  0.00000000000E+00  0.64758834234E+03  0.64758834234E+03  0.25500000920E-02 0. -1.
        2   -1    0    0  501    0  0.00000000000E+00  0.00000000000E+00 -0.20429402401E+04  0.20429402401E+04  0.25500000920E-02 0.  1.
    10030    2    1    2    0    0  0.00000000000E+00  0.00000000000E+00 -0.13953518978E+04  0.26905285824E+04  0.23004210776E+04 0.  0.
        2    1    3    3  502    0  0.39365272319E+02  0.72048531640E+03  0.34995493883E+03  0.80194586789E+03  0.25500000920E-02 0. -1.
       -2    1    3    3    0  502 -0.39365272319E+02 -0.72048531640E+03 -0.17453068366E+04  0.18885827145E+04  0.25500000920E-02 0.  1.
</event>
<event>
 5   0  0.7607231E-07  0.2297683E+04  0.7818609E-02  0.8478835E-01
       -1   -1    0    0    0  501  0.00000000000E+00  0.00000000000E+00  0.56947099668E+03  0.56947099670E+03  0.50400001928E-02 0. -1.
        1   -1    0    0  501    0  0.00000000000E+00  0.00000000000E+00 -0.23176534625E+04  0.23176534625E+04  0.50400001928E-02 0.  1.
    10030    2    1    2    0    0  0.00000000000E+00  0.00000000000E+00 -0.17481824658E+04  0.28871244592E+04  0.22976826824E+04 0.  0.
        2    1    3    3  502    0 -0.17048392692E+03  0.11214893910E+04 -0.64571505346E+03  0.13052781902E+04  0.25500000920E-02 0.  1.
       -2    1    3    3    0  502  0.17048392692E+03 -0.11214893910E+04 -0.11024674124E+04  0.15818462690E+04  0.25500000920E-02 0. -1.
</event>
<event>
 5   0  0.1689444E-06  0.2299634E+04  0.7818609E-02  0.8478065E-01
       -2   -1    0    0    0  501  0.00000000000E+00  0.00000000000E+00  0.97854592698E+03  0.97854592699E+03  0.25500000920E-02 0. -1.
        2   -1    0    0  501    0  0.00000000000E+00  0.00000000000E+00 -0.13510655422E+04  0.13510655422E+04  0.25500000920E-02 0.  1.
    10030    2    1    2    0    0  0.00000000000E+00  0.00000000000E+00 -0.37251961523E+03  0.23296114692E+04  0.22996344783E+04 0.  0.
        2    1    3    3  502    0 -0.62336077938E+03  0.92829079404E+03 -0.45766491299E+03  0.12082051283E+04  0.25500000920E-02 0. -1.
       -2    1    3    3    0  502  0.62336077938E+03 -0.92829079404E+03  0.85145297768E+02  0.11214063409E+04  0.25500000920E-02 0.  1.
</event>
<event>
 5   0  0.1888779E-06  0.2299741E+04  0.7818609E-02  0.8478023E-01
       -2   -1    0    0    0  501  0.00000000000E+00  0.00000000000E+00  0.66298225877E+03  0.66298225878E+03  0.25500000920E-02 0.  1.
        2   -1    0    0  501    0  0.00000000000E+00  0.00000000000E+00 -0.19943258762E+04  0.19943258762E+04  0.25500000920E-02 0. -1.
    10030    2    1    2    0    0  0.00000000000E+00  0.00000000000E+00 -0.13313436175E+04  0.26573081350E+04  0.22997414413E+04 0.  0.
        4    1    3    3  502    0  0.40912130780E+03 -0.10744214326E+04 -0.64145070520E+03  0.13165190008E+04  0.12699999809E+01 0. -1.
       -4    1    3    3    0  502 -0.40912130780E+03  0.10744214326E+04 -0.68989291226E+03  0.13407891343E+04  0.12699999809E+01 0.  1.
</event>
<event>
 5   0  0.7761069E-07  0.2300548E+04  0.7818609E-02  0.8477705E-01
        1   -1    0    0  501    0  0.00000000000E+00  0.00000000000E+00  0.18228207370E+04  0.18228207370E+04  0.50400001928E-02 0. -1.
       -1   -1    0    0    0  501  0.00000000000E+00  0.00000000000E+00 -0.72586943317E+03  0.72586943319E+03  0.50400001928E-02 0.  1.
    10030    2    1    2    0    0  0.00000000000E+00  0.00000000000E+00  0.10969513038E+04  0.25486901702E+04  0.23005476350E+04 0.  0.
        1    1    3    3  502    0 -0.10007203788E+04 -0.24396785281E+03 -0.18776137034E+02  0.10302010158E+04  0.50400001928E-02 0.  1.
       -1    1    3    3    0  502  0.10007203788E+04  0.24396785281E+03  0.11157274409E+04  0.15184891544E+04  0.50400001928E-02 0. -1.
</event>
<event>
 5   0  0.8097672E-07  0.2300174E+04  0.7818609E-02  0.8477852E-01
       -1   -1    0    0    0  501  0.00000000000E+00  0.00000000000E+00  0.65219229416E+03  0.65219229418E+03  0.50400001928E-02 0. -1.
        1   -1    0    0  501    0  0.00000000000E+00  0.00000000000E+00 -0.20280834997E+04  0.20280834997E+04  0.50400001928E-02 0.  1.
    10030    2    1    2    0    0  0.00000000000E+00  0.00000000000E+00 -0.13758912056E+04  0.26802757939E+04  0.23001742808E+04 0.  0.
        3    1    3    3  502    0  0.18848900441E+03  0.45832104878E+03  0.52139769760E+03  0.71933431574E+03  0.10100000352E+00 0. -1.
       -3    1    3    3    0  502 -0.18848900441E+03 -0.45832104878E+03 -0.18972889032E+04  0.19609414782E+04  0.10100000352E+00 0.  1.
</event>
<event>
 5   0  0.1828646E-06  0.2301162E+04  0.7818609E-02  0.8477463E-01
        2   -1    0    0  501    0  0.00000000000E+00  0.00000000000E+00  0.46473811121E+03  0.46473811122E+03  0.25500000920E-02 0.  1.
       -2   -1    0    0    0  501  0.00000000000E+00  0.00000000000E+00 -0.28485658209E+04  0.28485658209E+04  0.25500000920E-02 0. -1.
    10030    2    1    2    0    0  0.00000000000E+00  0.00000000000E+00 -0.23838277096E+04  0.33133039321E+04  0.23011624013E+04 0.  0.
        3    1    3    3  502    0 -0.79143540835E+03 -0.80936100890E+03 -0.89542637283E+03  0.14433376762E+04  0.10100000352E+00 0. -1.
       -3    1    3    3    0  502  0.79143540835E+03  0.80936100890E+03 -0.14884013368E+04  0.18699662558E+04  0.10100000352E+00 0.  1.
</event>
<event>
 5   0  0.7932912E-07  0.2299159E+04  0.7818609E-02  0.8478253E-01
        1   -1    0    0  501    0  0.00000000000E+00  0.00000000000E+00  0.14932680863E+04  0.14932680863E+04  0.50400001928E-02 0. -1.
       -1   -1    0    0    0  501  0.00000000000E+00  0.00000000000E+00 -0.88499357458E+03  0.88499357460E+03  0.50400001928E-02 0.  1.
    10030    2    1    2    0    0  0.00000000000E+00  0.00000000000E+00  0.60827451171E+03  0.23782616609E+04  0.22991586822E+04 0.  0.
        5    1    3    3  502    0 -0.67581960613E+03 -0.65018167105E+03 -0.38360002508E+03  0.10132321623E+04  0.46999998093E+01 0. -1.
       -5    1    3    3    0  502  0.67581960613E+03  0.65018167105E+03  0.99187453679E+03  0.13650294986E+04  0.46999998093E+01 0.  1.
</event>
<event>
 5   0  0.8108242E-07  0.2302031E+04  0.7818609E-02  0.8477121E-01
       -1   -1    0    0    0  501  0.00000000000E+00  0.00000000000E+00  0.66141127303E+03  0.66141127305E+03  0.50400001928E-02 0.  1.
        1   -1    0    0  501    0  0.00000000000E+00  0.00000000000E+00 -0.20030457787E+04  0.20030457787E+04  0.50400001928E-02 0. -1.
    10030    2    1    2    0    0  0.00000000000E+00  0.00000000000E+00 -0.13416345057E+04  0.26644570517E+04  0.23020313277E+04 0.  0.
        4    1    3    3  502    0 -0.99982179017E+03  0.50880788971E+03 -0.37277687579E+03  0.11821562049E+04  0.12699999809E+01 0.  1.
       -4    1    3    3    0  502  0.99982179017E+03 -0.50880788971E+03 -0.96885762986E+03  0.14823008468E+04  0.12699999809E+01 0. -1.
</event>
<event>
 5   0  0.1888779E-06  0.2300105E+04  0.7818609E-02  0.8477880E-01
        2   -1    0    0  501    0  0.00000000000E+00  0.00000000000E+00  0.10026129146E+04  0.10026129146E+04  0.25500000920E-02 0.  1.
       -2   -1    0    0    0  501  0.00000000000E+00  0.00000000000E+00 -0.13191734473E+04  0.13191734473E+04  0.25500000920E-02 0. -1.
    10030    2    1    2    0    0  0.00000000000E+00  0.00000000000E+00 -0.31656053269E+03  0.23217863619E+04  0.23001046366E+04 0.  0.
        4    1    3    3  502    0 -0.66950752646E+03  0.13929388040E+03 -0.10916452956E+04  0.12881514575E+04  0.12699999809E+01 0. -1.
       -4    1    3    3    0  502  0.66950752646E+03 -0.13929388040E+03  0.77508476289E+03  0.10336349044E+04  0.12699999809E+01 0.  1.
</event>
<event>
 5   0  0.1744876E-06  0.2299996E+04  0.7818609E-02  0.8477923E-01
        2   -1    0    0  501    0  0.00000000000E+00  0.00000000000E+00  0.14616291741E+04  0.14616291741E+04  0.25500000920E-02 0.  1.
       -2   -1    0    0    0  501  0.00000000000E+00  0.00000000000E+00 -0.90480944764E+03  0.90480944764E+03  0.25500000920E-02 0. -1.
    10030    2    1    2    0    0  0.00000000000E+00  0.00000000000E+00  0.55681972650E+03  0.23664386218E+04  0.22999964224E+04 0.  0.
        1    1    3    3  502    0 -0.96722688690E+03 -0.48957456338E+03 -0.11645366528E+03  0.10903084701E+04  0.50400001928E-02 0. -1.
       -1    1    3    3    0  502  0.96722688690E+03  0.48957456338E+03  0.67327339178E+03  0.12761301517E+04  0.50400001928E-02 0.  1.
</event>
<event>
 5   0  0.7607231E-07  0.2300715E+04  0.7818609E-02  0.8477639E-01
        1   -1    0    0  501    0  0.00000000000E+00  0.00000000000E+00  0.15136645914E+04  0.15136645914E+04  0.50400001928E-02 0.  1.
       -1   -1    0    0    0  501  0.00000000000E+00  0.00000000000E+00 -0.87425056348E+03  0.87425056350E+03  0.50400001928E-02 0. -1.
    10030    2    1    2    0    0  0.00000000000E+00  0.00000000000E+00  0.63941402789E+03  0.23879151549E+04  0.23007147776E+04 0.  0.
        2    1    3    3  502    0 -0.29585113983E+03 -0.10357952402E+04 -0.99227913425E+02  0.10817790234E+04  0.25500000920E-02 0. -1.
       -2    1    3    3    0  502  0.29585113983E+03  0.10357952402E+04  0.73864194132E+03  0.13061361315E+04  0.25500000920E-02 0.  1.
</event>
<event>
 5   0  0.1689444E-06  0.2299761E+04  0.7818609E-02  0.8478015E-01
       -2   -1    0    0    0  501  0.00000000000E+00  0.00000000000E+00  0.11624746888E+04  0.11624746888E+04  0.25500000920E-02 0.  1.
        2   -1    0    0  501    0  0.00000000000E+00  0.00000000000E+00 -0.11374230342E+04  0.11374230342E+04  0.25500000920E-02 0. -1.
    10030    2    1    2    0    0  0.00000000000E+00  0.00000000000E+00  0.25051654638E+02  0.22998977230E+04  0.22997612813E+04 0.  0.
        2    1    3    3  502    0 -0.60291056835E+03  0.39882873357E+03  0.90681597255E+03  0.11596899242E+04  0.25500000920E-02 0.  1.
       -2    1    3    3    0  502  0.60291056835E+03 -0.39882873357E+03 -0.88176431791E+03  0.11402077988E+04  0.25500000920E-02 0. -1.
</event>
<event>
 5   0  0.1744876E-06  0.2300944E+04  0.7818609E-02  0.8477549E-01
        2   -1    0    0  501    0  0.00000000000E+00  0.00000000000E+00  0.99853332375E+03  0.99853332376E+03  0.25500000920E-02 0.  1.
       -2   -1    0    0    0  501  0.00000000000E+00  0.00000000000E+00 -0.13255301260E+04  0.13255301260E+04  0.25500000920E-02 0. -1.
    10030    2    1    2    0    0  0.00000000000E+00  0.00000000000E+00 -0.32699680229E+03  0.23240634498E+04  0.23009441562E+04 0.  0.
        1    1    3    3  502    0 -0.10120534658E+04 -0.38122635677E+03  0.23287327651E+03  0.11062620465E+04  0.50400001928E-02 0.  1.
       -1    1    3    3    0  502  0.10120534658E+04  0.38122635677E+03 -0.55987007880E+03  0.12178014033E+04  0.50400001928E-02 0. -1.
</event>
<event>
 5   0  0.1828646E-06  0.2299358E+04  0.7818609E-02  0.8478174E-01
        2   -1    0    0  501    0  0.00000000000E+00  0.00000000000E+00  0.90013979801E+03  0.90013979801E+03  0.25500000920E-02 0. -1.
       -2   -1    0    0    0  501  0.00000000000E+00  0.00000000000E+00 -0.14683961626E+04  0.14683961626E+04  0.25500000920E-02 0.  1.
    10030    2    1    2    0    0  0.00000000000E+00  0.00000000000E+00 -0.56825636461E+03  0.23685359606E+04  0.22993580193E+04 0.  0.
        3    1    3    3  502    0 -0.18932825192E+03  0.83399360471E+03  0.50734463088E+03  0.99437875297E+03  0.10100000352E+00 0. -1.
       -3    1    3    3    0  502  0.18932825192E+03 -0.83399360471E+03 -0.10756009955E+04  0.13741572077E+04  0.10100000352E+00 0.  1.
</event>
<event>
 5   0  0.1689444E-06  0.2300318E+04  0.7818609E-02  0.8477796E-01
        2   -1    0    0  501    0  0.00000000000E+00  0.00000000000E+00  0.19693157189E+04  0.19693157189E+04  0.25500000920E-02 0. -1.
       -2   -1    0    0    0  501  0.00000000000E+00  0.00000000000E+00 -0.67173857918E+03  0.67173857918E+03  0.25500000920E-02 0.  1.
    10030    2    1    2    0    0  0.00000000000E+00  0.00000000000E+00  0.12975771397E+04  0.26410542981E+04  0.23003176676E+04 0.  0.
        2    1    3    3  502    0  0.61803848907E+03 -0.95019511666E+02  0.17571107625E+04  0.18650572413E+04  0.25500000920E-02 0. -1.
       -2    1    3    3    0  502 -0.61803848907E+03  0.95019511666E+02 -0.45953362283E+03  0.77599705675E+03  0.25500000920E-02 0.  1.
</event>
<event>
 5   0  0.7932912E-07  0.2301197E+04  0.7818609E-02  0.8477449E-01
       -1   -1    0    0    0  501  0.00000000000E+00  0.00000000000E+00  0.50679632847E+03  0.50679632850E+03  0.50400001928E-02 0. -1.
        1   -1    0    0  501    0  0.00000000000E+00  0.00000000000E+00 -0.26122468188E+04  0.26122468188E+04  0.50400001928E-02 0.  1.
    10030    2    1    2    0    0  0.00000000000E+00  0.00000000000E+00 -0.21054504903E+04  0.31190431473E+04  0.23011971640E+04 0.  0.
        5    1    3    3  502    0  0.34948897831E+03  0.19864209541E+02  0.43285638977E+03  0.55670807156E+03  0.46999998093E+01 0. -1.
       -5    1    3    3    0  502 -0.34948897831E+03 -0.19864209541E+02 -0.25383068801E+04  0.25623350758E+04  0.46999998093E+01 0.  1.
</event>
<event>
 5   0  0.1888779E-06  0.2299394E+04  0.7818609E-02  0.8478160E-01
        2   -1    0    0  501    0  0.00000000000E+00  0.00000000000E+00  0.23142677816E+04  0.23142677816E+04  0.25500000920E-02 0.  1.
       -2   -1    0    0    0  501  0.00000000000E+00  0.00000000000E+00 -0.57115400908E+03  0.57115400908E+03  0.25500000920E-02 0. -1.
    10030    2    1    2    0    0  0.00000000000E+00  0.00000000000E+00  0.17431137726E+04  0.28854217907E+04  0.22993941129E+04 0.  0.
        4    1    3    3  502    0  0.60340980831E+03  0.63517113831E+02  0.20970011438E+04  0.21830147115E+04  0.12699999809E+01 0.  1.
       -4    1    3    3    0  502 -0.60340980831E+03 -0.63517113831E+02 -0.35388737126E+03  0.70240707923E+03  0.12699999809E+01 0. -1.
</event>
<event>
 5   0  0.8097672E-07  0.2299865E+04  0.7818609E-02  0.8477974E-01
       -1   -1    0    0    0  501  0.00000000000E+00  0.00000000000E+00  0.70737844407E+03  0.70737844408E+03  0.50400001928E-02 0.  1.
        1   -1    0    0  501    0  0.00000000000E+00  0.00000000000E+00 -0.18693593392E+04  0.18693593392E+04  0.50400001928E-02 0. -1.
    10030    2    1    2    0    0  0.00000000000E+00  0.00000000000E+00 -0.11619808951E+04  0.25767377832E+04  0.22998647793E+04 0.  0.
        3    1    3    3  502    0 -0.34583081749E+03  0.47251911611E+03 -0.16898173730E+04  0.17883948204E+04  0.10100000352E+00 0. -1.
       -3    1    3    3    0  502  0.34583081749E+03 -0.47251911611E+03  0.52783647792E+03  0.78834296282E+03  0.10100000352E+00 0.  1.
</event>
<event>
 5   0  0.7761069E-07  0.2299384E+04  0.7818609E-02  0.8478164E-01
       -1   -1    0    0    0  501  0.00000000000E+00  0.00000000000E+00  0.71182515260E+03  0.71182515262E+03  0.50400001928E-02 0. -1.
        1   -1    0    0  501    0  0.00000000000E+00  0.00000000000E+00 -0.18569050337E+04  0.18569050337E+04  0.50400001928E-02 0.  1.
    10030    2    1    2    0    0  0.00000000000E+00  0.00000000000E+00 -0.11450798811E+04  0.25687301863E+04  0.22993840123E+04 0.  0.
        1    1    3    3  502    0  0.67376714223E+03  0.80134203521E+03 -0.41833950302E+02  0.10477887663E+04  0.50400001928E-02 0. -1.
       -1    1    3    3    0  502 -0.67376714223E+03 -0.80134203521E+03 -0.11032459308E+04  0.15209414200E+04  0.50400001928E-02 0.  1.
</event>
<event>
 5   0  0.1828646E-06  0.2299438E+04  0.7818609E-02  0.8478143E-01
       -2   -1    0    0    0  501  0.00000000000E+00  0.00000000000E+00  0.14492575342E+04  0.14492575342E+04  0.25500000920E-02 0. -1.
        2   -1    0    0  501    0  0.00000000000E+00  0.00000000000E+00 -0.91209028765E+03  0.91209028766E+03  0.25500000920E-02 0.  1.
    10030    2    1    2    0    0  0.00000000000E+00  0.00000000000E+00  0.53716724651E+03  0.23613478218E+04  0.22994379498E+04 0.  0.
        3    1    3    3  502    0 -0.93758179366E+03 -0.52402670563E+02 -0.41263783387E+03  0.10257073909E+04  0.10100000352E+00 0.  1.
       -3    1    3    3    0  502  0.93758179366E+03  0.52402670563E+02  0.94980508038E+03  0.13356404309E+04  0.10100000352E+00 0. -1.
</event>
<event>
 5   0  0.6319125E-07  0.2299790E+04  0.7818609E-02  0.8478004E-01
       -3   -1    0    0    0  501  0.00000000000E+00  0.00000000000E+00  0.18361801828E+04  0.18361801856E+04  0.10100000352E+00 0. -1.
        3   -1    0    0  501    0  0.00000000000E+00  0.00000000000E+00 -0.72011375576E+03  0.72011376284E+03  0.10100000352E+00 0.  1.
    10030    2    1    2    0    0  0.00000000000E+00  0.00000000000E+00  0.11160664270E+04  0.25562939484E+04  0.22997900950E+04 0.  0.
        2    1    3    3  502    0  0.82936345241E+03  0.71220685708E+03  0.16164051523E+03  0.11050837071E+04  0.25500000920E-02 0.  1.
       -2    1    3    3    0  502 -0.82936345241E+03 -0.71220685708E+03  0.95442591182E+03  0.14512102414E+04  0.25500000920E-02 0. -1.
</event>
<event>
 5   0  0.8097672E-07  0.2300184E+04  0.7818609E-02  0.8477849E-01
       -1   -1    0    0    0  501  0.00000000000E+00  0.00000000000E+00  0.18326977547E+04  0.18326977547E+04  0.50400001928E-02 0.  1.
        1   -1    0    0  501    0  0.00000000000E+00  0.00000000000E+00 -0.72172927566E+03  0.72172927567E+03  0.50400001928E-02 0. -1.
    10030    2    1    2    0    0  0.00000000000E+00  0.00000000000E+00  0.11109684790E+04  0.25544270303E+04  0.23001840126E+04 0.  0.
        3    1    3    3  502    0  0.18253458721E+03 -0.10699842259E+04  0.13329743667E+03  0.10935965143E+04  0.10100000352E+00 0. -1.
       -3    1    3    3    0  502 -0.18253458721E+03  0.10699842259E+04  0.97767104234E+03  0.14608305160E+04  0.10100000352E+00 0.  1.
</event>
<event>
 5   0  0.8108242E-07  0.2298592E+04  0.7818609E-02  0.8478476E-01
        1   -1    0    0  501    0  0.00000000000E+00  0.00000000000E+00  0.23092508023E+04  0.23092508023E+04  0.50400001928E-02 0. -1.
       -1   -1    0    0    0  501  0.00000000000E+00  0.00000000000E+00 -0.57199569814E+03  0.57199569816E+03  0.50400001928E-02 0.  1.
    10030    2    1    2    0    0  0.00000000000E+00  0.00000000000E+00  0.17372551042E+04  0.28812465005E+04  0.22985921995E+04 0.  0.
        4    1    3    3  502    0  0.82801827695E+03 -0.59261259916E+03  0.15367187075E+04  0.18434505577E+04  0.12699999809E+01 0. -1.
       -4    1    3    3    0  502 -0.82801827695E+03  0.59261259916E+03  0.20053639666E+03  0.10377959428E+04  0.12699999809E+01 0.  1.
</event>
<event>
 5   0  0.7932912E-07  0.2300636E+04  0.7818609E-02  0.8477670E-01
       -1   -1    0    0    0  501  0.00000000000E+00  0.00000000000E+00  0.78260118132E+03  0.78260118133E+03  0.50400001928E-02 0.  1.
        1   -1    0    0  501    0  0.00000000000E+00  0.00000000000E+00 -0.16908121025E+04  0.16908121025E+04  0.50400001928E-02 0. -1.
    10030    2    1    2    0    0  0.00000000000E+00  0.00000000000E+00 -0.90821092115E+03  0.24734132838E+04  0.23006360415E+04 0.  0.
        5    1    3    3  502    0  0.16117560124E+03  0.39672398482E+03 -0.16019183324E+04  0.16581712602E+04  0.46999998093E+01 0. -1.
       -5    1    3    3    0  502 -0.16117560124E+03 -0.39672398482E+03  0.69370741126E+03  0.81524202357E+03  0.46999998093E+01 0.  1.
</event>
<event>
 5   0  0.8108242E-07  0.2296513E+04  0.7818609E-02  0.8479297E-01
       -1   -1    0    0    0  501  0.00000000000E+00  0.00000000000E+00  0.55734868756E+03  0.55734868758E+03  0.50400001928E-02 0. -1.
        1   -1    0    0  501    0  0.00000000000E+00  0.00000000000E+00 -0.23656525176E+04  0.23656525177E+04  0.50400001928E-02 0.  1.
    10030    2    1    2    0    0  0.00000000000E+00  0.00000000000E+00 -0.18083038301E+04  0.29230012052E+04  0.22965132928E+04 0.  0.
        4    1    3    3  502    0 -0.90496334988E+03 -0.53961969556E+03 -0.14851171526E+04  0.18209125873E+04  0.12699999809E+01 0.  1.
       -4    1    3    3    0  502  0.90496334988E+03  0.53961969556E+03 -0.32318667745E+03  0.11020886180E+04  0.12699999809E+01 0. -1.
</event>
<event>
 5   0  0.1744876E-06  0.2302015E+04  0.7818609E-02  0.8477127E-01
       -2   -1    0    0    0  501  0.00000000000E+00  0.00000000000E+00  0.13026406236E+04  0.13026406236E+04  0.25500000920E-02 0. -1.
        2   -1    0    0  501    0  0.00000000000E+00  0.00000000000E+00 -0.10170249711E+04  0.10170249711E+04  0.25500000920E-02 0.  1.
    10030    2    1    2    0    0  0.00000000000E+00  0.00000000000E+00  0.28561565254E+03  0.23196655947E+04  0.23020148067E+04 0.  0.
        1    1    3    3  502    0 -0.28866882509E+03  0.53147276004E+03 -0.84399922849E+03  0.10383292748E+04  0.50400001928E-02 0.  1.
       -1    1    3    3    0  502  0.28866882509E+03 -0.53147276004E+03  0.11296148810E+04  0.12813363199E+04  0.50400001928E-02 0. -1.
</event>
<event>
 5   0  0.8108242E-07  0.2299827E+04  0.7818609E-02  0.8477989E-01
        1   -1    0    0  501    0  0.00000000000E+00  0.00000000000E+00  0.12515277943E+04  0.12515277943E+04  0.50400001928E-02 0. -1.
       -1   -1    0    0    0  501  0.00000000000E+00  0.00000000000E+00 -0.10565491495E+04  0.10565491495E+04  0.50400001928E-02 0.  1.
    10030    2    1    2    0    0  0.00000000000E+00  0.00000000000E+00  0.19497864478E+03  0.23080769438E+04  0.22998266253E+04 0.  0.
        4    1    3    3  502    0  0.31099938215E+03 -0.10405083551E+03 -0.10086223229E+04  0.10605978480E+04  0.12699999809E+01 0.  1.
       -4    1    3    3    0  502 -0.31099938215E+03  0.10405083551E+03  0.12036009677E+04  0.12474790958E+04  0.12699999809E+01 0. -1.
</event>
<event>
 5   0  0.1828646E-06  0.2300312E+04  0.7818609E-02  0.8477798E-01
       -2   -1    0    0    0  501  0.00000000000E+00  0.00000000000E+00  0.11708720403E+04  0.11708720403E+04  0.25500000920E-02 0.  1.
        2   -1    0    0  501    0  0.00000000000E+00  0.00000000000E+00 -0.11298066757E+04  0.11298066757E+04  0.25500000920E-02 0. -1.
    10030    2    1    2    0    0  0.00000000000E+00  0.00000000000E+00  0.41065364590E+02  0.23006787159E+04  0.23003121940E+04 0.  0.
        3    1    3    3  502    0 -0.64101675670E+03 -0.88751121083E+03  0.37312311510E+03  0.11566328289E+04  0.10100000352E+00 0.  1.
       -3    1    3    3    0  502  0.64101675670E+03  0.88751121083E+03 -0.33205775051E+03  0.11440458870E+04  0.10100000352E+00 0. -1.
</event>
<event>
 5   0  0.1888779E-06  0.2299361E+04  0.7818609E-02  0.8478173E-01
       -2   -1    0    0    0  501  0.00000000000E+00  0.00000000000E+00  0.91735505247E+03  0.91735505247E+03  0.25500000920E-02 0. -1.
        2   -1    0    0  501    0  0.00000000000E+00  0.00000000000E+00 -0.14408441257E+04  0.14408441257E+04  0.25500000920E-02 0.  1.
    10030    2    1    2    0    0  0.00000000000E+00  0.00000000000E+00 -0.52348907324E+03  0.23581991782E+04  0.22993613361E+04 0.  0.
        4    1    3    3  502    0 -0.73768202160E+03 -0.77599273467E+03  0.16781011664E+03  0.10837441291E+04  0.12699999809E+01 0. -1.
       -4    1    3    3    0  502  0.73768202160E+03  0.77599273467E+03 -0.69129918988E+03  0.12744550491E+04  0.12699999809E+01 0.  1.
</event>
<event>
 5   0  0.8108242E-07  0.2298154E+04  0.7818609E-02  0.8478649E-01
       -1   -1    0    0    0  501  0.00000000000E+00  0.00000000000E+00  0.82858641667E+03  0.82858641668E+03  0.50400001928E-02 0. -1.
        1   -1    0    0  501    0  0.00000000000E+00  0.00000000000E+00 -0.15935308173E+04  0.15935308173E+04  0.50400001928E-02 0.  1.
    10030    2    1    2    0    0  0.00000000000E+00  0.00000000000E+00 -0.76494440066E+03  0.24221172340E+04  0.22981540330E+04 0.  0.
        4    1    3    3  502    0  0.77254267520E+03 -0.42419292496E+03  0.39460034262E+03  0.96564634617E+03  0.12699999809E+01 0.  1.
       -4    1    3    3    0  502 -0.77254267520E+03  0.42419292496E+03 -0.11595447433E+04  0.14564708879E+04  0.12699999809E+01 0. -1.
</event>
<event>
 5   0  0.7761069E-07  0.2299868E+04  0.7818609E-02  0.8477973E-01
       -1   -1    0    0    0  501  0.00000000000E+00  0.00000000000E+00  0.25322125067E+04  0.25322125067E+04  0.50400001928E-02 0.  1.
        1   -1    0    0  501    0  0.00000000000E+00  0.00000000000E+00 -0.52221049841E+03  0.52221049843E+03  0.50400001928E-02 0. -1.
    10030    2    1    2    0    0  0.00000000000E+00  0.00000000000E+00  0.20100020083E+04  0.30544230052E+04  0.22998677834E+04 0.  0.
        1    1    3    3  502    0 -0.18133204496E+02 -0.11028307189E+04  0.14369528917E+04  0.18114629504E+04  0.50400001928E-02 0. -1.
       -1    1    3    3    0  502  0.18133204496E+02  0.11028307189E+04  0.57304911665E+03  0.12429600548E+04  0.50400001928E-02 0.  1.
</event>
<event>
 5   0  0.1689444E-06  0.2297930E+04  0.7818609E-02  0.8478738E-01
        2   -1    0    0  501    0  0.00000000000E+00  0.00000000000E+00  0.20493922395E+04  0.20493922395E+04  0.25500000920E-02 0. -1.
       -2   -1    0    0    0  501  0.00000000000E+00  0.00000000000E+00 -0.64415247772E+03  0.64415247772E+03  0.25500000920E-02 0.  1.
    10030    2    1    2    0    0  0.00000000000E+00  0.00000000000E+00  0.14052397618E+04  0.26935447172E+04  0.22979304505E+04 0.  0.
        2    1    3    3  502    0 -0.10891506891E+04  0.36312407270E+03  0.75520764678E+03  0.13742077374E+04  0.25500000920E-02 0. -1.
       -2    1    3    3    0  502  0.10891506891E+04 -0.36312407270E+03  0.65003211498E+03  0.13193369798E+04  0.25500000920E-02 0.  1.
</event>
<event>
 5   0  0.1828646E-06  0.2299390E+04  0.7818609E-02  0.8478162E-01
        2   -1    0    0  501    0  0.00000000000E+00  0.00000000000E+00  0.26986537488E+04  0.26986537488E+04  0.25500000920E-02 0.  1.
       -2   -1    0    0    0  501  0.00000000000E+00  0.00000000000E+00 -0.48979916037E+03  0.48979916038E+03  0.25500000920E-02 0. -1.
    10030    2    1    2    0    0  0.00000000000E+00  0.00000000000E+00  0.22088545884E+04  0.31884529092E+04  0.22993897802E+04 0.  0.
        3    1    3    3  502    0  0.60885983574E+03 -0.30485263326E+03  0.23889735521E+04  0.24841175637E+04  0.10100000352E+00 0.  1.
       -3    1    3    3    0  502 -0.60885983574E+03  0.30485263326E+03 -0.18011896367E+03  0.70433534545E+03  0.10100000352E+00 0. -1.
</event>
<event>
 5   0  0.8108242E-07  0.2299470E+04  0.7818609E-02  0.8478130E-01
        1   -1    0    0  501    0  0.00000000000E+00  0.00000000000E+00  0.56237605320E+03  0.56237605322E+03  0.50400001928E-02 0. -1.
       -1   -1    0    0    0  501  0.00000000000E+00  0.00000000000E+00 -0.23505448588E+04  0.23505448588E+04  0.50400001928E-02 0.  1.
    10030    2    1    2    0    0  0.00000000000E+00  0.00000000000E+00 -0.17881688056E+04  0.29129209120E+04  0.22994696263E+04 0.  0.
        4    1    3    3  502    0 -0.10421183122E+04 -0.48248759194E+03 -0.96442973665E+03  0.14996436853E+04  0.12699999809E+01 0. -1.
       -4    1    3    3    0  502  0.10421183122E+04  0.48248759194E+03 -0.82373906892E+03  0.14132772267E+04  0.12699999809E+01 0.  1.
</event>
<event>
 5   0  0.7607231E-07  0.2300582E+04  0.7818609E-02  0.8477692E-01
        1   -1    0    0  501    0  0.00000000000E+00  0.00000000000E+00  0.10567023493E+04  0.10567023493E+04  0.50400001928E-02 0.  1.
       -1   -1    0    0    0  501  0.00000000000E+00  0.00000000000E+00 -0.12521684371E+04  0.12521684371E+04  0.50400001928E-02 0. -1.
    10030    2    1    2    0    0  0.00000000000E+00  0.00000000000E+00 -0.19546608778E+03  0.23088707865E+04  0.23005819518E+04 0.  0.
        2    1    3    3  502    0 -0.98982319348E+03 -0.13680458895E+03  0.47414794438E+03  0.11060206703E+04  0.25500000920E-02 0.  1.
       -2    1    3    3    0  502  0.98982319348E+03  0.13680458895E+03 -0.66961403215E+03  0.12028501162E+04  0.25500000920E-02 0. -1.
</event>
<event>
 5   0  0.7761069E-07  0.2300095E+04  0.7818609E-02  0.8477884E-01
        1   -1    0    0  501    0  0.00000000000E+00  0.00000000000E+00  0.17559097129E+04  0.17559097129E+04  0.50400001928E-02 0.  1.
       -1   -1    0    0    0  501  0.00000000000E+00  0.00000000000E+00 -0.75323300337E+03  0.75323300338E+03  0.50400001928E-02 0. -1.
    10030    2    1    2    0    0  0.00000000000E+00  0.00000000000E+00  0.10026767096E+04  0.25091427163E+04  0.23000949083E+04 0.  0.
        1    1    3    3  502    0  0.91937044396E+03 -0.46464841119E+03  0.10591527273E+04  0.14774791569E+04  0.50400001928E-02 0.  1.
       -1    1    3    3    0  502 -0.91937044396E+03  0.46464841119E+03 -0.56476017754E+02  0.10316635594E+04  0.50400001928E-02 0. -1.
</event>
<event>
 5   0  0.1689444E-06  0.2294598E+04  0.7818609E-02  0.8480054E-01
        2   -1    0    0  501    0  0.00000000000E+00  0.00000000000E+00  0.17365154414E+04  0.17365154414E+04  0.25500000920E-02 0. -1.
       -2   -1    0    0    0  501  0.00000000000E+00  0.00000000000E+00 -0.75800949930E+03  0.75800949931E+03  0.25500000920E-02 0.  1.
    10030    2    1    2    0    0  0.00000000000E+00  0.00000000000E+00  0.97850594210E+03  0.24945249407E+04  0.22945981786E+04 0.  0.
        2    1    3    3  502    0 -0.70255946669E+03 -0.50864575824E+03  0.13056754236E+04  0.15675135162E+04  0.25500000920E-02 0. -1.
       -2    1    3    3    0  502  0.70255946669E+03  0.50864575824E+03 -0.32716948148E+03  0.92701142454E+03  0.25500000920E-02 0.  1.
</event>
<event>
 5   0  0.7932912E-07  0.2300038E+04  0.7818609E-02  0.8477906E-01
       -1   -1    0    0    0  501  0.00000000000E+00  0.00000000000E+00  0.57444916016E+03  0.57444916018E+03  0.50400001928E-02 0.  1.
        1   -1    0    0  501    0  0.00000000000E+00  0.00000000000E+00 -0.23022814330E+04  0.23022814330E+04  0.50400001928E-02 0. -1.
    10030    2    1    2    0    0  0.00000000000E+00  0.00000000000E+00 -0.17278322728E+04  0.28767305932E+04  0.23000379437E+04 0.  0.
        5    1    3    3  502    0 -0.12190905619E+03  0.10652357945E+04 -0.34379750245E+03  0.11259697724E+04  0.46999998093E+01 0. -1.
       -5    1    3    3    0  502  0.12190905619E+03 -0.10652357945E+04 -0.13840347704E+04  0.17507608207E+04  0.46999998093E+01 0.  1.
</event>
<event>
 5   0  0.8097672E-07  0.2299389E+04  0.7818609E-02  0.8478162E-01
       -1   -1    0    0    0  501  0.00000000000E+00  0.00000000000E+00  0.44373058282E+03  0.44373058285E+03  0.50400001928E-02 0.  1.
        1   -1    0    0  501    0  0.00000000000E+00  0.00000000000E+00 -0.29788295219E+04  0.29788295219E+04  0.50400001928E-02 0. -1.
    10030    2    1    2    0    0  0.00000000000E+00  0.00000000000E+00 -0.25350989391E+04  0.34225601048E+04  0.22993892754E+04 0.  0.
        3    1    3    3  502    0 -0.98186720654E+03 -0.59347807074E+03 -0.13781206497E+04  0.17931804056E+04  0.10100000352E+00 0. -1.
       -3    1    3    3    0  502  0.98186720654E+03  0.59347807074E+03 -0.11569782894E+04  0.16293796992E+04  0.10100000352E+00 0.  1.
</event>
<event>
 5   0  0.1828646E-06  0.2302424E+04  0.7818609E-02  0.8476966E-01
       -2   -1    0    0    0  501  0.00000000000E+00  0.00000000000E+00  0.79989712428E+03  0.79989712429E+03  0.25500000920E-02 0.  1.
        2   -1    0    0  501    0  0.00000000000E+00  0.00000000000E+00 -0.16568247368E+04  0.16568247368E+04  0.25500000920E-02 0. -1.
    10030    2    1    2    0    0  0.00000000000E+00  0.00000000000E+00 -0.85692761255E+03  0.24567218611E+04  0.23024242376E+04 0.  0.
        3    1    3    3  502    0  0.89171344125E+03  0.52112530401E+03  0.11410574408E+03  0.10391075858E+04  0.10100000352E+00 0.  1.
       -3    1    3    3    0  502 -0.89171344125E+03 -0.52112530401E+03 -0.97103335663E+03  0.14176142753E+04  0.10100000352E+00 0. -1.
</event>
<event>
 5   0  0.1828646E-06  0.2300165E+04  0.7818609E-02  0.8477856E-01
        2   -1    0    0  501    0  0.00000000000E+00  0.00000000000E+00  0.10509982433E+04  0.10509982433E+04  0.25500000920E-02 0. -1.
       -2   -1    0    0    0  501  0.00000000000E+00  0.00000000000E+00 -0.12585080895E+04  0.12585080895E+04  0.25500000920E-02 0.  1.
    10030    2    1    2    0    0  0.00000000000E+00  0.00000000000E+00 -0.20750984612E+03  0.23095063328E+04  0.23001650299E+04 0.  0.
        3    1    3    3  502    0 -0.31284480126E+03  0.96620467631E+03 -0.64563774148E+03  0.12034415024E+04  0.10100000352E+00 0.  1.
       -3    1    3    3    0  502  0.31284480126E+03 -0.96620467631E+03  0.43812789536E+03  0.11060648304E+04  0.10100000352E+00 0. -1.
</event>
<event>
 5   0  0.7761069E-07  0.2302868E+04  0.7818609E-02  0.8476791E-01
       -1   -1    0    0    0  501  0.00000000000E+00  0.00000000000E+00  0.71493656776E+03  0.71493656778E+03  0.50400001928E-02 0.  1.
        1   -1    0    0  501    0  0.00000000000E+00  0.00000000000E+00 -0.18544307690E+04  0.18544307690E+04  0.50400001928E-02 0. -1.
    10030    2    1    2    0    0  0.00000000000E+00  0.00000000000E+00 -0.11394942012E+04  0.25693673368E+04  0.23028680980E+04 0.  0.
        1    1    3    3  502    0  0.50059841072E+03  0.62856069339E+03 -0.14898739234E+04  0.16927526758E+04  0.50400001928E-02 0. -1.
       -1    1    3    3    0  502 -0.50059841072E+03 -0.62856069339E+03  0.35037972211E+03  0.87661466094E+03  0.50400001928E-02 0.  1.
</event>
<event>
 5   0  0.1744876E-06  0.2299124E+04  0.7818609E-02  0.8478266E-01
        2   -1    0    0  501    0  0.00000000000E+00  0.00000000000E+00  0.16019598981E+04  0.16019598981E+04  0.25500000920E-02 0.  1.
       -2   -1    0    0    0  501  0.00000000000E+00  0.00000000000E+00 -0.82492275940E+03  0.82492275940E+03  0.25500000920E-02 0. -1.
    10030    2    1    2    0    0  0.00000000000E+00  0.00000000000E+00  0.77703713872E+03  0.24268826575E+04  0.22991243373E+04 0.  0.
        1    1    3    3  502    0 -0.35707558469E+03  0.96294065487E+03  0.93368201889E+03  0.13879912789E+04  0.50400001928E-02 0. -1.
       -1    1    3    3    0  502  0.35707558469E+03 -0.96294065487E+03 -0.15664488017E+03  0.10388913786E+04  0.50400001928E-02 0.  1.
</event>
<event>
 5   0  0.7607231E-07  0.2303557E+04  0.7818609E-02  0.8476520E-01
       -1   -1    0    0    0  501  0.00000000000E+00  0.00000000000E+00  0.13536354516E+04  0.13536354517E+04  0.50400001928E-02 0.  1.
        1   -1    0    0  501    0  0.00000000000E+00  0.00000000000E+00 -0.98002258190E+03  0.98002258191E+03  0.50400001928E-02 0. -1.
    10030    2    1    2    0    0  0.00000000000E+00  0.00000000000E+00  0.37361286975E+03  0.23336580336E+04  0.23035566503E+04 0.  0.
        2    1    3    3  502    0 -0.11337984926E+04  0.14588760082E+03  0.32939758569E+03  0.11896575068E+04  0.25500000920E-02 0. -1.
       -2    1    3    3    0  502  0.11337984926E+04 -0.14588760082E+03  0.44215284055E+02  0.11440005268E+04  0.25500000920E-02 0.  1.
</event>
<event>
 5   0  0.7761069E-07  0.2297932E+04  0.7818609E-02  0.8478737E-01
        1   -1    0    0  501    0  0.00000000000E+00  0.00000000000E+00  0.92925699911E+03  0.92925699913E+03  0.50400001928E-02 0.  1.
       -1   -1    0    0    0  501  0.00000000000E+00  0.00000000000E+00 -0.14206221145E+04  0.14206221145E+04  0.50400001928E-02 0. -1.
    10030    2    1    2    0    0  0.00000000000E+00  0.00000000000E+00 -0.49136511538E+03  0.23498791136E+04  0.22979321513E+04 0.  0.
        1    1    3    3  502    0 -0.48597363218E+03  0.93378963361E+03  0.22514902724E+03  0.10764875919E+04  0.50400001928E-02 0.  1.
       -1    1    3    3    0  502  0.48597363218E+03 -0.93378963361E+03 -0.71651414262E+03  0.12733915217E+04  0.50400001928E-02 0. -1.
</event>
<event>
 5   0  0.1825521E-06  0.2299265E+04  0.7818609E-02  0.8478211E-01
       -2   -1    0    0    0  501  0.00000000000E+00  0.00000000000E+00  0.61609360223E+03  0.61609360223E+03  0.25500000920E-02 0.  1.
        2   -1    0    0  501    0  0.00000000000E+00  0.00000000000E+00 -0.21452179918E+04  0.21452179918E+04  0.25500000920E-02 0. -1.
    10030    2    1    2    0    0  0.00000000000E+00  0.00000000000E+00 -0.15291243896E+04  0.27613115940E+04  0.22992651697E+04 0.  0.
        5    1    3    3  502    0  0.19881092001E+03  0.40717011428E+03  0.50431809586E+03  0.67799123570E+03  0.46999998093E+01 0.  1.
       -5    1    3    3    0  502 -0.19881092001E+03 -0.40717011428E+03 -0.20334424854E+04  0.20833203583E+04  0.46999998093E+01 0. -1.
</event>
<event>
 5   0  0.1744876E-06  0.2299531E+04  0.7818609E-02  0.8478106E-01
        2   -1    0    0  501    0  0.00000000000E+00  0.00000000000E+00  0.89041770354E+03  0.89041770354E+03  0.25500000920E-02 0.  1.
       -2   -1    0    0    0  501  0.00000000000E+00  0.00000000000E+00 -0.14846520845E+04  0.14846520845E+04  0.25500000920E-02 0. -1.
    10030    2    1    2    0    0  0.00000000000E+00  0.00000000000E+00 -0.59423438100E+03  0.23750697881E+04  0.22995308214E+04 0.  0.
        1    1    3    3  502    0 -0.15134780058E+03 -0.57309522305E+03  0.72044487915E+03  0.93294432596E+03  0.50400001928E-02 0.  1.
       -1    1    3    3    0  502  0.15134780058E+03  0.57309522305E+03 -0.13146792601E+04  0.14421254621E+04  0.50400001928E-02 0. -1.
</event>
<event>
 5   0  0.7607231E-07  0.2301948E+04  0.7818609E-02  0.8477154E-01
       -1   -1    0    0    0  501  0.00000000000E+00  0.00000000000E+00  0.98791349898E+03  0.98791349900E+03  0.50400001928E-02 0.  1.
        1   -1    0    0  501    0  0.00000000000E+00  0.00000000000E+00 -0.13409482807E+04  0.13409482807E+04  0.50400001928E-02 0. -1.
    10030    2    1    2    0    0  0.00000000000E+00  0.00000000000E+00 -0.35303478169E+03  0.23288617797E+04  0.23019477908E+04 0.  0.
        2    1    3    3  502    0  0.35656585271E+03  0.51511572557E+03 -0.11533410832E+04  0.13125086942E+04  0.25500000920E-02 0. -1.
       -2    1    3    3    0  502 -0.35656585271E+03 -0.51511572557E+03  0.80030630156E+03  0.10163530855E+04  0.25500000920E-02 0.  1.
</event>
<event>
 5   0  0.7607231E-07  0.2299004E+04  0.7818609E-02  0.8478314E-01
        1   -1    0    0  501    0  0.00000000000E+00  0.00000000000E+00  0.19478659175E+04  0.19478659175E+04  0.50400001928E-02 0.  1.
       -1   -1    0    0    0  501  0.00000000000E+00  0.00000000000E+00 -0.67836048279E+03  0.67836048281E+03  0.50400001928E-02 0. -1.
    10030    2    1    2    0    0  0.00000000000E+00  0.00000000000E+00  0.12695054347E+04  0.26262264003E+04  0.22990043621E+04 0.  0.
        2    1    3    3  502    0  0.75867958597E+03  0.72976126796E+03  0.10728585975E+03  0.10581382131E+04  0.25500000920E-02 0. -1.
       -2    1    3    3    0  502 -0.75867958597E+03 -0.72976126796E+03  0.11622195750E+04  0.15680881872E+04  0.25500000920E-02 0.  1.
</event>
<event>
 5   0  0.1689444E-06  0.2300009E+04  0.7818609E-02  0.8477917E-01
       -2   -1    0    0    0  501  0.00000000000E+00  0.00000000000E+00  0.12903086213E+04  0.12903086214E+04  0.25500000920E-02 0. -1.
        2   -1    0    0  501    0  0.00000000000E+00  0.00000000000E+00 -0.10249569594E+04  0.10249569594E+04  0.25500000920E-02 0.  1.
    10030    2    1    2    0    0  0.00000000000E+00  0.00000000000E+00  0.26535166193E+03  0.23152655808E+04  0.23000093924E+04 0.  0.
        2    1    3    3  502    0 -0.68087893612E+03  0.66524878924E+03 -0.51686288201E+03  0.10831894184E+04  0.25500000920E-02 0.  1.
       -2    1    3    3    0  502  0.68087893612E+03 -0.66524878924E+03  0.78221454394E+03  0.12320761624E+04  0.25500000920E-02 0. -1.
</event>
<event>
 5   0  0.8097672E-07  0.2301242E+04  0.7818609E-02  0.8477432E-01
        1   -1    0    0  501    0  0.00000000000E+00  0.00000000000E+00  0.40907242290E+03  0.40907242293E+03  0.50400001928E-02 0.  1.
       -1   -1    0    0    0  501  0.00000000000E+00  0.00000000000E+00 -0.32364160080E+04  0.32364160080E+04  0.50400001928E-02 0. -1.
    10030    2    1    2    0    0  0.00000000000E+00  0.00000000000E+00 -0.28273435851E+04  0.36454884310E+04  0.23012418717E+04 0.  0.
        3    1    3    3  502    0  0.10350444632E+04 -0.16320515534E+03 -0.66062112709E+03  0.12386982067E+04  0.10100000352E+00 0. -1.
       -3    1    3    3    0  502 -0.10350444632E+04  0.16320515534E+03 -0.21667224580E+04  0.24067902243E+04  0.10100000352E+00 0.  1.
</event>
<event>
 5   0  0.1825521E-06  0.2298968E+04  0.7818609E-02  0.8478328E-01
       -2   -1    0    0    0  501  0.00000000000E+00  0.00000000000E+00  0.71586638958E+03  0.71586638958E+03  0.25500000920E-02 0. -1.
        2   -1    0    0  501    0  0.00000000000E+00  0.00000000000E+00 -0.18457538043E+04  0.18457538044E+04  0.25500000920E-02 0.  1.
    10030    2    1    2    0    0  0.00000000000E+00  0.00000000000E+00 -0.11298874148E+04  0.25616201939E+04  0.22989676918E+04 0.  0.
        5    1    3    3  502    0  0.10251353088E+04 -0.37549031732E+03 -0.96575661170E+03  0.14576019014E+04  0.46999998093E+01 0.  1.
       -5    1    3    3    0  502 -0.10251353088E+04  0.37549031732E+03 -0.16413080308E+03  0.11040182926E+04  0.46999998093E+01 0. -1.
</event>
<event>
 5   0  0.8097672E-07  0.2300107E+04  0.7818609E-02  0.8477879E-01
       -1   -1    0    0    0  501  0.00000000000E+00  0.00000000000E+00  0.67129757573E+03  0.67129757575E+03  0.50400001928E-02 0. -1.
        1   -1    0    0  501    0  0.00000000000E+00  0.00000000000E+00 -0.19702477427E+04  0.19702477427E+04  0.50400001928E-02 0.  1.
    10030    2    1    2    0    0  0.00000000000E+00  0.00000000000E+00 -0.12989501669E+04  0.26415453184E+04  0.23001065482E+04 0.  0.
        3    1    3    3  502    0  0.11490683496E+04  0.30517181748E+02 -0.69140751496E+03  0.13413924603E+04  0.10100000352E+00 0. -1.
       -3    1    3    3    0  502 -0.11490683496E+04 -0.30517181748E+02 -0.60754265198E+03  0.13001528582E+04  0.10100000352E+00 0.  1.
</event>
<event>
 5   0  0.1689444E-06  0.2300311E+04  0.7818609E-02  0.8477798E-01
        2   -1    0    0  501    0  0.00000000000E+00  0.00000000000E+00  0.10799527830E+04  0.10799527830E+04  0.25500000920E-02 0. -1.
       -2   -1    0    0    0  501  0.00000000000E+00  0.00000000000E+00 -0.12249219259E+04  0.12249219259E+04  0.25500000920E-02 0.  1.
    10030    2    1    2    0    0  0.00000000000E+00  0.00000000000E+00 -0.14496914287E+03  0.23048747089E+04  0.23003111466E+04 0.  0.
        2    1    3    3  502    0 -0.73251305334E+03  0.80706352152E+03 -0.44054278541E+03  0.11755870222E+04  0.25500000920E-02 0.  1.
       -2    1    3    3    0  502  0.73251305334E+03 -0.80706352152E+03  0.29557364255E+03  0.11292876867E+04  0.25500000920E-02 0. -1.
</event>
<event>
 5   0  0.1689444E-06  0.2299628E+04  0.7818609E-02  0.8478068E-01
        2   -1    0    0  501    0  0.00000000000E+00  0.00000000000E+00  0.23319499138E+04  0.23319499138E+04  0.25500000920E-02 0.  1.
       -2   -1    0    0    0  501  0.00000000000E+00  0.00000000000E+00 -0.56693853972E+03  0.56693853973E+03  0.25500000920E-02 0. -1.
    10030    2    1    2    0    0  0.00000000000E+00  0.00000000000E+00  0.17650113741E+04  0.28988884535E+04  0.22996280385E+04 0.  0.
        2    1    3    3  502    0 -0.10251649134E+04  0.37500185133E+03  0.13378611252E+04  0.17266910200E+04  0.25500000920E-02 0.  1.
       -2    1    3    3    0  502  0.10251649134E+04 -0.37500185133E+03  0.42715024889E+03  0.11721974336E+04  0.25500000920E-02 0. -1.
</event>
<event>
 5   0  0.7761069E-07  0.2299369E+04  0.7818609E-02  0.8478170E-01
       -1   -1    0    0    0  501  0.00000000000E+00  0.00000000000E+00  0.14287329857E+04  0.14287329857E+04  0.50400001928E-02 0. -1.
        1   -1    0    0  501    0  0.00000000000E+00  0.00000000000E+00 -0.92513786589E+03  0.92513786591E+03  0.50400001928E-02 0.  1.
    10030    2    1    2    0    0  0.00000000000E+00  0.00000000000E+00  0.50359511980E+03  0.23538708516E+04  0.22993694660E+04 0.  0.
        1    1    3    3  502    0 -0.10852788312E+04  0.37559105285E+03  0.30669900572E+03  0.11886812275E+04  0.50400001928E-02 0. -1.
       -1    1    3    3    0  502  0.10852788312E+04 -0.37559105285E+03  0.19689611408E+03  0.11651896241E+04  0.50400001928E-02 0.  1.
</event>
<event>
 5   0  0.1828646E-06  0.2300454E+04  0.7818609E-02  0.8477742E-01
       -2   -1    0    0    0  501  0.00000000000E+00  0.00000000000E+00  0.59370560327E+03  0.59370560328E+03  0.25500000920E-02 0. -1.
        2   -1    0    0  501    0  0.00000000000E+00  0.00000000000E+00 -0.22284151213E+04  0.22284151213E+04  0.25500000920E-02 0.  1.
    10030    2    1    2    0    0  0.00000000000E+00  0.00000000000E+00 -0.16347095180E+04  0.28221207246E+04  0.23004543412E+04 0.  0.
        3    1    3    3  502    0 -0.19726259220E+03  0.53719888862E+03 -0.20413749158E+04  0.21200723415E+04  0.10100000352E+00 0.  1.
       -3    1    3    3    0  502  0.19726259220E+03 -0.53719888862E+03  0.40666539777E+03  0.70204838306E+03  0.10100000352E+00 0. -1.
</event>
<event>
 5   0  0.1689444E-06  0.2301137E+04  0.7818609E-02  0.8477473E-01
       -2   -1    0    0    0  501  0.00000000000E+00  0.00000000000E+00  0.97092201800E+03  0.97092201800E+03  0.25500000920E-02 0.  1.
        2   -1    0    0  501    0  0.00000000000E+00  0.00000000000E+00 -0.13634543610E+04  0.13634543610E+04  0.25500000920E-02 0. -1.
    10030    2    1    2    0    0  0.00000000000E+00  0.00000000000E+00 -0.39253234304E+03  0.23343763790E+04  0.23011369883E+04 0.  0.
        2    1    3    3  502    0 -0.10921413483E+04  0.27442845199E+03  0.43203308298E+02  0.11269206830E+04  0.25500000920E-02 0.  1.
       -2    1    3    3    0  502  0.10921413483E+04 -0.27442845199E+03 -0.43573565134E+03  0.12074556960E+04  0.25500000920E-02 0. -1.
</event>
<event>
 5   0  0.8097672E-07  0.2300697E+04  0.7818609E-02  0.8477646E-01
        1   -1    0    0  501    0  0.00000000000E+00  0.00000000000E+00  0.20197981876E+04  0.20197981876E+04  0.50400001928E-02 0.  1.
       -1   -1    0    0    0  501  0.00000000000E+00  0.00000000000E+00 -0.65516519299E+03  0.65516519301E+03  0.50400001928E-02 0. -1.
    10030    2    1    2    0    0  0.00000000000E+00  0.00000000000E+00  0.13646329946E+04  0.26749633807E+04  0.23006968244E+04 0.  0.
        3    1    3    3  502    0 -0.10766951026E+04 -0.40248241527E+03  0.62984104690E+03  0.13107113309E+04  0.10100000352E+00 0. -1.
       -3    1    3    3    0  502  0.10766951026E+04  0.40248241527E+03  0.73479194774E+03  0.13642520497E+04  0.10100000352E+00 0.  1.
</event>
<event>
 5   0  0.8097672E-07  0.2298755E+04  0.7818609E-02  0.8478412E-01
        1   -1    0    0  501    0  0.00000000000E+00  0.00000000000E+00  0.13153728075E+04  0.13153728075E+04  0.50400001928E-02 0. -1.
       -1   -1    0    0    0  501  0.00000000000E+00  0.00000000000E+00 -0.10043303975E+04  0.10043303975E+04  0.50400001928E-02 0.  1.
    10030    2    1    2    0    0  0.00000000000E+00  0.00000000000E+00  0.31104240994E+03  0.23197032050E+04  0.22987552237E+04 0.  0.
        3    1    3    3  502    0  0.94504865718E+03  0.64551914018E+03  0.26258687728E+03  0.11742077342E+04  0.10100000352E+00 0. -1.
       -3    1    3    3    0  502 -0.94504865718E+03 -0.64551914018E+03  0.48455532663E+02  0.11454954708E+04  0.10100000352E+00 0.  1.
</event>
<event>
 5   0  0.8108242E-07  0.2300249E+04  0.7818609E-02  0.8477823E-01
       -1   -1    0    0    0  501  0.00000000000E+00  0.00000000000E+00  0.12924103761E+04  0.12924103761E+04  0.50400001928E-02 0.  1.
        1   -1    0    0  501    0  0.00000000000E+00  0.00000000000E+00 -0.10235030490E+04  0.10235030490E+04  0.50400001928E-02 0. -1.
    10030    2    1    2    0    0  0.00000000000E+00  0.00000000000E+00  0.26890732714E+03  0.23159134251E+04  0.23002486479E+04 0.  0.
        4    1    3    3  502    0  0.75999886167E+03 -0.41991305367E+03 -0.62491014220E+03  0.10697848107E+04  0.12699999809E+01 0. -1.
       -4    1    3    3    0  502 -0.75999886167E+03  0.41991305367E+03  0.89381746935E+03  0.12461286145E+04  0.12699999809E+01 0.  1.
</event>
<event>
 5   0  0.1828646E-06  0.2300514E+04  0.7818609E-02  0.8477718E-01
        2   -1    0    0  501    0  0.00000000000E+00  0.00000000000E+00  0.21703260678E+04  0.21703260678E+04  0.25500000920E-02 0.  1.
       -2   -1    0    0    0  501  0.00000000000E+00  0.00000000000E+00 -0.60962792095E+03  0.60962792096E+03  0.25500000920E-02 0. -1.
    10030    2    1    2    0    0  0.00000000000E+00  0.00000000000E+00  0.15606981469E+04  0.27799539888E+04  0.23005141760E+04 0.  0.
        3    1    3    3  502    0 -0.11121618379E+04  0.19263234598E+03  0.10480598075E+04  0.15402728799E+04  0.10100000352E+00 0.  1.
       -3    1    3    3    0  502  0.11121618379E+04 -0.19263234598E+03  0.51263833937E+03  0.12396811088E+04  0.10100000352E+00 0. -1.
</event>
<event>
 5   0  0.1689444E-06  0.2300032E+04  0.7818609E-02  0.8477908E-01
        2   -1    0    0  501    0  0.00000000000E+00  0.00000000000E+00  0.12289775816E+04  0.12289775816E+04  0.25500000920E-02 0. -1.
       -2   -1    0    0    0  501  0.00000000000E+00  0.00000000000E+00 -0.10761277215E+04  0.10761277215E+04  0.25500000920E-02 0.  1.
    10030    2    1    2    0    0  0.00000000000E+00  0.00000000000E+00  0.15284986002E+03  0.23051053031E+04  0.23000320386E+04 0.  0.
        2    1    3    3  502    0  0.62145916723E+03 -0.52326861178E+03  0.89217072356E+03  0.12066441632E+04  0.25500000920E-02 0. -1.
       -2    1    3    3    0  502 -0.62145916723E+03  0.52326861178E+03 -0.73932086354E+03  0.10984611399E+04  0.25500000920E-02 0.  1.
</event>
<event>
 5   0  0.1888779E-06  0.2300473E+04  0.7818609E-02  0.8477734E-01
        2   -1    0    0  501    0  0.00000000000E+00  0.00000000000E+00  0.24310514403E+04  0.24310514403E+04  0.25500000920E-02 0.  1.
       -2   -1    0    0    0  501  0.00000000000E+00  0.00000000000E+00 -0.54422726929E+03  0.54422726930E+03  0.25500000920E-02 0. -1.
    10030    2    1    2    0    0  0.00000000000E+00  0.00000000000E+00  0.18868241711E+04  0.29752787096E+04  0.23004734181E+04 0.  0.
        4    1    3    3  502    0 -0.59408580761E+03 -0.40542607698E+03 -0.21751902160E+03  0.75141492423E+03  0.12699999809E+01 0. -1.
       -4    1    3    3    0  502  0.59408580761E+03  0.40542607698E+03  0.21043431926E+04  0.22238637854E+04  0.12699999809E+01 0.  1.
</event>
<event>
 5   0  0.7607231E-07  0.2299636E+04  0.7818609E-02  0.8478065E-01
       -1   -1    0    0    0  501  0.00000000000E+00  0.00000000000E+00  0.70347915455E+03  0.70347915457E+03  0.50400001928E-02 0. -1.
        1   -1    0    0  501    0  0.00000000000E+00  0.00000000000E+00 -0.18793467117E+04  0.18793467117E+04  0.50400001928E-02 0.  1.
    10030    2    1    2    0    0  0.00000000000E+00  0.00000000000E+00 -0.11758675572E+04  0.25828258663E+04  0.22996358285E+04 0.  0.
        2    1    3    3  502    0 -0.59447670278E+03 -0.57018430530E+03 -0.14889517742E+04  0.17016139627E+04  0.25500000920E-02 0.  1.
       -2    1    3    3    0  502  0.59447670278E+03  0.57018430530E+03  0.31308421700E+03  0.88121190362E+03  0.25500000920E-02 0. -1.
</event>
<event>
 5   0  0.6319125E-07  0.2298686E+04  0.7818609E-02  0.8478439E-01
       -3   -1    0    0    0  501  0.00000000000E+00  0.00000000000E+00  0.16800772296E+04  0.16800772326E+04  0.10100000352E+00 0. -1.
        3   -1    0    0  501    0  0.00000000000E+00  0.00000000000E+00 -0.78626712960E+03  0.78626713609E+03  0.10100000352E+00 0.  1.
    10030    2    1    2    0    0  0.00000000000E+00  0.00000000000E+00  0.89381009999E+03  0.24663443687E+04  0.22986861574E+04 0.  0.
        4    1    3    3  502    0  0.90469466655E+03 -0.64785058997E+03  0.13815821973E+03  0.11212814692E+04  0.12699999809E+01 0.  1.
       -4    1    3    3    0  502 -0.90469466655E+03  0.64785058997E+03  0.75565188026E+03  0.13450628995E+04  0.12699999809E+01 0. -1.
</event>
<event>
 5   0  0.1744876E-06  0.2299591E+04  0.7818609E-02  0.8478082E-01
        2   -1    0    0  501    0  0.00000000000E+00  0.00000000000E+00  0.22261778164E+04  0.22261778164E+04  0.25500000920E-02 0.  1.
       -2   -1    0    0    0  501  0.00000000000E+00  0.00000000000E+00 -0.59385631340E+03  0.59385631340E+03  0.25500000920E-02 0. -1.
    10030    2    1    2    0    0  0.00000000000E+00  0.00000000000E+00  0.16323215030E+04  0.28200341298E+04  0.22995910515E+04 0.  0.
        1    1    3    3  502    0 -0.11192632686E+03 -0.29588404132E+03  0.21717600641E+04  0.21946791667E+04  0.50400001928E-02 0.  1.
       -1    1    3    3    0  502  0.11192632686E+03  0.29588404132E+03 -0.53943856116E+03  0.62535496307E+03  0.50400001928E-02 0. -1.
</event>
<event>
 5   0  0.1689444E-06  0.2300776E+04  0.7818609E-02  0.8477615E-01
        2   -1    0    0  501    0  0.00000000000E+00  0.00000000000E+00  0.12156508548E+04  0.12156508548E+04  0.25500000920E-02 0. -1.
       -2   -1    0    0    0  501  0.00000000000E+00  0.00000000000E+00 -0.10886284012E+04  0.10886284012E+04  0.25500000920E-02 0.  1.
    10030    2    1    2    0    0  0.00000000000E+00  0.00000000000E+00  0.12702245359E+03  0.23042792560E+04  0.23007755618E+04 0.  0.
        2    1    3    3  502    0 -0.82478110148E+03 -0.73303779061E+03 -0.26222824853E+03  0.11341833724E+04  0.25500000920E-02 0.  1.
       -2    1    3    3    0  502  0.82478110148E+03  0.73303779061E+03  0.38925070212E+03  0.11700958836E+04  0.25500000920E-02 0. -1.
</event>
<event>
 5   0  0.7761069E-07  0.2300778E+04  0.7818609E-02  0.8477615E-01
        1   -1    0    0  501    0  0.00000000000E+00  0.00000000000E+00  0.16325373962E+04  0.16325373962E+04  0.50400001928E-02 0. -1.
       -1   -1    0    0    0  501  0.00000000000E+00  0.00000000000E+00 -0.81063659810E+03  0.81063659811E+03  0.50400001928E-02 0.  1.
    10030    2    1    2    0    0  0.00000000000E+00  0.00000000000E+00  0.82190079809E+03  0.24431739943E+04  0.23007777478E+04 0.  0.
        1    1    3    3  502    0  0.47016897115E+03 -0.34338159104E+03  0.14645388413E+04  0.15760215088E+04  0.50400001928E-02 0. -1.
       -1    1    3    3    0  502 -0.47016897115E+03  0.34338159104E+03 -0.64263804322E+03  0.86715248550E+03  0.50400001928E-02 0.  1.
</event>
<event>
 5   0  0.8097672E-07  0.2299521E+04  0.7818609E-02  0.8478110E-01
        1   -1    0    0  501    0  0.00000000000E+00  0.00000000000E+00  0.11627537831E+04  0.11627537832E+04  0.50400001928E-02 0. -1.
       -1   -1    0    0    0  501  0.00000000000E+00  0.00000000000E+00 -0.11369125951E+04  0.11369125951E+04  0.50400001928E-02 0.  1.
    10030    2    1    2    0    0  0.00000000000E+00  0.00000000000E+00  0.25841188037E+02  0.22996663783E+04  0.22995211859E+04 0.  0.
        3    1    3    3  502    0  0.90293050651E+03 -0.61552686581E+03 -0.34458287029E+03  0.11458159481E+04  0.10100000352E+00 0.  1.
       -3    1    3    3    0  502 -0.90293050651E+03  0.61552686581E+03  0.37042405833E+03  0.11538504302E+04  0.10100000352E+00 0. -1.
</event>
<event>
 5   0  0.8108242E-07  0.2300071E+04  0.7818609E-02  0.8477893E-01
       -1   -1    0    0    0  501  0.00000000000E+00  0.00000000000E+00  0.73197964030E+03  0.73197964032E+03  0.50400001928E-02 0. -1.
        1   -1    0    0  501    0  0.00000000000E+00  0.00000000000E+00 -0.18068553780E+04  0.18068553780E+04  0.50400001928E-02 0.  1.
    10030    2    1    2    0    0  0.00000000000E+00  0.00000000000E+00 -0.10748757377E+04  0.25388350183E+04  0.23000707378E+04 0.  0.
        4    1    3    3  502    0  0.90824395745E+03  0.62879265465E+03 -0.89047068177E+03  0.14188822843E+04  0.12699999809E+01 0.  1.
       -4    1    3    3    0  502 -0.90824395745E+03 -0.62879265465E+03 -0.18440505590E+03  0.11199527340E+04  0.12699999809E+01 0. -1.
</event>
<event>
 5   0  0.6319125E-07  0.2298670E+04  0.7818609E-02  0.8478446E-01
        3   -1    0    0  501    0  0.00000000000E+00  0.00000000000E+00  0.22927140377E+04  0.22927140399E+04  0.10100000352E+00 0.  1.
       -3   -1    0    0    0  501  0.00000000000E+00  0.00000000000E+00 -0.57616032444E+03  0.57616033329E+03  0.10100000352E+00 0. -1.
    10030    2    1    2    0    0  0.00000000000E+00  0.00000000000E+00  0.17165537132E+04  0.28688743732E+04  0.22986699456E+04 0.  0.
        5    1    3    3  502    0 -0.28602216666E+03  0.20162718267E+03 -0.50804024056E+03  0.61691910056E+03  0.46999998093E+01 0. -1.
       -5    1    3    3    0  502  0.28602216666E+03 -0.20162718267E+03  0.22245939538E+04  0.22519552726E+04  0.46999998093E+01 0.  1.
</event>
<event>
 5   0  0.7761069E-07  0.2300267E+04  0.7818609E-02  0.8477816E-01
        1   -1    0    0  501    0  0.00000000000E+00  0.00000000000E+00  0.97389989171E+03  0.97389989172E+03  0.50400001928E-02 0.  1.
       -1   -1    0    0    0  501  0.00000000000E+00  0.00000000000E+00 -0.13582576213E+04  0.13582576213E+04  0.50400001928E-02 0. -1.
    10030    2    1    2    0    0  0.00000000000E+00  0.00000000000E+00 -0.38435772959E+03  0.23321575130E+04  0.23002668978E+04 0.  0.
        1    1    3    3  502    0  0.17462070671E+02  0.66033894624E+03 -0.11467490697E+04  0.13233993640E+04  0.50400001928E-02 0. -1.
       -1    1    3    3    0  502 -0.17462070671E+02 -0.66033894624E+03  0.76239134006E+03  0.10087581490E+04  0.50400001928E-02 0.  1.
</event>
<event>
 5   0  0.1828646E-06  0.2311769E+04  0.7818609E-02  0.8473295E-01
        2   -1    0    0  501    0  0.00000000000E+00  0.00000000000E+00  0.13783563334E+04  0.13783563334E+04  0.25500000920E-02 0. -1.
       -2   -1    0    0    0  501  0.00000000000E+00  0.00000000000E+00 -0.96932073751E+03  0.96932073752E+03  0.25500000920E-02 0.  1.
    10030    2    1    2    0    0  0.00000000000E+00  0.00000000000E+00  0.40903559587E+03  0.23476770709E+04  0.23117693463E+04 0.  0.
        3    1    3    3  502    0 -0.91525577851E+03  0.58555971002E+03  0.60497263415E+03  0.12436097508E+04  0.10100000352E+00 0. -1.
       -3    1    3    3    0  502  0.91525577851E+03 -0.58555971002E+03 -0.19593703828E+03  0.11040673201E+04  0.10100000352E+00 0.  1.
</event>
<event>
 5   0  0.7607231E-07  0.2300399E+04  0.7818609E-02  0.8477764E-01
        1   -1    0    0  501    0  0.00000000000E+00  0.00000000000E+00  0.26606900240E+04  0.26606900240E+04  0.50400001928E-02 0.  1.
       -1   -1    0    0    0  501  0.00000000000E+00  0.00000000000E+00 -0.49722379364E+03  0.49722379367E+03  0.50400001928E-02 0. -1.
    10030    2    1    2    0    0  0.00000000000E+00  0.00000000000E+00  0.21634662303E+04  0.31579138176E+04  0.23003985633E+04 0.  0.
        2    1    3    3  502    0 -0.82711926621E+03 -0.82791959008E+02  0.21730428467E+04  0.23266061125E+04  0.25500000920E-02 0.  1.
       -2    1    3    3    0  502  0.82711926621E+03  0.82791959008E+02 -0.95766164189E+01  0.83130770513E+03  0.25500000920E-02 0. -1.
</event>
<event>
 5   0  0.1744876E-06  0.2299215E+04  0.7818609E-02  0.8478231E-01
       -2   -1    0    0    0  501  0.00000000000E+00  0.00000000000E+00  0.56752477450E+03  0.56752477450E+03  0.25500000920E-02 0. -1.
        2   -1    0    0  501    0  0.00000000000E+00  0.00000000000E+00 -0.23287034710E+04  0.23287034710E+04  0.25500000920E-02 0.  1.
    10030    2    1    2    0    0  0.00000000000E+00  0.00000000000E+00 -0.17611786965E+04  0.28962282455E+04  0.22992145722E+04 0.  0.
        1    1    3    3  502    0 -0.33814227692E+03 -0.72357190704E+03 -0.19221539242E+04  0.20814831761E+04  0.50400001928E-02 0.  1.
       -1    1    3    3    0  502  0.33814227692E+03  0.72357190704E+03  0.16097522772E+03  0.81474506937E+03  0.50400001928E-02 0. -1.
</event>
<event>
 5   0  0.7607231E-07  0.2300243E+04  0.7818609E-02  0.8477825E-01
        1   -1    0    0  501    0  0.00000000000E+00  0.00000000000E+00  0.14360649918E+04  0.14360649918E+04  0.50400001928E-02 0. -1.
       -1   -1    0    0    0  501  0.00000000000E+00  0.00000000000E+00 -0.92111355009E+03  0.92111355011E+03  0.50400001928E-02 0.  1.
    10030    2    1    2    0    0  0.00000000000E+00  0.00000000000E+00  0.51495144169E+03  0.23571785419E+04  0.23002425288E+04 0.  0.
        2    1    3    3  502    0  0.44695925796E+01 -0.90263488362E+03  0.98786542759E+03  0.13381508934E+04  0.25500000920E-02 0. -1.
       -2    1    3    3    0  502 -0.44695925796E+01  0.90263488362E+03 -0.47291398590E+03  0.10190276485E+04  0.25500000920E-02 0.  1.
</event>
<event>
 5   0  0.8097672E-07  0.2301354E+04  0.7818609E-02  0.8477388E-01
       -1   -1    0    0    0  501  0.00000000000E+00  0.00000000000E+00  0.13714166690E+04  0.13714166690E+04  0.50400001928E-02 0. -1.
        1   -1    0    0  501    0  0.00000000000E+00  0.00000000000E+00 -0.96546671801E+03  0.96546671802E+03  0.50400001928E-02 0.  1.
    10030    2    1    2    0    0  0.00000000000E+00  0.00000000000E+00  0.40594995097E+03  0.23368833870E+04  0.23013536455E+04 0.  0.
        3    1    3    3  502    0  0.25292380682E+03  0.36504726386E+03  0.12808845701E+04  0.13556899531E+04  0.10100000352E+00 0. -1.
       -3    1    3    3    0  502 -0.25292380682E+03 -0.36504726386E+03 -0.87493461908E+03  0.98119343393E+03  0.10100000352E+00 0.  1.
</event>
<event>
 5   0  0.1888779E-06  0.2300902E+04  0.7818609E-02  0.8477566E-01
       -2   -1    0    0    0  501  0.00000000000E+00  0.00000000000E+00  0.11332587359E+04  0.11332587359E+04  0.25500000920E-02 0. -1.
        2   -1    0    0  501    0  0.00000000000E+00  0.00000000000E+00 -0.11679035745E+04  0.11679035745E+04  0.25500000920E-02 0.  1.
    10030    2    1    2    0    0  0.00000000000E+00  0.00000000000E+00 -0.34644838557E+02  0.23011623104E+04  0.23009015002E+04 0.  0.
        4    1    3    3  502    0  0.23443859906E+03  0.28696748666E+03 -0.11065847640E+04  0.11669803974E+04  0.12699999809E+01 0.  1.
       -4    1    3    3    0  502 -0.23443859906E+03 -0.28696748666E+03  0.10719399254E+04  0.11341819130E+04  0.12699999809E+01 0. -1.
</event>
<event>
 5   0  0.8108242E-07  0.2301371E+04  0.7818609E-02  0.8477381E-01
        1   -1    0    0  501    0  0.00000000000E+00  0.00000000000E+00  0.48195413541E+03  0.48195413544E+03  0.50400001928E-02 0.  1.
       -1   -1    0    0    0  501  0.00000000000E+00  0.00000000000E+00 -0.27473091354E+04  0.27473091354E+04  0.50400001928E-02 0. -1.
    10030    2    1    2    0    0  0.00000000000E+00  0.00000000000E+00 -0.22653549999E+04  0.32292632708E+04  0.23013708950E+04 0.  0.
        4    1    3    3  502    0 -0.33154363058E+02  0.35353511438E+03  0.40315293458E+03  0.53723383219E+03  0.12699999809E+01 0.  1.
       -4    1    3    3    0  502  0.33154363058E+02 -0.35353511438E+03 -0.26685079345E+04  0.26920294386E+04  0.12699999809E+01 0. -1.
</event>
<event>
 5   0  0.1689444E-06  0.2299778E+04  0.7818609E-02  0.8478009E-01
        2   -1    0    0  501    0  0.00000000000E+00  0.00000000000E+00  0.12241388391E+04  0.12241388391E+04  0.25500000920E-02 0. -1.
       -2   -1    0    0    0  501  0.00000000000E+00  0.00000000000E+00 -0.10801425498E+04  0.10801425498E+04  0.25500000920E-02 0.  1.
    10030    2    1    2    0    0  0.00000000000E+00  0.00000000000E+00  0.14399628924E+03  0.23042813889E+04  0.22997777693E+04 0.  0.
        2    1    3    3  502    0 -0.63354173483E+03  0.22284189217E+03  0.10072127226E+04  0.12105829618E+04  0.25500000920E-02 0. -1.
       -2    1    3    3    0  502  0.63354173483E+03 -0.22284189217E+03 -0.86321643339E+03  0.10936984272E+04  0.25500000920E-02 0.  1.
</event>
<event>
 5   0  0.8097672E-07  0.2305489E+04  0.7818609E-02  0.8475760E-01
       -1   -1    0    0    0  501  0.00000000000E+00  0.00000000000E+00  0.77075419022E+03  0.77075419024E+03  0.50400001928E-02 0.  1.
        1   -1    0    0  501    0  0.00000000000E+00  0.00000000000E+00 -0.17240508976E+04  0.17240508976E+04  0.50400001928E-02 0. -1.
    10030    2    1    2    0    0  0.00000000000E+00  0.00000000000E+00 -0.95329670739E+03  0.24948050879E+04  0.23054886281E+04 0.  0.
        3    1    3    3  502    0 -0.92513358556E+03  0.68060669562E+03 -0.36995253959E+03  0.12066327184E+04  0.10100000352E+00 0. -1.
       -3    1    3    3    0  502  0.92513358556E+03 -0.68060669562E+03 -0.58334416780E+03  0.12881723695E+04  0.10100000352E+00 0.  1.
</event>
<event>
 5   0  0.1828646E-06  0.2299663E+04  0.7818609E-02  0.8478054E-01
        2   -1    0    0  501    0  0.00000000000E+00  0.00000000000E+00  0.84765704908E+03  0.84765704908E+03  0.25500000920E-02 0. -1.
       -2   -1    0    0    0  501  0.00000000000E+00  0.00000000000E+00 -0.15597254504E+04  0.15597254504E+04  0.25500000920E-02 0.  1.
    10030    2    1    2    0    0  0.00000000000E+00  0.00000000000E+00 -0.71206840128E+03  0.24073824994E+04  0.22996628211E+04 0.  0.
        3    1    3    3  502    0 -0.97161843454E+03  0.10424855788E+03 -0.99039089017E+03  0.13913246457E+04  0.10100000352E+00 0.  1.
       -3    1    3    3    0  502  0.97161843454E+03 -0.10424855788E+03  0.27832248889E+03  0.10160578538E+04  0.10100000352E+00 0. -1.
</event>
<event>
 5   0  0.7607231E-07  0.2299459E+04  0.7818609E-02  0.8478135E-01
       -1   -1    0    0    0  501  0.00000000000E+00  0.00000000000E+00  0.97522960964E+03  0.97522960965E+03  0.50400001928E-02 0.  1.
        1   -1    0    0  501    0  0.00000000000E+00  0.00000000000E+00 -0.13554527962E+04  0.13554527962E+04  0.50400001928E-02 0. -1.
    10030    2    1    2    0    0  0.00000000000E+00  0.00000000000E+00 -0.38022318652E+03  0.23306824058E+04  0.22994588070E+04 0.  0.
        2    1    3    3  502    0 -0.10657072250E+04 -0.41830547830E+03 -0.29721736175E+03  0.11828142385E+04  0.25500000920E-02 0. -1.
       -2    1    3    3    0  502  0.10657072250E+04  0.41830547830E+03 -0.83005824770E+02  0.11478681673E+04  0.25500000920E-02 0.  1.
</event>
<event>
 5   0  0.1689444E-06  0.2300298E+04  0.7818609E-02  0.8477804E-01
       -2   -1    0    0    0  501  0.00000000000E+00  0.00000000000E+00  0.18695850295E+04  0.18695850295E+04  0.25500000920E-02 0. -1.
        2   -1    0    0  501    0  0.00000000000E+00  0.00000000000E+00 -0.70755923760E+03  0.70755923760E+03  0.25500000920E-02 0.  1.
    10030    2    1    2    0    0  0.00000000000E+00  0.00000000000E+00  0.11620257919E+04  0.25771442671E+04  0.23002975096E+04 0.  0.
        2    1    3    3  502    0 -0.31618463022E+03 -0.53827151777E+03 -0.50123448836E+03  0.80059038187E+03  0.25500000920E-02 0.  1.
       -2    1    3    3    0  502  0.31618463022E+03  0.53827151777E+03  0.16632602803E+04  0.17765538853E+04  0.25500000920E-02 0. -1.
</event>
<event>
 5   0  0.1744876E-06  0.2299162E+04  0.7818609E-02  0.8478252E-01
       -2   -1    0    0    0  501  0.00000000000E+00  0.00000000000E+00  0.10820239784E+04  0.10820239784E+04  0.25500000920E-02 0. -1.
        2   -1    0    0  501    0  0.00000000000E+00  0.00000000000E+00 -0.12213555596E+04  0.12213555596E+04  0.25500000920E-02 0.  1.
    10030    2    1    2    0    0  0.00000000000E+00  0.00000000000E+00 -0.13933158115E+03  0.23033795380E+04  0.22991615877E+04 0.  0.
        1    1    3    3  502    0 -0.61068293303E+03 -0.97331471984E+03 -0.10523886166E+03  0.11538415864E+04  0.50400001928E-02 0.  1.
       -1    1    3    3    0  502  0.61068293303E+03  0.97331471984E+03 -0.34092719490E+02  0.11495379516E+04  0.50400001928E-02 0. -1.
</event>
<event>
 5   0  0.8097672E-07  0.2301531E+04  0.7818609E-02  0.8477318E-01
        1   -1    0    0  501    0  0.00000000000E+00  0.00000000000E+00  0.33176536380E+04  0.33176536380E+04  0.50400001928E-02 0. -1.
       -1   -1    0    0    0  501  0.00000000000E+00  0.00000000000E+00 -0.39915609826E+03  0.39915609829E+03  0.50400001928E-02 0.  1.
    10030    2    1    2    0    0  0.00000000000E+00  0.00000000000E+00  0.29184975397E+04  0.37168097363E+04  0.23015313872E+04 0.  0.
        3    1    3    3  502    0  0.91875304659E+03 -0.55124659795E+03  0.78120607401E+03  0.13259950651E+04  0.10100000352E+00 0.  1.
       -3    1    3    3    0  502 -0.91875304659E+03  0.55124659795E+03  0.21372914657E+04  0.23908146712E+04  0.10100000352E+00 0. -1.
</event>
<event>
 5   0  0.7607231E-07  0.2299282E+04  0.7818609E-02  0.8478204E-01
        1   -1    0    0  501    0  0.00000000000E+00  0.00000000000E+00  0.90717934653E+03  0.90717934655E+03  0.50400001928E-02 0. -1.
       -1   -1    0    0    0  501  0.00000000000E+00  0.00000000000E+00 -0.14569055038E+04  0.14569055038E+04  0.50400001928E-02 0.  1.
    10030    2    1    2    0    0  0.00000000000E+00  0.00000000000E+00 -0.54972615729E+03  0.23640848504E+04  0.22992821340E+04 0.  0.
        2    1    3    3  502    0  0.10911518605E+04  0.31863375850E+03 -0.98162779367E+02  0.11409538930E+04  0.25500000920E-02 0. -1.
       -2    1    3    3    0  502 -0.10911518605E+04 -0.31863375850E+03 -0.45156337793E+03  0.12231309574E+04  0.25500000920E-02 0.  1.
</event>
<event>
 5   0  0.1689444E-06  0.2300039E+04  0.7818609E-02  0.8477906E-01
       -2   -1    0    0    0  501  0.00000000000E+00  0.00000000000E+00  0.51347380181E+03  0.51347380182E+03  0.25500000920E-02 0.  1.
        2   -1    0    0  501    0  0.00000000000E+00  0.00000000000E+00 -0.25756803284E+04  0.25756803284E+04  0.25500000920E-02 0. -1.
    10030    2    1    2    0    0  0.00000000000E+00  0.00000000000E+00 -0.20622065266E+04  0.30891541302E+04  0.23000385827E+04 0.  0.
        2    1    3    3  502    0  0.11346419695E+04  0.10143122659E+03 -0.12427991407E+04  0.16858975048E+04  0.25500000920E-02 0. -1.
       -2    1    3    3    0  502 -0.11346419695E+04 -0.10143122659E+03 -0.81940738592E+03  0.14032566254E+04  0.25500000920E-02 0.  1.
</event>
<event>
 5   0  0.1888779E-06  0.2299940E+04  0.7818609E-02  0.8477945E-01
       -2   -1    0    0    0  501  0.00000000000E+00  0.00000000000E+00  0.15749625888E+04  0.15749625888E+04  0.25500000920E-02 0.  1.
        2   -1    0    0  501    0  0.00000000000E+00  0.00000000000E+00 -0.83965869822E+03  0.83965869823E+03  0.25500000920E-02 0. -1.
    10030    2    1    2    0    0  0.00000000000E+00  0.00000000000E+00  0.73530389059E+03  0.24146212870E+04  0.22999400315E+04 0.  0.
        4    1    3    3  502    0  0.81246367582E+03 -0.17416871830E+03 -0.46697072712E+03  0.95315016647E+03  0.12699999809E+01 0. -1.
       -4    1    3    3    0  502 -0.81246367582E+03  0.17416871830E+03  0.12022746177E+04  0.14614711206E+04  0.12699999809E+01 0.  1.
</event>
<event>
 5   0  0.1828646E-06  0.2301030E+04  0.7818609E-02  0.8477515E-01
        2   -1    0    0  501    0  0.00000000000E+00  0.00000000000E+00  0.15596249591E+04  0.15596249591E+04  0.25500000920E-02 0.  1.
       -2   -1    0    0    0  501  0.00000000000E+00  0.00000000000E+00 -0.84871999006E+03  0.84871999006E+03  0.25500000920E-02 0. -1.
    10030    2    1    2    0    0  0.00000000000E+00  0.00000000000E+00  0.71090496901E+03  0.24083449491E+04  0.23010300995E+04 0.  0.
        3    1    3    3  502    0 -0.97500669991E+03  0.58052301189E+03  0.55414787991E+03  0.12628241822E+04  0.10100000352E+00 0.  1.
       -3    1    3    3    0  502  0.97500669991E+03 -0.58052301189E+03  0.15675708910E+03  0.11455207669E+04  0.10100000352E+00 0. -1.
</event>
<event>
 5   0  0.1825521E-06  0.2299186E+04  0.7818609E-02  0.8478242E-01
        2   -1    0    0  501    0  0.00000000000E+00  0.00000000000E+00  0.18264836655E+04  0.18264836655E+04  0.25500000920E-02 0. -1.
       -2   -1    0    0    0  501  0.00000000000E+00  0.00000000000E+00 -0.72355669162E+03  0.72355669162E+03  0.25500000920E-02 0.  1.
    10030    2    1    2    0    0  0.00000000000E+00  0.00000000000E+00  0.11029269739E+04  0.25500403572E+04  0.22991863590E+04 0.  0.
        5    1    3    3  502    0  0.26651397346E+03  0.35893943445E+03 -0.62318096870E+03  0.76697055055E+03  0.46999998093E+01 0.  1.
       -5    1    3    3    0  502 -0.26651397346E+03 -0.35893943445E+03  0.17261079426E+04  0.17830698066E+04  0.46999998093E+01 0. -1.
</event>
<event>
 5   0  0.8108242E-07  0.2300689E+04  0.7818609E-02  0.8477650E-01
        1   -1    0    0  501    0  0.00000000000E+00  0.00000000000E+00  0.90250734610E+03  0.90250734612E+03  0.50400001928E-02 0. -1.
       -1   -1    0    0    0  501  0.00000000000E+00  0.00000000000E+00 -0.14662400854E+04  0.14662400854E+04  0.50400001928E-02 0.  1.
    10030    2    1    2    0    0  0.00000000000E+00  0.00000000000E+00 -0.56373273933E+03  0.23687474316E+04  0.23006889823E+04 0.  0.
        4    1    3    3  502    0  0.85662050673E+03  0.67937430814E+03 -0.65013827298E+03  0.12720178969E+04  0.12699999809E+01 0.  1.
       -4    1    3    3    0  502 -0.85662050673E+03 -0.67937430814E+03  0.86405533645E+02  0.10967295347E+04  0.12699999809E+01 0. -1.
</event>
<event>
 5   0  0.8097672E-07  0.2287731E+04  0.7818609E-02  0.8482774E-01
       -1   -1    0    0    0  501  0.00000000000E+00  0.00000000000E+00  0.73155207636E+03  0.73155207638E+03  0.50400001928E-02 0.  1.
        1   -1    0    0  501    0  0.00000000000E+00  0.00000000000E+00 -0.17885651305E+04  0.17885651305E+04  0.50400001928E-02 0. -1.
    10030    2    1    2    0    0  0.00000000000E+00  0.00000000000E+00 -0.10570130541E+04  0.25201172069E+04  0.22877312211E+04 0.  0.
        3    1    3    3  502    0 -0.15885254635E+02 -0.90367853621E+03 -0.13008237885E+04  0.15839917225E+04  0.10100000352E+00 0.  1.
       -3    1    3    3    0  502  0.15885254635E+02  0.90367853621E+03  0.24381073434E+03  0.93612548438E+03  0.10100000352E+00 0. -1.
</event>
<event>
 5   0  0.7761069E-07  0.2300702E+04  0.7818609E-02  0.8477645E-01
        1   -1    0    0  501    0  0.00000000000E+00  0.00000000000E+00  0.19245242562E+04  0.19245242562E+04  0.50400001928E-02 0.  1.
       -1   -1    0    0    0  501  0.00000000000E+00  0.00000000000E+00 -0.68760211748E+03  0.68760211750E+03  0.50400001928E-02 0. -1.
    10030    2    1    2    0    0  0.00000000000E+00  0.00000000000E+00  0.12369221387E+04  0.26121263737E+04  0.23007015919E+04 0.  0.
        1    1    3    3  502    0  0.29035162938E+03 -0.78356885990E+03 -0.27913676435E+03  0.88102301906E+03  0.50400001928E-02 0. -1.
       -1    1    3    3    0  502 -0.29035162938E+03  0.78356885990E+03  0.15160589031E+04  0.17311033546E+04  0.50400001928E-02 0.  1.
</event>
<event>
 5   0  0.1689444E-06  0.2292847E+04  0.7818609E-02  0.8480747E-01
        2   -1    0    0  501    0  0.00000000000E+00  0.00000000000E+00  0.14766184828E+04  0.14766184829E+04  0.25500000920E-02 0.  1.
       -2   -1    0    0    0  501  0.00000000000E+00  0.00000000000E+00 -0.89006502113E+03  0.89006502113E+03  0.25500000920E-02 0. -1.
    10030    2    1    2    0    0  0.00000000000E+00  0.00000000000E+00  0.58655346172E+03  0.23666835040E+04  0.22928466683E+04 0.  0.
        2    1    3    3  502    0  0.11307931291E+04  0.80651014840E+02  0.11723003420E+03  0.11397107387E+04  0.25500000920E-02 0. -1.
       -2    1    3    3    0  502 -0.11307931291E+04 -0.80651014840E+02  0.46932342752E+03  0.12269727653E+04  0.25500000920E-02 0.  1.
</event>
<event>
 5   0  0.1888779E-06  0.2300024E+04  0.7818609E-02  0.8477911E-01
       -2   -1    0    0    0  501  0.00000000000E+00  0.00000000000E+00  0.10392929944E+04  0.10392929944E+04  0.25500000920E-02 0. -1.
        2   -1    0    0  501    0  0.00000000000E+00  0.00000000000E+00 -0.12725266850E+04  0.12725266850E+04  0.25500000920E-02 0.  1.
    10030    2    1    2    0    0  0.00000000000E+00  0.00000000000E+00 -0.23323369057E+03  0.23118196794E+04  0.23000244077E+04 0.  0.
        4    1    3    3  502    0  0.93037185010E+03  0.67508869712E+03 -0.81944614456E+02  0.11524118453E+04  0.12699999809E+01 0.  1.
       -4    1    3    3    0  502 -0.93037185010E+03 -0.67508869712E+03 -0.15128907611E+03  0.11594078342E+04  0.12699999809E+01 0. -1.
</event>
<event>
 5   0  0.7932912E-07  0.2300624E+04  0.7818609E-02  0.8477675E-01
       -1   -1    0    0    0  501  0.00000000000E+00  0.00000000000E+00  0.83495210329E+03  0.83495210331E+03  0.50400001928E-02 0. -1.
        1   -1    0    0  501    0  0.00000000000E+00  0.00000000000E+00 -0.15847821695E+04  0.15847821695E+04  0.50400001928E-02 0.  1.
    10030    2    1    2    0    0  0.00000000000E+00  0.00000000000E+00 -0.74983006619E+03  0.24197342728E+04  0.23006235726E+04 0.  0.
        5    1    3    3  502    0  0.88177636924E+03 -0.67026409780E+03 -0.48337178184E+02  0.11086668115E+04  0.46999998093E+01 0. -1.
       -5    1    3    3    0  502 -0.88177636924E+03  0.67026409780E+03 -0.70149288801E+03  0.13110674613E+04  0.46999998093E+01 0.  1.
</event>
<event>
 5   0  0.1689444E-06  0.2300672E+04  0.7818609E-02  0.8477656E-01
        2   -1    0    0  501    0  0.00000000000E+00  0.00000000000E+00  0.24786904249E+04  0.24786904249E+04  0.25500000920E-02 0. -1.
       -2   -1    0    0    0  501  0.00000000000E+00  0.00000000000E+00 -0.53385987938E+03  0.53385987938E+03  0.25500000920E-02 0.  1.
    10030    2    1    2    0    0  0.00000000000E+00  0.00000000000E+00  0.19448305455E+04  0.30125503043E+04  0.23006723985E+04 0.  0.
        2    1    3    3  502    0 -0.91626945183E+03  0.40139320359E+03  0.22868317389E+03  0.10261394673E+04  0.25500000920E-02 0.  1.
       -2    1    3    3    0  502  0.91626945183E+03 -0.40139320359E+03  0.17161473716E+04  0.19864108370E+04  0.25500000920E-02 0. -1.
</event>
<event>
 5   0  0.7607231E-07  0.2303816E+04  0.7818609E-02  0.8476418E-01
        1   -1    0    0  501    0  0.00000000000E+00  0.00000000000E+00  0.17764068396E+04  0.17764068396E+04  0.50400001928E-02 0. -1.
       -1   -1    0    0    0  501  0.00000000000E+00  0.00000000000E+00 -0.74695276299E+03  0.74695276301E+03  0.50400001928E-02 0.  1.
    10030    2    1    2    0    0  0.00000000000E+00  0.00000000000E+00  0.10294540766E+04  0.25233596026E+04  0.23038159623E+04 0.  0.
        2    1    3    3  502    0  0.78261586603E+03 -0.79520629428E+03  0.20098390037E+03  0.11336821302E+04  0.25500000920E-02 0. -1.
       -2    1    3    3    0  502 -0.78261586603E+03  0.79520629428E+03  0.82847017620E+03  0.13896774723E+04  0.25500000920E-02 0.  1.
</event>
<event>
 5   0  0.8097672E-07  0.2301599E+04  0.7818609E-02  0.8477291E-01
        1   -1    0    0  501    0  0.00000000000E+00  0.00000000000E+00  0.10738226778E+04  0.10738226778E+04  0.50400001928E-02 0. -1.
       -1   -1    0    0    0  501  0.00000000000E+00  0.00000000000E+00 -0.12332946976E+04  0.12332946976E+04  0.50400001928E-02 0.  1.
    10030    2    1    2    0    0  0.00000000000E+00  0.00000000000E+00 -0.15947201976E+03  0.23071173754E+04  0.23015992828E+04 0.  0.
        3    1    3    3  502    0 -0.91830664688E+03  0.33315601355E+02  0.61470395533E+03  0.11055577732E+04  0.10100000352E+00 0. -1.
       -3    1    3    3    0  502  0.91830664688E+03 -0.33315601355E+02 -0.77417597509E+03  0.12015596022E+04  0.10100000352E+00 0.  1.
</event>
<event>
 5   0  0.1828646E-06  0.2300424E+04  0.7818609E-02  0.8477754E-01
        2   -1    0    0  501    0  0.00000000000E+00  0.00000000000E+00  0.20458377317E+04  0.20458377317E+04  0.25500000920E-02 0. -1.
       -2   -1    0    0    0  501  0.00000000000E+00  0.00000000000E+00 -0.64667272721E+03  0.64667272722E+03  0.25500000920E-02 0.  1.
    10030    2    1    2    0    0  0.00000000000E+00  0.00000000000E+00  0.13991650045E+04  0.26925104589E+04  0.23004238439E+04 0.  0.
        3    1    3    3  502    0 -0.53648495172E+03  0.93329682057E+03  0.22540450086E+03  0.10998482886E+04  0.10100000352E+00 0.  1.
       -3    1    3    3    0  502  0.53648495172E+03 -0.93329682057E+03  0.11737605037E+04  0.15926621703E+04  0.10100000352E+00 0. -1.
</event>
<event>
 5   0  0.1744876E-06  0.2313003E+04  0.7818609E-02  0.8472812E-01
        2   -1    0    0  501    0  0.00000000000E+00  0.00000000000E+00  0.16990513960E+04  0.16990513960E+04  0.25500000920E-02 0. -1.
       -2   -1    0    0    0  501  0.00000000000E+00  0.00000000000E+00 -0.78720166814E+03  0.78720166814E+03  0.25500000920E-02 0.  1.
    10030    2    1    2    0    0  0.00000000000E+00  0.00000000000E+00  0.91184972788E+03  0.24862530642E+04  0.23130033231E+04 0.  0.
        1    1    3    3  502    0 -0.27062906963E+03  0.16383757170E+03 -0.73978677230E+03  0.80459139426E+03  0.50400001928E-02 0.  1.
       -1    1    3    3    0  502  0.27062906963E+03 -0.16383757170E+03  0.16516365002E+04  0.16816616699E+04  0.50400001928E-02 0. -1.
</event>
<event>
 5   0  0.8108242E-07  0.2300742E+04  0.7818609E-02  0.8477629E-01
        1   -1    0    0  501    0  0.00000000000E+00  0.00000000000E+00  0.16855145528E+04  0.16855145528E+04  0.50400001928E-02 0. -1.
       -1   -1    0    0    0  501  0.00000000000E+00  0.00000000000E+00 -0.78513288203E+03  0.78513288204E+03  0.50400001928E-02 0.  1.
    10030    2    1    2    0    0  0.00000000000E+00  0.00000000000E+00  0.90038167075E+03  0.24706474348E+04  0.23007415314E+04 0.  0.
        4    1    3    3  502    0  0.67961734933E+03 -0.81310909025E+03 -0.30438952115E+02  0.10601670986E+04  0.12699999809E+01 0.  1.
       -4    1    3    3    0  502 -0.67961734933E+03  0.81310909025E+03  0.93082062287E+03  0.14104803363E+04  0.12699999809E+01 0. -1.
</event>
<event>
 5   0  0.8108242E-07  0.2299491E+04  0.7818609E-02  0.8478122E-01
        1   -1    0    0  501    0  0.00000000000E+00  0.00000000000E+00  0.21535516926E+04  0.21535516926E+04  0.50400001928E-02 0. -1.
       -1   -1    0    0    0  501  0.00000000000E+00  0.00000000000E+00 -0.61382980556E+03  0.61382980558E+03  0.50400001928E-02 0.  1.
    10030    2    1    2    0    0  0.00000000000E+00  0.00000000000E+00  0.15397218870E+04  0.27673814982E+04  0.22994905668E+04 0.  0.
        4    1    3    3  502    0 -0.78464948856E+03 -0.54108340056E+03  0.15437123644E+04  0.18142479277E+04  0.12699999809E+01 0. -1.
       -4    1    3    3    0  502  0.78464948856E+03  0.54108340056E+03 -0.39904774331E+01  0.95313357043E+03  0.12699999809E+01 0.  1.
</event>
<event>
 5   0  0.8097672E-07  0.2300185E+04  0.7818609E-02  0.8477848E-01
        1   -1    0    0  501    0  0.00000000000E+00  0.00000000000E+00  0.10082247496E+04  0.10082247496E+04  0.50400001928E-02 0. -1.
       -1   -1    0    0    0  501  0.00000000000E+00  0.00000000000E+00 -0.13119224537E+04  0.13119224538E+04  0.50400001928E-02 0.  1.
    10030    2    1    2    0    0  0.00000000000E+00  0.00000000000E+00 -0.30369770415E+03  0.23201472034E+04  0.23001849382E+04 0.  0.
        3    1    3    3  502    0 -0.29240223510E+03  0.86812554030E+02  0.96668296745E+03  0.10136623976E+04  0.10100000352E+00 0. -1.
       -3    1    3    3    0  502  0.29240223510E+03 -0.86812554030E+02 -0.12703806716E+04  0.13064848057E+04  0.10100000352E+00 0.  1.
</event>
<event>
 5   0  0.1888779E-06  0.2300404E+04  0.7818609E-02  0.8477762E-01
       -2   -1    0    0    0  501  0.00000000000E+00  0.00000000000E+00  0.98707895112E+03  0.98707895112E+03  0.25500000920E-02 0.  1.
        2   -1    0    0  501    0  0.00000000000E+00  0.00000000000E+00 -0.13402820277E+04  0.13402820277E+04  0.25500000920E-02 0. -1.
    10030    2    1    2    0    0  0.00000000000E+00  0.00000000000E+00 -0.35320307663E+03  0.23273609789E+04  0.23004035978E+04 0.  0.
        4    1    3    3  502    0 -0.45114187456E+03 -0.72406985431E+03  0.60390271109E+03  0.10452302341E+04  0.12699999809E+01 0.  1.
       -4    1    3    3    0  502  0.45114187456E+03  0.72406985431E+03 -0.95710578772E+03  0.12821307448E+04  0.12699999809E+01 0. -1.
</event>
<event>
 5   0  0.7932912E-07  0.2300171E+04  0.7818609E-02  0.8477854E-01
        1   -1    0    0  501    0  0.00000000000E+00  0.00000000000E+00  0.19525294379E+04  0.19525294379E+04  0.50400001928E-02 0.  1.
       -1   -1    0    0    0  501  0.00000000000E+00  0.00000000000E+00 -0.67742740045E+03  0.67742740047E+03  0.50400001928E-02 0. -1.
    10030    2    1    2    0    0  0.00000000000E+00  0.00000000000E+00  0.12751020375E+04  0.26299568384E+04  0.23001712471E+04 0.  0.
        5    1    3    3  502    0 -0.99089350237E+03  0.53933816650E+03  0.38209124526E+03  0.11911219084E+04  0.46999998093E+01 0.  1.
       -5    1    3    3    0  502  0.99089350237E+03 -0.53933816650E+03  0.89301079221E+03  0.14388349300E+04  0.46999998093E+01 0. -1.
</event>
<event>
 5   0  0.1828646E-06  0.2300572E+04  0.7818609E-02  0.8477696E-01
       -2   -1    0    0    0  501  0.00000000000E+00  0.00000000000E+00  0.11103855059E+04  0.11103855059E+04  0.25500000920E-02 0. -1.
        2   -1    0    0  501    0  0.00000000000E+00  0.00000000000E+00 -0.11916199715E+04  0.11916199715E+04  0.25500000920E-02 0.  1.
    10030    2    1    2    0    0  0.00000000000E+00  0.00000000000E+00 -0.81234465657E+02  0.23020054774E+04  0.23005717071E+04 0.  0.
        3    1    3    3  502    0  0.25461361877E+03 -0.10996192446E+04 -0.26249165640E+03  0.11588323683E+04  0.10100000352E+00 0.  1.
       -3    1    3    3    0  502 -0.25461361877E+03  0.10996192446E+04  0.18125719074E+03  0.11431731091E+04  0.10100000352E+00 0. -1.
</event>
<event>
 5   0  0.1828646E-06  0.2299918E+04  0.7818609E-02  0.8477953E-01
        2   -1    0    0  501    0  0.00000000000E+00  0.00000000000E+00  0.15236540797E+04  0.15236540797E+04  0.25500000920E-02 0.  1.
       -2   -1    0    0    0  501  0.00000000000E+00  0.00000000000E+00 -0.86791729650E+03  0.86791729650E+03  0.25500000920E-02 0. -1.
    10030    2    1    2    0    0  0.00000000000E+00  0.00000000000E+00  0.65573678317E+03  0.23915713762E+04  0.22999180243E+04 0.  0.
        3    1    3    3  502    0  0.72667033409E+03 -0.54697846298E+03  0.10595942023E+04  0.13964150877E+04  0.10100000352E+00 0.  1.
       -3    1    3    3    0  502 -0.72667033409E+03  0.54697846298E+03 -0.40385741909E+03  0.99515628851E+03  0.10100000352E+00 0. -1.
</event>
<event>
 5   0  0.6319125E-07  0.2300176E+04  0.7818609E-02  0.8477852E-01
       -3   -1    0    0    0  501  0.00000000000E+00  0.00000000000E+00  0.67813326901E+03  0.67813327653E+03  0.10100000352E+00 0.  1.
        3   -1    0    0  501    0  0.00000000000E+00  0.00000000000E+00 -0.19505058108E+04  0.19505058134E+04  0.10100000352E+00 0. -1.
    10030    2    1    2    0    0  0.00000000000E+00  0.00000000000E+00 -0.12723725418E+04  0.26286390900E+04  0.23001764237E+04 0.  0.
        2    1    3    3  502    0  0.83563365367E+03 -0.36943546408E+03  0.16208696696E+03  0.92792152154E+03  0.25500000920E-02 0.  1.
       -2    1    3    3    0  502 -0.83563365367E+03  0.36943546408E+03 -0.14344595088E+04  0.17007175684E+04  0.25500000920E-02 0. -1.
</event>
<event>
 5   0  0.7932912E-07  0.2299895E+04  0.7818609E-02  0.8477963E-01
        1   -1    0    0  501    0  0.00000000000E+00  0.00000000000E+00  0.97121676602E+03  0.97121676604E+03  0.50400001928E-02 0. -1.
       -1   -1    0    0    0  501  0.00000000000E+00  0.00000000000E+00 -0.13615695921E+04  0.13615695921E+04  0.50400001928E-02 0.  1.
    10030    2    1    2    0    0  0.00000000000E+00  0.00000000000E+00 -0.39035282606E+03  0.23327863581E+04  0.22998949680E+04 0.  0.
        5    1    3    3  502    0  0.80585521133E+03 -0.40259335664E+03 -0.92015216134E+03  0.12877057593E+04  0.46999998093E+01 0.  1.
       -5    1    3    3    0  502 -0.80585521133E+03  0.40259335664E+03  0.52979933528E+03  0.10450805989E+04  0.46999998093E+01 0. -1.
</event>
<event>
 5   0  0.1828646E-06  0.2293574E+04  0.7818609E-02  0.8480459E-01
       -2   -1    0    0    0  501  0.00000000000E+00  0.00000000000E+00  0.15221982449E+04  0.15221982449E+04  0.25500000920E-02 0. -1.
        2   -1    0    0  501    0  0.00000000000E+00  0.00000000000E+00 -0.86396152486E+03  0.86396152486E+03  0.25500000920E-02 0.  1.
    10030    2    1    2    0    0  0.00000000000E+00  0.00000000000E+00  0.65823672008E+03  0.23861597698E+04  0.22935742559E+04 0.  0.
        3    1    3    3  502    0  0.86726277995E+02 -0.26491494366E+03  0.14864162529E+04  0.15123275643E+04  0.10100000352E+00 0. -1.
       -3    1    3    3    0  502 -0.86726277995E+02  0.26491494366E+03 -0.82817953279E+03  0.87383220552E+03  0.10100000352E+00 0.  1.
</event>
<event>
 5   0  0.6319125E-07  0.2300450E+04  0.7818609E-02  0.8477744E-01
       -3   -1    0    0    0  501  0.00000000000E+00  0.00000000000E+00  0.12955494083E+04  0.12955494122E+04  0.10100000352E+00 0.  1.
        3   -1    0    0  501    0  0.00000000000E+00  0.00000000000E+00 -0.10212022075E+04  0.10212022125E+04  0.10100000352E+00 0. -1.
    10030    2    1    2    0    0  0.00000000000E+00  0.00000000000E+00  0.27434720077E+03  0.23167516247E+04  0.23004503264E+04 0.  0.
        1    1    3    3  502    0 -0.13905995179E+03 -0.87290130259E+03 -0.60406065726E+03  0.10705996600E+04  0.50400001928E-02 0. -1.
       -1    1    3    3    0  502  0.13905995179E+03  0.87290130259E+03  0.87840785803E+03  0.12461519648E+04  0.50400001928E-02 0.  1.
</event>
<event>
 5   0  0.1689444E-06  0.2300911E+04  0.7818609E-02  0.8477562E-01
       -2   -1    0    0    0  501  0.00000000000E+00  0.00000000000E+00  0.21032239290E+04  0.21032239290E+04  0.25500000920E-02 0.  1.
        2   -1    0    0  501    0  0.00000000000E+00  0.00000000000E+00 -0.62929476232E+03  0.62929476232E+03  0.25500000920E-02 0. -1.
    10030    2    1    2    0    0  0.00000000000E+00  0.00000000000E+00  0.14739291667E+04  0.27325186913E+04  0.23009109522E+04 0.  0.
        2    1    3    3  502    0  0.98301791450E+03 -0.39320594518E+03  0.20240437620E+03  0.10779158905E+04  0.25500000920E-02 0.  1.
       -2    1    3    3    0  502 -0.98301791450E+03  0.39320594518E+03  0.12715247905E+04  0.16546028008E+04  0.25500000920E-02 0. -1.
</event>
<event>
 5   0  0.1744876E-06  0.2300306E+04  0.7818609E-02  0.8477800E-01
       -2   -1    0    0    0  501  0.00000000000E+00  0.00000000000E+00  0.82340630571E+03  0.82340630572E+03  0.25500000920E-02 0. -1.
        2   -1    0    0  501    0  0.00000000000E+00  0.00000000000E+00 -0.16065605102E+04  0.16065605102E+04  0.25500000920E-02 0.  1.
    10030    2    1    2    0    0  0.00000000000E+00  0.00000000000E+00 -0.78315420445E+03  0.24299668159E+04  0.23003061140E+04 0.  0.
        1    1    3    3  502    0  0.85344324799E+03 -0.32304474795E+02 -0.12053519277E+04  0.14772549632E+04  0.50400001928E-02 0.  1.
       -1    1    3    3    0  502 -0.85344324799E+03  0.32304474795E+02  0.42219772329E+03  0.95271185266E+03  0.50400001928E-02 0. -1.
</event>
<event>
 5   0  0.7761069E-07  0.2299968E+04  0.7818609E-02  0.8477934E-01
        1   -1    0    0  501    0  0.00000000000E+00  0.00000000000E+00  0.14288124477E+04  0.14288124477E+04  0.50400001928E-02 0.  1.
       -1   -1    0    0    0  501  0.00000000000E+00  0.00000000000E+00 -0.92556846877E+03  0.92556846879E+03  0.50400001928E-02 0. -1.
    10030    2    1    2    0    0  0.00000000000E+00  0.00000000000E+00  0.50324397895E+03  0.23543809165E+04  0.22999684775E+04 0.  0.
        1    1    3    3  502    0 -0.58392514673E+03 -0.17177123044E+03 -0.74716067666E+03  0.96370275986E+03  0.50400001928E-02 0. -1.
       -1    1    3    3    0  502  0.58392514673E+03  0.17177123044E+03  0.12504046556E+04  0.13906781567E+04  0.50400001928E-02 0.  1.
</event>
<event>
 5   0  0.1888779E-06  0.2301889E+04  0.7818609E-02  0.8477177E-01
        2   -1    0    0  501    0  0.00000000000E+00  0.00000000000E+00  0.10854023670E+04  0.10854023670E+04  0.25500000920E-02 0. -1.
       -2   -1    0    0    0  501  0.00000000000E+00  0.00000000000E+00 -0.12204441117E+04  0.12204441117E+04  0.25500000920E-02 0.  1.
    10030    2    1    2    0    0  0.00000000000E+00  0.00000000000E+00 -0.13504174474E+03  0.23058464787E+04  0.23018887268E+04 0.  0.
        4    1    3    3  502    0  0.27818931402E+03  0.88108380156E+03  0.61993405928E+03  0.11126624873E+04  0.12699999809E+01 0. -1.
       -4    1    3    3    0  502 -0.27818931402E+03 -0.88108380156E+03 -0.75497580402E+03  0.11931839914E+04  0.12699999809E+01 0.  1.
</event>
<event>
 5   0  0.1888779E-06  0.2300737E+04  0.7818609E-02  0.8477631E-01
       -2   -1    0    0    0  501  0.00000000000E+00  0.00000000000E+00  0.87024848241E+03  0.87024848241E+03  0.25500000920E-02 0.  1.
        2   -1    0    0  501    0  0.00000000000E+00  0.00000000000E+00 -0.15206544363E+04  0.15206544363E+04  0.25500000920E-02 0. -1.
    10030    2    1    2    0    0  0.00000000000E+00  0.00000000000E+00 -0.65040595384E+03  0.23909029187E+04  0.23007365911E+04 0.  0.
        4    1    3    3  502    0 -0.36819600333E+03  0.48097582067E+03 -0.13415073852E+04  0.14719204171E+04  0.12699999809E+01 0. -1.
       -4    1    3    3    0  502  0.36819600333E+03 -0.48097582067E+03  0.69110143131E+03  0.91898250157E+03  0.12699999809E+01 0.  1.
</event>
<event>
 5   0  0.1828646E-06  0.2298286E+04  0.7818609E-02  0.8478597E-01
        2   -1    0    0  501    0  0.00000000000E+00  0.00000000000E+00  0.14229274733E+04  0.14229274734E+04  0.25500000920E-02 0. -1.
       -2   -1    0    0    0  501  0.00000000000E+00  0.00000000000E+00 -0.92803735835E+03  0.92803735835E+03  0.25500000920E-02 0.  1.
    10030    2    1    2    0    0  0.00000000000E+00  0.00000000000E+00  0.49489011500E+03  0.23509648317E+04  0.22982861906E+04 0.  0.
        3    1    3    3  502    0  0.63531121302E+01 -0.63703339425E+03  0.12257542323E+04  0.13814214982E+04  0.10100000352E+00 0. -1.
       -3    1    3    3    0  502 -0.63531121302E+01  0.63703339425E+03 -0.73086411730E+03  0.96954333353E+03  0.10100000352E+00 0.  1.
</event>
<event>
 5   0  0.8108242E-07  0.2300148E+04  0.7818609E-02  0.8477863E-01
        1   -1    0    0  501    0  0.00000000000E+00  0.00000000000E+00  0.20689529393E+04  0.20689529393E+04  0.50400001928E-02 0.  1.
       -1   -1    0    0    0  501  0.00000000000E+00  0.00000000000E+00 -0.63929461416E+03  0.63929461418E+03  0.50400001928E-02 0. -1.
    10030    2    1    2    0    0  0.00000000000E+00  0.00000000000E+00  0.14296583251E+04  0.27082475535E+04  0.23001482309E+04 0.  0.
        4    1    3    3  502    0 -0.79696463521E+03  0.44567900614E+03 -0.10842992989E+03  0.91953307112E+03  0.12699999809E+01 0. -1.
       -4    1    3    3    0  502  0.79696463521E+03 -0.44567900614E+03  0.15380882550E+04  0.17887144824E+04  0.12699999809E+01 0.  1.
</event>
<event>
 5   0  0.7607231E-07  0.2300483E+04  0.7818609E-02  0.8477731E-01
       -1   -1    0    0    0  501  0.00000000000E+00  0.00000000000E+00  0.83956518879E+03  0.83956518880E+03  0.50400001928E-02 0.  1.
        1   -1    0    0  501    0  0.00000000000E+00  0.00000000000E+00 -0.15758816688E+04  0.15758816688E+04  0.50400001928E-02 0. -1.
    10030    2    1    2    0    0  0.00000000000E+00  0.00000000000E+00 -0.73631648001E+03  0.24154468576E+04  0.23004828978E+04 0.  0.
        2    1    3    3  502    0  0.85456374670E+03  0.71684834095E+02 -0.11730421045E+04  0.14530814469E+04  0.25500000920E-02 0. -1.
       -2    1    3    3    0  502 -0.85456374670E+03 -0.71684834095E+02  0.43672562444E+03  0.96236541067E+03  0.25500000920E-02 0.  1.
</event>
<event>
 5   0  0.1828646E-06  0.2299178E+04  0.7818609E-02  0.8478245E-01
       -2   -1    0    0    0  501  0.00000000000E+00  0.00000000000E+00  0.80159781802E+03  0.80159781803E+03  0.25500000920E-02 0. -1.
        2   -1    0    0  501    0  0.00000000000E+00  0.00000000000E+00 -0.16486502343E+04  0.16486502343E+04  0.25500000920E-02 0.  1.
    10030    2    1    2    0    0  0.00000000000E+00  0.00000000000E+00 -0.84705241624E+03  0.24502480523E+04  0.22991776186E+04 0.  0.
        3    1    3    3  502    0  0.14515400740E+03  0.35136500330E+03 -0.15797204714E+04  0.16248211684E+04  0.10100000352E+00 0.  1.
       -3    1    3    3    0  502 -0.14515400740E+03 -0.35136500330E+03  0.73266805514E+03  0.82542688388E+03  0.10100000352E+00 0. -1.
</event>
<event>
 5   0  0.1888779E-06  0.2300066E+04  0.7818609E-02  0.8477895E-01
        2   -1    0    0  501    0  0.00000000000E+00  0.00000000000E+00  0.11817129636E+04  0.11817129637E+04  0.25500000920E-02 0.  1.
       -2   -1    0    0    0  501  0.00000000000E+00  0.00000000000E+00 -0.11192027956E+04  0.11192027956E+04  0.25500000920E-02 0. -1.
    10030    2    1    2    0    0  0.00000000000E+00  0.00000000000E+00  0.62510168064E+02  0.23009157592E+04  0.23000664795E+04 0.  0.
        4    1    3    3  502    0  0.17568718184E+03 -0.43447673971E+03  0.10818518040E+04  0.11789999839E+04  0.12699999809E+01 0.  1.
       -4    1    3    3    0  502 -0.17568718184E+03  0.43447673971E+03 -0.10193416360E+04  0.11219157753E+04  0.12699999809E+01 0. -1.
</event>
<event>
 5   0  0.1888779E-06  0.2302644E+04  0.7818609E-02  0.8476879E-01
        2   -1    0    0  501    0  0.00000000000E+00  0.00000000000E+00  0.21532544321E+04  0.21532544321E+04  0.25500000920E-02 0.  1.
       -2   -1    0    0    0  501  0.00000000000E+00  0.00000000000E+00 -0.61559944830E+03  0.61559944831E+03  0.25500000920E-02 0. -1.
    10030    2    1    2    0    0  0.00000000000E+00  0.00000000000E+00  0.15376549838E+04  0.27688538804E+04  0.23026439069E+04 0.  0.
        4    1    3    3  502    0 -0.47149574816E+03  0.84408325772E+03  0.17159607140E+02  0.96699578671E+03  0.12699999809E+01 0. -1.
       -4    1    3    3    0  502  0.47149574816E+03 -0.84408325772E+03  0.15204953767E+04  0.18018580937E+04  0.12699999809E+01 0.  1.
</event>
<event>
 5   0  0.8097672E-07  0.2300242E+04  0.7818609E-02  0.8477826E-01
       -1   -1    0    0    0  501  0.00000000000E+00  0.00000000000E+00  0.23279291577E+04  0.23279291577E+04  0.50400001928E-02 0.  1.
        1   -1    0    0  501    0  0.00000000000E+00  0.00000000000E+00 -0.56822087958E+03  0.56822087960E+03  0.50400001928E-02 0. -1.
    10030    2    1    2    0    0  0.00000000000E+00  0.00000000000E+00  0.17597082781E+04  0.28961500373E+04  0.23002416861E+04 0.  0.
        3    1    3    3  502    0 -0.10413188745E+04 -0.91854154601E+02  0.27603412817E+03  0.10811924131E+04  0.10100000352E+00 0.  1.
       -3    1    3    3    0  502  0.10413188745E+04  0.91854154601E+02  0.14836741499E+04  0.18149576242E+04  0.10100000352E+00 0. -1.
</event>
<event>
 5   0  0.7761069E-07  0.2301528E+04  0.7818609E-02  0.8477319E-01
        1   -1    0    0  501    0  0.00000000000E+00  0.00000000000E+00  0.14878595593E+04  0.14878595593E+04  0.50400001928E-02 0. -1.
       -1   -1    0    0    0  501  0.00000000000E+00  0.00000000000E+00 -0.89004236627E+03  0.89004236628E+03  0.50400001928E-02 0.  1.
    10030    2    1    2    0    0  0.00000000000E+00  0.00000000000E+00  0.59781719301E+03  0.23779019256E+04  0.23015282252E+04 0.  0.
        1    1    3    3  502    0 -0.11548189812E+03 -0.11002270686E+04  0.62631929785E+03  0.12712637547E+04  0.50400001928E-02 0. -1.
       -1    1    3    3    0  502  0.11548189812E+03  0.11002270686E+04 -0.28502104832E+02  0.11066381709E+04  0.50400001928E-02 0.  1.
</event>
<event>
 5   0  0.7607231E-07  0.2304089E+04  0.7818609E-02  0.8476310E-01
       -1   -1    0    0    0  501  0.00000000000E+00  0.00000000000E+00  0.73520397192E+03  0.73520397194E+03  0.50400001928E-02 0.  1.
        1   -1    0    0  501    0  0.00000000000E+00  0.00000000000E+00 -0.18052228913E+04  0.18052228913E+04  0.50400001928E-02 0. -1.
    10030    2    1    2    0    0  0.00000000000E+00  0.00000000000E+00 -0.10700189194E+04  0.25404268632E+04  0.23040894426E+04 0.  0.
        2    1    3    3  502    0  0.20840584210E+02  0.65196991565E+03  0.51197517754E+03  0.82922716024E+03  0.25500000920E-02 0.  1.
       -2    1    3    3    0  502 -0.20840584210E+02 -0.65196991565E+03 -0.15819940969E+04  0.17111997030E+04  0.25500000920E-02 0. -1.
</event>
<event>
 5   0  0.1744876E-06  0.2313973E+04  0.7818609E-02  0.8472432E-01
        2   -1    0    0  501    0  0.00000000000E+00  0.00000000000E+00  0.13409991547E+04  0.13409991547E+04  0.25500000920E-02 0. -1.
       -2   -1    0    0    0  501  0.00000000000E+00  0.00000000000E+00 -0.99822379605E+03  0.99822379606E+03  0.25500000920E-02 0.  1.
    10030    2    1    2    0    0  0.00000000000E+00  0.00000000000E+00  0.34277535862E+03  0.23392229507E+04  0.23139725726E+04 0.  0.
        1    1    3    3  502    0  0.36794195008E+03  0.48073016302E+03  0.11681155149E+04  0.13156658483E+04  0.50400001928E-02 0. -1.
       -1    1    3    3    0  502 -0.36794195008E+03 -0.48073016302E+03 -0.82534015629E+03  0.10235571024E+04  0.50400001928E-02 0.  1.
</event>
<event>
 5   0  0.1888779E-06  0.2300923E+04  0.7818609E-02  0.8477557E-01
        2   -1    0    0  501    0  0.00000000000E+00  0.00000000000E+00  0.20012479921E+04  0.20012479921E+04  0.25500000920E-02 0.  1.
       -2   -1    0    0    0  501  0.00000000000E+00  0.00000000000E+00 -0.66136828826E+03  0.66136828827E+03  0.25500000920E-02 0. -1.
    10030    2    1    2    0    0  0.00000000000E+00  0.00000000000E+00  0.13398797039E+04  0.26626162804E+04  0.23009232573E+04 0.  0.
        4    1    3    3  502    0  0.99148617958E+03  0.46919903304E+03  0.26846203403E+03  0.11292767834E+04  0.12699999809E+01 0. -1.
       -4    1    3    3    0  502 -0.99148617958E+03 -0.46919903304E+03  0.10714176698E+04  0.15333394970E+04  0.12699999809E+01 0.  1.
</event>
<event>
 5   0  0.7932912E-07  0.2298658E+04  0.7818609E-02  0.8478450E-01
       -1   -1    0    0    0  501  0.00000000000E+00  0.00000000000E+00  0.53735497620E+03  0.53735497623E+03  0.50400001928E-02 0.  1.
        1   -1    0    0  501    0  0.00000000000E+00  0.00000000000E+00 -0.24582584104E+04  0.24582584104E+04  0.50400001928E-02 0. -1.
    10030    2    1    2    0    0  0.00000000000E+00  0.00000000000E+00 -0.19209034341E+04  0.29956133866E+04  0.22986582083E+04 0.  0.
        5    1    3    3  502    0 -0.93258778952E+03 -0.67124443280E+03 -0.99358035237E+03  0.15190500585E+04  0.46999998093E+01 0.  1.
       -5    1    3    3    0  502  0.93258778952E+03  0.67124443280E+03 -0.92732308178E+03  0.14765633280E+04  0.46999998093E+01 0. -1.
</event>
<event>
 5   0  0.1744876E-06  0.2300117E+04  0.7818609E-02  0.8477875E-01
       -2   -1    0    0    0  501  0.00000000000E+00  0.00000000000E+00  0.11691569421E+04  0.11691569421E+04  0.25500000920E-02 0.  1.
        2   -1    0    0  501    0  0.00000000000E+00  0.00000000000E+00 -0.11312725251E+04  0.11312725251E+04  0.25500000920E-02 0. -1.
    10030    2    1    2    0    0  0.00000000000E+00  0.00000000000E+00  0.37884417002E+02  0.23004294672E+04  0.23001174980E+04 0.  0.
        1    1    3    3  502    0  0.85064363419E+03  0.77397389511E+03  0.16718532529E+02  0.11501781132E+04  0.50400001928E-02 0. -1.
       -1    1    3    3    0  502 -0.85064363419E+03 -0.77397389511E+03  0.21165884473E+02  0.11502513540E+04  0.50400001928E-02 0.  1.
</event>
<event>
 5   0  0.8097672E-07  0.2298578E+04  0.7818609E-02  0.8478482E-01
        1   -1    0    0  501    0  0.00000000000E+00  0.00000000000E+00  0.10365997187E+04  0.10365997187E+04  0.50400001928E-02 0. -1.
       -1   -1    0    0    0  501  0.00000000000E+00  0.00000000000E+00 -0.12742284152E+04  0.12742284152E+04  0.50400001928E-02 0.  1.
    10030    2    1    2    0    0  0.00000000000E+00  0.00000000000E+00 -0.23762869652E+03  0.23108281339E+04  0.22985776618E+04 0.  0.
        3    1    3    3  502    0 -0.54507856346E+03  0.87495951658E+03  0.39202764694E+03  0.11028828053E+04  0.10100000352E+00 0. -1.
       -3    1    3    3    0  502  0.54507856346E+03 -0.87495951658E+03 -0.62965634347E+03  0.12079453287E+04  0.10100000352E+00 0.  1.
</event>
<event>
 5   0  0.7932912E-07  0.2298747E+04  0.7818609E-02  0.8478415E-01
       -1   -1    0    0    0  501  0.00000000000E+00  0.00000000000E+00  0.53401269288E+03  0.53401269291E+03  0.50400001928E-02 0. -1.
        1   -1    0    0  501    0  0.00000000000E+00  0.00000000000E+00 -0.24738356699E+04  0.24738356699E+04  0.50400001928E-02 0.  1.
    10030    2    1    2    0    0  0.00000000000E+00  0.00000000000E+00 -0.19398229770E+04  0.30078483628E+04  0.22987471787E+04 0.  0.
        5    1    3    3  502    0  0.44417522139E+03  0.97468688215E+03 -0.42452559090E+03  0.11521936525E+04  0.46999998093E+01 0. -1.
       -5    1    3    3    0  502 -0.44417522139E+03 -0.97468688215E+03 -0.15152973861E+04  0.18556547103E+04  0.46999998093E+01 0.  1.
</event>
<event>
 5   0  0.7932912E-07  0.2301308E+04  0.7818609E-02  0.8477406E-01
        1   -1    0    0  501    0  0.00000000000E+00  0.00000000000E+00  0.13430494573E+04  0.13430494573E+04  0.50400001928E-02 0. -1.
       -1   -1    0    0    0  501  0.00000000000E+00  0.00000000000E+00 -0.98581979638E+03  0.98581979639E+03  0.50400001928E-02 0.  1.
    10030    2    1    2    0    0  0.00000000000E+00  0.00000000000E+00  0.35722966088E+03  0.23288692537E+04  0.23013080998E+04 0.  0.
        5    1    3    3  502    0 -0.66362797532E+02  0.79659478129E+03  0.10161836558E+04  0.12929108936E+04  0.46999998093E+01 0. -1.
       -5    1    3    3    0  502  0.66362797532E+02 -0.79659478129E+03 -0.65895399488E+03  0.10359583601E+04  0.46999998093E+01 0.  1.
</event>
<event>
 5   0  0.1825521E-06  0.2299096E+04  0.7818609E-02  0.8478278E-01
        2   -1    0    0  501    0  0.00000000000E+00  0.00000000000E+00  0.12383378685E+04  0.12383378685E+04  0.25500000920E-02 0. -1.
       -2   -1    0    0    0  501  0.00000000000E+00  0.00000000000E+00 -0.10671241538E+04  0.10671241538E+04  0.25500000920E-02 0.  1.
    10030    2    1    2    0    0  0.00000000000E+00  0.00000000000E+00  0.17121371464E+03  0.23054620223E+04  0.22990956919E+04 0.  0.
        5    1    3    3  502    0 -0.77457668212E+03  0.59174891705E+03 -0.52542628877E+03  0.11073530116E+04  0.46999998093E+01 0. -1.
       -5    1    3    3    0  502  0.77457668212E+03 -0.59174891705E+03  0.69664000341E+03  0.11981090108E+04  0.46999998093E+01 0.  1.
</event>
<event>
 5   0  0.1825521E-06  0.2300388E+04  0.7818609E-02  0.8477768E-01
        2   -1    0    0  501    0  0.00000000000E+00  0.00000000000E+00  0.76807060661E+03  0.76807060662E+03  0.25500000920E-02 0.  1.
       -2   -1    0    0    0  501  0.00000000000E+00  0.00000000000E+00 -0.17224278950E+04  0.17224278950E+04  0.25500000920E-02 0. -1.
    10030    2    1    2    0    0  0.00000000000E+00  0.00000000000E+00 -0.95435728836E+03  0.24904985016E+04  0.23003880004E+04 0.  0.
        5    1    3    3  502    0  0.80107807109E+03 -0.34167864338E+03  0.33621239364E+03  0.93355837255E+03  0.46999998093E+01 0.  1.
       -5    1    3    3    0  502 -0.80107807109E+03  0.34167864338E+03 -0.12905696820E+04  0.15569401290E+04  0.46999998093E+01 0. -1.
</event>
<event>
 5   0  0.1689444E-06  0.2300593E+04  0.7818609E-02  0.8477687E-01
       -2   -1    0    0    0  501  0.00000000000E+00  0.00000000000E+00  0.79401392723E+03  0.79401392724E+03  0.25500000920E-02 0. -1.
        2   -1    0    0  501    0  0.00000000000E+00  0.00000000000E+00 -0.16664464405E+04  0.16664464405E+04  0.25500000920E-02 0.  1.
    10030    2    1    2    0    0  0.00000000000E+00  0.00000000000E+00 -0.87243251325E+03  0.24604603677E+04  0.23005926912E+04 0.  0.
        2    1    3    3  502    0 -0.59061440581E+03  0.98082664889E+03 -0.31743358150E+03  0.11881121034E+04  0.25500000920E-02 0.  1.
       -2    1    3    3    0  502  0.59061440581E+03 -0.98082664889E+03 -0.55499893175E+03  0.12723482643E+04  0.25500000920E-02 0. -1.
</event>
<event>
 5   0  0.7761069E-07  0.2299828E+04  0.7818609E-02  0.8477989E-01
        1   -1    0    0  501    0  0.00000000000E+00  0.00000000000E+00  0.19262135411E+04  0.19262135411E+04  0.50400001928E-02 0. -1.
       -1   -1    0    0    0  501  0.00000000000E+00  0.00000000000E+00 -0.68647733036E+03  0.68647733038E+03  0.50400001928E-02 0.  1.
    10030    2    1    2    0    0  0.00000000000E+00  0.00000000000E+00  0.12397362107E+04  0.26126908715E+04  0.22998277583E+04 0.  0.
        1    1    3    3  502    0 -0.70627234366E+03 -0.47191262038E+03  0.15004107058E+04  0.17241677502E+04  0.50400001928E-02 0.  1.
       -1    1    3    3    0  502  0.70627234366E+03  0.47191262038E+03 -0.26067449505E+03  0.88852312130E+03  0.50400001928E-02 0. -1.
</event>
<event>
 5   0  0.1825521E-06  0.2300070E+04  0.7818609E-02  0.8477893E-01
       -2   -1    0    0    0  501  0.00000000000E+00  0.00000000000E+00  0.12007071501E+04  0.12007071501E+04  0.25500000920E-02 0. -1.
        2   -1    0    0  501    0  0.00000000000E+00  0.00000000000E+00 -0.11015014499E+04  0.11015014499E+04  0.25500000920E-02 0.  1.
    10030    2    1    2    0    0  0.00000000000E+00  0.00000000000E+00  0.99205700216E+02  0.23022086000E+04  0.23000701439E+04 0.  0.
        5    1    3    3  502    0  0.10571194238E+04 -0.23831146529E+03 -0.33580676060E+03  0.11344964086E+04  0.46999998093E+01 0. -1.
       -5    1    3    3    0  502 -0.10571194238E+04  0.23831146529E+03  0.43501246081E+03  0.11677121914E+04  0.46999998093E+01 0.  1.
</event>
<event>
 5   0  0.7932912E-07  0.2300374E+04  0.7818609E-02  0.8477774E-01
        1   -1    0    0  501    0  0.00000000000E+00  0.00000000000E+00  0.18255902570E+04  0.18255902570E+04  0.50400001928E-02 0. -1.
       -1   -1    0    0    0  501  0.00000000000E+00  0.00000000000E+00 -0.72465903975E+03  0.72465903977E+03  0.50400001928E-02 0.  1.
    10030    2    1    2    0    0  0.00000000000E+00  0.00000000000E+00  0.11009312173E+04  0.25502492968E+04  0.23003743023E+04 0.  0.
        5    1    3    3  502    0 -0.90538545048E+03  0.17041306769E+03 -0.21291249845E+03  0.94557773323E+03  0.46999998093E+01 0.  1.
       -5    1    3    3    0  502  0.90538545048E+03 -0.17041306769E+03  0.13138437157E+04  0.16046715636E+04  0.46999998093E+01 0. -1.
</event>
<event>
 5   0  0.1828646E-06  0.2299812E+04  0.7818609E-02  0.8477995E-01
        2   -1    0    0  501    0  0.00000000000E+00  0.00000000000E+00  0.12016909941E+04  0.12016909941E+04  0.25500000920E-02 0. -1.
       -2   -1    0    0    0  501  0.00000000000E+00  0.00000000000E+00 -0.11003521991E+04  0.11003521991E+04  0.25500000920E-02 0.  1.
    10030    2    1    2    0    0  0.00000000000E+00  0.00000000000E+00  0.10133879497E+03  0.23020431932E+04  0.22998115819E+04 0.  0.
        3    1    3    3  502    0  0.89869994006E+03  0.15208410789E+03 -0.65107589582E+03  0.11201298989E+04  0.10100000352E+00 0.  1.
       -3    1    3    3    0  502 -0.89869994006E+03 -0.15208410789E+03  0.75241469078E+03  0.11819132943E+04  0.10100000352E+00 0. -1.
</event>
<event>
 5   0  0.1825521E-06  0.2300328E+04  0.7818609E-02  0.8477792E-01
       -2   -1    0    0    0  501  0.00000000000E+00  0.00000000000E+00  0.69126040892E+03  0.69126040893E+03  0.25500000920E-02 0. -1.
        2   -1    0    0  501    0  0.00000000000E+00  0.00000000000E+00 -0.19137170232E+04  0.19137170232E+04  0.25500000920E-02 0.  1.
    10030    2    1    2    0    0  0.00000000000E+00  0.00000000000E+00 -0.12224566143E+04  0.26049774321E+04  0.23003276393E+04 0.  0.
        5    1    3    3  502    0 -0.37121657635E+03  0.53425298526E+03  0.46287348528E+03  0.79843719364E+03  0.46999998093E+01 0. -1.
       -5    1    3    3    0  502  0.37121657635E+03 -0.53425298526E+03 -0.16853300995E+04  0.18065402385E+04  0.46999998093E+01 0.  1.
</event>
<event>
 5   0  0.8108242E-07  0.2299125E+04  0.7818609E-02  0.8478266E-01
        1   -1    0    0  501    0  0.00000000000E+00  0.00000000000E+00  0.16447068584E+04  0.16447068584E+04  0.50400001928E-02 0.  1.
       -1   -1    0    0    0  501  0.00000000000E+00  0.00000000000E+00 -0.80348275142E+03  0.80348275143E+03  0.50400001928E-02 0. -1.
    10030    2    1    2    0    0  0.00000000000E+00  0.00000000000E+00  0.84122410697E+03  0.24481896098E+04  0.22991246959E+04 0.  0.
        4    1    3    3  502    0 -0.27791496982E+03 -0.53592480609E+02 -0.76579969159E+03  0.81643105340E+03  0.12699999809E+01 0. -1.
       -4    1    3    3    0  502  0.27791496982E+03  0.53592480609E+02  0.16070237986E+04  0.16317585564E+04  0.12699999809E+01 0.  1.
</event>
<event>
 5   0  0.1828646E-06  0.2300107E+04  0.7818609E-02  0.8477879E-01
        2   -1    0    0  501    0  0.00000000000E+00  0.00000000000E+00  0.20283279432E+04  0.20283279432E+04  0.25500000920E-02 0. -1.
       -2   -1    0    0    0  501  0.00000000000E+00  0.00000000000E+00 -0.65207563167E+03  0.65207563167E+03  0.25500000920E-02 0.  1.
    10030    2    1    2    0    0  0.00000000000E+00  0.00000000000E+00  0.13762523115E+04  0.26804035748E+04  0.23001071495E+04 0.  0.
        3    1    3    3  502    0  0.48199777566E+03 -0.41476966984E+03 -0.42857437528E+03  0.76683227638E+03  0.10100000352E+00 0.  1.
       -3    1    3    3    0  502 -0.48199777566E+03  0.41476966984E+03  0.18048266868E+04  0.19135712985E+04  0.10100000352E+00 0. -1.
</event>
<event>
 5   0  0.1689444E-06  0.2301640E+04  0.7818609E-02  0.8477275E-01
       -2   -1    0    0    0  501  0.00000000000E+00  0.00000000000E+00  0.94800213576E+03  0.94800213576E+03  0.25500000920E-02 0.  1.
        2   -1    0    0  501    0  0.00000000000E+00  0.00000000000E+00 -0.13970297186E+04  0.13970297186E+04  0.25500000920E-02 0. -1.
    10030    2    1    2    0    0  0.00000000000E+00  0.00000000000E+00 -0.44902758284E+03  0.23450318544E+04  0.23016404211E+04 0.  0.
        2    1    3    3  502    0 -0.43739231561E+03 -0.66137364689E+03  0.62527264006E+03  0.10097985012E+04  0.25500000920E-02 0.  1.
       -2    1    3    3    0  502  0.43739231561E+03  0.66137364689E+03 -0.10743002229E+04  0.13352333532E+04  0.25500000920E-02 0. -1.
</event>
<event>
 5   0  0.1888779E-06  0.2299843E+04  0.7818609E-02  0.8477983E-01
       -2   -1    0    0    0  501  0.00000000000E+00  0.00000000000E+00  0.94331712961E+03  0.94331712961E+03  0.25500000920E-02 0. -1.
        2   -1    0    0  501    0  0.00000000000E+00  0.00000000000E+00 -0.14017760174E+04  0.14017760174E+04  0.25500000920E-02 0.  1.
    10030    2    1    2    0    0  0.00000000000E+00  0.00000000000E+00 -0.45845888780E+03  0.23450931470E+04  0.22998428895E+04 0.  0.
        4    1    3    3  502    0  0.53523057063E+03  0.58083793870E+02  0.80686922910E+03  0.96999229720E+03  0.12699999809E+01 0. -1.
       -4    1    3    3    0  502 -0.53523057063E+03 -0.58083793870E+02 -0.12653281169E+04  0.13751008498E+04  0.12699999809E+01 0.  1.
</event>
<event>
 5   0  0.1828646E-06  0.2303301E+04  0.7818609E-02  0.8476621E-01
        2   -1    0    0  501    0  0.00000000000E+00  0.00000000000E+00  0.20021441027E+04  0.20021441027E+04  0.25500000920E-02 0. -1.
       -2   -1    0    0    0  501  0.00000000000E+00  0.00000000000E+00 -0.66243945817E+03  0.66243945817E+03  0.25500000920E-02 0.  1.
    10030    2    1    2    0    0  0.00000000000E+00  0.00000000000E+00  0.13397046445E+04  0.26645835608E+04  0.23033013303E+04 0.  0.
        3    1    3    3  502    0 -0.34859328930E+03 -0.75940151401E+03  0.15866847717E+04  0.17932586305E+04  0.10100000352E+00 0. -1.
       -3    1    3    3    0  502  0.34859328930E+03  0.75940151401E+03 -0.24698012721E+03  0.87132493036E+03  0.10100000352E+00 0.  1.
</event>
<event>
 5   0  0.1744876E-06  0.2299800E+04  0.7818609E-02  0.8478000E-01
       -2   -1    0    0    0  501  0.00000000000E+00  0.00000000000E+00  0.78679792012E+03  0.78679792013E+03  0.25500000920E-02 0. -1.
        2   -1    0    0  501    0  0.00000000000E+00  0.00000000000E+00 -0.16805712594E+04  0.16805712594E+04  0.25500000920E-02 0.  1.
    10030    2    1    2    0    0  0.00000000000E+00  0.00000000000E+00 -0.89377333929E+03  0.24673691795E+04  0.22997999666E+04 0.  0.
        1    1    3    3  502    0  0.10907295711E+04  0.65381659166E+02 -0.83118148962E+03  0.13728905373E+04  0.50400001928E-02 0. -1.
       -1    1    3    3    0  502 -0.10907295711E+04 -0.65381659166E+02 -0.62591849676E+02  0.10944786423E+04  0.50400001928E-02 0.  1.
</event>
<event>
 5   0  0.1744876E-06  0.2301501E+04  0.7818609E-02  0.8477330E-01
        2   -1    0    0  501    0  0.00000000000E+00  0.00000000000E+00  0.15178774567E+04  0.15178774567E+04  0.25500000920E-02 0.  1.
       -2   -1    0    0    0  501  0.00000000000E+00  0.00000000000E+00 -0.87241969887E+03  0.87241969887E+03  0.25500000920E-02 0. -1.
    10030    2    1    2    0    0  0.00000000000E+00  0.00000000000E+00  0.64545775783E+03  0.23902971556E+04  0.23015005485E+04 0.  0.
        1    1    3    3  502    0 -0.25141983570E+03 -0.88743821662E+02 -0.83989810741E+03  0.88120158336E+03  0.50400001928E-02 0. -1.
       -1    1    3    3    0  502  0.25141983570E+03  0.88743821662E+02  0.14853558652E+04  0.15090955722E+04  0.50400001928E-02 0.  1.
</event>
<event>
 5   0  0.7761069E-07  0.2300712E+04  0.7818609E-02  0.8477640E-01
        1   -1    0    0  501    0  0.00000000000E+00  0.00000000000E+00  0.16702270577E+04  0.16702270577E+04  0.50400001928E-02 0. -1.
       -1   -1    0    0    0  501  0.00000000000E+00  0.00000000000E+00 -0.79229886063E+03  0.79229886065E+03  0.50400001928E-02 0.  1.
    10030    2    1    2    0    0  0.00000000000E+00  0.00000000000E+00  0.87792819711E+03  0.24625259184E+04  0.23007120592E+04 0.  0.
        1    1    3    3  502    0  0.37077455826E+03  0.38134436268E+01  0.16045113441E+04  0.16467983996E+04  0.50400001928E-02 0. -1.
       -1    1    3    3    0  502 -0.37077455826E+03 -0.38134436268E+01 -0.72658314701E+03  0.81572751881E+03  0.50400001928E-02 0.  1.
</event>
<event>
 5   0  0.7607231E-07  0.2297741E+04  0.7818609E-02  0.8478812E-01
       -1   -1    0    0    0  501  0.00000000000E+00  0.00000000000E+00  0.86244054063E+03  0.86244054065E+03  0.50400001928E-02 0. -1.
        1   -1    0    0  501    0  0.00000000000E+00  0.00000000000E+00 -0.15304289662E+04  0.15304289662E+04  0.50400001928E-02 0.  1.
    10030    2    1    2    0    0  0.00000000000E+00  0.00000000000E+00 -0.66798842558E+03  0.23928695069E+04  0.22977414868E+04 0.  0.
        2    1    3    3  502    0  0.84146328221E+03  0.30691421338E+03 -0.10832580676E+04  0.14055976774E+04  0.25500000920E-02 0.  1.
       -2    1    3    3    0  502 -0.84146328221E+03 -0.30691421338E+03  0.41526964202E+03  0.98727182947E+03  0.25500000920E-02 0. -1.
</event>
<event>
 5   0  0.1744876E-06  0.2299884E+04  0.7818609E-02  0.8477967E-01
        2   -1    0    0  501    0  0.00000000000E+00  0.00000000000E+00  0.18431717534E+04  0.18431717534E+04  0.25500000920E-02 0. -1.
       -2   -1    0    0    0  501  0.00000000000E+00  0.00000000000E+00 -0.71744074840E+03  0.71744074841E+03  0.25500000920E-02 0.  1.
    10030    2    1    2    0    0  0.00000000000E+00  0.00000000000E+00  0.11257310050E+04  0.25606125018E+04  0.22998839294E+04 0.  0.
        1    1    3    3  502    0 -0.35232933472E+03  0.59068223784E+03 -0.46319958602E+03  0.82921367736E+03  0.50400001928E-02 0.  1.
       -1    1    3    3    0  502  0.35232933472E+03 -0.59068223784E+03  0.15889305910E+04  0.17313988244E+04  0.50400001928E-02 0. -1.
</event>
<event>
 5   0  0.8097672E-07  0.2299663E+04  0.7818609E-02  0.8478054E-01
        1   -1    0    0  501    0  0.00000000000E+00  0.00000000000E+00  0.78234407556E+03  0.78234407558E+03  0.50400001928E-02 0.  1.
       -1   -1    0    0    0  501  0.00000000000E+00  0.00000000000E+00 -0.16899369163E+04  0.16899369163E+04  0.50400001928E-02 0. -1.
    10030    2    1    2    0    0  0.00000000000E+00  0.00000000000E+00 -0.90759284070E+03  0.24722809918E+04  0.22996627010E+04 0.  0.
        3    1    3    3  502    0 -0.24652318048E+02  0.14377003177E+03  0.77235674239E+03  0.78601050027E+03  0.10100000352E+00 0.  1.
       -3    1    3    3    0  502  0.24652318048E+02 -0.14377003177E+03 -0.16799495831E+04  0.16862704916E+04  0.10100000352E+00 0. -1.
</event>
<event>
 5   0  0.1825521E-06  0.2299658E+04  0.7818609E-02  0.8478056E-01
        2   -1    0    0  501    0  0.00000000000E+00  0.00000000000E+00  0.10450973587E+04  0.10450973587E+04  0.25500000920E-02 0.  1.
       -2   -1    0    0    0  501  0.00000000000E+00  0.00000000000E+00 -0.12650561253E+04  0.12650561253E+04  0.25500000920E-02 0. -1.
    10030    2    1    2    0    0  0.00000000000E+00  0.00000000000E+00 -0.21995876652E+03  0.23101534840E+04  0.22996580747E+04 0.  0.
        5    1    3    3  502    0  0.69237182297E+03  0.10656729812E+03  0.80596553980E+03  0.10678660364E+04  0.46999998093E+01 0.  1.
       -5    1    3    3    0  502 -0.69237182297E+03 -0.10656729812E+03 -0.10259243063E+04  0.12422874476E+04  0.46999998093E+01 0. -1.
</event>
<event>
 5   0  0.8097672E-07  0.2300285E+04  0.7818609E-02  0.8477809E-01
        1   -1    0    0  501    0  0.00000000000E+00  0.00000000000E+00  0.15049894056E+04  0.15049894057E+04  0.50400001928E-02 0.  1.
       -1   -1    0    0    0  501  0.00000000000E+00  0.00000000000E+00 -0.87896118213E+03  0.87896118214E+03  0.50400001928E-02 0. -1.
    10030    2    1    2    0    0  0.00000000000E+00  0.00000000000E+00  0.62602822352E+03  0.23839505878E+04  0.23002845625E+04 0.  0.
        3    1    3    3  502    0 -0.80151132998E+03  0.80999108576E+03  0.15138895827E+03  0.11495323388E+04  0.10100000352E+00 0. -1.
       -3    1    3    3    0  502  0.80151132998E+03 -0.80999108576E+03  0.47463926525E+03  0.12344182490E+04  0.10100000352E+00 0.  1.
</event>
<event>
 5   0  0.1689444E-06  0.2300497E+04  0.7818609E-02  0.8477725E-01
        2   -1    0    0  501    0  0.00000000000E+00  0.00000000000E+00  0.19240528022E+04  0.19240528022E+04  0.25500000920E-02 0. -1.
       -2   -1    0    0    0  501  0.00000000000E+00  0.00000000000E+00 -0.68764808194E+03  0.68764808194E+03  0.25500000920E-02 0.  1.
    10030    2    1    2    0    0  0.00000000000E+00  0.00000000000E+00  0.12364047203E+04  0.26117008842E+04  0.23004966585E+04 0.  0.
        2    1    3    3  502    0 -0.98558656965E+03 -0.12301376238E+03 -0.40412847034E+02  0.99405556697E+03  0.25500000920E-02 0.  1.
       -2    1    3    3    0  502  0.98558656965E+03  0.12301376238E+03  0.12768175673E+04  0.16176453172E+04  0.25500000920E-02 0. -1.
</event>
<event>
 5   0  0.8108242E-07  0.2299525E+04  0.7818609E-02  0.8478108E-01
        1   -1    0    0  501    0  0.00000000000E+00  0.00000000000E+00  0.28932069691E+04  0.28932069691E+04  0.50400001928E-02 0. -1.
       -1   -1    0    0    0  501  0.00000000000E+00  0.00000000000E+00 -0.45691645992E+03  0.45691645994E+03  0.50400001928E-02 0.  1.
    10030    2    1    2    0    0  0.00000000000E+00  0.00000000000E+00  0.24362905092E+04  0.33501234290E+04  0.22995250694E+04 0.  0.
        4    1    3    3  502    0  0.87233027765E+03  0.37130034190E+03  0.21658185723E+04  0.23642325939E+04  0.12699999809E+01 0. -1.
       -4    1    3    3    0  502 -0.87233027765E+03 -0.37130034190E+03  0.27047193688E+03  0.98589083511E+03  0.12699999809E+01 0.  1.
</event>
<event>
 5   0  0.7932912E-07  0.2300049E+04  0.7818609E-02  0.8477902E-01
        1   -1    0    0  501    0  0.00000000000E+00  0.00000000000E+00  0.13047765937E+04  0.13047765937E+04  0.50400001928E-02 0.  1.
       -1   -1    0    0    0  501  0.00000000000E+00  0.00000000000E+00 -0.10136265135E+04  0.10136265135E+04  0.50400001928E-02 0. -1.
    10030    2    1    2    0    0  0.00000000000E+00  0.00000000000E+00  0.29115008024E+03  0.23184031072E+04  0.23000488252E+04 0.  0.
        5    1    3    3  502    0 -0.95339640490E+03  0.15183081613E+03  0.77547522016E+03  0.12383057816E+04  0.46999998093E+01 0.  1.
       -5    1    3    3    0  502  0.95339640490E+03 -0.15183081613E+03 -0.48432513993E+03  0.10800973256E+04  0.46999998093E+01 0. -1.
</event>
<event>
 5   0  0.7761069E-07  0.2299854E+04  0.7818609E-02  0.8477979E-01
       -1   -1    0    0    0  501  0.00000000000E+00  0.00000000000E+00  0.88416597660E+03  0.88416597662E+03  0.50400001928E-02 0. -1.
        1   -1    0    0  501    0  0.00000000000E+00  0.00000000000E+00 -0.14955696026E+04  0.14955696026E+04  0.50400001928E-02 0.  1.
    10030    2    1    2    0    0  0.00000000000E+00  0.00000000000E+00 -0.61140362600E+03  0.23797355792E+04  0.22998536982E+04 0.  0.
        1    1    3    3  502    0 -0.10363111185E+04 -0.48709647420E+03 -0.19654822843E+03  0.11618239607E+04  0.50400001928E-02 0. -1.
       -1    1    3    3    0  502  0.10363111185E+04  0.48709647420E+03 -0.41485539758E+03  0.12179116185E+04  0.50400001928E-02 0.  1.
</event>
<event>
 5   0  0.7607231E-07  0.2299995E+04  0.7818609E-02  0.8477923E-01
       -1   -1    0    0    0  501  0.00000000000E+00  0.00000000000E+00  0.59032153264E+03  0.59032153266E+03  0.50400001928E-02 0.  1.
        1   -1    0    0  501    0  0.00000000000E+00  0.00000000000E+00 -0.22402940931E+04  0.22402940931E+04  0.50400001928E-02 0. -1.
    10030    2    1    2    0    0  0.00000000000E+00  0.00000000000E+00 -0.16499725605E+04  0.28306156258E+04  0.22999946458E+04 0.  0.
        2    1    3    3  502    0 -0.33426941208E+02 -0.82544975231E+03  0.15958503635E+03  0.84139885775E+03  0.25500000920E-02 0.  1.
       -2    1    3    3    0  502  0.33426941208E+02  0.82544975231E+03 -0.18095575968E+04  0.19892167680E+04  0.25500000920E-02 0. -1.
</event>
<event>
 5   0  0.1828646E-06  0.2300252E+04  0.7818609E-02  0.8477822E-01
        2   -1    0    0  501    0  0.00000000000E+00  0.00000000000E+00  0.12316019149E+04  0.12316019149E+04  0.25500000920E-02 0.  1.
       -2   -1    0    0    0  501  0.00000000000E+00  0.00000000000E+00 -0.10740403035E+04  0.10740403035E+04  0.25500000920E-02 0. -1.
    10030    2    1    2    0    0  0.00000000000E+00  0.00000000000E+00  0.15756161142E+03  0.23056422184E+04  0.23002522422E+04 0.  0.
        3    1    3    3  502    0 -0.21753311738E+03 -0.71258572716E+03 -0.79945204925E+03  0.10928049528E+04  0.10100000352E+00 0. -1.
       -3    1    3    3    0  502  0.21753311738E+03  0.71258572716E+03  0.95701366067E+03  0.12128372655E+04  0.10100000352E+00 0.  1.
</event>
<event>
 5   0  0.1744876E-06  0.2298482E+04  0.7818609E-02  0.8478520E-01
       -2   -1    0    0    0  501  0.00000000000E+00  0.00000000000E+00  0.80026297488E+03  0.80026297488E+03  0.25500000920E-02 0.  1.
        2   -1    0    0  501    0  0.00000000000E+00  0.00000000000E+00 -0.16504016337E+04  0.16504016337E+04  0.25500000920E-02 0. -1.
    10030    2    1    2    0    0  0.00000000000E+00  0.00000000000E+00 -0.85013865883E+03  0.24506646086E+04  0.22984823873E+04 0.  0.
        1    1    3    3  502    0 -0.30670956943E+03  0.41770143675E+03 -0.15187585352E+04  0.16047344760E+04  0.50400001928E-02 0. -1.
       -1    1    3    3    0  502  0.30670956943E+03 -0.41770143675E+03  0.66861987633E+03  0.84593013263E+03  0.50400001928E-02 0.  1.
</event>
<event>
 5   0  0.7607231E-07  0.2300099E+04  0.7818609E-02  0.8477882E-01
        1   -1    0    0  501    0  0.00000000000E+00  0.00000000000E+00  0.16493040215E+04  0.16493040216E+04  0.50400001928E-02 0. -1.
       -1   -1    0    0    0  501  0.00000000000E+00  0.00000000000E+00 -0.80192273241E+03  0.80192273242E+03  0.50400001928E-02 0.  1.
    10030    2    1    2    0    0  0.00000000000E+00  0.00000000000E+00  0.84738128914E+03  0.24512267540E+04  0.23000994653E+04 0.  0.
        2    1    3    3  502    0 -0.57050202327E+02 -0.71973420144E+03  0.13776852444E+04  0.15554062746E+04  0.25500000920E-02 0. -1.
       -2    1    3    3    0  502  0.57050202327E+02  0.71973420144E+03 -0.53030395528E+03  0.89582047939E+03  0.25500000920E-02 0.  1.
</event>
<event>
 5   0  0.8108242E-07  0.2299699E+04  0.7818609E-02  0.8478040E-01
       -1   -1    0    0    0  501  0.00000000000E+00  0.00000000000E+00  0.15036447161E+04  0.15036447161E+04  0.50400001928E-02 0.  1.
        1   -1    0    0  501    0  0.00000000000E+00  0.00000000000E+00 -0.87929901157E+03  0.87929901159E+03  0.50400001928E-02 0. -1.
    10030    2    1    2    0    0  0.00000000000E+00  0.00000000000E+00  0.62434570457E+03  0.23829437277E+04  0.22996985130E+04 0.  0.
        4    1    3    3  502    0 -0.10825182208E+04  0.14454031168E+03  0.68493660913E+03  0.12891382282E+04  0.12699999809E+01 0.  1.
       -4    1    3    3    0  502  0.10825182208E+04 -0.14454031168E+03 -0.60590904566E+02  0.10938054995E+04  0.12699999809E+01 0. -1.
</event>
<event>
 5   0  0.8097672E-07  0.2300532E+04  0.7818609E-02  0.8477712E-01
       -1   -1    0    0    0  501  0.00000000000E+00  0.00000000000E+00  0.45346193233E+03  0.45346193236E+03  0.50400001928E-02 0. -1.
        1   -1    0    0  501    0  0.00000000000E+00  0.00000000000E+00 -0.29178006392E+04  0.29178006392E+04  0.50400001928E-02 0.  1.
    10030    2    1    2    0    0  0.00000000000E+00  0.00000000000E+00 -0.24643387069E+04  0.33712625716E+04  0.23005316916E+04 0.  0.
        3    1    3    3  502    0 -0.11464357722E+04 -0.86706341100E+02 -0.11797706017E+04  0.16473286412E+04  0.10100000352E+00 0. -1.
       -3    1    3    3    0  502  0.11464357722E+04  0.86706341100E+02 -0.12845681052E+04  0.17239339304E+04  0.10100000352E+00 0.  1.
</event>
<event>
 5   0  0.8108242E-07  0.2301021E+04  0.7818609E-02  0.8477519E-01
        1   -1    0    0  501    0  0.00000000000E+00  0.00000000000E+00  0.26837686761E+04  0.26837686761E+04  0.50400001928E-02 0.  1.
       -1   -1    0    0    0  501  0.00000000000E+00  0.00000000000E+00 -0.49321473920E+03  0.49321473923E+03  0.50400001928E-02 0. -1.
    10030    2    1    2    0    0  0.00000000000E+00  0.00000000000E+00  0.21905539369E+04  0.31769834153E+04  0.23010208758E+04 0.  0.
        4    1    3    3  502    0 -0.43597358109E+03  0.80567584371E+03  0.13425113648E+03  0.92585717532E+03  0.12699999809E+01 0. -1.
       -4    1    3    3    0  502  0.43597358109E+03 -0.80567584371E+03  0.20563028004E+04  0.22511262400E+04  0.12699999809E+01 0.  1.
</event>
<event>
 5   0  0.1689444E-06  0.2292888E+04  0.7818609E-02  0.8480731E-01
       -2   -1    0    0    0  501  0.00000000000E+00  0.00000000000E+00  0.96151964529E+03  0.96151964530E+03  0.25500000920E-02 0. -1.
        2   -1    0    0  501    0  0.00000000000E+00  0.00000000000E+00 -0.13669334645E+04  0.13669334645E+04  0.25500000920E-02 0.  1.
    10030    2    1    2    0    0  0.00000000000E+00  0.00000000000E+00 -0.40541381918E+03  0.23284531098E+04  0.22928875942E+04 0.  0.
        2    1    3    3  502    0 -0.33805432203E+03 -0.63549485506E+03  0.70343356770E+03  0.10064557713E+04  0.25500000920E-02 0. -1.
       -2    1    3    3    0  502  0.33805432203E+03  0.63549485506E+03 -0.11088473869E+04  0.13219973384E+04  0.25500000920E-02 0.  1.
</event>
<event>
 5   0  0.1744876E-06  0.2302022E+04  0.7818609E-02  0.8477124E-01
       -2   -1    0    0    0  501  0.00000000000E+00  0.00000000000E+00  0.63850872380E+03  0.63850872380E+03  0.25500000920E-02 0. -1.
        2   -1    0    0  501    0  0.00000000000E+00  0.00000000000E+00 -0.20748761448E+04  0.20748761448E+04  0.25500000920E-02 0.  1.
    10030    2    1    2    0    0  0.00000000000E+00  0.00000000000E+00 -0.14363674210E+04  0.27133848686E+04  0.23020221713E+04 0.  0.
        1    1    3    3  502    0 -0.43184365040E+02  0.10050863994E+04 -0.13773721066E+04  0.17056428347E+04  0.50400001928E-02 0.  1.
       -1    1    3    3    0  502  0.43184365040E+02 -0.10050863994E+04 -0.58995314347E+02  0.10077420338E+04  0.50400001928E-02 0. -1.
</event>
<event>
 5   0  0.7761069E-07  0.2300271E+04  0.7818609E-02  0.8477814E-01
        1   -1    0    0  501    0  0.00000000000E+00  0.00000000000E+00  0.10106225135E+04  0.10106225135E+04  0.50400001928E-02 0. -1.
       -1   -1    0    0    0  501  0.00000000000E+00  0.00000000000E+00 -0.13089076524E+04  0.13089076524E+04  0.50400001928E-02 0.  1.
    10030    2    1    2    0    0  0.00000000000E+00  0.00000000000E+00 -0.29828513889E+03  0.23195301659E+04  0.23002708898E+04 0.  0.
        1    1    3    3  502    0 -0.32314331001E+03 -0.11031467063E+04 -0.18763661912E+03  0.11647153109E+04  0.50400001928E-02 0.  1.
       -1    1    3    3    0  502  0.32314331001E+03  0.11031467063E+04 -0.11064851976E+03  0.11548148550E+04  0.50400001928E-02 0. -1.
</event>
<event>
 5   0  0.1689444E-06  0.2299933E+04  0.7818609E-02  0.8477948E-01
        2   -1    0    0  501    0  0.00000000000E+00  0.00000000000E+00  0.26808029280E+04  0.26808029280E+04  0.25500000920E-02 0.  1.
       -2   -1    0    0    0  501  0.00000000000E+00  0.00000000000E+00 -0.49329339592E+03  0.49329339593E+03  0.25500000920E-02 0. -1.
    10030    2    1    2    0    0  0.00000000000E+00  0.00000000000E+00  0.21875095321E+04  0.31740963239E+04  0.22999325035E+04 0.  0.
        2    1    3    3  502    0  0.26567453499E+03  0.23495449054E+03  0.26034386142E+04  0.26274853357E+04  0.25500000920E-02 0.  1.
       -2    1    3    3    0  502 -0.26567453499E+03 -0.23495449054E+03 -0.41592908211E+03  0.54661098829E+03  0.25500000920E-02 0. -1.
</event>
<event>
 5   0  0.8097672E-07  0.2299391E+04  0.7818609E-02  0.8478161E-01
       -1   -1    0    0    0  501  0.00000000000E+00  0.00000000000E+00  0.14973104849E+04  0.14973104849E+04  0.50400001928E-02 0. -1.
        1   -1    0    0  501    0  0.00000000000E+00  0.00000000000E+00 -0.88278264135E+03  0.88278264137E+03  0.50400001928E-02 0.  1.
    10030    2    1    2    0    0  0.00000000000E+00  0.00000000000E+00  0.61452784350E+03  0.23800931262E+04  0.22993909670E+04 0.  0.
        3    1    3    3  502    0 -0.72337470367E+02  0.35161880846E+03  0.14378114571E+04  0.14819481409E+04  0.10100000352E+00 0. -1.
       -3    1    3    3    0  502  0.72337470367E+02 -0.35161880846E+03 -0.82328361357E+03  0.89814498532E+03  0.10100000352E+00 0.  1.
</event>
<event>
 5   0  0.1744876E-06  0.2294140E+04  0.7818609E-02  0.8480235E-01
        2   -1    0    0  501    0  0.00000000000E+00  0.00000000000E+00  0.90291660189E+03  0.90291660189E+03  0.25500000920E-02 0. -1.
       -2   -1    0    0    0  501  0.00000000000E+00  0.00000000000E+00 -0.14572442193E+04  0.14572442193E+04  0.25500000920E-02 0.  1.
    10030    2    1    2    0    0  0.00000000000E+00  0.00000000000E+00 -0.55432761743E+03  0.23601608212E+04  0.22941403607E+04 0.  0.
        1    1    3    3  502    0 -0.67026789685E+03  0.39773803416E+03 -0.11429984424E+04  0.13834377604E+04  0.50400001928E-02 0.  1.
       -1    1    3    3    0  502  0.67026789685E+03 -0.39773803416E+03  0.58867082500E+03  0.97672306085E+03  0.50400001928E-02 0. -1.
</event>
<event>
 5   0  0.8097672E-07  0.2300207E+04  0.7818609E-02  0.8477840E-01
       -1   -1    0    0    0  501  0.00000000000E+00  0.00000000000E+00  0.19626399663E+04  0.19626399663E+04  0.50400001928E-02 0. -1.
        1   -1    0    0  501    0  0.00000000000E+00  0.00000000000E+00 -0.67395846358E+03  0.67395846360E+03  0.50400001928E-02 0.  1.
    10030    2    1    2    0    0  0.00000000000E+00  0.00000000000E+00  0.12886815028E+04  0.26365984300E+04  0.23002067875E+04 0.  0.
        3    1    3    3  502    0  0.48751961483E+03 -0.34673892395E+03 -0.48156887388E+03  0.76799208767E+03  0.10100000352E+00 0.  1.
       -3    1    3    3    0  502 -0.48751961483E+03  0.34673892395E+03  0.17702503766E+04  0.18686063423E+04  0.10100000352E+00 0. -1.
</event>
<event>
 5   0  0.1825521E-06  0.2298762E+04  0.7818609E-02  0.8478409E-01
       -2   -1    0    0    0  501  0.00000000000E+00  0.00000000000E+00  0.20781942908E+04  0.20781942908E+04  0.25500000920E-02 0. -1.
        2   -1    0    0  501    0  0.00000000000E+00  0.00000000000E+00 -0.63568508006E+03  0.63568508006E+03  0.25500000920E-02 0.  1.
    10030    2    1    2    0    0  0.00000000000E+00  0.00000000000E+00  0.14425092108E+04  0.27138793709E+04  0.22987623663E+04 0.  0.
        5    1    3    3  502    0 -0.60290597653E+03 -0.62749076288E+03 -0.16521668330E+03  0.88575330453E+03  0.46999998093E+01 0.  1.
       -5    1    3    3    0  502  0.60290597653E+03  0.62749076288E+03  0.16077258941E+04  0.18281260663E+04  0.46999998093E+01 0. -1.
</event>
<event>
 5   0  0.1744876E-06  0.2298725E+04  0.7818609E-02  0.8478424E-01
        2   -1    0    0  501    0  0.00000000000E+00  0.00000000000E+00  0.17488491947E+04  0.17488491947E+04  0.25500000920E-02 0. -1.
       -2   -1    0    0    0  501  0.00000000000E+00  0.00000000000E+00 -0.75537345439E+03  0.75537345439E+03  0.25500000920E-02 0.  1.
    10030    2    1    2    0    0  0.00000000000E+00  0.00000000000E+00  0.99347574031E+03  0.25042226491E+04  0.22987250879E+04 0.  0.
        1    1    3    3  502    0 -0.47053656697E+03 -0.33732015159E+03  0.15783963493E+04  0.16812271057E+04  0.50400001928E-02 0. -1.
       -1    1    3    3    0  502  0.47053656697E+03  0.33732015159E+03 -0.58492060900E+03  0.82299554336E+03  0.50400001928E-02 0.  1.
</event>
<event>
 5   0  0.7607231E-07  0.2300731E+04  0.7818609E-02  0.8477633E-01
        1   -1    0    0  501    0  0.00000000000E+00  0.00000000000E+00  0.12145819447E+04  0.12145819447E+04  0.50400001928E-02 0.  1.
       -1   -1    0    0    0  501  0.00000000000E+00  0.00000000000E+00 -0.10895444623E+04  0.10895444623E+04  0.50400001928E-02 0. -1.
    10030    2    1    2    0    0  0.00000000000E+00  0.00000000000E+00  0.12503748237E+03  0.23041264070E+04  0.23007312158E+04 0.  0.
        2    1    3    3  502    0  0.89819064048E+03  0.36116679273E+03  0.68484798450E+03  0.11858349973E+04  0.25500000920E-02 0.  1.
       -2    1    3    3    0  502 -0.89819064048E+03 -0.36116679273E+03 -0.55981050214E+03  0.11182914098E+04  0.25500000920E-02 0. -1.
</event>
<event>
 5   0  0.1689444E-06  0.2300809E+04  0.7818609E-02  0.8477602E-01
       -2   -1    0    0    0  501  0.00000000000E+00  0.00000000000E+00  0.65840356959E+03  0.65840356960E+03  0.25500000920E-02 0.  1.
        2   -1    0    0  501    0  0.00000000000E+00  0.00000000000E+00 -0.20100598008E+04  0.20100598008E+04  0.25500000920E-02 0. -1.
    10030    2    1    2    0    0  0.00000000000E+00  0.00000000000E+00 -0.13516562312E+04  0.26684633704E+04  0.23008090298E+04 0.  0.
        2    1    3    3  502    0  0.62297623377E+03  0.42899267619E+03  0.32945025657E+03  0.82502822717E+03  0.25500000920E-02 0.  1.
       -2    1    3    3    0  502 -0.62297623377E+03 -0.42899267619E+03 -0.16811064878E+04  0.18434351432E+04  0.25500000920E-02 0. -1.
</event>
<event>
 5   0  0.1744876E-06  0.2300122E+04  0.7818609E-02  0.8477873E-01
       -2   -1    0    0    0  501  0.00000000000E+00  0.00000000000E+00  0.11291670750E+04  0.11291670750E+04  0.25500000920E-02 0. -1.
        2   -1    0    0  501    0  0.00000000000E+00  0.00000000000E+00 -0.11713412912E+04  0.11713412912E+04  0.25500000920E-02 0.  1.
    10030    2    1    2    0    0  0.00000000000E+00  0.00000000000E+00 -0.42174216154E+02  0.23005083662E+04  0.23001217530E+04 0.  0.
        1    1    3    3  502    0  0.64598362755E+03 -0.91315038024E+03  0.24635558515E+03  0.11453512729E+04  0.50400001928E-02 0. -1.
       -1    1    3    3    0  502 -0.64598362755E+03  0.91315038024E+03 -0.28852980130E+03  0.11551570933E+04  0.50400001928E-02 0.  1.
</event>
<event>
 5   0  0.7607231E-07  0.2300663E+04  0.7818609E-02  0.8477660E-01
        1   -1    0    0  501    0  0.00000000000E+00  0.00000000000E+00  0.97374784489E+03  0.97374784490E+03  0.50400001928E-02 0. -1.
       -1   -1    0    0    0  501  0.00000000000E+00  0.00000000000E+00 -0.13589372043E+04  0.13589372043E+04  0.50400001928E-02 0.  1.
    10030    2    1    2    0    0  0.00000000000E+00  0.00000000000E+00 -0.38518935938E+03  0.23326850492E+04  0.23006626646E+04 0.  0.
        2    1    3    3  502    0  0.75904886088E+03  0.10747243699E+03  0.67698870279E+03  0.10227508013E+04  0.25500000920E-02 0. -1.
       -2    1    3    3    0  502 -0.75904886088E+03 -0.10747243699E+03 -0.10621780622E+04  0.13099342478E+04  0.25500000920E-02 0.  1.
</event>
<event>
 5   0  0.8108242E-07  0.2300646E+04  0.7818609E-02  0.8477666E-01
       -1   -1    0    0    0  501  0.00000000000E+00  0.00000000000E+00  0.60360209372E+03  0.60360209374E+03  0.50400001928E-02 0. -1.
        1   -1    0    0  501    0  0.00000000000E+00  0.00000000000E+00 -0.21922443243E+04  0.21922443243E+04  0.50400001928E-02 0.  1.
    10030    2    1    2    0    0  0.00000000000E+00  0.00000000000E+00 -0.15886422306E+04  0.27958464181E+04  0.23006462259E+04 0.  0.
        4    1    3    3  502    0  0.52245691414E+03 -0.83641171787E+03 -0.15139834780E+04  0.18068462507E+04  0.12699999809E+01 0.  1.
       -4    1    3    3    0  502 -0.52245691414E+03  0.83641171787E+03 -0.74658752598E+02  0.98900016743E+03  0.12699999809E+01 0. -1.
</event>
<event>
 5   0  0.1825521E-06  0.2297043E+04  0.7818609E-02  0.8479088E-01
        2   -1    0    0  501    0  0.00000000000E+00  0.00000000000E+00  0.17865057404E+04  0.17865057404E+04  0.25500000920E-02 0.  1.
       -2   -1    0    0    0  501  0.00000000000E+00  0.00000000000E+00 -0.73836962444E+03  0.73836962445E+03  0.25500000920E-02 0. -1.
    10030    2    1    2    0    0  0.00000000000E+00  0.00000000000E+00  0.10481361160E+04  0.25248753649E+04  0.22970429448E+04 0.  0.
        5    1    3    3  502    0 -0.65587676650E+03 -0.65949403408E+03  0.12646715094E+04  0.15698798777E+04  0.46999998093E+01 0.  1.
       -5    1    3    3    0  502  0.65587676650E+03  0.65949403408E+03 -0.21653539344E+03  0.95499548712E+03  0.46999998093E+01 0. -1.
</event>
<event>
 5   0  0.8097672E-07  0.2299900E+04  0.7818609E-02  0.8477960E-01
       -1   -1    0    0    0  501  0.00000000000E+00  0.00000000000E+00  0.73865743105E+03  0.73865743106E+03  0.50400001928E-02 0. -1.
        1   -1    0    0  501    0  0.00000000000E+00  0.00000000000E+00 -0.17902549731E+04  0.17902549731E+04  0.50400001928E-02 0.  1.
    10030    2    1    2    0    0  0.00000000000E+00  0.00000000000E+00 -0.10515975420E+04  0.25289124041E+04  0.22999001190E+04 0.  0.
        3    1    3    3  502    0 -0.21952638058E+01 -0.73817268821E+03  0.44375034066E+03  0.86128863445E+03  0.10100000352E+00 0. -1.
       -3    1    3    3    0  502  0.21952638058E+01  0.73817268821E+03 -0.14953478827E+04  0.16676237697E+04  0.10100000352E+00 0.  1.
</event>
<event>
 5   0  0.8097672E-07  0.2299991E+04  0.7818609E-02  0.8477925E-01
        1   -1    0    0  501    0  0.00000000000E+00  0.00000000000E+00  0.19006598096E+04  0.19006598096E+04  0.50400001928E-02 0. -1.
       -1   -1    0    0    0  501  0.00000000000E+00  0.00000000000E+00 -0.69580529201E+03  0.69580529203E+03  0.50400001928E-02 0.  1.
    10030    2    1    2    0    0  0.00000000000E+00  0.00000000000E+00  0.12048545176E+04  0.25964651016E+04  0.22999905685E+04 0.  0.
        3    1    3    3  502    0 -0.96703783960E+03 -0.58835533325E+03  0.37338253316E+03  0.11919474433E+04  0.10100000352E+00 0.  1.
       -3    1    3    3    0  502  0.96703783960E+03  0.58835533325E+03  0.83147198441E+03  0.14045176583E+04  0.10100000352E+00 0. -1.
</event>
<event>
 5   0  0.1828646E-06  0.2299990E+04  0.7818609E-02  0.8477925E-01
        2   -1    0    0  501    0  0.00000000000E+00  0.00000000000E+00  0.92911916551E+03  0.92911916551E+03  0.25500000920E-02 0.  1.
       -2   -1    0    0    0  501  0.00000000000E+00  0.00000000000E+00 -0.14233790904E+04  0.14233790904E+04  0.25500000920E-02 0. -1.
    10030    2    1    2    0    0  0.00000000000E+00  0.00000000000E+00 -0.49425992484E+03  0.23524982559E+04  0.22999902544E+04 0.  0.
        3    1    3    3  502    0 -0.77523608664E+03  0.33560215493E+03 -0.10452445354E+04  0.13439330137E+04  0.10100000352E+00 0. -1.
       -3    1    3    3    0  502  0.77523608664E+03 -0.33560215493E+03  0.55098461053E+03  0.10085652421E+04  0.10100000352E+00 0.  1.
</event>
<event>
 5   0  0.1825521E-06  0.2300421E+04  0.7818609E-02  0.8477755E-01
       -2   -1    0    0    0  501  0.00000000000E+00  0.00000000000E+00  0.12045234079E+04  0.12045234079E+04  0.25500000920E-02 0.  1.
        2   -1    0    0  501    0  0.00000000000E+00  0.00000000000E+00 -0.10983464359E+04  0.10983464359E+04  0.25500000920E-02 0. -1.
    10030    2    1    2    0    0  0.00000000000E+00  0.00000000000E+00  0.10617697193E+03  0.23028698438E+04  0.23004208241E+04 0.  0.
        5    1    3    3  502    0  0.70854782886E+03 -0.42214062539E+03  0.85563964948E+03  0.11884376438E+04  0.46999998093E+01 0.  1.
       -5    1    3    3    0  502 -0.70854782886E+03  0.42214062539E+03 -0.74946267755E+03  0.11144322000E+04  0.46999998093E+01 0. -1.
</event>
<event>
 5   0  0.7932912E-07  0.2301334E+04  0.7818609E-02  0.8477395E-01
       -1   -1    0    0    0  501  0.00000000000E+00  0.00000000000E+00  0.71008587883E+03  0.71008587884E+03  0.50400001928E-02 0.  1.
        1   -1    0    0  501    0  0.00000000000E+00  0.00000000000E+00 -0.18646119530E+04  0.18646119530E+04  0.50400001928E-02 0. -1.
    10030    2    1    2    0    0  0.00000000000E+00  0.00000000000E+00 -0.11545260742E+04  0.25746978318E+04  0.23013340630E+04 0.  0.
        5    1    3    3  502    0 -0.10029438352E+04  0.42497281995E+03 -0.16238492611E+03  0.11013124845E+04  0.46999998093E+01 0.  1.
       -5    1    3    3    0  502  0.10029438352E+04 -0.42497281995E+03 -0.99214114806E+03  0.14733853474E+04  0.46999998093E+01 0. -1.
</event>
<event>
 5   0  0.7607231E-07  0.2293705E+04  0.7818609E-02  0.8480407E-01
       -1   -1    0    0    0  501  0.00000000000E+00  0.00000000000E+00  0.11548576141E+04  0.11548576141E+04  0.50400001928E-02 0. -1.
        1   -1    0    0  501    0  0.00000000000E+00  0.00000000000E+00 -0.11389025632E+04  0.11389025632E+04  0.50400001928E-02 0.  1.
    10030    2    1    2    0    0  0.00000000000E+00  0.00000000000E+00  0.15955050948E+02  0.22937601773E+04  0.22937046862E+04 0.  0.
        2    1    3    3  502    0  0.66966565019E+03 -0.76552469056E+03 -0.52193166325E+03  0.11431941200E+04  0.25500000920E-02 0.  1.
       -2    1    3    3    0  502 -0.66966565019E+03  0.76552469056E+03  0.53788671419E+03  0.11505660573E+04  0.25500000920E-02 0. -1.
</event>
<event>
 5   0  0.1888779E-06  0.2298019E+04  0.7818609E-02  0.8478702E-01
       -2   -1    0    0    0  501  0.00000000000E+00  0.00000000000E+00  0.11017549792E+04  0.11017549792E+04  0.25500000920E-02 0. -1.
        2   -1    0    0  501    0  0.00000000000E+00  0.00000000000E+00 -0.11982912153E+04  0.11982912153E+04  0.25500000920E-02 0.  1.
    10030    2    1    2    0    0  0.00000000000E+00  0.00000000000E+00 -0.96536236123E+02  0.23000461946E+04  0.22980194195E+04 0.  0.
        4    1    3    3  502    0 -0.16950330594E+03 -0.61306274691E+03  0.90946892548E+03  0.11098255006E+04  0.12699999809E+01 0. -1.
       -4    1    3    3    0  502  0.16950330594E+03  0.61306274691E+03 -0.10060051616E+04  0.11902206940E+04  0.12699999809E+01 0.  1.
</event>
<event>
 5   0  0.1825521E-06  0.2298889E+04  0.7818609E-02  0.8478359E-01
       -2   -1    0    0    0  501  0.00000000000E+00  0.00000000000E+00  0.44490479450E+03  0.44490479451E+03  0.25500000920E-02 0. -1.
        2   -1    0    0  501    0  0.00000000000E+00  0.00000000000E+00 -0.29696760018E+04  0.29696760018E+04  0.25500000920E-02 0.  1.
    10030    2    1    2    0    0  0.00000000000E+00  0.00000000000E+00 -0.25247712073E+04  0.34145807963E+04  0.22988893765E+04 0.  0.
        5    1    3    3  502    0  0.83167774408E+03 -0.35355865997E+03 -0.23173892330E+04  0.24873694023E+04  0.46999998093E+01 0.  1.
       -5    1    3    3    0  502 -0.83167774408E+03  0.35355865997E+03 -0.20738197432E+03  0.92721139408E+03  0.46999998093E+01 0. -1.
</event>
<event>
 5   0  0.7761069E-07  0.2300117E+04  0.7818609E-02  0.8477875E-01
        1   -1    0    0  501    0  0.00000000000E+00  0.00000000000E+00  0.10714621635E+04  0.10714621635E+04  0.50400001928E-02 0. -1.
       -1   -1    0    0    0  501  0.00000000000E+00  0.00000000000E+00 -0.12344197306E+04  0.12344197306E+04  0.50400001928E-02 0.  1.
    10030    2    1    2    0    0  0.00000000000E+00  0.00000000000E+00 -0.16295756716E+03  0.23058818941E+04  0.23001165494E+04 0.  0.
        1    1    3    3  502    0 -0.50413694105E+03  0.60036601652E+03 -0.92503941882E+03  0.12125557041E+04  0.50400001928E-02 0.  1.
       -1    1    3    3    0  502  0.50413694105E+03 -0.60036601652E+03  0.76208185166E+03  0.10933261900E+04  0.50400001928E-02 0. -1.
</event>
<event>
 5   0  0.1689444E-06  0.2300275E+04  0.7818609E-02  0.8477813E-01
        2   -1    0    0  501    0  0.00000000000E+00  0.00000000000E+00  0.23628111196E+04  0.23628111196E+04  0.25500000920E-02 0.  1.
       -2   -1    0    0    0  501  0.00000000000E+00  0.00000000000E+00 -0.55984855774E+03  0.55984855775E+03  0.25500000920E-02 0. -1.
    10030    2    1    2    0    0  0.00000000000E+00  0.00000000000E+00  0.18029625619E+04  0.29226596774E+04  0.23002751119E+04 0.  0.
        2    1    3    3  502    0 -0.36598883364E+03  0.20501030177E+01 -0.48388503130E+03  0.60670977642E+03  0.25500000920E-02 0. -1.
       -2    1    3    3    0  502  0.36598883364E+03 -0.20501030177E+01  0.22868475932E+04  0.23159499010E+04  0.25500000920E-02 0.  1.
</event>
<event>
 5   0  0.7607231E-07  0.2300610E+04  0.7818609E-02  0.8477681E-01
       -1   -1    0    0    0  501  0.00000000000E+00  0.00000000000E+00  0.98968708233E+03  0.98968708234E+03  0.50400001928E-02 0. -1.
        1   -1    0    0  501    0  0.00000000000E+00  0.00000000000E+00 -0.13369896272E+04  0.13369896272E+04  0.50400001928E-02 0.  1.
    10030    2    1    2    0    0  0.00000000000E+00  0.00000000000E+00 -0.34730254491E+03  0.23266767096E+04  0.23006098003E+04 0.  0.
        2    1    3    3  502    0 -0.84636533195E+03 -0.33426178502E+03  0.53798060419E+03  0.10571132137E+04  0.25500000920E-02 0. -1.
       -2    1    3    3    0  502  0.84636533195E+03  0.33426178502E+03 -0.88528314910E+03  0.12695634959E+04  0.25500000920E-02 0.  1.
</event>
<event>
 5   0  0.1744876E-06  0.2305705E+04  0.7818609E-02  0.8475675E-01
       -2   -1    0    0    0  501  0.00000000000E+00  0.00000000000E+00  0.17165863130E+04  0.17165863130E+04  0.25500000920E-02 0.  1.
        2   -1    0    0  501    0  0.00000000000E+00  0.00000000000E+00 -0.77425097403E+03  0.77425097403E+03  0.25500000920E-02 0. -1.
    10030    2    1    2    0    0  0.00000000000E+00  0.00000000000E+00  0.94233533898E+03  0.24908372870E+04  0.23057047728E+04 0.  0.
        1    1    3    3  502    0  0.26095670102E+03  0.86269313630E+03 -0.30539019926E+03  0.95163071675E+03  0.50400001928E-02 0. -1.
       -1    1    3    3    0  502 -0.26095670102E+03 -0.86269313630E+03  0.12477255382E+04  0.15392065703E+04  0.50400001928E-02 0.  1.
</event>
<event>
 5   0  0.7761069E-07  0.2299390E+04  0.7818609E-02  0.8478162E-01
       -1   -1    0    0    0  501  0.00000000000E+00  0.00000000000E+00  0.17112919987E+04  0.17112919987E+04  0.50400001928E-02 0.  1.
        1   -1    0    0  501    0  0.00000000000E+00  0.00000000000E+00 -0.77239810819E+03  0.77239810820E+03  0.50400001928E-02 0. -1.
    10030    2    1    2    0    0  0.00000000000E+00  0.00000000000E+00  0.93889389052E+03  0.24836901069E+04  0.22993900951E+04 0.  0.
        1    1    3    3  502    0  0.37957901627E+03  0.32268247372E+03  0.15886396971E+04  0.16649265136E+04  0.50400001928E-02 0.  1.
       -1    1    3    3    0  502 -0.37957901627E+03 -0.32268247372E+03 -0.64974580662E+03  0.81876359329E+03  0.50400001928E-02 0. -1.
</event>
<event>
 5   0  0.8097672E-07  0.2300272E+04  0.7818609E-02  0.8477814E-01
       -1   -1    0    0    0  501  0.00000000000E+00  0.00000000000E+00  0.11041498587E+04  0.11041498587E+04  0.50400001928E-02 0. -1.
        1   -1    0    0  501    0  0.00000000000E+00  0.00000000000E+00 -0.11980374313E+04  0.11980374313E+04  0.50400001928E-02 0.  1.
    10030    2    1    2    0    0  0.00000000000E+00  0.00000000000E+00 -0.93887572617E+02  0.23021872901E+04  0.23002720366E+04 0.  0.
        3    1    3    3  502    0 -0.87333241454E+03  0.23364081139E+02 -0.79560235312E+03  0.11816253641E+04  0.10100000352E+00 0.  1.
       -3    1    3    3    0  502  0.87333241454E+03 -0.23364081139E+02  0.70171478050E+03  0.11205619260E+04  0.10100000352E+00 0. -1.
</event>
<event>
 5   0  0.1888779E-06  0.2302461E+04  0.7818609E-02  0.8476952E-01
       -2   -1    0    0    0  501  0.00000000000E+00  0.00000000000E+00  0.17355483839E+04  0.17355483839E+04  0.25500000920E-02 0.  1.
        2   -1    0    0  501    0  0.00000000000E+00  0.00000000000E+00 -0.76363831570E+03  0.76363831570E+03  0.25500000920E-02 0. -1.
    10030    2    1    2    0    0  0.00000000000E+00  0.00000000000E+00  0.97191006821E+03  0.24991866996E+04  0.23024606357E+04 0.  0.
        4    1    3    3  502    0  0.22152382011E+03 -0.83357020654E+03  0.13136123371E+04  0.15714614463E+04  0.12699999809E+01 0.  1.
       -4    1    3    3    0  502 -0.22152382011E+03  0.83357020654E+03 -0.34170226893E+03  0.92772525329E+03  0.12699999809E+01 0. -1.
</event>
<event>
 5   0  0.1744876E-06  0.2299909E+04  0.7818609E-02  0.8477957E-01
        2   -1    0    0  501    0  0.00000000000E+00  0.00000000000E+00  0.11515246162E+04  0.11515246162E+04  0.25500000920E-02 0. -1.
       -2   -1    0    0    0  501  0.00000000000E+00  0.00000000000E+00 -0.11483867914E+04  0.11483867914E+04  0.25500000920E-02 0.  1.
    10030    2    1    2    0    0  0.00000000000E+00  0.00000000000E+00  0.31378247876E+01  0.22999114075E+04  0.22999092670E+04 0.  0.
        1    1    3    3  502    0  0.93350029972E+03 -0.37305527430E+03 -0.55682449036E+03  0.11491938741E+04  0.50400001928E-02 0.  1.
       -1    1    3    3    0  502 -0.93350029972E+03  0.37305527430E+03  0.55996231515E+03  0.11507175334E+04  0.50400001928E-02 0. -1.
</event>
<event>
 5   0  0.1825521E-06  0.2300575E+04  0.7818609E-02  0.8477694E-01
       -2   -1    0    0    0  501  0.00000000000E+00  0.00000000000E+00  0.70744006647E+03  0.70744006647E+03  0.25500000920E-02 0. -1.
        2   -1    0    0  501    0  0.00000000000E+00  0.00000000000E+00 -0.18703518821E+04  0.18703518821E+04  0.25500000920E-02 0.  1.
    10030    2    1    2    0    0  0.00000000000E+00  0.00000000000E+00 -0.11629118156E+04  0.25777919486E+04  0.23005754583E+04 0.  0.
        5    1    3    3  502    0 -0.74960742434E+03  0.16931667020E+03  0.37757605789E+03  0.85625066127E+03  0.46999998093E+01 0. -1.
       -5    1    3    3    0  502  0.74960742434E+03 -0.16931667020E+03 -0.15404878735E+04  0.17215412873E+04  0.46999998093E+01 0.  1.
</event>
<event>
 5   0  0.8108242E-07  0.2300486E+04  0.7818609E-02  0.8477729E-01
       -1   -1    0    0    0  501  0.00000000000E+00  0.00000000000E+00  0.14698883529E+04  0.14698883529E+04  0.50400001928E-02 0.  1.
        1   -1    0    0  501    0  0.00000000000E+00  0.00000000000E+00 -0.90010860826E+03  0.90010860827E+03  0.50400001928E-02 0. -1.
    10030    2    1    2    0    0  0.00000000000E+00  0.00000000000E+00  0.56977974461E+03  0.23699969612E+04  0.23004861744E+04 0.  0.
        4    1    3    3  502    0 -0.44508858408E+03  0.86352764737E+03  0.91935028087E+03  0.13375314566E+04  0.12699999809E+01 0.  1.
       -4    1    3    3    0  502  0.44508858408E+03 -0.86352764737E+03 -0.34957053626E+03  0.10324655046E+04  0.12699999809E+01 0. -1.
</event>
<event>
 5   0  0.7932912E-07  0.2301177E+04  0.7818609E-02  0.8477457E-01
        1   -1    0    0  501    0  0.00000000000E+00  0.00000000000E+00  0.14037712633E+04  0.14037712633E+04  0.50400001928E-02 0.  1.
       -1   -1    0    0    0  501  0.00000000000E+00  0.00000000000E+00 -0.94306942039E+03  0.94306942040E+03  0.50400001928E-02 0. -1.
    10030    2    1    2    0    0  0.00000000000E+00  0.00000000000E+00  0.46070184291E+03  0.23468406837E+04  0.23011768743E+04 0.  0.
        5    1    3    3  502    0  0.40147894220E+03  0.10672102800E+04  0.73319702381E+02  0.11425939749E+04  0.46999998093E+01 0.  1.
       -5    1    3    3    0  502 -0.40147894220E+03 -0.10672102800E+04  0.38738214053E+03  0.12042467088E+04  0.46999998093E+01 0. -1.
</event>
<event>
 5   0  0.1689444E-06  0.2299946E+04  0.7818609E-02  0.8477942E-01
        2   -1    0    0  501    0  0.00000000000E+00  0.00000000000E+00  0.23614577411E+04  0.23614577411E+04  0.25500000920E-02 0. -1.
       -2   -1    0    0    0  501  0.00000000000E+00  0.00000000000E+00 -0.56000925726E+03  0.56000925727E+03  0.25500000920E-02 0.  1.
    10030    2    1    2    0    0  0.00000000000E+00  0.00000000000E+00  0.18014484838E+04  0.29214669984E+04  0.22999462565E+04 0.  0.
        2    1    3    3  502    0  0.49158505097E+03 -0.13315704994E+03 -0.40894146567E+03  0.65316137717E+03  0.25500000920E-02 0.  1.
       -2    1    3    3    0  502 -0.49158505097E+03  0.13315704994E+03  0.22103899495E+04  0.22683056212E+04  0.25500000920E-02 0. -1.
</event>
<event>
 5   0  0.8108242E-07  0.2285099E+04  0.7818609E-02  0.8483820E-01
       -1   -1    0    0    0  501  0.00000000000E+00  0.00000000000E+00  0.10871438392E+04  0.10871438393E+04  0.50400001928E-02 0. -1.
        1   -1    0    0  501    0  0.00000000000E+00  0.00000000000E+00 -0.12007789235E+04  0.12007789235E+04  0.50400001928E-02 0.  1.
    10030    2    1    2    0    0  0.00000000000E+00  0.00000000000E+00 -0.11363508424E+03  0.22879227628E+04  0.22850990429E+04 0.  0.
        4    1    3    3  502    0  0.66409332042E+03 -0.92041698825E+03  0.74609378825E+02  0.11374337531E+04  0.12699999809E+01 0. -1.
       -4    1    3    3    0  502 -0.66409332042E+03  0.92041698825E+03 -0.18824446307E+03  0.11504890096E+04  0.12699999809E+01 0.  1.
</event>
<event>
 5   0  0.1825521E-06  0.2306337E+04  0.7818609E-02  0.8475427E-01
        2   -1    0    0  501    0  0.00000000000E+00  0.00000000000E+00  0.21624860121E+04  0.21624860121E+04  0.25500000920E-02 0.  1.
       -2   -1    0    0    0  501  0.00000000000E+00  0.00000000000E+00 -0.61493912412E+03  0.61493912413E+03  0.25500000920E-02 0. -1.
    10030    2    1    2    0    0  0.00000000000E+00  0.00000000000E+00  0.15475468880E+04  0.27774251362E+04  0.23063367094E+04 0.  0.
        5    1    3    3  502    0 -0.67829692037E+03  0.17405563460E+03 -0.32954872468E+03  0.77395512018E+03  0.46999998093E+01 0. -1.
       -5    1    3    3    0  502  0.67829692037E+03 -0.17405563460E+03  0.18770956127E+04  0.20034700161E+04  0.46999998093E+01 0.  1.
</event>
<event>
 5   0  0.7932912E-07  0.2296663E+04  0.7818609E-02  0.8479238E-01
       -1   -1    0    0    0  501  0.00000000000E+00  0.00000000000E+00  0.53640135614E+03  0.53640135617E+03  0.50400001928E-02 0. -1.
        1   -1    0    0  501    0  0.00000000000E+00  0.00000000000E+00 -0.24583556872E+04  0.24583556872E+04  0.50400001928E-02 0.  1.
    10030    2    1    2    0    0  0.00000000000E+00  0.00000000000E+00 -0.19219543311E+04  0.29947570434E+04  0.22966630789E+04 0.  0.
        5    1    3    3  502    0  0.96048859646E+03 -0.47233048822E+03 -0.41860373826E+03  0.11492978786E+04  0.46999998093E+01 0. -1.
       -5    1    3    3    0  502 -0.96048859646E+03  0.47233048822E+03 -0.15033505928E+04  0.18454591648E+04  0.46999998093E+01 0.  1.
</event>
<event>
 5   0  0.7761069E-07  0.2294354E+04  0.7818609E-02  0.8480151E-01
       -1   -1    0    0    0  501  0.00000000000E+00  0.00000000000E+00  0.88017563446E+03  0.88017563447E+03  0.50400001928E-02 0.  1.
        1   -1    0    0  501    0  0.00000000000E+00  0.00000000000E+00 -0.14951727641E+04  0.14951727641E+04  0.50400001928E-02 0. -1.
    10030    2    1    2    0    0  0.00000000000E+00  0.00000000000E+00 -0.61499712962E+03  0.23753483986E+04  0.22943536225E+04 0.  0.
        1    1    3    3  502    0  0.11322249867E+04 -0.17631784466E+03 -0.25085673806E+03  0.11730091670E+04  0.50400001928E-02 0. -1.
       -1    1    3    3    0  502 -0.11322249867E+04  0.17631784466E+03 -0.36414039156E+03  0.12023392315E+04  0.50400001928E-02 0.  1.
</event>
<event>
 5   0  0.1689444E-06  0.2299901E+04  0.7818609E-02  0.8477960E-01
        2   -1    0    0  501    0  0.00000000000E+00  0.00000000000E+00  0.13419573754E+04  0.13419573754E+04  0.25500000920E-02 0. -1.
       -2   -1    0    0    0  501  0.00000000000E+00  0.00000000000E+00 -0.98541607921E+03  0.98541607921E+03  0.25500000920E-02 0.  1.
    10030    2    1    2    0    0  0.00000000000E+00  0.00000000000E+00  0.35654129618E+03  0.23273734546E+04  0.22999011938E+04 0.  0.
        2    1    3    3  502    0  0.54771374844E+03 -0.61695090313E+03  0.98894380814E+03  0.12878775651E+04  0.25500000920E-02 0.  1.
       -2    1    3    3    0  502 -0.54771374844E+03  0.61695090313E+03 -0.63240251196E+03  0.10394958895E+04  0.25500000920E-02 0. -1.
</event>
<event>
 5   0  0.7932912E-07  0.2299715E+04  0.7818609E-02  0.8478034E-01
        1   -1    0    0  501    0  0.00000000000E+00  0.00000000000E+00  0.75368327781E+03  0.75368327783E+03  0.50400001928E-02 0. -1.
       -1   -1    0    0    0  501  0.00000000000E+00  0.00000000000E+00 -0.17542807893E+04  0.17542807893E+04  0.50400001928E-02 0.  1.
    10030    2    1    2    0    0  0.00000000000E+00  0.00000000000E+00 -0.10005975115E+04  0.25079640672E+04  0.22997148480E+04 0.  0.
        5    1    3    3  502    0  0.76101729318E+03 -0.68715102798E+03 -0.10678337149E+04  0.14804103446E+04  0.46999998093E+01 0.  1.
       -5    1    3    3    0  502 -0.76101729318E+03  0.68715102798E+03  0.67236203337E+02  0.10275537226E+04  0.46999998093E+01 0. -1.
</event>
<event>
 5   0  0.1744876E-06  0.2298818E+04  0.7818609E-02  0.8478387E-01
       -2   -1    0    0    0  501  0.00000000000E+00  0.00000000000E+00  0.64919394318E+03  0.64919394319E+03  0.25500000920E-02 0.  1.
        2   -1    0    0  501    0  0.00000000000E+00  0.00000000000E+00 -0.20350488389E+04  0.20350488389E+04  0.25500000920E-02 0. -1.
    10030    2    1    2    0    0  0.00000000000E+00  0.00000000000E+00 -0.13858548958E+04  0.26842427821E+04  0.22988182880E+04 0.  0.
        1    1    3    3  502    0  0.75607299185E+03 -0.56118716074E+03  0.76812479201E+02  0.94471030235E+03  0.50400001928E-02 0.  1.
       -1    1    3    3    0  502 -0.75607299185E+03  0.56118716074E+03 -0.14626673750E+04  0.17395324798E+04  0.50400001928E-02 0. -1.
</event>
<event>
 5   0  0.7761069E-07  0.2290842E+04  0.7818609E-02  0.8481541E-01
        1   -1    0    0  501    0  0.00000000000E+00  0.00000000000E+00  0.11985220032E+04  0.11985220032E+04  0.50400001928E-02 0. -1.
       -1   -1    0    0    0  501  0.00000000000E+00  0.00000000000E+00 -0.10946731295E+04  0.10946731295E+04  0.50400001928E-02 0.  1.
    10030    2    1    2    0    0  0.00000000000E+00  0.00000000000E+00  0.10384887371E+03  0.22931951327E+04  0.22908424931E+04 0.  0.
        1    1    3    3  502    0 -0.14344368900E+03  0.87069070884E+03  0.78295616525E+03  0.11797028266E+04  0.50400001928E-02 0. -1.
       -1    1    3    3    0  502  0.14344368900E+03 -0.87069070884E+03 -0.67910729154E+03  0.11134923061E+04  0.50400001928E-02 0.  1.
</event>
<event>
 5   0  0.7607231E-07  0.2300379E+04  0.7818609E-02  0.8477772E-01
        1   -1    0    0  501    0  0.00000000000E+00  0.00000000000E+00  0.73253279761E+03  0.73253279763E+03  0.50400001928E-02 0. -1.
       -1   -1    0    0    0  501  0.00000000000E+00  0.00000000000E+00 -0.18059744742E+04  0.18059744742E+04  0.50400001928E-02 0.  1.
    10030    2    1    2    0    0  0.00000000000E+00  0.00000000000E+00 -0.10734416766E+04  0.25385072719E+04  0.23003786941E+04 0.  0.
        2    1    3    3  502    0  0.26388492390E+03  0.89591159610E+03  0.20406938499E+03  0.95600060407E+03  0.25500000920E-02 0. -1.
       -2    1    3    3    0  502 -0.26388492390E+03 -0.89591159610E+03 -0.12775110616E+04  0.15825066678E+04  0.25500000920E-02 0.  1.
</event>
<event>
 5   0  0.1888779E-06  0.2300418E+04  0.7818609E-02  0.8477756E-01
        2   -1    0    0  501    0  0.00000000000E+00  0.00000000000E+00  0.19662914220E+04  0.19662914220E+04  0.25500000920E-02 0.  1.
       -2   -1    0    0    0  501  0.00000000000E+00  0.00000000000E+00 -0.67283050870E+03  0.67283050870E+03  0.25500000920E-02 0. -1.
    10030    2    1    2    0    0  0.00000000000E+00  0.00000000000E+00  0.12934609133E+04  0.26391219307E+04  0.23004180992E+04 0.  0.
        4    1    3    3  502    0  0.68090523481E+03 -0.92272962196E+03  0.54464999533E+03  0.12695302770E+04  0.12699999809E+01 0. -1.
       -4    1    3    3    0  502 -0.68090523481E+03  0.92272962196E+03  0.74881091801E+03  0.13695916537E+04  0.12699999809E+01 0.  1.
</event>
<event>
 5   0  0.1689444E-06  0.2299175E+04  0.7818609E-02  0.8478247E-01
       -2   -1    0    0    0  501  0.00000000000E+00  0.00000000000E+00  0.75119709299E+03  0.75119709300E+03  0.25500000920E-02 0. -1.
        2   -1    0    0  501    0  0.00000000000E+00  0.00000000000E+00 -0.17592600126E+04  0.17592600126E+04  0.25500000920E-02 0.  1.
    10030    2    1    2    0    0  0.00000000000E+00  0.00000000000E+00 -0.10080629196E+04  0.25104571056E+04  0.22991746409E+04 0.  0.
        2    1    3    3  502    0  0.48607150028E+03 -0.88914358066E+02 -0.16373845862E+04  0.17103214755E+04  0.25500000920E-02 0.  1.
       -2    1    3    3    0  502 -0.48607150028E+03  0.88914358066E+02  0.62932166661E+03  0.80013563008E+03  0.25500000920E-02 0. -1.
</event>
<event>
 5   0  0.1888779E-06  0.2299847E+04  0.7818609E-02  0.8477982E-01
        2   -1    0    0  501    0  0.00000000000E+00  0.00000000000E+00  0.13251284212E+04  0.13251284212E+04  0.25500000920E-02 0. -1.
       -2   -1    0    0    0  501  0.00000000000E+00  0.00000000000E+00 -0.99788353767E+03  0.99788353767E+03  0.25500000920E-02 0.  1.
    10030    2    1    2    0    0  0.00000000000E+00  0.00000000000E+00  0.32724488357E+03  0.23230119589E+04  0.22998468096E+04 0.  0.
        4    1    3    3  502    0  0.17979264284E+03 -0.55946723830E+03 -0.83476317472E+03  0.10208624569E+04  0.12699999809E+01 0.  1.
       -4    1    3    3    0  502 -0.17979264284E+03  0.55946723830E+03  0.11620080583E+04  0.13021495020E+04  0.12699999809E+01 0. -1.
</event>
<event>
 5   0  0.7607231E-07  0.2299823E+04  0.7818609E-02  0.8477991E-01
        1   -1    0    0  501    0  0.00000000000E+00  0.00000000000E+00  0.92201348979E+03  0.92201348980E+03  0.50400001928E-02 0.  1.
       -1   -1    0    0    0  501  0.00000000000E+00  0.00000000000E+00 -0.14341400401E+04  0.14341400401E+04  0.50400001928E-02 0. -1.
    10030    2    1    2    0    0  0.00000000000E+00  0.00000000000E+00 -0.51212655027E+03  0.23561535299E+04  0.22998230047E+04 0.  0.
        2    1    3    3  502    0 -0.11062230376E+04 -0.22129480337E+03 -0.27907730292E+02  0.11284855517E+04  0.25500000920E-02 0.  1.
       -2    1    3    3    0  502  0.11062230376E+04  0.22129480337E+03 -0.48421881998E+03  0.12276679782E+04  0.25500000920E-02 0. -1.
</event>
<event>
 5   0  0.1744876E-06  0.2302976E+04  0.7818609E-02  0.8476749E-01
       -2   -1    0    0    0  501  0.00000000000E+00  0.00000000000E+00  0.83674887294E+03  0.83674887295E+03  0.25500000920E-02 0.  1.
        2   -1    0    0  501    0  0.00000000000E+00  0.00000000000E+00 -0.15846147510E+04  0.15846147510E+04  0.25500000920E-02 0. -1.
    10030    2    1    2    0    0  0.00000000000E+00  0.00000000000E+00 -0.74786587802E+03  0.24213636239E+04  0.23029759937E+04 0.  0.
        1    1    3    3  502    0 -0.14131083362E+03  0.96505069314E+03 -0.10174700944E+04  0.14094456304E+04  0.50400001928E-02 0. -1.
       -1    1    3    3    0  502  0.14131083362E+03 -0.96505069314E+03  0.26960421641E+03  0.10119179935E+04  0.50400001928E-02 0.  1.
</event>
<event>
 5   0  0.8108242E-07  0.2299153E+04  0.7818609E-02  0.8478255E-01
       -1   -1    0    0    0  501  0.00000000000E+00  0.00000000000E+00  0.21699933702E+04  0.21699933702E+04  0.50400001928E-02 0.  1.
        1   -1    0    0  501    0  0.00000000000E+00  0.00000000000E+00 -0.60899997419E+03  0.60899997421E+03  0.50400001928E-02 0. -1.
    10030    2    1    2    0    0  0.00000000000E+00  0.00000000000E+00  0.15609933960E+04  0.27789933444E+04  0.22991528061E+04 0.  0.
        4    1    3    3  502    0  0.19102212164E+03  0.76245916090E+03  0.17944328980E+04  0.19590366156E+04  0.12699999809E+01 0.  1.
       -4    1    3    3    0  502 -0.19102212164E+03 -0.76245916090E+03 -0.23343950205E+03  0.81995672874E+03  0.12699999809E+01 0. -1.
</event>
<event>
 5   0  0.7607231E-07  0.2299244E+04  0.7818609E-02  0.8478219E-01
       -1   -1    0    0    0  501  0.00000000000E+00  0.00000000000E+00  0.68424015620E+03  0.68424015622E+03  0.50400001928E-02 0.  1.
        1   -1    0    0  501    0  0.00000000000E+00  0.00000000000E+00 -0.19315308181E+04  0.19315308181E+04  0.50400001928E-02 0. -1.
    10030    2    1    2    0    0  0.00000000000E+00  0.00000000000E+00 -0.12472906619E+04  0.26157709743E+04  0.22992441790E+04 0.  0.
        2    1    3    3  502    0  0.15061566307E+03  0.28041193463E+03 -0.18804002641E+04  0.19071499899E+04  0.25500000920E-02 0. -1.
       -2    1    3    3    0  502 -0.15061566307E+03 -0.28041193463E+03  0.63310960220E+03  0.70862098434E+03  0.25500000920E-02 0.  1.
</event>
<event>
 5   0  0.7761069E-07  0.2299894E+04  0.7818609E-02  0.8477963E-01
        1   -1    0    0  501    0  0.00000000000E+00  0.00000000000E+00  0.83001887734E+03  0.83001887736E+03  0.50400001928E-02 0. -1.
       -1   -1    0    0    0  501  0.00000000000E+00  0.00000000000E+00 -0.15931905355E+04  0.15931905355E+04  0.50400001928E-02 0.  1.
    10030    2    1    2    0    0  0.00000000000E+00  0.00000000000E+00 -0.76317165815E+03  0.24232094129E+04  0.22998941016E+04 0.  0.
        1    1    3    3  502    0 -0.11897637021E+02 -0.40565239256E+03  0.75206131632E+03  0.85457102741E+03  0.50400001928E-02 0. -1.
       -1    1    3    3    0  502  0.11897637021E+02  0.40565239256E+03 -0.15152329745E+04  0.15686383855E+04  0.50400001928E-02 0.  1.
</event>
<event>
 5   0  0.1744876E-06  0.2299079E+04  0.7818609E-02  0.8478284E-01
        2   -1    0    0  501    0  0.00000000000E+00  0.00000000000E+00  0.17640355255E+04  0.17640355255E+04  0.25500000920E-02 0.  1.
       -2   -1    0    0    0  501  0.00000000000E+00  0.00000000000E+00 -0.74910116425E+03  0.74910116426E+03  0.25500000920E-02 0. -1.
    10030    2    1    2    0    0  0.00000000000E+00  0.00000000000E+00  0.10149343613E+04  0.25131366898E+04  0.22990790034E+04 0.  0.
        1    1    3    3  502    0  0.34623565238E+03  0.46180198010E+03 -0.57922565591E+03  0.81770566605E+03  0.50400001928E-02 0. -1.
       -1    1    3    3    0  502 -0.34623565238E+03 -0.46180198010E+03  0.15941600172E+04  0.16954310237E+04  0.50400001928E-02 0.  1.
</event>
<event>
 5   0  0.8097672E-07  0.2303110E+04  0.7818609E-02  0.8476696E-01
        1   -1    0    0  501    0  0.00000000000E+00  0.00000000000E+00  0.81281815807E+03  0.81281815808E+03  0.50400001928E-02 0.  1.
       -1   -1    0    0    0  501  0.00000000000E+00  0.00000000000E+00 -0.16314582196E+04  0.16314582196E+04  0.50400001928E-02 0. -1.
    10030    2    1    2    0    0  0.00000000000E+00  0.00000000000E+00 -0.81864006151E+03  0.24442763777E+04  0.23031099540E+04 0.  0.
        3    1    3    3  502    0  0.11846905755E+03  0.21652249125E+02 -0.16247563865E+04  0.16292136334E+04  0.10100000352E+00 0. -1.
       -3    1    3    3    0  502 -0.11846905755E+03 -0.21652249125E+02  0.80611632500E+03  0.81506274428E+03  0.10100000352E+00 0.  1.
</event>
<event>
 5   0  0.7932912E-07  0.2298941E+04  0.7818609E-02  0.8478339E-01
        1   -1    0    0  501    0  0.00000000000E+00  0.00000000000E+00  0.18916893149E+04  0.18916893149E+04  0.50400001928E-02 0. -1.
       -1   -1    0    0    0  501  0.00000000000E+00  0.00000000000E+00 -0.69846690448E+03  0.69846690450E+03  0.50400001928E-02 0.  1.
    10030    2    1    2    0    0  0.00000000000E+00  0.00000000000E+00  0.11932224104E+04  0.25901562194E+04  0.22989409562E+04 0.  0.
        5    1    3    3  502    0  0.56704077580E+03  0.34411465002E+03  0.16543112638E+04  0.17823349801E+04  0.46999998093E+01 0. -1.
       -5    1    3    3    0  502 -0.56704077580E+03 -0.34411465002E+03 -0.46108885345E+03  0.80782123923E+03  0.46999998093E+01 0.  1.
</event>
<event>
 5   0  0.8097672E-07  0.2300137E+04  0.7818609E-02  0.8477867E-01
        1   -1    0    0  501    0  0.00000000000E+00  0.00000000000E+00  0.23422934302E+04  0.23422934303E+04  0.50400001928E-02 0.  1.
       -1   -1    0    0    0  501  0.00000000000E+00  0.00000000000E+00 -0.56468484165E+03  0.56468484167E+03  0.50400001928E-02 0. -1.
    10030    2    1    2    0    0  0.00000000000E+00  0.00000000000E+00  0.17776085886E+04  0.29069782719E+04  0.23001370349E+04 0.  0.
        3    1    3    3  502    0 -0.42536229023E+03  0.85665118568E+03  0.81660916114E+02  0.95992335491E+03  0.10100000352E+00 0. -1.
       -3    1    3    3    0  502  0.42536229023E+03 -0.85665118568E+03  0.16959476725E+04  0.19470549170E+04  0.10100000352E+00 0.  1.
</event>
<event>
 5   0  0.1689444E-06  0.2300738E+04  0.7818609E-02  0.8477630E-01
       -2   -1    0    0    0  501  0.00000000000E+00  0.00000000000E+00  0.62636380203E+03  0.62636380204E+03  0.25500000920E-02 0. -1.
        2   -1    0    0  501    0  0.00000000000E+00  0.00000000000E+00 -0.21127485829E+04  0.21127485829E+04  0.25500000920E-02 0.  1.
    10030    2    1    2    0    0  0.00000000000E+00  0.00000000000E+00 -0.14863847809E+04  0.27391123850E+04  0.23007383468E+04 0.  0.
        2    1    3    3  502    0 -0.85761441294E+03  0.26097787021E+03 -0.16014834046E+04  0.18353095175E+04  0.25500000920E-02 0.  1.
       -2    1    3    3    0  502  0.85761441294E+03 -0.26097787021E+03  0.11509862367E+03  0.90380286744E+03  0.25500000920E-02 0. -1.
</event>
<event>
 5   0  0.1689444E-06  0.2297805E+04  0.7818609E-02  0.8478787E-01
        2   -1    0    0  501    0  0.00000000000E+00  0.00000000000E+00  0.12609046769E+04  0.12609046769E+04  0.25500000920E-02 0. -1.
       -2   -1    0    0    0  501  0.00000000000E+00  0.00000000000E+00 -0.10468486934E+04  0.10468486934E+04  0.25500000920E-02 0.  1.
    10030    2    1    2    0    0  0.00000000000E+00  0.00000000000E+00  0.21405598350E+03  0.23077533703E+04  0.22978045291E+04 0.  0.
        2    1    3    3  502    0 -0.27557237578E+03 -0.62928684289E+03  0.10319029790E+04  0.12396635927E+04  0.25500000920E-02 0. -1.
       -2    1    3    3    0  502  0.27557237578E+03  0.62928684289E+03 -0.81784699552E+03  0.10680897776E+04  0.25500000920E-02 0.  1.
</event>
<event>
 5   0  0.1888779E-06  0.2300196E+04  0.7818609E-02  0.8477844E-01
        2   -1    0    0  501    0  0.00000000000E+00  0.00000000000E+00  0.12002363683E+04  0.12002363683E+04  0.25500000920E-02 0. -1.
       -2   -1    0    0    0  501  0.00000000000E+00  0.00000000000E+00 -0.11020542583E+04  0.11020542583E+04  0.25500000920E-02 0.  1.
    10030    2    1    2    0    0  0.00000000000E+00  0.00000000000E+00  0.98182109951E+02  0.23022906266E+04  0.23001961661E+04 0.  0.
        4    1    3    3  502    0  0.29216162072E+03 -0.54551997227E+03  0.10193929407E+04  0.11925242275E+04  0.12699999809E+01 0. -1.
       -4    1    3    3    0  502 -0.29216162072E+03  0.54551997227E+03 -0.92121083078E+03  0.11097663990E+04  0.12699999809E+01 0.  1.
</event>
<event>
 5   0  0.6319125E-07  0.2292213E+04  0.7818609E-02  0.8480998E-01
       -3   -1    0    0    0  501  0.00000000000E+00  0.00000000000E+00  0.25575698968E+04  0.25575698988E+04  0.10100000352E+00 0. -1.
        3   -1    0    0  501    0  0.00000000000E+00  0.00000000000E+00 -0.51359709869E+03  0.51359710862E+03  0.10100000352E+00 0.  1.
    10030    2    1    2    0    0  0.00000000000E+00  0.00000000000E+00  0.20439727981E+04  0.30711670074E+04  0.22922133382E+04 0.  0.
        2    1    3    3  502    0 -0.10513012426E+04  0.30152658340E+03  0.14810756071E+04  0.18411239874E+04  0.25500000920E-02 0. -1.
       -2    1    3    3    0  502  0.10513012426E+04 -0.30152658340E+03  0.56289719099E+03  0.12300430199E+04  0.25500000920E-02 0.  1.
</event>
<event>
 5   0  0.8097672E-07  0.2305107E+04  0.7818609E-02  0.8475910E-01
        1   -1    0    0  501    0  0.00000000000E+00  0.00000000000E+00  0.22227804620E+04  0.22227804620E+04  0.50400001928E-02 0. -1.
       -1   -1    0    0    0  501  0.00000000000E+00  0.00000000000E+00 -0.59762045017E+03  0.59762045019E+03  0.50400001928E-02 0.  1.
    10030    2    1    2    0    0  0.00000000000E+00  0.00000000000E+00  0.16251600118E+04  0.28204009122E+04  0.23051065575E+04 0.  0.
        3    1    3    3  502    0 -0.42191112312E+03  0.76288813852E+03  0.17350156564E+04  0.19417225976E+04  0.10100000352E+00 0. -1.
       -3    1    3    3    0  502  0.42191112312E+03 -0.76288813852E+03 -0.10985564460E+03  0.87867831461E+03  0.10100000352E+00 0.  1.
</event>
<event>
 5   0  0.8108242E-07  0.2300642E+04  0.7818609E-02  0.8477668E-01
        1   -1    0    0  501    0  0.00000000000E+00  0.00000000000E+00  0.14226858247E+04  0.14226858247E+04  0.50400001928E-02 0.  1.
       -1   -1    0    0    0  501  0.00000000000E+00  0.00000000000E+00 -0.93009847008E+03  0.93009847009E+03  0.50400001928E-02 0. -1.
    10030    2    1    2    0    0  0.00000000000E+00  0.00000000000E+00  0.49258735459E+03  0.23527842948E+04  0.23006415705E+04 0.  0.
        4    1    3    3  502    0  0.37115157572E+03 -0.81034264276E+03 -0.49739335456E+03  0.10206911643E+04  0.12699999809E+01 0. -1.
       -4    1    3    3    0  502 -0.37115157572E+03  0.81034264276E+03  0.98998070916E+03  0.13320931305E+04  0.12699999809E+01 0.  1.
</event>
<event>
 5   0  0.1825521E-06  0.2306951E+04  0.7818609E-02  0.8475185E-01
       -2   -1    0    0    0  501  0.00000000000E+00  0.00000000000E+00  0.84335892482E+03  0.84335892482E+03  0.25500000920E-02 0.  1.
        2   -1    0    0  501    0  0.00000000000E+00  0.00000000000E+00 -0.15776273593E+04  0.15776273593E+04  0.25500000920E-02 0. -1.
    10030    2    1    2    0    0  0.00000000000E+00  0.00000000000E+00 -0.73426843443E+03  0.24209862841E+04  0.23069513332E+04 0.  0.
        5    1    3    3  502    0  0.95878849043E+03 -0.39513041388E+03 -0.89715465888E+03  0.13712446847E+04  0.46999998093E+01 0. -1.
       -5    1    3    3    0  502 -0.95878849043E+03  0.39513041388E+03  0.16288622445E+03  0.10497415994E+04  0.46999998093E+01 0.  1.
</event>
<event>
 5   0  0.8097672E-07  0.2300324E+04  0.7818609E-02  0.8477793E-01
        1   -1    0    0  501    0  0.00000000000E+00  0.00000000000E+00  0.10293067653E+04  0.10293067653E+04  0.50400001928E-02 0. -1.
       -1   -1    0    0    0  501  0.00000000000E+00  0.00000000000E+00 -0.12852072391E+04  0.12852072391E+04  0.50400001928E-02 0.  1.
    10030    2    1    2    0    0  0.00000000000E+00  0.00000000000E+00 -0.25590047381E+03  0.23145140044E+04  0.23003238955E+04 0.  0.
        3    1    3    3  502    0  0.47204364825E+03  0.92700859882E+03 -0.62159096604E+03  0.12118355860E+04  0.10100000352E+00 0. -1.
       -3    1    3    3    0  502 -0.47204364825E+03 -0.92700859882E+03  0.36569049223E+03  0.11026784184E+04  0.10100000352E+00 0.  1.
</event>
<event>
 5   0  0.7607231E-07  0.2300086E+04  0.7818609E-02  0.8477887E-01
       -1   -1    0    0    0  501  0.00000000000E+00  0.00000000000E+00  0.10241798804E+04  0.10241798804E+04  0.50400001928E-02 0.  1.
        1   -1    0    0  501    0  0.00000000000E+00  0.00000000000E+00 -0.12913741415E+04  0.12913741415E+04  0.50400001928E-02 0. -1.
    10030    2    1    2    0    0  0.00000000000E+00  0.00000000000E+00 -0.26719426109E+03  0.23155540219E+04  0.23000864452E+04 0.  0.
        2    1    3    3  502    0  0.35132697092E+03  0.80964789490E+03 -0.87587426966E+03  0.12434291658E+04  0.25500000920E-02 0. -1.
       -2    1    3    3    0  502 -0.35132697092E+03 -0.80964789490E+03  0.60868000856E+03  0.10721248561E+04  0.25500000920E-02 0.  1.
</event>
<event>
 5   0  0.1828646E-06  0.2301960E+04  0.7818609E-02  0.8477149E-01
       -2   -1    0    0    0  501  0.00000000000E+00  0.00000000000E+00  0.67746499263E+03  0.67746499264E+03  0.25500000920E-02 0. -1.
        2   -1    0    0  501    0  0.00000000000E+00  0.00000000000E+00 -0.19554595632E+04  0.19554595632E+04  0.25500000920E-02 0.  1.
    10030    2    1    2    0    0  0.00000000000E+00  0.00000000000E+00 -0.12779945706E+04  0.26329245558E+04  0.23019603807E+04 0.  0.
        3    1    3    3  502    0  0.55897544009E+03 -0.78344015482E+03  0.83053038596E+02  0.96598645758E+03  0.10100000352E+00 0. -1.
       -3    1    3    3    0  502 -0.55897544009E+03  0.78344015482E+03 -0.13610476092E+04  0.16669380983E+04  0.10100000352E+00 0.  1.
</event>
<event>
 5   0  0.8097672E-07  0.2299292E+04  0.7818609E-02  0.8478200E-01
       -1   -1    0    0    0  501  0.00000000000E+00  0.00000000000E+00  0.15177525702E+04  0.15177525702E+04  0.50400001928E-02 0.  1.
        1   -1    0    0  501    0  0.00000000000E+00  0.00000000000E+00 -0.87081811434E+03  0.87081811436E+03  0.50400001928E-02 0. -1.
    10030    2    1    2    0    0  0.00000000000E+00  0.00000000000E+00  0.64693445583E+03  0.23885706845E+04  0.22992924401E+04 0.  0.
        3    1    3    3  502    0  0.50608945313E+03 -0.11584192157E+03  0.13890342296E+04  0.14828897419E+04  0.10100000352E+00 0.  1.
       -3    1    3    3    0  502 -0.50608945313E+03  0.11584192157E+03 -0.74209977380E+03  0.90568094263E+03  0.10100000352E+00 0. -1.
</event>
<event>
 5   0  0.8097672E-07  0.2299501E+04  0.7818609E-02  0.8478118E-01
       -1   -1    0    0    0  501  0.00000000000E+00  0.00000000000E+00  0.11227010295E+04  0.11227010295E+04  0.50400001928E-02 0. -1.
        1   -1    0    0  501    0  0.00000000000E+00  0.00000000000E+00 -0.11774517905E+04  0.11774517905E+04  0.50400001928E-02 0.  1.
    10030    2    1    2    0    0  0.00000000000E+00  0.00000000000E+00 -0.54750760949E+02  0.23001528200E+04  0.22995011088E+04 0.  0.
        3    1    3    3  502    0  0.11381262376E+04  0.56224724376E+02 -0.18049970761E+03  0.11537212432E+04  0.10100000352E+00 0.  1.
       -3    1    3    3    0  502 -0.11381262376E+04 -0.56224724376E+02  0.12574894666E+03  0.11464315768E+04  0.10100000352E+00 0. -1.
</event>
<event>
 5   0  0.8097672E-07  0.2299994E+04  0.7818609E-02  0.8477923E-01
       -1   -1    0    0    0  501  0.00000000000E+00  0.00000000000E+00  0.13712864852E+04  0.13712864852E+04  0.50400001928E-02 0.  1.
        1   -1    0    0  501    0  0.00000000000E+00  0.00000000000E+00 -0.96441780786E+03  0.96441780787E+03  0.50400001928E-02 0. -1.
    10030    2    1    2    0    0  0.00000000000E+00  0.00000000000E+00  0.40686867735E+03  0.23357042931E+04  0.22999940052E+04 0.  0.
        3    1    3    3  502    0  0.10594481869E+04  0.36390892068E+03 -0.60666794461E+02  0.11218469741E+04  0.10100000352E+00 0.  1.
       -3    1    3    3    0  502 -0.10594481869E+04 -0.36390892068E+03  0.46753547181E+03  0.12138573190E+04  0.10100000352E+00 0. -1.
</event>
<event>
 5   0  0.1825521E-06  0.2300535E+04  0.7818609E-02  0.8477710E-01
       -2   -1    0    0    0  501  0.00000000000E+00  0.00000000000E+00  0.87351457090E+03  0.87351457090E+03  0.25500000920E-02 0.  1.
        2   -1    0    0  501    0  0.00000000000E+00  0.00000000000E+00 -0.15147032738E+04  0.15147032738E+04  0.25500000920E-02 0. -1.
    10030    2    1    2    0    0  0.00000000000E+00  0.00000000000E+00 -0.64118870294E+03  0.23882178447E+04  0.23005350511E+04 0.  0.
        5    1    3    3  502    0 -0.40013687743E+03  0.28794822149E+03 -0.13994689151E+04  0.14837651544E+04  0.46999998093E+01 0. -1.
       -5    1    3    3    0  502  0.40013687743E+03 -0.28794822149E+03  0.75828021218E+03  0.90445269037E+03  0.46999998093E+01 0.  1.
</event>
<event>
 5   0  0.8108242E-07  0.2301046E+04  0.7818609E-02  0.8477509E-01
        1   -1    0    0  501    0  0.00000000000E+00  0.00000000000E+00  0.13852257072E+04  0.13852257072E+04  0.50400001928E-02 0.  1.
       -1   -1    0    0    0  501  0.00000000000E+00  0.00000000000E+00 -0.95558628472E+03  0.95558628474E+03  0.50400001928E-02 0. -1.
    10030    2    1    2    0    0  0.00000000000E+00  0.00000000000E+00  0.42963942250E+03  0.23408119920E+04  0.23010455772E+04 0.  0.
        4    1    3    3  502    0  0.46184258426E+03  0.80967532522E+03 -0.47124500654E+03  0.10444836878E+04  0.12699999809E+01 0. -1.
       -4    1    3    3    0  502 -0.46184258426E+03 -0.80967532522E+03  0.90088442903E+03  0.12963283042E+04  0.12699999809E+01 0.  1.
</event>
<event>
 5   0  0.8108242E-07  0.2302349E+04  0.7818609E-02  0.8476996E-01
        1   -1    0    0  501    0  0.00000000000E+00  0.00000000000E+00  0.21092555301E+04  0.21092555301E+04  0.50400001928E-02 0. -1.
       -1   -1    0    0    0  501  0.00000000000E+00  0.00000000000E+00 -0.62827961198E+03  0.62827961200E+03  0.50400001928E-02 0.  1.
    10030    2    1    2    0    0  0.00000000000E+00  0.00000000000E+00  0.14809759182E+04  0.27375351421E+04  0.23023485801E+04 0.  0.
        4    1    3    3  502    0 -0.34592588715E+03  0.10915693320E+04  0.88123635368E+03  0.14449108796E+04  0.12699999809E+01 0. -1.
       -4    1    3    3    0  502  0.34592588715E+03 -0.10915693320E+04  0.59973956447E+03  0.12926242625E+04  0.12699999809E+01 0.  1.
</event>
<event>
 5   0  0.1828646E-06  0.2299272E+04  0.7818609E-02  0.8478208E-01
       -2   -1    0    0    0  501  0.00000000000E+00  0.00000000000E+00  0.80477488828E+03  0.80477488828E+03  0.25500000920E-02 0. -1.
        2   -1    0    0  501    0  0.00000000000E+00  0.00000000000E+00 -0.16422772020E+04  0.16422772020E+04  0.25500000920E-02 0.  1.
    10030    2    1    2    0    0  0.00000000000E+00  0.00000000000E+00 -0.83750231377E+03  0.24470520903E+04  0.22992724517E+04 0.  0.
        3    1    3    3  502    0  0.35338191844E+03  0.11112405974E+03 -0.15770179272E+04  0.16199422490E+04  0.10100000352E+00 0.  1.
       -3    1    3    3    0  502 -0.35338191844E+03 -0.11112405974E+03  0.73951561347E+03  0.82710984137E+03  0.10100000352E+00 0. -1.
</event>
<event>
 5   0  0.1888779E-06  0.2298831E+04  0.7818609E-02  0.8478382E-01
        2   -1    0    0  501    0  0.00000000000E+00  0.00000000000E+00  0.16130387735E+04  0.16130387735E+04  0.25500000920E-02 0.  1.
       -2   -1    0    0    0  501  0.00000000000E+00  0.00000000000E+00 -0.81904823133E+03  0.81904823133E+03  0.25500000920E-02 0. -1.
    10030    2    1    2    0    0  0.00000000000E+00  0.00000000000E+00  0.79399054213E+03  0.24320870048E+04  0.22988314897E+04 0.  0.
        4    1    3    3  502    0  0.15745143955E+03  0.65778830608E+03  0.13802092206E+04  0.15370281445E+04  0.12699999809E+01 0.  1.
       -4    1    3    3    0  502 -0.15745143955E+03 -0.65778830608E+03 -0.58621867850E+03  0.89505886027E+03  0.12699999809E+01 0. -1.
</event>
<event>
 5   0  0.1888779E-06  0.2300802E+04  0.7818609E-02  0.8477605E-01
        2   -1    0    0  501    0  0.00000000000E+00  0.00000000000E+00  0.85048584221E+03  0.85048584222E+03  0.25500000920E-02 0. -1.
       -2   -1    0    0    0  501  0.00000000000E+00  0.00000000000E+00 -0.15560779543E+04  0.15560779543E+04  0.25500000920E-02 0.  1.
    10030    2    1    2    0    0  0.00000000000E+00  0.00000000000E+00 -0.70559211206E+03  0.24065637965E+04  0.23008018337E+04 0.  0.
        4    1    3    3  502    0  0.60186943745E+03  0.96593825499E+03 -0.17734417866E+03  0.11518403113E+04  0.12699999809E+01 0. -1.
       -4    1    3    3    0  502 -0.60186943745E+03 -0.96593825499E+03 -0.52824793340E+03  0.12547234852E+04  0.12699999809E+01 0.  1.
</event>
<event>
 5   0  0.7932912E-07  0.2296736E+04  0.7818609E-02  0.8479209E-01
       -1   -1    0    0    0  501  0.00000000000E+00  0.00000000000E+00  0.10241421701E+04  0.10241421701E+04  0.50400001928E-02 0. -1.
        1   -1    0    0  501    0  0.00000000000E+00  0.00000000000E+00 -0.12876623380E+04  0.12876623381E+04  0.50400001928E-02 0.  1.
    10030    2    1    2    0    0  0.00000000000E+00  0.00000000000E+00 -0.26352016792E+03  0.23118045082E+04  0.22967362071E+04 0.  0.
        5    1    3    3  502    0  0.26736607646E+03  0.65006417199E+03  0.78230524094E+03  0.10517089077E+04  0.46999998093E+01 0. -1.
       -5    1    3    3    0  502 -0.26736607646E+03 -0.65006417199E+03 -0.10458254089E+04  0.12600956005E+04  0.46999998093E+01 0.  1.
</event>
<event>
 5   0  0.8097672E-07  0.2301916E+04  0.7818609E-02  0.8477166E-01
        1   -1    0    0  501    0  0.00000000000E+00  0.00000000000E+00  0.27892008735E+04  0.27892008735E+04  0.50400001928E-02 0.  1.
       -1   -1    0    0    0  501  0.00000000000E+00  0.00000000000E+00 -0.47494056679E+03  0.47494056681E+03  0.50400001928E-02 0. -1.
    10030    2    1    2    0    0  0.00000000000E+00  0.00000000000E+00  0.23142603067E+04  0.32641414403E+04  0.23019162833E+04 0.  0.
        3    1    3    3  502    0  0.88549069856E+03  0.61581282779E+02  0.11818356225E+03  0.89546267159E+03  0.10100000352E+00 0. -1.
       -3    1    3    3    0  502 -0.88549069856E+03 -0.61581282779E+02  0.21960767444E+04  0.23686787687E+04  0.10100000352E+00 0.  1.
</event>
<event>
 5   0  0.1888779E-06  0.2299964E+04  0.7818609E-02  0.8477935E-01
        2   -1    0    0  501    0  0.00000000000E+00  0.00000000000E+00  0.68069138182E+03  0.68069138182E+03  0.25500000920E-02 0. -1.
       -2   -1    0    0    0  501  0.00000000000E+00  0.00000000000E+00 -0.19428165550E+04  0.19428165550E+04  0.25500000920E-02 0.  1.
    10030    2    1    2    0    0  0.00000000000E+00  0.00000000000E+00 -0.12621251732E+04  0.26235079368E+04  0.22999639001E+04 0.  0.
        4    1    3    3  502    0  0.45599104454E+03 -0.53790796636E+03 -0.16672463384E+04  0.18102443975E+04  0.12699999809E+01 0.  1.
       -4    1    3    3    0  502 -0.45599104454E+03  0.53790796636E+03  0.40512116521E+03  0.81326353931E+03  0.12699999809E+01 0. -1.
</event>
<event>
 5   0  0.1825521E-06  0.2301527E+04  0.7818609E-02  0.8477319E-01
       -2   -1    0    0    0  501  0.00000000000E+00  0.00000000000E+00  0.62510034901E+03  0.62510034901E+03  0.25500000920E-02 0.  1.
        2   -1    0    0  501    0  0.00000000000E+00  0.00000000000E+00 -0.21184711930E+04  0.21184711930E+04  0.25500000920E-02 0. -1.
    10030    2    1    2    0    0  0.00000000000E+00  0.00000000000E+00 -0.14933708440E+04  0.27435715421E+04  0.23015273904E+04 0.  0.
        5    1    3    3  502    0 -0.66346753298E+03 -0.73922583009E+03 -0.14393062860E+04  0.17487906307E+04  0.46999998093E+01 0. -1.
       -5    1    3    3    0  502  0.66346753298E+03  0.73922583009E+03 -0.54064558081E+02  0.99478091137E+03  0.46999998093E+01 0.  1.
</event>
<event>
 5   0  0.7932912E-07  0.2300784E+04  0.7818609E-02  0.8477612E-01
       -1   -1    0    0    0  501  0.00000000000E+00  0.00000000000E+00  0.17243404928E+04  0.17243404928E+04  0.50400001928E-02 0. -1.
        1   -1    0    0  501    0  0.00000000000E+00  0.00000000000E+00 -0.76748296052E+03  0.76748296054E+03  0.50400001928E-02 0.  1.
    10030    2    1    2    0    0  0.00000000000E+00  0.00000000000E+00  0.95685753228E+03  0.24918234533E+04  0.23007841675E+04 0.  0.
        5    1    3    3  502    0 -0.94418405571E+03  0.47643440426E+03 -0.11823201441E+02  0.10576554972E+04  0.46999998093E+01 0.  1.
       -5    1    3    3    0  502  0.94418405571E+03 -0.47643440426E+03  0.96868073372E+03  0.14341679562E+04  0.46999998093E+01 0. -1.
</event>
<event>
 5   0  0.8097672E-07  0.2299439E+04  0.7818609E-02  0.8478142E-01
        1   -1    0    0  501    0  0.00000000000E+00  0.00000000000E+00  0.15401935178E+04  0.15401935179E+04  0.50400001928E-02 0.  1.
       -1   -1    0    0    0  501  0.00000000000E+00  0.00000000000E+00 -0.85823932257E+03  0.85823932259E+03  0.50400001928E-02 0. -1.
    10030    2    1    2    0    0  0.00000000000E+00  0.00000000000E+00  0.68195419527E+03  0.23984328404E+04  0.22994387501E+04 0.  0.
        3    1    3    3  502    0 -0.34511682300E+02 -0.57073812002E+03  0.13813766107E+04  0.14950365911E+04  0.10100000352E+00 0.  1.
       -3    1    3    3    0  502  0.34511682300E+02  0.57073812002E+03 -0.69942241547E+03  0.90339624934E+03  0.10100000352E+00 0. -1.
</event>
<event>
 5   0  0.1689444E-06  0.2299102E+04  0.7818609E-02  0.8478275E-01
       -2   -1    0    0    0  501  0.00000000000E+00  0.00000000000E+00  0.75434243157E+03  0.75434243158E+03  0.25500000920E-02 0.  1.
        2   -1    0    0  501    0  0.00000000000E+00  0.00000000000E+00 -0.17518139314E+04  0.17518139314E+04  0.25500000920E-02 0. -1.
    10030    2    1    2    0    0  0.00000000000E+00  0.00000000000E+00 -0.99747149982E+03  0.25061563630E+04  0.22991020688E+04 0.  0.
        2    1    3    3  502    0 -0.95981394951E+03  0.62133876147E+03 -0.36901002516E+03  0.12014462422E+04  0.25500000920E-02 0. -1.
       -2    1    3    3    0  502  0.95981394951E+03 -0.62133876147E+03 -0.62846147466E+03  0.13047101208E+04  0.25500000920E-02 0.  1.
</event>
<event>
 5   0  0.1825521E-06  0.2299666E+04  0.7818609E-02  0.8478053E-01
       -2   -1    0    0    0  501  0.00000000000E+00  0.00000000000E+00  0.54766239408E+03  0.54766239408E+03  0.25500000920E-02 0.  1.
        2   -1    0    0  501    0  0.00000000000E+00  0.00000000000E+00 -0.24141076234E+04  0.24141076234E+04  0.25500000920E-02 0. -1.
    10030    2    1    2    0    0  0.00000000000E+00  0.00000000000E+00 -0.18664452293E+04  0.29617700175E+04  0.22996660285E+04 0.  0.
        5    1    3    3  502    0 -0.10707535437E+04 -0.26895545025E+03 -0.51939610196E+03  0.12201002362E+04  0.46999998093E+01 0.  1.
       -5    1    3    3    0  502  0.10707535437E+04  0.26895545025E+03 -0.13470491274E+04  0.17416697813E+04  0.46999998093E+01 0. -1.
</event>
<event>
 5   0  0.1744876E-06  0.2300189E+04  0.7818609E-02  0.8477846E-01
       -2   -1    0    0    0  501  0.00000000000E+00  0.00000000000E+00  0.11763720712E+04  0.11763720712E+04  0.25500000920E-02 0. -1.
        2   -1    0    0  501    0  0.00000000000E+00  0.00000000000E+00 -0.11244042037E+04  0.11244042037E+04  0.25500000920E-02 0.  1.
    10030    2    1    2    0    0  0.00000000000E+00  0.00000000000E+00  0.51967867563E+02  0.23007762749E+04  0.23001892983E+04 0.  0.
        1    1    3    3  502    0  0.50352449687E+02  0.10514730405E+04 -0.43736939909E+03  0.11399223286E+04  0.50400001928E-02 0.  1.
       -1    1    3    3    0  502 -0.50352449687E+02 -0.10514730405E+04  0.48933726665E+03  0.11608539463E+04  0.50400001928E-02 0. -1.
</event>
<event>
 5   0  0.1888779E-06  0.2302407E+04  0.7818609E-02  0.8476973E-01
       -2   -1    0    0    0  501  0.00000000000E+00  0.00000000000E+00  0.11708676763E+04  0.11708676763E+04  0.25500000920E-02 0.  1.
        2   -1    0    0  501    0  0.00000000000E+00  0.00000000000E+00 -0.11318698478E+04  0.11318698478E+04  0.25500000920E-02 0. -1.
    10030    2    1    2    0    0  0.00000000000E+00  0.00000000000E+00  0.38997828504E+02  0.23027375240E+04  0.23024072780E+04 0.  0.
        4    1    3    3  502    0 -0.48407597186E+03 -0.10081698068E+04  0.29254411640E+03  0.11559928974E+04  0.12699999809E+01 0.  1.
       -4    1    3    3    0  502  0.48407597186E+03  0.10081698068E+04 -0.25354628789E+03  0.11467446267E+04  0.12699999809E+01 0. -1.
</event>
<event>
 5   0  0.1825521E-06  0.2299912E+04  0.7818609E-02  0.8477956E-01
        2   -1    0    0  501    0  0.00000000000E+00  0.00000000000E+00  0.98140452118E+03  0.98140452119E+03  0.25500000920E-02 0. -1.
       -2   -1    0    0    0  501  0.00000000000E+00  0.00000000000E+00 -0.13474553426E+04  0.13474553426E+04  0.25500000920E-02 0.  1.
    10030    2    1    2    0    0  0.00000000000E+00  0.00000000000E+00 -0.36605082139E+03  0.23288598638E+04  0.22999119681E+04 0.  0.
        5    1    3    3  502    0  0.88135495240E+03 -0.48871987716E+02 -0.92932410882E+03  0.12817333625E+04  0.46999998093E+01 0.  1.
       -5    1    3    3    0  502 -0.88135495240E+03  0.48871987716E+02  0.56327328743E+03  0.10471265013E+04  0.46999998093E+01 0. -1.
</event>
<event>
 5   0  0.1828646E-06  0.2303869E+04  0.7818609E-02  0.8476397E-01
        2   -1    0    0  501    0  0.00000000000E+00  0.00000000000E+00  0.20853313860E+04  0.20853313860E+04  0.25500000920E-02 0. -1.
       -2   -1    0    0    0  501  0.00000000000E+00  0.00000000000E+00 -0.63632730097E+03  0.63632730098E+03  0.25500000920E-02 0.  1.
    10030    2    1    2    0    0  0.00000000000E+00  0.00000000000E+00  0.14490040850E+04  0.27216586870E+04  0.23038691738E+04 0.  0.
        3    1    3    3  502    0 -0.80369688071E+03 -0.62285291986E+03  0.84961495670E+02  0.10203396012E+04  0.10100000352E+00 0. -1.
       -3    1    3    3    0  502  0.80369688071E+03  0.62285291986E+03  0.13640425893E+04  0.17013190858E+04  0.10100000352E+00 0.  1.
</event>
<event>
 5   0  0.7607231E-07  0.2300213E+04  0.7818609E-02  0.8477837E-01
       -1   -1    0    0    0  501  0.00000000000E+00  0.00000000000E+00  0.80772963933E+03  0.80772963934E+03  0.50400001928E-02 0. -1.
        1   -1    0    0  501    0  0.00000000000E+00  0.00000000000E+00 -0.16376086779E+04  0.16376086779E+04  0.50400001928E-02 0.  1.
    10030    2    1    2    0    0  0.00000000000E+00  0.00000000000E+00 -0.82987903860E+03  0.24453383173E+04  0.23002130917E+04 0.  0.
        2    1    3    3  502    0 -0.25199169591E+03  0.54941825093E+02  0.77659021091E+03  0.81829748541E+03  0.25500000920E-02 0. -1.
       -2    1    3    3    0  502  0.25199169591E+03 -0.54941825093E+02 -0.16064692495E+04  0.16270408319E+04  0.25500000920E-02 0.  1.
</event>
<event>
 5   0  0.1825521E-06  0.2300281E+04  0.7818609E-02  0.8477810E-01
        2   -1    0    0  501    0  0.00000000000E+00  0.00000000000E+00  0.27140657037E+04  0.27140657037E+04  0.25500000920E-02 0. -1.
       -2   -1    0    0    0  501  0.00000000000E+00  0.00000000000E+00 -0.48739524146E+03  0.48739524146E+03  0.25500000920E-02 0.  1.
    10030    2    1    2    0    0  0.00000000000E+00  0.00000000000E+00  0.22266704623E+04  0.32014609452E+04  0.23002805994E+04 0.  0.
        5    1    3    3  502    0 -0.76779266597E+03 -0.58863847368E+03  0.24774866912E+03  0.99870031724E+03  0.46999998093E+01 0.  1.
       -5    1    3    3    0  502  0.76779266597E+03  0.58863847368E+03  0.19789217931E+04  0.22027606279E+04  0.46999998093E+01 0. -1.
</event>
<event>
 5   0  0.7932912E-07  0.2300136E+04  0.7818609E-02  0.8477868E-01
        1   -1    0    0  501    0  0.00000000000E+00  0.00000000000E+00  0.17080689019E+04  0.17080689020E+04  0.50400001928E-02 0. -1.
       -1   -1    0    0    0  501  0.00000000000E+00  0.00000000000E+00 -0.77435748991E+03  0.77435748993E+03  0.50400001928E-02 0.  1.
    10030    2    1    2    0    0  0.00000000000E+00  0.00000000000E+00  0.93371141204E+03  0.24824263919E+04  0.23001356026E+04 0.  0.
        5    1    3    3  502    0  0.73108020038E+03  0.87293621552E+03  0.29237042432E+03  0.11755843019E+04  0.46999998093E+01 0.  1.
       -5    1    3    3    0  502 -0.73108020038E+03 -0.87293621552E+03  0.64134098771E+03  0.13068420900E+04  0.46999998093E+01 0. -1.
</event>
<event>
 5   0  0.7932912E-07  0.2298954E+04  0.7818609E-02  0.8478334E-01
       -1   -1    0    0    0  501  0.00000000000E+00  0.00000000000E+00  0.14809972669E+04  0.14809972669E+04  0.50400001928E-02 0.  1.
        1   -1    0    0  501    0  0.00000000000E+00  0.00000000000E+00 -0.89216731886E+03  0.89216731888E+03  0.50400001928E-02 0. -1.
    10030    2    1    2    0    0  0.00000000000E+00  0.00000000000E+00  0.58882994805E+03  0.23731645858E+04  0.22989539890E+04 0.  0.
        5    1    3    3  502    0 -0.11049669780E+04 -0.30352681060E+03  0.20096810839E+03  0.11633962428E+04  0.46999998093E+01 0. -1.
       -5    1    3    3    0  502  0.11049669780E+04  0.30352681060E+03  0.38786183967E+03  0.12097683430E+04  0.46999998093E+01 0.  1.
</event>
<event>
 5   0  0.7932912E-07  0.2297597E+04  0.7818609E-02  0.8478869E-01
        1   -1    0    0  501    0  0.00000000000E+00  0.00000000000E+00  0.10578547189E+04  0.10578547189E+04  0.50400001928E-02 0. -1.
       -1   -1    0    0    0  501  0.00000000000E+00  0.00000000000E+00 -0.12475607614E+04  0.12475607614E+04  0.50400001928E-02 0.  1.
    10030    2    1    2    0    0  0.00000000000E+00  0.00000000000E+00 -0.18970604254E+03  0.23054154803E+04  0.22975970391E+04 0.  0.
        5    1    3    3  502    0 -0.23601410776E+02 -0.11053745513E+04 -0.40785364568E+03  0.11784636658E+04  0.46999998093E+01 0. -1.
       -5    1    3    3    0  502  0.23601410776E+02  0.11053745513E+04  0.21814760314E+03  0.11269518145E+04  0.46999998093E+01 0.  1.
</event>
<event>
 5   0  0.8108242E-07  0.2300236E+04  0.7818609E-02  0.8477828E-01
       -1   -1    0    0    0  501  0.00000000000E+00  0.00000000000E+00  0.17270457562E+04  0.17270457562E+04  0.50400001928E-02 0. -1.
        1   -1    0    0  501    0  0.00000000000E+00  0.00000000000E+00 -0.76591537886E+03  0.76591537888E+03  0.50400001928E-02 0.  1.
    10030    2    1    2    0    0  0.00000000000E+00  0.00000000000E+00  0.96113037733E+03  0.24929611351E+04  0.23002355572E+04 0.  0.
        4    1    3    3  502    0 -0.73715187260E+03 -0.83330079933E+03  0.79651446581E+03  0.13682909093E+04  0.12699999809E+01 0. -1.
       -4    1    3    3    0  502  0.73715187260E+03  0.83330079933E+03  0.16461591152E+03  0.11246702257E+04  0.12699999809E+01 0.  1.
</event>
<event>
 5   0  0.1828646E-06  0.2300692E+04  0.7818609E-02  0.8477648E-01
        2   -1    0    0  501    0  0.00000000000E+00  0.00000000000E+00  0.11231390152E+04  0.11231390152E+04  0.25500000920E-02 0.  1.
       -2   -1    0    0    0  501  0.00000000000E+00  0.00000000000E+00 -0.11782123236E+04  0.11782123236E+04  0.25500000920E-02 0. -1.
    10030    2    1    2    0    0  0.00000000000E+00  0.00000000000E+00 -0.55073308354E+02  0.23013513388E+04  0.23006922687E+04 0.  0.
        3    1    3    3  502    0  0.92365153231E+03 -0.48026373530E+03 -0.51707526664E+03  0.11623907476E+04  0.10100000352E+00 0. -1.
       -3    1    3    3    0  502 -0.92365153231E+03  0.48026373530E+03  0.46200195829E+03  0.11389605912E+04  0.10100000352E+00 0.  1.
</event>
<event>
 5   0  0.1825521E-06  0.2298976E+04  0.7818609E-02  0.8478325E-01
        2   -1    0    0  501    0  0.00000000000E+00  0.00000000000E+00  0.13595357090E+04  0.13595357090E+04  0.25500000920E-02 0.  1.
       -2   -1    0    0    0  501  0.00000000000E+00  0.00000000000E+00 -0.97189255220E+03  0.97189255220E+03  0.25500000920E-02 0. -1.
    10030    2    1    2    0    0  0.00000000000E+00  0.00000000000E+00  0.38764315684E+03  0.23314282612E+04  0.22989759721E+04 0.  0.
        5    1    3    3  502    0  0.16505849216E+03  0.36171388623E+02 -0.95921886056E+03  0.97399978832E+03  0.46999998093E+01 0. -1.
       -5    1    3    3    0  502 -0.16505849216E+03 -0.36171388623E+02  0.13468620174E+04  0.13574284729E+04  0.46999998093E+01 0.  1.
</event>
<event>
 5   0  0.8108242E-07  0.2296667E+04  0.7818609E-02  0.8479236E-01
        1   -1    0    0  501    0  0.00000000000E+00  0.00000000000E+00  0.13264528414E+04  0.13264528415E+04  0.50400001928E-02 0.  1.
       -1   -1    0    0    0  501  0.00000000000E+00  0.00000000000E+00 -0.99413260192E+03  0.99413260193E+03  0.50400001928E-02 0. -1.
    10030    2    1    2    0    0  0.00000000000E+00  0.00000000000E+00  0.33232023953E+03  0.23205854434E+04  0.22966671632E+04 0.  0.
        4    1    3    3  502    0  0.26475973362E+03  0.20261700624E+03  0.12764749370E+04  0.13192957384E+04  0.12699999809E+01 0.  1.
       -4    1    3    3    0  502 -0.26475973362E+03 -0.20261700624E+03 -0.94415469742E+03  0.10012897050E+04  0.12699999809E+01 0. -1.
</event>
<event>
 5   0  0.1689444E-06  0.2300218E+04  0.7818609E-02  0.8477835E-01
       -2   -1    0    0    0  501  0.00000000000E+00  0.00000000000E+00  0.95811029114E+03  0.95811029114E+03  0.25500000920E-02 0.  1.
        2   -1    0    0  501    0  0.00000000000E+00  0.00000000000E+00 -0.13805832150E+04  0.13805832150E+04  0.25500000920E-02 0. -1.
    10030    2    1    2    0    0  0.00000000000E+00  0.00000000000E+00 -0.42247292389E+03  0.23386935062E+04  0.23002182384E+04 0.  0.
        2    1    3    3  502    0 -0.39236112736E+03 -0.30538354431E+03  0.84319531056E+03  0.97886908989E+03  0.25500000920E-02 0.  1.
       -2    1    3    3    0  502  0.39236112736E+03  0.30538354431E+03 -0.12656682344E+04  0.13598244163E+04  0.25500000920E-02 0. -1.
</event>
<event>
 5   0  0.1689444E-06  0.2301542E+04  0.7818609E-02  0.8477313E-01
       -2   -1    0    0    0  501  0.00000000000E+00  0.00000000000E+00  0.13165901854E+04  0.13165901854E+04  0.25500000920E-02 0.  1.
        2   -1    0    0  501    0  0.00000000000E+00  0.00000000000E+00 -0.10058363938E+04  0.10058363938E+04  0.25500000920E-02 0. -1.
    10030    2    1    2    0    0  0.00000000000E+00  0.00000000000E+00  0.31075379159E+03  0.23224265792E+04  0.23015423734E+04 0.  0.
        2    1    3    3  502    0  0.55305170162E+03  0.86029113003E+03  0.68771226918E+03  0.12324427688E+04  0.25500000920E-02 0.  1.
       -2    1    3    3    0  502 -0.55305170162E+03 -0.86029113003E+03 -0.37695847759E+03  0.10899838104E+04  0.25500000920E-02 0. -1.
</event>
<event>
 5   0  0.8108242E-07  0.2301691E+04  0.7818609E-02  0.8477255E-01
        1   -1    0    0  501    0  0.00000000000E+00  0.00000000000E+00  0.82486376660E+03  0.82486376662E+03  0.50400001928E-02 0. -1.
       -1   -1    0    0    0  501  0.00000000000E+00  0.00000000000E+00 -0.16056532296E+04  0.16056532296E+04  0.50400001928E-02 0.  1.
    10030    2    1    2    0    0  0.00000000000E+00  0.00000000000E+00 -0.78078946302E+03  0.24305169962E+04  0.23016908314E+04 0.  0.
        4    1    3    3  502    0  0.80355891943E+03  0.32988074808E+03  0.40678608224E+03  0.95916879356E+03  0.12699999809E+01 0. -1.
       -4    1    3    3    0  502 -0.80355891943E+03 -0.32988074808E+03 -0.11875755453E+04  0.14713482027E+04  0.12699999809E+01 0.  1.
</event>
<event>
 5   0  0.1825521E-06  0.2300372E+04  0.7818609E-02  0.8477774E-01
       -2   -1    0    0    0  501  0.00000000000E+00  0.00000000000E+00  0.10875149656E+04  0.10875149656E+04  0.25500000920E-02 0.  1.
        2   -1    0    0  501    0  0.00000000000E+00  0.00000000000E+00 -0.12164687453E+04  0.12164687453E+04  0.25500000920E-02 0. -1.
    10030    2    1    2    0    0  0.00000000000E+00  0.00000000000E+00 -0.12895377972E+03  0.23039837110E+04  0.23003721140E+04 0.  0.
        5    1    3    3  502    0  0.63370122334E+03  0.48116049131E+03  0.76737702661E+03  0.11054330599E+04  0.46999998093E+01 0.  1.
       -5    1    3    3    0  502 -0.63370122334E+03 -0.48116049131E+03 -0.89633080634E+03  0.11985506511E+04  0.46999998093E+01 0. -1.
</event>
<event>
 5   0  0.8097672E-07  0.2304657E+04  0.7818609E-02  0.8476087E-01
        1   -1    0    0  501    0  0.00000000000E+00  0.00000000000E+00  0.17375298694E+04  0.17375298694E+04  0.50400001928E-02 0. -1.
       -1   -1    0    0    0  501  0.00000000000E+00  0.00000000000E+00 -0.76422358499E+03  0.76422358501E+03  0.50400001928E-02 0.  1.
    10030    2    1    2    0    0  0.00000000000E+00  0.00000000000E+00  0.97330628438E+03  0.25017534544E+04  0.23046572898E+04 0.  0.
        3    1    3    3  502    0  0.26613898457E+01  0.11437755405E+04  0.63874900151E+03  0.13100495667E+04  0.10100000352E+00 0.  1.
       -3    1    3    3    0  502 -0.26613898457E+01 -0.11437755405E+04  0.33455728286E+03  0.11917038877E+04  0.10100000352E+00 0. -1.
</event>
<event>
 5   0  0.1888779E-06  0.2299144E+04  0.7818609E-02  0.8478259E-01
       -2   -1    0    0    0  501  0.00000000000E+00  0.00000000000E+00  0.65787967190E+03  0.65787967190E+03  0.25500000920E-02 0. -1.
        2   -1    0    0  501    0  0.00000000000E+00  0.00000000000E+00 -0.20087493158E+04  0.20087493158E+04  0.25500000920E-02 0.  1.
    10030    2    1    2    0    0  0.00000000000E+00  0.00000000000E+00 -0.13508696439E+04  0.26666289877E+04  0.22991436152E+04 0.  0.
        4    1    3    3  502    0  0.62669017374E+03 -0.87841597266E+03 -0.21563851493E+03  0.11003893751E+04  0.12699999809E+01 0. -1.
       -4    1    3    3    0  502 -0.62669017374E+03  0.87841597266E+03 -0.11352311290E+04  0.15662396126E+04  0.12699999809E+01 0.  1.
</event>
<event>
 5   0  0.6319125E-07  0.2300045E+04  0.7818609E-02  0.8477903E-01
        3   -1    0    0  501    0  0.00000000000E+00  0.00000000000E+00  0.17996467612E+04  0.17996467640E+04  0.10100000352E+00 0. -1.
       -3   -1    0    0    0  501  0.00000000000E+00  0.00000000000E+00 -0.73489510460E+03  0.73489511154E+03  0.10100000352E+00 0.  1.
    10030    2    1    2    0    0  0.00000000000E+00  0.00000000000E+00  0.10647516566E+04  0.25345418756E+04  0.23000448754E+04 0.  0.
        3    1    3    3  502    0  0.16246763938E+03  0.93422953315E+03 -0.18463173464E+03  0.96605871565E+03  0.10100000352E+00 0.  1.
       -3    1    3    3    0  502 -0.16246763938E+03 -0.93422953315E+03  0.12493833912E+04  0.15684831599E+04  0.10100000352E+00 0. -1.
</event>
<event>
 5   0  0.1825521E-06  0.2299885E+04  0.7818609E-02  0.8477966E-01
        2   -1    0    0  501    0  0.00000000000E+00  0.00000000000E+00  0.18834384985E+04  0.18834384985E+04  0.25500000920E-02 0. -1.
       -2   -1    0    0    0  501  0.00000000000E+00  0.00000000000E+00 -0.70210312357E+03  0.70210312357E+03  0.25500000920E-02 0.  1.
    10030    2    1    2    0    0  0.00000000000E+00  0.00000000000E+00  0.11813353750E+04  0.25855416221E+04  0.22998852605E+04 0.  0.
        5    1    3    3  502    0 -0.83720846851E+03  0.78143881232E+03  0.47393796647E+03  0.12394369380E+04  0.46999998093E+01 0. -1.
       -5    1    3    3    0  502  0.83720846851E+03 -0.78143881232E+03  0.70739740851E+03  0.13461046842E+04  0.46999998093E+01 0.  1.
</event>
<event>
 5   0  0.7761069E-07  0.2298677E+04  0.7818609E-02  0.8478443E-01
        1   -1    0    0  501    0  0.00000000000E+00  0.00000000000E+00  0.15384699077E+04  0.15384699077E+04  0.50400001928E-02 0. -1.
       -1   -1    0    0    0  501  0.00000000000E+00  0.00000000000E+00 -0.85863143327E+03  0.85863143328E+03  0.50400001928E-02 0.  1.
    10030    2    1    2    0    0  0.00000000000E+00  0.00000000000E+00  0.67983847439E+03  0.23971013409E+04  0.22986766818E+04 0.  0.
        1    1    3    3  502    0  0.29567631003E+02  0.26956577225E+03  0.15046300471E+04  0.15288726333E+04  0.50400001928E-02 0. -1.
       -1    1    3    3    0  502 -0.29567631003E+02 -0.26956577225E+03 -0.82479157267E+03  0.86822870763E+03  0.50400001928E-02 0.  1.
</event>
<event>
 5   0  0.7761069E-07  0.2301202E+04  0.7818609E-02  0.8477447E-01
        1   -1    0    0  501    0  0.00000000000E+00  0.00000000000E+00  0.18094246052E+04  0.18094246052E+04  0.50400001928E-02 0. -1.
       -1   -1    0    0    0  501  0.00000000000E+00  0.00000000000E+00 -0.73165972142E+03  0.73165972144E+03  0.50400001928E-02 0.  1.
    10030    2    1    2    0    0  0.00000000000E+00  0.00000000000E+00  0.10777648838E+04  0.25410843266E+04  0.23012023836E+04 0.  0.
        1    1    3    3  502    0 -0.88871486723E+03  0.66950640696E+03  0.86238984180E+03  0.14077532395E+04  0.50400001928E-02 0. -1.
       -1    1    3    3    0  502  0.88871486723E+03 -0.66950640696E+03  0.21537504196E+03  0.11333310871E+04  0.50400001928E-02 0.  1.
</event>
<event>
 5   0  0.8097672E-07  0.2299723E+04  0.7818609E-02  0.8478031E-01
       -1   -1    0    0    0  501  0.00000000000E+00  0.00000000000E+00  0.11437627753E+04  0.11437627753E+04  0.50400001928E-02 0.  1.
        1   -1    0    0  501    0  0.00000000000E+00  0.00000000000E+00 -0.11559923110E+04  0.11559923110E+04  0.50400001928E-02 0. -1.
    10030    2    1    2    0    0  0.00000000000E+00  0.00000000000E+00 -0.12229535621E+02  0.22997550863E+04  0.22997225692E+04 0.  0.
        3    1    3    3  502    0  0.16152545128E+03 -0.10545795372E+04  0.42278812806E+03  0.11475967424E+04  0.10100000352E+00 0.  1.
       -3    1    3    3    0  502 -0.16152545128E+03  0.10545795372E+04 -0.43501766368E+03  0.11521583440E+04  0.10100000352E+00 0. -1.
</event>
<event>
 5   0  0.1888779E-06  0.2297009E+04  0.7818609E-02  0.8479101E-01
        2   -1    0    0  501    0  0.00000000000E+00  0.00000000000E+00  0.12322842114E+04  0.12322842114E+04  0.25500000920E-02 0.  1.
       -2   -1    0    0    0  501  0.00000000000E+00  0.00000000000E+00 -0.10704210262E+04  0.10704210262E+04  0.25500000920E-02 0. -1.
    10030    2    1    2    0    0  0.00000000000E+00  0.00000000000E+00  0.16186318527E+03  0.23027052376E+04  0.22970092992E+04 0.  0.
        4    1    3    3  502    0 -0.40091949572E+03  0.63725837156E+03 -0.78852909677E+03  0.10902359486E+04  0.12699999809E+01 0. -1.
       -4    1    3    3    0  502  0.40091949572E+03 -0.63725837156E+03  0.95039228204E+03  0.12124692890E+04  0.12699999809E+01 0.  1.
</event>
<event>
 5   0  0.1744876E-06  0.2299931E+04  0.7818609E-02  0.8477948E-01
        2   -1    0    0  501    0  0.00000000000E+00  0.00000000000E+00  0.17035825544E+04  0.17035825544E+04  0.25500000920E-02 0.  1.
       -2   -1    0    0    0  501  0.00000000000E+00  0.00000000000E+00 -0.77625874065E+03  0.77625874065E+03  0.25500000920E-02 0. -1.
    10030    2    1    2    0    0  0.00000000000E+00  0.00000000000E+00  0.92732381377E+03  0.24798412951E+04  0.22999311714E+04 0.  0.
        1    1    3    3  502    0 -0.48045464237E+03 -0.53774101429E+03  0.14295117027E+04  0.16010951783E+04  0.50400001928E-02 0.  1.
       -1    1    3    3    0  502  0.48045464237E+03  0.53774101429E+03 -0.50218788896E+03  0.87874611673E+03  0.50400001928E-02 0. -1.
</event>
<event>
 5   0  0.1825521E-06  0.2299563E+04  0.7818609E-02  0.8478093E-01
        2   -1    0    0  501    0  0.00000000000E+00  0.00000000000E+00  0.14950310294E+04  0.14950310294E+04  0.25500000920E-02 0. -1.
       -2   -1    0    0    0  501  0.00000000000E+00  0.00000000000E+00 -0.88426083000E+03  0.88426083000E+03  0.25500000920E-02 0.  1.
    10030    2    1    2    0    0  0.00000000000E+00  0.00000000000E+00  0.61077019936E+03  0.23792918594E+04  0.22995628966E+04 0.  0.
        5    1    3    3  502    0  0.13187441376E+02 -0.72324901345E+03 -0.61930795833E+03  0.95227489798E+03  0.46999998093E+01 0.  1.
       -5    1    3    3    0  502 -0.13187441376E+02  0.72324901345E+03  0.12300781577E+04  0.14270169614E+04  0.46999998093E+01 0. -1.
</event>
<event>
 5   0  0.7607231E-07  0.2306654E+04  0.7818609E-02  0.8475302E-01
       -1   -1    0    0    0  501  0.00000000000E+00  0.00000000000E+00  0.19044537987E+04  0.19044537987E+04  0.50400001928E-02 0.  1.
        1   -1    0    0  501    0  0.00000000000E+00  0.00000000000E+00 -0.69844834453E+03  0.69844834455E+03  0.50400001928E-02 0. -1.
    10030    2    1    2    0    0  0.00000000000E+00  0.00000000000E+00  0.12060054541E+04  0.26029021432E+04  0.23066535093E+04 0.  0.
        2    1    3    3  502    0  0.21945928859E+03  0.29955771371E+02  0.18802279353E+04  0.18932292033E+04  0.25500000920E-02 0.  1.
       -2    1    3    3    0  502 -0.21945928859E+03 -0.29955771371E+02 -0.67422248115E+03  0.70967293993E+03  0.25500000920E-02 0. -1.
</event>
<event>
 5   0  0.7932912E-07  0.2303815E+04  0.7818609E-02  0.8476418E-01
        1   -1    0    0  501    0  0.00000000000E+00  0.00000000000E+00  0.12539451866E+04  0.12539451866E+04  0.50400001928E-02 0.  1.
       -1   -1    0    0    0  501  0.00000000000E+00  0.00000000000E+00 -0.10581732101E+04  0.10581732101E+04  0.50400001928E-02 0. -1.
    10030    2    1    2    0    0  0.00000000000E+00  0.00000000000E+00  0.19577197649E+03  0.23121183967E+04  0.23038152733E+04 0.  0.
        5    1    3    3  502    0  0.46677109543E+03  0.92168447334E+03 -0.41335310888E+03  0.11127714979E+04  0.46999998093E+01 0. -1.
       -5    1    3    3    0  502 -0.46677109543E+03 -0.92168447334E+03  0.60912508537E+03  0.11993468988E+04  0.46999998093E+01 0.  1.
</event>
<event>
 5   0  0.1888779E-06  0.2298975E+04  0.7818609E-02  0.8478326E-01
       -2   -1    0    0    0  501  0.00000000000E+00  0.00000000000E+00  0.11688729754E+04  0.11688729754E+04  0.25500000920E-02 0.  1.
        2   -1    0    0  501    0  0.00000000000E+00  0.00000000000E+00 -0.11304230846E+04  0.11304230846E+04  0.25500000920E-02 0. -1.
    10030    2    1    2    0    0  0.00000000000E+00  0.00000000000E+00  0.38449890769E+02  0.22992960601E+04  0.22989745492E+04 0.  0.
        4    1    3    3  502    0 -0.44607516652E+03  0.57308485878E+03 -0.87191597706E+03  0.11347459599E+04  0.12699999809E+01 0. -1.
       -4    1    3    3    0  502  0.44607516652E+03 -0.57308485878E+03  0.91036586783E+03  0.11645501002E+04  0.12699999809E+01 0.  1.
</event>
<event>
 5   0  0.8097672E-07  0.2299956E+04  0.7818609E-02  0.8477939E-01
        1   -1    0    0  501    0  0.00000000000E+00  0.00000000000E+00  0.14064105440E+04  0.14064105440E+04  0.50400001928E-02 0.  1.
       -1   -1    0    0    0  501  0.00000000000E+00  0.00000000000E+00 -0.94030088622E+03  0.94030088623E+03  0.50400001928E-02 0. -1.
    10030    2    1    2    0    0  0.00000000000E+00  0.00000000000E+00  0.46610965776E+03  0.23467114302E+04  0.22999557221E+04 0.  0.
        3    1    3    3  502    0  0.10913681807E+04 -0.35963547151E+03  0.27899108279E+03  0.11824796880E+04  0.10100000352E+00 0.  1.
       -3    1    3    3    0  502 -0.10913681807E+04  0.35963547151E+03  0.18711857497E+03  0.11642317422E+04  0.10100000352E+00 0. -1.
</event>
<event>
 5   0  0.1888779E-06  0.2295822E+04  0.7818609E-02  0.8479570E-01
        2   -1    0    0  501    0  0.00000000000E+00  0.00000000000E+00  0.96990208084E+03  0.96990208084E+03  0.25500000920E-02 0.  1.
       -2   -1    0    0    0  501  0.00000000000E+00  0.00000000000E+00 -0.13585909018E+04  0.13585909018E+04  0.25500000920E-02 0. -1.
    10030    2    1    2    0    0  0.00000000000E+00  0.00000000000E+00 -0.38868882096E+03  0.23284929826E+04  0.22958224171E+04 0.  0.
        4    1    3    3  502    0  0.23504315929E+03  0.75279893707E+03 -0.10403287303E+04  0.13054642877E+04  0.12699999809E+01 0. -1.
       -4    1    3    3    0  502 -0.23504315929E+03 -0.75279893707E+03  0.65163990934E+03  0.10230286950E+04  0.12699999809E+01 0.  1.
</event>
<event>
 5   0  0.7761069E-07  0.2291156E+04  0.7818609E-02  0.8481416E-01
       -1   -1    0    0    0  501  0.00000000000E+00  0.00000000000E+00  0.96990785591E+03  0.96990785592E+03  0.50400001928E-02 0.  1.
        1   -1    0    0  501    0  0.00000000000E+00  0.00000000000E+00 -0.13530652324E+04  0.13530652324E+04  0.50400001928E-02 0. -1.
    10030    2    1    2    0    0  0.00000000000E+00  0.00000000000E+00 -0.38315737645E+03  0.23229730883E+04  0.22911556896E+04 0.  0.
        1    1    3    3  502    0  0.72822376074E+02  0.57733333101E+03 -0.11920605901E+04  0.13265086973E+04  0.50400001928E-02 0. -1.
       -1    1    3    3    0  502 -0.72822376074E+02 -0.57733333101E+03  0.80890321360E+03  0.99646439101E+03  0.50400001928E-02 0.  1.
</event>
<event>
 5   0  0.7761069E-07  0.2301663E+04  0.7818609E-02  0.8477266E-01
        1   -1    0    0  501    0  0.00000000000E+00  0.00000000000E+00  0.10629253258E+04  0.10629253258E+04  0.50400001928E-02 0.  1.
       -1   -1    0    0    0  501  0.00000000000E+00  0.00000000000E+00 -0.12460076874E+04  0.12460076874E+04  0.50400001928E-02 0. -1.
    10030    2    1    2    0    0  0.00000000000E+00  0.00000000000E+00 -0.18308236163E+03  0.23089330132E+04  0.23016629876E+04 0.  0.
        1    1    3    3  502    0 -0.44647733428E+02 -0.47684182044E+02 -0.12441463666E+04  0.12458600976E+04  0.50400001928E-02 0. -1.
       -1    1    3    3    0  502  0.44647733428E+02  0.47684182044E+02  0.10610640049E+04  0.10630729156E+04  0.50400001928E-02 0.  1.
</event>
<event>
 5   0  0.1888779E-06  0.2300122E+04  0.7818609E-02  0.8477873E-01
       -2   -1    0    0    0  501  0.00000000000E+00  0.00000000000E+00  0.77321337483E+03  0.77321337483E+03  0.25500000920E-02 0. -1.
        2   -1    0    0  501    0  0.00000000000E+00  0.00000000000E+00 -0.17105761976E+04  0.17105761976E+04  0.25500000920E-02 0.  1.
    10030    2    1    2    0    0  0.00000000000E+00  0.00000000000E+00 -0.93736282275E+03  0.24837895724E+04  0.23001220791E+04 0.  0.
        4    1    3    3  502    0  0.56891994548E+03  0.87558147138E+03 -0.98917188708E+03  0.14383238344E+04  0.12699999809E+01 0.  1.
       -4    1    3    3    0  502 -0.56891994548E+03 -0.87558147138E+03  0.51809064333E+02  0.10454657381E+04  0.12699999809E+01 0. -1.
</event>
<event>
 5   0  0.1744876E-06  0.2294799E+04  0.7818609E-02  0.8479975E-01
       -2   -1    0    0    0  501  0.00000000000E+00  0.00000000000E+00  0.10704275716E+04  0.10704275716E+04  0.25500000920E-02 0. -1.
        2   -1    0    0  501    0  0.00000000000E+00  0.00000000000E+00 -0.12299061806E+04  0.12299061806E+04  0.25500000920E-02 0.  1.
    10030    2    1    2    0    0  0.00000000000E+00  0.00000000000E+00 -0.15947860899E+03  0.23003337522E+04  0.22947988898E+04 0.  0.
        1    1    3    3  502    0  0.26902643294E+03 -0.98820270496E+03 -0.59829317836E+03  0.11861174204E+04  0.50400001928E-02 0.  1.
       -1    1    3    3    0  502 -0.26902643294E+03  0.98820270496E+03  0.43881456937E+03  0.11142163318E+04  0.50400001928E-02 0. -1.
</event>
<event>
 5   0  0.1689444E-06  0.2299734E+04  0.7818609E-02  0.8478026E-01
        2   -1    0    0  501    0  0.00000000000E+00  0.00000000000E+00  0.13754961328E+04  0.13754961328E+04  0.25500000920E-02 0. -1.
       -2   -1    0    0    0  501  0.00000000000E+00  0.00000000000E+00 -0.96124859065E+03  0.96124859065E+03  0.25500000920E-02 0.  1.
    10030    2    1    2    0    0  0.00000000000E+00  0.00000000000E+00  0.41424754212E+03  0.23367447234E+04  0.22997336533E+04 0.  0.
        2    1    3    3  502    0 -0.27878758056E+03  0.54445716476E+03 -0.78221837663E+03  0.99298625775E+03  0.25500000920E-02 0.  1.
       -2    1    3    3    0  502  0.27878758056E+03 -0.54445716476E+03  0.11964659187E+04  0.13437584657E+04  0.25500000920E-02 0. -1.
</event>
<event>
 5   0  0.1888779E-06  0.2299186E+04  0.7818609E-02  0.8478242E-01
       -2   -1    0    0    0  501  0.00000000000E+00  0.00000000000E+00  0.47205020162E+03  0.47205020162E+03  0.25500000920E-02 0.  1.
        2   -1    0    0  501    0  0.00000000000E+00  0.00000000000E+00 -0.27996255031E+04  0.27996255031E+04  0.25500000920E-02 0. -1.
    10030    2    1    2    0    0  0.00000000000E+00  0.00000000000E+00 -0.23275753015E+04  0.32716757048E+04  0.22991857543E+04 0.  0.
        4    1    3    3  502    0  0.98594943228E+03 -0.15790056664E+03 -0.35315177352E+03  0.10591254222E+04  0.12699999809E+01 0.  1.
       -4    1    3    3    0  502 -0.98594943228E+03  0.15790056664E+03 -0.19744235280E+04  0.22125502826E+04  0.12699999809E+01 0. -1.
</event>
<event>
 5   0  0.7761069E-07  0.2300684E+04  0.7818609E-02  0.8477652E-01
       -1   -1    0    0    0  501  0.00000000000E+00  0.00000000000E+00  0.84765275296E+03  0.84765275298E+03  0.50400001928E-02 0.  1.
        1   -1    0    0  501    0  0.00000000000E+00  0.00000000000E+00 -0.15611186548E+04  0.15611186548E+04  0.50400001928E-02 0. -1.
    10030    2    1    2    0    0  0.00000000000E+00  0.00000000000E+00 -0.71346590185E+03  0.24087714078E+04  0.23006838335E+04 0.  0.
        1    1    3    3  502    0  0.58657942820E+02  0.11472058314E+04 -0.42097143405E+03  0.12234128175E+04  0.50400001928E-02 0. -1.
       -1    1    3    3    0  502 -0.58657942820E+02 -0.11472058314E+04 -0.29249446780E+03  0.11853585903E+04  0.50400001928E-02 0.  1.
</event>
<event>
 5   0  0.8097672E-07  0.2293667E+04  0.7818609E-02  0.8480422E-01
        1   -1    0    0  501    0  0.00000000000E+00  0.00000000000E+00  0.12147029132E+04  0.12147029132E+04  0.50400001928E-02 0. -1.
       -1   -1    0    0    0  501  0.00000000000E+00  0.00000000000E+00 -0.10827562947E+04  0.10827562948E+04  0.50400001928E-02 0.  1.
    10030    2    1    2    0    0  0.00000000000E+00  0.00000000000E+00  0.13194661841E+03  0.22974592079E+04  0.22936671297E+04 0.  0.
        3    1    3    3  502    0  0.10458611701E+04  0.47018988997E+03  0.83977884580E+02  0.11497636344E+04  0.10100000352E+00 0. -1.
       -3    1    3    3    0  502 -0.10458611701E+04 -0.47018988997E+03  0.47968733826E+02  0.11476955735E+04  0.10100000352E+00 0.  1.
</event>
<event>
 5   0  0.1689444E-06  0.2300498E+04  0.7818609E-02  0.8477725E-01
       -2   -1    0    0    0  501  0.00000000000E+00  0.00000000000E+00  0.99064553073E+03  0.99064553073E+03  0.25500000920E-02 0. -1.
        2   -1    0    0  501    0  0.00000000000E+00  0.00000000000E+00 -0.13355665499E+04  0.13355665499E+04  0.25500000920E-02 0.  1.
    10030    2    1    2    0    0  0.00000000000E+00  0.00000000000E+00 -0.34492101921E+03  0.23262120807E+04  0.23004982362E+04 0.  0.
        2    1    3    3  502    0  0.66733443402E+03 -0.91209623816E+03 -0.38890503216E+03  0.11951995308E+04  0.25500000920E-02 0.  1.
       -2    1    3    3    0  502 -0.66733443402E+03  0.91209623816E+03  0.43984012946E+02  0.11310125498E+04  0.25500000920E-02 0. -1.
</event>
<event>
 5   0  0.7607231E-07  0.2299590E+04  0.7818609E-02  0.8478083E-01
       -1   -1    0    0    0  501  0.00000000000E+00  0.00000000000E+00  0.90942318478E+03  0.90942318479E+03  0.50400001928E-02 0. -1.
        1   -1    0    0  501    0  0.00000000000E+00  0.00000000000E+00 -0.14537003425E+04  0.14537003425E+04  0.50400001928E-02 0.  1.
    10030    2    1    2    0    0  0.00000000000E+00  0.00000000000E+00 -0.54427715774E+03  0.23631235273E+04  0.22995902202E+04 0.  0.
        2    1    3    3  502    0 -0.98557878391E+03  0.30188720130E+03 -0.79565168289E+03  0.13021378660E+04  0.25500000920E-02 0.  1.
       -2    1    3    3    0  502  0.98557878391E+03 -0.30188720130E+03  0.25137452515E+03  0.10609856613E+04  0.25500000920E-02 0. -1.
</event>
<event>
 5   0  0.8108242E-07  0.2301655E+04  0.7818609E-02  0.8477269E-01
       -1   -1    0    0    0  501  0.00000000000E+00  0.00000000000E+00  0.62871241442E+03  0.62871241444E+03  0.50400001928E-02 0.  1.
        1   -1    0    0  501    0  0.00000000000E+00  0.00000000000E+00 -0.21065338119E+04  0.21065338119E+04  0.50400001928E-02 0. -1.
    10030    2    1    2    0    0  0.00000000000E+00  0.00000000000E+00 -0.14778213974E+04  0.27352462263E+04  0.23016550210E+04 0.  0.
        4    1    3    3  502    0  0.79836055511E+03 -0.29324784468E+02 -0.17233065845E+04  0.18994806438E+04  0.12699999809E+01 0. -1.
       -4    1    3    3    0  502 -0.79836055511E+03  0.29324784468E+02  0.24548518708E+03  0.83576558252E+03  0.12699999809E+01 0.  1.
</event>
<event>
 5   0  0.8108242E-07  0.2300017E+04  0.7818609E-02  0.8477914E-01
       -1   -1    0    0    0  501  0.00000000000E+00  0.00000000000E+00  0.64808347903E+03  0.64808347905E+03  0.50400001928E-02 0.  1.
        1   -1    0    0  501    0  0.00000000000E+00  0.00000000000E+00 -0.20406629823E+04  0.20406629823E+04  0.50400001928E-02 0. -1.
    10030    2    1    2    0    0  0.00000000000E+00  0.00000000000E+00 -0.13925795033E+04  0.26887464614E+04  0.23000173609E+04 0.  0.
        4    1    3    3  502    0 -0.48207159078E+03 -0.80669187603E+03 -0.14711719657E+04  0.17457071252E+04  0.12699999809E+01 0. -1.
       -4    1    3    3    0  502  0.48207159078E+03  0.80669187603E+03  0.78592462407E+02  0.94303933615E+03  0.12699999809E+01 0.  1.
</event>
<event>
 5   0  0.1689444E-06  0.2300359E+04  0.7818609E-02  0.8477780E-01
        2   -1    0    0  501    0  0.00000000000E+00  0.00000000000E+00  0.11948035226E+04  0.11948035226E+04  0.25500000920E-02 0.  1.
       -2   -1    0    0    0  501  0.00000000000E+00  0.00000000000E+00 -0.11072216660E+04  0.11072216660E+04  0.25500000920E-02 0. -1.
    10030    2    1    2    0    0  0.00000000000E+00  0.00000000000E+00  0.87581856642E+02  0.23020251886E+04  0.23003585345E+04 0.  0.
        2    1    3    3  502    0 -0.54256153173E+03  0.16830410988E+03  0.10446220480E+04  0.11890897831E+04  0.25500000920E-02 0.  1.
       -2    1    3    3    0  502  0.54256153173E+03 -0.16830410988E+03 -0.95704019132E+03  0.11129354055E+04  0.25500000920E-02 0. -1.
</event>
<event>
 5   0  0.7761069E-07  0.2300072E+04  0.7818609E-02  0.8477893E-01
        1   -1    0    0  501    0  0.00000000000E+00  0.00000000000E+00  0.24147887121E+04  0.24147887121E+04  0.50400001928E-02 0. -1.
       -1   -1    0    0    0  501  0.00000000000E+00  0.00000000000E+00 -0.54770106352E+03  0.54770106354E+03  0.50400001928E-02 0.  1.
    10030    2    1    2    0    0  0.00000000000E+00  0.00000000000E+00  0.18670876486E+04  0.29624897757E+04  0.23000716040E+04 0.  0.
        1    1    3    3  502    0  0.78094676569E+02  0.44608000987E+03 -0.42802164834E+03  0.62312814508E+03  0.50400001928E-02 0.  1.
       -1    1    3    3    0  502 -0.78094676569E+02 -0.44608000987E+03  0.22951092970E+04  0.23393616306E+04  0.50400001928E-02 0. -1.
</event>
<event>
 5   0  0.1689444E-06  0.2298811E+04  0.7818609E-02  0.8478390E-01
        2   -1    0    0  501    0  0.00000000000E+00  0.00000000000E+00  0.10610574039E+04  0.10610574039E+04  0.25500000920E-02 0.  1.
       -2   -1    0    0    0  501  0.00000000000E+00  0.00000000000E+00 -0.12451093223E+04  0.12451093223E+04  0.25500000920E-02 0. -1.
    10030    2    1    2    0    0  0.00000000000E+00  0.00000000000E+00 -0.18405191835E+03  0.23061667262E+04  0.22988105317E+04 0.  0.
        2    1    3    3  502    0  0.16968316106E+03 -0.78447040834E+03 -0.91742626022E+03  0.12189573986E+04  0.25500000920E-02 0. -1.
       -2    1    3    3    0  502 -0.16968316106E+03  0.78447040834E+03  0.73337434186E+03  0.10872093276E+04  0.25500000920E-02 0.  1.
</event>
<event>
 5   0  0.1689444E-06  0.2299921E+04  0.7818609E-02  0.8477952E-01
       -2   -1    0    0    0  501  0.00000000000E+00  0.00000000000E+00  0.95293345271E+03  0.95293345271E+03  0.25500000920E-02 0. -1.
        2   -1    0    0  501    0  0.00000000000E+00  0.00000000000E+00 -0.13877240637E+04  0.13877240638E+04  0.25500000920E-02 0.  1.
    10030    2    1    2    0    0  0.00000000000E+00  0.00000000000E+00 -0.43479061104E+03  0.23406575165E+04  0.22999205930E+04 0.  0.
        2    1    3    3  502    0 -0.28995593946E+03 -0.58069811326E+03  0.74869404358E+03  0.99087209895E+03  0.25500000920E-02 0. -1.
       -2    1    3    3    0  502  0.28995593946E+03  0.58069811326E+03 -0.11834846546E+04  0.13497854175E+04  0.25500000920E-02 0.  1.
</event>
<event>
 5   0  0.1689444E-06  0.2300147E+04  0.7818609E-02  0.8477863E-01
        2   -1    0    0  501    0  0.00000000000E+00  0.00000000000E+00  0.15382662555E+04  0.15382662555E+04  0.25500000920E-02 0.  1.
       -2   -1    0    0    0  501  0.00000000000E+00  0.00000000000E+00 -0.85984428893E+03  0.85984428893E+03  0.25500000920E-02 0. -1.
    10030    2    1    2    0    0  0.00000000000E+00  0.00000000000E+00  0.67842196662E+03  0.23981105445E+04  0.23001473472E+04 0.  0.
        2    1    3    3  502    0 -0.10907402589E+04 -0.32307129288E+03  0.16295442907E+03  0.11491925508E+04  0.25500000920E-02 0. -1.
       -2    1    3    3    0  502  0.10907402589E+04  0.32307129288E+03  0.51546753754E+03  0.12489179937E+04  0.25500000920E-02 0.  1.
</event>
<event>
 5   0  0.1744876E-06  0.2299620E+04  0.7818609E-02  0.8478071E-01
       -2   -1    0    0    0  501  0.00000000000E+00  0.00000000000E+00  0.93799047480E+03  0.93799047480E+03  0.25500000920E-02 0. -1.
        2   -1    0    0  501    0  0.00000000000E+00  0.00000000000E+00 -0.14094629348E+04  0.14094629348E+04  0.25500000920E-02 0.  1.
    10030    2    1    2    0    0  0.00000000000E+00  0.00000000000E+00 -0.47147246005E+03  0.23474534096E+04  0.22996198012E+04 0.  0.
        1    1    3    3  502    0 -0.48350557313E+03  0.77065365513E+03 -0.95348186386E+03  0.13178817702E+04  0.50400001928E-02 0.  1.
       -1    1    3    3    0  502  0.48350557313E+03 -0.77065365513E+03  0.48200940382E+03  0.10295716395E+04  0.50400001928E-02 0. -1.
</event>
<event>
 5   0  0.7607231E-07  0.2300319E+04  0.7818609E-02  0.8477795E-01
       -1   -1    0    0    0  501  0.00000000000E+00  0.00000000000E+00  0.10985683934E+04  0.10985683934E+04  0.50400001928E-02 0.  1.
        1   -1    0    0  501    0  0.00000000000E+00  0.00000000000E+00 -0.12041732128E+04  0.12041732128E+04  0.50400001928E-02 0. -1.
    10030    2    1    2    0    0  0.00000000000E+00  0.00000000000E+00 -0.10560481934E+03  0.23027416062E+04  0.23003187881E+04 0.  0.
        2    1    3    3  502    0 -0.60395408714E+03 -0.76272878801E+03 -0.66692299339E+03  0.11795346636E+04  0.25500000920E-02 0. -1.
       -2    1    3    3    0  502  0.60395408714E+03  0.76272878801E+03  0.56131817404E+03  0.11232069426E+04  0.25500000920E-02 0.  1.
</event>
<event>
 5   0  0.1888779E-06  0.2292069E+04  0.7818609E-02  0.8481055E-01
       -2   -1    0    0    0  501  0.00000000000E+00  0.00000000000E+00  0.79579311640E+03  0.79579311640E+03  0.25500000920E-02 0.  1.
        2   -1    0    0  501    0  0.00000000000E+00  0.00000000000E+00 -0.16504231428E+04  0.16504231428E+04  0.25500000920E-02 0. -1.
    10030    2    1    2    0    0  0.00000000000E+00  0.00000000000E+00 -0.85463002638E+03  0.24462162592E+04  0.22920692626E+04 0.  0.
        4    1    3    3  502    0  0.80600116814E+03  0.54638628098E+03 -0.10722904065E+04  0.14484419836E+04  0.12699999809E+01 0. -1.
       -4    1    3    3    0  502 -0.80600116814E+03 -0.54638628098E+03  0.21766038009E+03  0.99777427560E+03  0.12699999809E+01 0.  1.
</event>
<event>
 5   0  0.1825521E-06  0.2300480E+04  0.7818609E-02  0.8477732E-01
        2   -1    0    0  501    0  0.00000000000E+00  0.00000000000E+00  0.69512490574E+03  0.69512490575E+03  0.25500000920E-02 0.  1.
       -2   -1    0    0    0  501  0.00000000000E+00  0.00000000000E+00 -0.19033306432E+04  0.19033306432E+04  0.25500000920E-02 0. -1.
    10030    2    1    2    0    0  0.00000000000E+00  0.00000000000E+00 -0.12082057375E+04  0.25984555490E+04  0.23004804141E+04 0.  0.
        5    1    3    3  502    0 -0.20381070738E+03 -0.48815969138E+03 -0.17577654981E+04  0.18356471135E+04  0.46999998093E+01 0. -1.
       -5    1    3    3    0  502  0.20381070738E+03  0.48815969138E+03  0.54955976066E+03  0.76280843550E+03  0.46999998093E+01 0.  1.
</event>
<event>
 5   0  0.8097672E-07  0.2298973E+04  0.7818609E-02  0.8478326E-01
       -1   -1    0    0    0  501  0.00000000000E+00  0.00000000000E+00  0.87288879575E+03  0.87288879577E+03  0.50400001928E-02 0. -1.
        1   -1    0    0  501    0  0.00000000000E+00  0.00000000000E+00 -0.15137319823E+04  0.15137319823E+04  0.50400001928E-02 0.  1.
    10030    2    1    2    0    0  0.00000000000E+00  0.00000000000E+00 -0.64084318658E+03  0.23866207781E+04  0.22989734119E+04 0.  0.
        3    1    3    3  502    0  0.53887041442E+03  0.40978993675E+03 -0.12848223089E+04  0.14522663293E+04  0.10100000352E+00 0.  1.
       -3    1    3    3    0  502 -0.53887041442E+03 -0.40978993675E+03  0.64397912228E+03  0.93435444877E+03  0.10100000352E+00 0. -1.
</event>
<event>
 5   0  0.1825521E-06  0.2297607E+04  0.7818609E-02  0.8478865E-01
       -2   -1    0    0    0  501  0.00000000000E+00  0.00000000000E+00  0.95097644769E+03  0.95097644770E+03  0.25500000920E-02 0. -1.
        2   -1    0    0  501    0  0.00000000000E+00  0.00000000000E+00 -0.13877833627E+04  0.13877833627E+04  0.25500000920E-02 0.  1.
    10030    2    1    2    0    0  0.00000000000E+00  0.00000000000E+00 -0.43680691502E+03  0.23387598104E+04  0.22976068353E+04 0.  0.
        5    1    3    3  502    0  0.70564494341E+03 -0.34899267552E+03  0.63324007141E+03  0.10103196285E+04  0.46999998093E+01 0. -1.
       -5    1    3    3    0  502 -0.70564494341E+03  0.34899267552E+03 -0.10700469864E+04  0.13284401819E+04  0.46999998093E+01 0.  1.
</event>
<event>
 5   0  0.7932912E-07  0.2300018E+04  0.7818609E-02  0.8477914E-01
       -1   -1    0    0    0  501  0.00000000000E+00  0.00000000000E+00  0.93352221070E+03  0.93352221071E+03  0.50400001928E-02 0. -1.
        1   -1    0    0  501    0  0.00000000000E+00  0.00000000000E+00 -0.14167003233E+04  0.14167003233E+04  0.50400001928E-02 0.  1.
    10030    2    1    2    0    0  0.00000000000E+00  0.00000000000E+00 -0.48317811262E+03  0.23502225340E+04  0.23000184501E+04 0.  0.
        5    1    3    3  502    0 -0.68513503541E+03 -0.41743487524E+03 -0.10834890270E+04  0.13481959996E+04  0.46999998093E+01 0.  1.
       -5    1    3    3    0  502  0.68513503541E+03  0.41743487524E+03  0.60031091434E+03  0.10020265344E+04  0.46999998093E+01 0. -1.
</event>
<event>
 5   0  0.1825521E-06  0.2299832E+04  0.7818609E-02  0.8477987E-01
        2   -1    0    0  501    0  0.00000000000E+00  0.00000000000E+00  0.19265009084E+04  0.19265009084E+04  0.25500000920E-02 0. -1.
       -2   -1    0    0    0  501  0.00000000000E+00  0.00000000000E+00 -0.68637747095E+03  0.68637747095E+03  0.25500000920E-02 0.  1.
    10030    2    1    2    0    0  0.00000000000E+00  0.00000000000E+00  0.12401234375E+04  0.26128783794E+04  0.22998320124E+04 0.  0.
        5    1    3    3  502    0  0.91655654509E+03 -0.61518631382E+03  0.98601599298E+03  0.14801282814E+04  0.46999998093E+01 0.  1.
       -5    1    3    3    0  502 -0.91655654509E+03  0.61518631382E+03  0.25410744450E+03  0.11327500980E+04  0.46999998093E+01 0. -1.
</event>
<event>
 5   0  0.1689444E-06  0.2304432E+04  0.7818609E-02  0.8476176E-01
        2   -1    0    0  501    0  0.00000000000E+00  0.00000000000E+00  0.13435401939E+04  0.13435401939E+04  0.25500000920E-02 0. -1.
       -2   -1    0    0    0  501  0.00000000000E+00  0.00000000000E+00 -0.98813681524E+03  0.98813681525E+03  0.25500000920E-02 0.  1.
    10030    2    1    2    0    0  0.00000000000E+00  0.00000000000E+00  0.35540337865E+03  0.23316770091E+04  0.23044318418E+04 0.  0.
        2    1    3    3  502    0 -0.11737592104E+03 -0.52745311215E+02 -0.98084324851E+03  0.98924852937E+03  0.25500000920E-02 0.  1.
       -2    1    3    3    0  502  0.11737592104E+03  0.52745311215E+02  0.13362466272E+04  0.13424284798E+04  0.25500000920E-02 0. -1.
</event>
<event>
 5   0  0.7761069E-07  0.2300184E+04  0.7818609E-02  0.8477848E-01
        1   -1    0    0  501    0  0.00000000000E+00  0.00000000000E+00  0.15431839821E+04  0.15431839821E+04  0.50400001928E-02 0.  1.
       -1   -1    0    0    0  501  0.00000000000E+00  0.00000000000E+00 -0.85713175269E+03  0.85713175270E+03  0.50400001928E-02 0. -1.
    10030    2    1    2    0    0  0.00000000000E+00  0.00000000000E+00  0.68605222942E+03  0.24003157348E+04  0.23001843329E+04 0.  0.
        1    1    3    3  502    0  0.59412131113E+03 -0.56903501936E+03 -0.49565873330E+03  0.96044706544E+03  0.50400001928E-02 0. -1.
       -1    1    3    3    0  502 -0.59412131113E+03  0.56903501936E+03  0.11817109627E+04  0.14398686694E+04  0.50400001928E-02 0.  1.
</event>
<event>
 5   0  0.7761069E-07  0.2299655E+04  0.7818609E-02  0.8478057E-01
       -1   -1    0    0    0  501  0.00000000000E+00  0.00000000000E+00  0.13098562267E+04  0.13098562267E+04  0.50400001928E-02 0.  1.
        1   -1    0    0  501    0  0.00000000000E+00  0.00000000000E+00 -0.10093500072E+04  0.10093500073E+04  0.50400001928E-02 0. -1.
    10030    2    1    2    0    0  0.00000000000E+00  0.00000000000E+00  0.30050621948E+03  0.23192062340E+04  0.22996550976E+04 0.  0.
        1    1    3    3  502    0 -0.10793788643E+04  0.85629533084E+02  0.54046933345E+03  0.12101645550E+04  0.50400001928E-02 0.  1.
       -1    1    3    3    0  502  0.10793788643E+04 -0.85629533084E+02 -0.23996311397E+03  0.11090416790E+04  0.50400001928E-02 0. -1.
</event>
<event>
 5   0  0.1888779E-06  0.2300393E+04  0.7818609E-02  0.8477766E-01
       -2   -1    0    0    0  501  0.00000000000E+00  0.00000000000E+00  0.10101939683E+04  0.10101939683E+04  0.25500000920E-02 0. -1.
        2   -1    0    0  501    0  0.00000000000E+00  0.00000000000E+00 -0.13096019172E+04  0.13096019172E+04  0.25500000920E-02 0.  1.
    10030    2    1    2    0    0  0.00000000000E+00  0.00000000000E+00 -0.29940794895E+03  0.23197958855E+04  0.23003929731E+04 0.  0.
        4    1    3    3  502    0 -0.62605556410E+03  0.51583181303E+03  0.67260152730E+03  0.10537658450E+04  0.12699999809E+01 0. -1.
       -4    1    3    3    0  502  0.62605556410E+03 -0.51583181303E+03 -0.97200947625E+03  0.12660300405E+04  0.12699999809E+01 0.  1.
</event>
<event>
 5   0  0.1888779E-06  0.2299291E+04  0.7818609E-02  0.8478201E-01
       -2   -1    0    0    0  501  0.00000000000E+00  0.00000000000E+00  0.12064033700E+04  0.12064033700E+04  0.25500000920E-02 0.  1.
        2   -1    0    0  501    0  0.00000000000E+00  0.00000000000E+00 -0.10955576246E+04  0.10955576246E+04  0.25500000920E-02 0. -1.
    10030    2    1    2    0    0  0.00000000000E+00  0.00000000000E+00  0.11084574541E+03  0.23019609946E+04  0.22992906822E+04 0.  0.
        4    1    3    3  502    0  0.92766095801E+03  0.25352142018E+03 -0.57527289756E+03  0.11206107634E+04  0.12699999809E+01 0. -1.
       -4    1    3    3    0  502 -0.92766095801E+03 -0.25352142018E+03  0.68611864297E+03  0.11813502311E+04  0.12699999809E+01 0.  1.
</event>
<event>
 5   0  0.1744876E-06  0.2297584E+04  0.7818609E-02  0.8478874E-01
        2   -1    0    0  501    0  0.00000000000E+00  0.00000000000E+00  0.15297322983E+04  0.15297322983E+04  0.25500000920E-02 0.  1.
       -2   -1    0    0    0  501  0.00000000000E+00  0.00000000000E+00 -0.86271520882E+03  0.86271520883E+03  0.25500000920E-02 0. -1.
    10030    2    1    2    0    0  0.00000000000E+00  0.00000000000E+00  0.66701708944E+03  0.23924475071E+04  0.22975842262E+04 0.  0.
        1    1    3    3  502    0 -0.90458946119E+03 -0.69772036010E+03  0.20757065842E+03  0.11611121274E+04  0.50400001928E-02 0. -1.
       -1    1    3    3    0  502  0.90458946119E+03  0.69772036010E+03  0.45944643102E+03  0.12313353797E+04  0.50400001928E-02 0.  1.
</event>
<event>
 5   0  0.1825521E-06  0.2300276E+04  0.7818609E-02  0.8477812E-01
       -2   -1    0    0    0  501  0.00000000000E+00  0.00000000000E+00  0.79716670047E+03  0.79716670048E+03  0.25500000920E-02 0. -1.
        2   -1    0    0  501    0  0.00000000000E+00  0.00000000000E+00 -0.16593989826E+04  0.16593989826E+04  0.25500000920E-02 0.  1.
    10030    2    1    2    0    0  0.00000000000E+00  0.00000000000E+00 -0.86223228213E+03  0.24565656831E+04  0.23002761675E+04 0.  0.
        5    1    3    3  502    0 -0.57161400749E+03 -0.62724478024E+03 -0.12601438884E+04  0.15192640644E+04  0.46999998093E+01 0.  1.
       -5    1    3    3    0  502  0.57161400749E+03  0.62724478024E+03  0.39791160631E+03  0.93730161865E+03  0.46999998093E+01 0. -1.
</event>
<event>
 5   0  0.8097672E-07  0.2299448E+04  0.7818609E-02  0.8478139E-01
       -1   -1    0    0    0  501  0.00000000000E+00  0.00000000000E+00  0.61431590655E+03  0.61431590657E+03  0.50400001928E-02 0. -1.
        1   -1    0    0  501    0  0.00000000000E+00  0.00000000000E+00 -0.21517672889E+04  0.21517672889E+04  0.50400001928E-02 0.  1.
    10030    2    1    2    0    0  0.00000000000E+00  0.00000000000E+00 -0.15374513823E+04  0.27660831954E+04  0.22994476491E+04 0.  0.
        3    1    3    3  502    0 -0.32773029355E+02 -0.29753848830E+02  0.61329049935E+03  0.61488585101E+03  0.10100000352E+00 0. -1.
       -3    1    3    3    0  502  0.32773029355E+02  0.29753848830E+02 -0.21507418817E+04  0.21511973444E+04  0.10100000352E+00 0.  1.
</event>
<event>
 5   0  0.7761069E-07  0.2300178E+04  0.7818609E-02  0.8477851E-01
        1   -1    0    0  501    0  0.00000000000E+00  0.00000000000E+00  0.11731115096E+04  0.11731115096E+04  0.50400001928E-02 0. -1.
       -1   -1    0    0    0  501  0.00000000000E+00  0.00000000000E+00 -0.11275185250E+04  0.11275185250E+04  0.50400001928E-02 0.  1.
    10030    2    1    2    0    0  0.00000000000E+00  0.00000000000E+00  0.45592984554E+02  0.23006300346E+04  0.23001782183E+04 0.  0.
        1    1    3    3  502    0  0.40040336839E+03 -0.51679939088E+03 -0.92359256483E+03  0.11315598498E+04  0.50400001928E-02 0.  1.
       -1    1    3    3    0  502 -0.40040336839E+03  0.51679939088E+03  0.96918554938E+03  0.11690701848E+04  0.50400001928E-02 0. -1.
</event>
<event>
 5   0  0.1689444E-06  0.2300962E+04  0.7818609E-02  0.8477542E-01
       -2   -1    0    0    0  501  0.00000000000E+00  0.00000000000E+00  0.42327903714E+03  0.42327903715E+03  0.25500000920E-02 0. -1.
        2   -1    0    0  501    0  0.00000000000E+00  0.00000000000E+00 -0.31270319707E+04  0.31270319707E+04  0.25500000920E-02 0.  1.
    10030    2    1    2    0    0  0.00000000000E+00  0.00000000000E+00 -0.27037529336E+04  0.35503110079E+04  0.23009624784E+04 0.  0.
        2    1    3    3  502    0 -0.58738619672E+02  0.23033297591E+03 -0.30887288970E+04  0.30978621184E+04  0.25500000920E-02 0.  1.
       -2    1    3    3    0  502  0.58738619672E+02 -0.23033297591E+03  0.38497596340E+03  0.45244888953E+03  0.25500000920E-02 0. -1.
</event>
<event>
 5   0  0.7932912E-07  0.2291773E+04  0.7818609E-02  0.8481172E-01
       -1   -1    0    0    0  501  0.00000000000E+00  0.00000000000E+00  0.67667306344E+03  0.67667306346E+03  0.50400001928E-02 0.  1.
        1   -1    0    0  501    0  0.00000000000E+00  0.00000000000E+00 -0.19404586083E+04  0.19404586083E+04  0.50400001928E-02 0. -1.
    10030    2    1    2    0    0  0.00000000000E+00  0.00000000000E+00 -0.12637855449E+04  0.26171316718E+04  0.22917731747E+04 0.  0.
        5    1    3    3  502    0 -0.10667174038E+04  0.28367721334E+03 -0.28051680244E+03  0.11388900506E+04  0.46999998093E+01 0.  1.
       -5    1    3    3    0  502  0.10667174038E+04 -0.28367721334E+03 -0.98326874245E+03  0.14782416212E+04  0.46999998093E+01 0. -1.
</event>
<event>
 5   0  0.7761069E-07  0.2299960E+04  0.7818609E-02  0.8477937E-01
       -1   -1    0    0    0  501  0.00000000000E+00  0.00000000000E+00  0.44064151986E+03  0.44064151989E+03  0.50400001928E-02 0.  1.
        1   -1    0    0  501    0  0.00000000000E+00  0.00000000000E+00 -0.30012021240E+04  0.30012021241E+04  0.50400001928E-02 0. -1.
    10030    2    1    2    0    0  0.00000000000E+00  0.00000000000E+00 -0.25605606042E+04  0.34418436439E+04  0.22999602304E+04 0.  0.
        1    1    3    3  502    0  0.10197972017E+04 -0.49939132644E+03 -0.15524431566E+04  0.19233974587E+04  0.50400001928E-02 0. -1.
       -1    1    3    3    0  502 -0.10197972017E+04  0.49939132644E+03 -0.10081174476E+04  0.15184461853E+04  0.50400001928E-02 0.  1.
</event>
<event>
 5   0  0.7607231E-07  0.2296427E+04  0.7818609E-02  0.8479331E-01
       -1   -1    0    0    0  501  0.00000000000E+00  0.00000000000E+00  0.79316584552E+03  0.79316584553E+03  0.50400001928E-02 0.  1.
        1   -1    0    0  501    0  0.00000000000E+00  0.00000000000E+00 -0.16621921324E+04  0.16621921324E+04  0.50400001928E-02 0. -1.
    10030    2    1    2    0    0  0.00000000000E+00  0.00000000000E+00 -0.86902628685E+03  0.24553579779E+04  0.22964268141E+04 0.  0.
        2    1    3    3  502    0 -0.45317966910E+03  0.88465867321E+03  0.18007340261E+03  0.10101580128E+04  0.25500000920E-02 0. -1.
       -2    1    3    3    0  502  0.45317966910E+03 -0.88465867321E+03 -0.10490996895E+04  0.14451999651E+04  0.25500000920E-02 0.  1.
</event>
<event>
 5   0  0.1689444E-06  0.2298114E+04  0.7818609E-02  0.8478665E-01
       -2   -1    0    0    0  501  0.00000000000E+00  0.00000000000E+00  0.13251916521E+04  0.13251916521E+04  0.25500000920E-02 0.  1.
        2   -1    0    0  501    0  0.00000000000E+00  0.00000000000E+00 -0.99633327493E+03  0.99633327494E+03  0.25500000920E-02 0. -1.
    10030    2    1    2    0    0  0.00000000000E+00  0.00000000000E+00  0.32885837714E+03  0.23215249270E+04  0.22981144781E+04 0.  0.
        2    1    3    3  502    0  0.11388127679E+04  0.14222939964E+03  0.22165264823E+03  0.11688685208E+04  0.25500000920E-02 0. -1.
       -2    1    3    3    0  502 -0.11388127679E+04 -0.14222939964E+03  0.10720572891E+03  0.11526564062E+04  0.25500000920E-02 0.  1.
</event>
<event>
 5   0  0.1828646E-06  0.2299569E+04  0.7818609E-02  0.8478091E-01
       -2   -1    0    0    0  501  0.00000000000E+00  0.00000000000E+00  0.55049872355E+03  0.55049872356E+03  0.25500000920E-02 0.  1.
        2   -1    0    0  501    0  0.00000000000E+00  0.00000000000E+00 -0.24014664323E+04  0.24014664323E+04  0.25500000920E-02 0. -1.
    10030    2    1    2    0    0  0.00000000000E+00  0.00000000000E+00 -0.18509677088E+04  0.29519651559E+04  0.22995688341E+04 0.  0.
        3    1    3    3  502    0 -0.46779871197E+03  0.10260006516E+04 -0.63703238205E+03  0.12951151447E+04  0.10100000352E+00 0.  1.
       -3    1    3    3    0  502  0.46779871197E+03 -0.10260006516E+04 -0.12139353267E+04  0.16568500112E+04  0.10100000352E+00 0. -1.
</event>
<event>
 5   0  0.7932912E-07  0.2299877E+04  0.7818609E-02  0.8477970E-01
       -1   -1    0    0    0  501  0.00000000000E+00  0.00000000000E+00  0.80881137087E+03  0.80881137088E+03  0.50400001928E-02 0.  1.
        1   -1    0    0  501    0  0.00000000000E+00  0.00000000000E+00 -0.16349402438E+04  0.16349402438E+04  0.50400001928E-02 0. -1.
    10030    2    1    2    0    0  0.00000000000E+00  0.00000000000E+00 -0.82612887288E+03  0.24437516146E+04  0.22998767444E+04 0.  0.
        5    1    3    3  502    0  0.30925042640E+03 -0.79332546628E+03 -0.12342881822E+04  0.14994967584E+04  0.46999998093E+01 0. -1.
       -5    1    3    3    0  502 -0.30925042640E+03  0.79332546628E+03  0.40815930936E+03  0.94425485622E+03  0.46999998093E+01 0.  1.
</event>
<event>
 5   0  0.7761069E-07  0.2300389E+04  0.7818609E-02  0.8477768E-01
       -1   -1    0    0    0  501  0.00000000000E+00  0.00000000000E+00  0.70136910658E+03  0.70136910659E+03  0.50400001928E-02 0. -1.
        1   -1    0    0  501    0  0.00000000000E+00  0.00000000000E+00 -0.18862354096E+04  0.18862354096E+04  0.50400001928E-02 0.  1.
    10030    2    1    2    0    0  0.00000000000E+00  0.00000000000E+00 -0.11848663030E+04  0.25876045162E+04  0.23003888750E+04 0.  0.
        1    1    3    3  502    0 -0.64674699207E+03 -0.95070959111E+03 -0.56028421292E+03  0.12790812318E+04  0.50400001928E-02 0.  1.
       -1    1    3    3    0  502  0.64674699207E+03  0.95070959111E+03 -0.62458209007E+03  0.13085232843E+04  0.50400001928E-02 0. -1.
</event>
<event>
 5   0  0.8097672E-07  0.2287941E+04  0.7818609E-02  0.8482691E-01
        1   -1    0    0  501    0  0.00000000000E+00  0.00000000000E+00  0.85794030999E+03  0.85794031000E+03  0.50400001928E-02 0.  1.
       -1   -1    0    0    0  501  0.00000000000E+00  0.00000000000E+00 -0.15253612625E+04  0.15253612625E+04  0.50400001928E-02 0. -1.
    10030    2    1    2    0    0  0.00000000000E+00  0.00000000000E+00 -0.66742095246E+03  0.23833015725E+04  0.22879413580E+04 0.  0.
        3    1    3    3  502    0  0.31906885821E+03 -0.22784090576E+03  0.78576908860E+03  0.87815117458E+03  0.10100000352E+00 0.  1.
       -3    1    3    3    0  502 -0.31906885821E+03  0.22784090576E+03 -0.14531900411E+04  0.15051503979E+04  0.10100000352E+00 0. -1.
</event>
<event>
 5   0  0.1825521E-06  0.2299953E+04  0.7818609E-02  0.8477940E-01
        2   -1    0    0  501    0  0.00000000000E+00  0.00000000000E+00  0.12480431257E+04  0.12480431257E+04  0.25500000920E-02 0. -1.
       -2   -1    0    0    0  501  0.00000000000E+00  0.00000000000E+00 -0.10596156426E+04  0.10596156426E+04  0.25500000920E-02 0.  1.
    10030    2    1    2    0    0  0.00000000000E+00  0.00000000000E+00  0.18842748313E+03  0.23076587683E+04  0.22999530592E+04 0.  0.
        5    1    3    3  502    0 -0.11023566848E+04  0.49621182115E+02  0.41898232038E+03  0.11803477441E+04  0.46999998093E+01 0. -1.
       -5    1    3    3    0  502  0.11023566848E+04 -0.49621182115E+02 -0.23055483724E+03  0.11273110242E+04  0.46999998093E+01 0.  1.
</event>
<event>
 5   0  0.6319125E-07  0.2300279E+04  0.7818609E-02  0.8477811E-01
        3   -1    0    0  501    0  0.00000000000E+00  0.00000000000E+00  0.12160241445E+04  0.12160241487E+04  0.10100000352E+00 0. -1.
       -3   -1    0    0    0  501  0.00000000000E+00  0.00000000000E+00 -0.10878242637E+04  0.10878242684E+04  0.10100000352E+00 0.  1.
    10030    2    1    2    0    0  0.00000000000E+00  0.00000000000E+00  0.12819988084E+03  0.23038484171E+04  0.23002787482E+04 0.  0.
        2    1    3    3  502    0  0.27215868905E+03 -0.11143992905E+04  0.14708048509E+03  0.11565417415E+04  0.25500000920E-02 0.  1.
       -2    1    3    3    0  502 -0.27215868905E+03  0.11143992905E+04 -0.18880604243E+02  0.11473066756E+04  0.25500000920E-02 0. -1.
</event>
<event>
 5   0  0.1689444E-06  0.2300493E+04  0.7818609E-02  0.8477727E-01
        2   -1    0    0  501    0  0.00000000000E+00  0.00000000000E+00  0.96103416648E+03  0.96103416649E+03  0.25500000920E-02 0. -1.
       -2   -1    0    0    0  501  0.00000000000E+00  0.00000000000E+00 -0.13767123196E+04  0.13767123196E+04  0.25500000920E-02 0.  1.
    10030    2    1    2    0    0  0.00000000000E+00  0.00000000000E+00 -0.41567815313E+03  0.23377464861E+04  0.23004934919E+04 0.  0.
        2    1    3    3  502    0 -0.47758677222E+03  0.97896284072E+03 -0.58343250090E+03  0.12356580642E+04  0.25500000920E-02 0.  1.
       -2    1    3    3    0  502  0.47758677222E+03 -0.97896284072E+03  0.16775434777E+03  0.11020884219E+04  0.25500000920E-02 0. -1.
</event>
<event>
 5   0  0.1689444E-06  0.2298465E+04  0.7818609E-02  0.8478527E-01
       -2   -1    0    0    0  501  0.00000000000E+00  0.00000000000E+00  0.60310938346E+03  0.60310938347E+03  0.25500000920E-02 0. -1.
        2   -1    0    0  501    0  0.00000000000E+00  0.00000000000E+00 -0.21898770587E+04  0.21898770587E+04  0.25500000920E-02 0.  1.
    10030    2    1    2    0    0  0.00000000000E+00  0.00000000000E+00 -0.15867676752E+04  0.27929864422E+04  0.22984650554E+04 0.  0.
        2    1    3    3  502    0 -0.52130531826E+03 -0.50740850637E+03 -0.18744689499E+04  0.20106855725E+04  0.25500000920E-02 0.  1.
       -2    1    3    3    0  502  0.52130531826E+03  0.50740850637E+03  0.28770127472E+03  0.78230086965E+03  0.25500000920E-02 0. -1.
</event>
<event>
 5   0  0.1825521E-06  0.2298718E+04  0.7818609E-02  0.8478427E-01
        2   -1    0    0  501    0  0.00000000000E+00  0.00000000000E+00  0.17437133992E+04  0.17437133992E+04  0.25500000920E-02 0. -1.
       -2   -1    0    0    0  501  0.00000000000E+00  0.00000000000E+00 -0.75759331287E+03  0.75759331287E+03  0.25500000920E-02 0.  1.
    10030    2    1    2    0    0  0.00000000000E+00  0.00000000000E+00  0.98612008628E+03  0.25013067120E+04  0.22987175649E+04 0.  0.
        5    1    3    3  502    0  0.37173417029E+02 -0.16717182925E+03  0.17297419332E+04  0.17382052609E+04  0.46999998093E+01 0. -1.
       -5    1    3    3    0  502 -0.37173417029E+02  0.16717182925E+03 -0.74362184696E+03  0.76310145112E+03  0.46999998093E+01 0.  1.
</event>
<event>
 5   0  0.1744876E-06  0.2301766E+04  0.7818609E-02  0.8477225E-01
        2   -1    0    0  501    0  0.00000000000E+00  0.00000000000E+00  0.75541605156E+03  0.75541605156E+03  0.25500000920E-02 0.  1.
       -2   -1    0    0    0  501  0.00000000000E+00  0.00000000000E+00 -0.17533798451E+04  0.17533798451E+04  0.25500000920E-02 0. -1.
    10030    2    1    2    0    0  0.00000000000E+00  0.00000000000E+00 -0.99796379355E+03  0.25087958967E+04  0.23017656523E+04 0.  0.
        1    1    3    3  502    0  0.33604983649E+03  0.37385322428E+03 -0.16273954792E+04  0.17032650327E+04  0.50400001928E-02 0. -1.
       -1    1    3    3    0  502 -0.33604983649E+03 -0.37385322428E+03  0.62943168564E+03  0.80553086397E+03  0.50400001928E-02 0.  1.
</event>
<event>
 5   0  0.1689444E-06  0.2300355E+04  0.7818609E-02  0.8477781E-01
        2   -1    0    0  501    0  0.00000000000E+00  0.00000000000E+00  0.12884620130E+04  0.12884620130E+04  0.25500000920E-02 0. -1.
       -2   -1    0    0    0  501  0.00000000000E+00  0.00000000000E+00 -0.10267347833E+04  0.10267347833E+04  0.25500000920E-02 0.  1.
    10030    2    1    2    0    0  0.00000000000E+00  0.00000000000E+00  0.26172722975E+03  0.23151967963E+04  0.23003554210E+04 0.  0.
        2    1    3    3  502    0 -0.77544987322E+03 -0.34156231927E+03 -0.65192132106E+03  0.10691065114E+04  0.25500000920E-02 0.  1.
       -2    1    3    3    0  502  0.77544987322E+03  0.34156231927E+03  0.91364855081E+03  0.12460902849E+04  0.25500000920E-02 0. -1.
</event>
<event>
 5   0  0.1744876E-06  0.2300041E+04  0.7818609E-02  0.8477905E-01
       -2   -1    0    0    0  501  0.00000000000E+00  0.00000000000E+00  0.13442275638E+04  0.13442275638E+04  0.25500000920E-02 0. -1.
        2   -1    0    0  501    0  0.00000000000E+00  0.00000000000E+00 -0.98387123707E+03  0.98387123707E+03  0.25500000920E-02 0.  1.
    10030    2    1    2    0    0  0.00000000000E+00  0.00000000000E+00  0.36035632670E+03  0.23280988008E+04  0.23000407267E+04 0.  0.
        1    1    3    3  502    0  0.99082928095E+03 -0.46456910444E+03  0.53801550054E+03  0.12194374915E+04  0.50400001928E-02 0. -1.
       -1    1    3    3    0  502 -0.99082928095E+03  0.46456910444E+03 -0.17765917384E+03  0.11086613094E+04  0.50400001928E-02 0.  1.
</event>
<event>
 5   0  0.8108242E-07  0.2299009E+04  0.7818609E-02  0.8478312E-01
       -1   -1    0    0    0  501  0.00000000000E+00  0.00000000000E+00  0.14917490315E+04  0.14917490315E+04  0.50400001928E-02 0.  1.
        1   -1    0    0  501    0  0.00000000000E+00  0.00000000000E+00 -0.88577948857E+03  0.88577948859E+03  0.50400001928E-02 0. -1.
    10030    2    1    2    0    0  0.00000000000E+00  0.00000000000E+00  0.60596954288E+03  0.23775285201E+04  0.22990090858E+04 0.  0.
        4    1    3    3  502    0 -0.72511245974E+03 -0.26856920840E+03 -0.57661838981E+03  0.96457652850E+03  0.12699999809E+01 0. -1.
       -4    1    3    3    0  502  0.72511245974E+03  0.26856920840E+03  0.11825879327E+04  0.14129519916E+04  0.12699999809E+01 0.  1.
</event>
<event>
 5   0  0.8108242E-07  0.2299410E+04  0.7818609E-02  0.8478154E-01
       -1   -1    0    0    0  501  0.00000000000E+00  0.00000000000E+00  0.70442937156E+03  0.70442937158E+03  0.50400001928E-02 0.  1.
        1   -1    0    0  501    0  0.00000000000E+00  0.00000000000E+00 -0.18764430220E+04  0.18764430220E+04  0.50400001928E-02 0. -1.
    10030    2    1    2    0    0  0.00000000000E+00  0.00000000000E+00 -0.11720136504E+04  0.25808723936E+04  0.22994099928E+04 0.  0.
        4    1    3    3  502    0 -0.57126933954E+03 -0.72961785410E+03 -0.13498446319E+04  0.16373066342E+04  0.12699999809E+01 0. -1.
       -4    1    3    3    0  502  0.57126933954E+03  0.72961785410E+03  0.17783098148E+03  0.94356575934E+03  0.12699999809E+01 0.  1.
</event>
<event>
 5   0  0.8108242E-07  0.2300005E+04  0.7818609E-02  0.8477919E-01
       -1   -1    0    0    0  501  0.00000000000E+00  0.00000000000E+00  0.15127554538E+04  0.15127554538E+04  0.50400001928E-02 0.  1.
        1   -1    0    0  501    0  0.00000000000E+00  0.00000000000E+00 -0.87423665739E+03  0.87423665740E+03  0.50400001928E-02 0. -1.
    10030    2    1    2    0    0  0.00000000000E+00  0.00000000000E+00  0.63851879644E+03  0.23869921112E+04  0.23000054534E+04 0.  0.
        4    1    3    3  502    0  0.44280295795E+03  0.72635915829E+03 -0.48385021667E+03  0.97866476971E+03  0.12699999809E+01 0. -1.
       -4    1    3    3    0  502 -0.44280295795E+03 -0.72635915829E+03  0.11223690131E+04  0.14083273415E+04  0.12699999809E+01 0.  1.
</event>
<event>
 5   0  0.1888779E-06  0.2299135E+04  0.7818609E-02  0.8478262E-01
        2   -1    0    0  501    0  0.00000000000E+00  0.00000000000E+00  0.18357204125E+04  0.18357204125E+04  0.25500000920E-02 0.  1.
       -2   -1    0    0    0  501  0.00000000000E+00  0.00000000000E+00 -0.71988361654E+03  0.71988361655E+03  0.25500000920E-02 0. -1.
    10030    2    1    2    0    0  0.00000000000E+00  0.00000000000E+00  0.11158367960E+04  0.25556040291E+04  0.22991346629E+04 0.  0.
        4    1    3    3  502    0 -0.24398060859E+03 -0.88903066859E+03 -0.20541925253E+03  0.94451085185E+03  0.12699999809E+01 0. -1.
       -4    1    3    3    0  502  0.24398060859E+03  0.88903066859E+03  0.13212560485E+04  0.16110931772E+04  0.12699999809E+01 0.  1.
</event>
<event>
 5   0  0.7932912E-07  0.2300025E+04  0.7818609E-02  0.8477911E-01
       -1   -1    0    0    0  501  0.00000000000E+00  0.00000000000E+00  0.96995150859E+03  0.96995150860E+03  0.50400001928E-02 0. -1.
        1   -1    0    0  501    0  0.00000000000E+00  0.00000000000E+00 -0.13635002938E+04  0.13635002939E+04  0.50400001928E-02 0.  1.
    10030    2    1    2    0    0  0.00000000000E+00  0.00000000000E+00 -0.39354878526E+03  0.23334518025E+04  0.23000253625E+04 0.  0.
        5    1    3    3  502    0  0.19397569898E+03  0.51976196088E+03  0.82520240052E+03  0.99436419867E+03  0.46999998093E+01 0. -1.
       -5    1    3    3    0  502 -0.19397569898E+03 -0.51976196088E+03 -0.12187511858E+04  0.13390876038E+04  0.46999998093E+01 0.  1.
</event>
<event>
 5   0  0.7607231E-07  0.2300050E+04  0.7818609E-02  0.8477901E-01
        1   -1    0    0  501    0  0.00000000000E+00  0.00000000000E+00  0.11850615019E+04  0.11850615019E+04  0.50400001928E-02 0.  1.
       -1   -1    0    0    0  501  0.00000000000E+00  0.00000000000E+00 -0.11160247936E+04  0.11160247936E+04  0.50400001928E-02 0. -1.
    10030    2    1    2    0    0  0.00000000000E+00  0.00000000000E+00  0.69036708313E+02  0.23010862955E+04  0.23000504499E+04 0.  0.
        2    1    3    3  502    0  0.55503209957E+03 -0.49304362260E+03  0.91321076106E+03  0.11769054930E+04  0.25500000920E-02 0.  1.
       -2    1    3    3    0  502 -0.55503209957E+03  0.49304362260E+03 -0.84417405275E+03  0.11241808025E+04  0.25500000920E-02 0. -1.
</event>
<event>
 5   0  0.8108242E-07  0.2300103E+04  0.7818609E-02  0.8477880E-01
        1   -1    0    0  501    0  0.00000000000E+00  0.00000000000E+00  0.18239351209E+04  0.18239351209E+04  0.50400001928E-02 0. -1.
       -1   -1    0    0    0  501  0.00000000000E+00  0.00000000000E+00 -0.72514585861E+03  0.72514585863E+03  0.50400001928E-02 0.  1.
    10030    2    1    2    0    0  0.00000000000E+00  0.00000000000E+00  0.10987892623E+04  0.25490809795E+04  0.23001034754E+04 0.  0.
        4    1    3    3  502    0 -0.78219149551E+03 -0.22427816322E+03 -0.35128516167E+03  0.88629967159E+03  0.12699999809E+01 0.  1.
       -4    1    3    3    0  502  0.78219149551E+03  0.22427816322E+03  0.14500744240E+04  0.16627813080E+04  0.12699999809E+01 0. -1.
</event>
<event>
 5   0  0.8108242E-07  0.2299751E+04  0.7818609E-02  0.8478019E-01
        1   -1    0    0  501    0  0.00000000000E+00  0.00000000000E+00  0.15646763507E+04  0.15646763507E+04  0.50400001928E-02 0. -1.
       -1   -1    0    0    0  501  0.00000000000E+00  0.00000000000E+00 -0.84503989290E+03  0.84503989291E+03  0.50400001928E-02 0.  1.
    10030    2    1    2    0    0  0.00000000000E+00  0.00000000000E+00  0.71963645779E+03  0.24097162436E+04  0.22997512351E+04 0.  0.
        4    1    3    3  502    0  0.69793050575E+03  0.68096368984E+03  0.99837918465E+03  0.13955576473E+04  0.12699999809E+01 0. -1.
       -4    1    3    3    0  502 -0.69793050575E+03 -0.68096368984E+03 -0.27874272687E+03  0.10141585963E+04  0.12699999809E+01 0.  1.
</event>
<event>
 5   0  0.1828646E-06  0.2299888E+04  0.7818609E-02  0.8477965E-01
        2   -1    0    0  501    0  0.00000000000E+00  0.00000000000E+00  0.18762666656E+04  0.18762666656E+04  0.25500000920E-02 0.  1.
       -2   -1    0    0    0  501  0.00000000000E+00  0.00000000000E+00 -0.70478877451E+03  0.70478877451E+03  0.25500000920E-02 0. -1.
    10030    2    1    2    0    0  0.00000000000E+00  0.00000000000E+00  0.11714778911E+04  0.25810554402E+04  0.22998884181E+04 0.  0.
        3    1    3    3  502    0 -0.10261639977E+04  0.47051338479E+03  0.83155137823E+03  0.14020959668E+04  0.10100000352E+00 0. -1.
       -3    1    3    3    0  502  0.10261639977E+04 -0.47051338479E+03  0.33992651290E+03  0.11789594733E+04  0.10100000352E+00 0.  1.
</event>
<event>
 5   0  0.7607231E-07  0.2299622E+04  0.7818609E-02  0.8478070E-01
        1   -1    0    0  501    0  0.00000000000E+00  0.00000000000E+00  0.14087405262E+04  0.14087405262E+04  0.50400001928E-02 0.  1.
       -1   -1    0    0    0  501  0.00000000000E+00  0.00000000000E+00 -0.93847352600E+03  0.93847352601E+03  0.50400001928E-02 0. -1.
    10030    2    1    2    0    0  0.00000000000E+00  0.00000000000E+00  0.47026700022E+03  0.23472140522E+04  0.22996223071E+04 0.  0.
        2    1    3    3  502    0  0.50738862410E+03  0.70022624464E+03 -0.53837971756E+03  0.10186327748E+04  0.25500000920E-02 0. -1.
       -2    1    3    3    0  502 -0.50738862410E+03 -0.70022624464E+03  0.10086467178E+04  0.13285812775E+04  0.25500000920E-02 0.  1.
</event>
<event>
 5   0  0.1828646E-06  0.2298206E+04  0.7818609E-02  0.8478629E-01
       -2   -1    0    0    0  501  0.00000000000E+00  0.00000000000E+00  0.98898700395E+03  0.98898700395E+03  0.25500000920E-02 0.  1.
        2   -1    0    0  501    0  0.00000000000E+00  0.00000000000E+00 -0.13351414155E+04  0.13351414155E+04  0.25500000920E-02 0. -1.
    10030    2    1    2    0    0  0.00000000000E+00  0.00000000000E+00 -0.34615441159E+03  0.23241284195E+04  0.22982058293E+04 0.  0.
        3    1    3    3  502    0  0.63619897956E+03  0.58956063705E+03 -0.93530735233E+03  0.12755903496E+04  0.10100000352E+00 0. -1.
       -3    1    3    3    0  502 -0.63619897956E+03 -0.58956063705E+03  0.58915294074E+03  0.10485380699E+04  0.10100000352E+00 0.  1.
</event>
<event>
 5   0  0.7932912E-07  0.2309136E+04  0.7818609E-02  0.8474328E-01
       -1   -1    0    0    0  501  0.00000000000E+00  0.00000000000E+00  0.75842515707E+03  0.75842515708E+03  0.50400001928E-02 0.  1.
        1   -1    0    0  501    0  0.00000000000E+00  0.00000000000E+00 -0.17576253736E+04  0.17576253736E+04  0.50400001928E-02 0. -1.
    10030    2    1    2    0    0  0.00000000000E+00  0.00000000000E+00 -0.99920021650E+03  0.25160505307E+04  0.23091360289E+04 0.  0.
        5    1    3    3  502    0 -0.47169194812E+02  0.64724552005E+03  0.54087664007E+03  0.84482029209E+03  0.46999998093E+01 0.  1.
       -5    1    3    3    0  502  0.47169194812E+02 -0.64724552005E+03 -0.15400768566E+04  0.16712302386E+04  0.46999998093E+01 0. -1.
</event>
<event>
 5   0  0.1828646E-06  0.2299517E+04  0.7818609E-02  0.8478112E-01
        2   -1    0    0  501    0  0.00000000000E+00  0.00000000000E+00  0.10336487681E+04  0.10336487681E+04  0.25500000920E-02 0.  1.
       -2   -1    0    0    0  501  0.00000000000E+00  0.00000000000E+00 -0.12789103907E+04  0.12789103907E+04  0.25500000920E-02 0. -1.
    10030    2    1    2    0    0  0.00000000000E+00  0.00000000000E+00 -0.24526162262E+03  0.23125591588E+04  0.22995166013E+04 0.  0.
        3    1    3    3  502    0  0.26021714393E+03  0.79593466521E+03 -0.91495677401E+03  0.12403107924E+04  0.10100000352E+00 0. -1.
       -3    1    3    3    0  502 -0.26021714393E+03 -0.79593466521E+03  0.66969515139E+03  0.10722483664E+04  0.10100000352E+00 0.  1.
</event>
<event>
 5   0  0.8097672E-07  0.2298268E+04  0.7818609E-02  0.8478604E-01
        1   -1    0    0  501    0  0.00000000000E+00  0.00000000000E+00  0.11266324549E+04  0.11266324549E+04  0.50400001928E-02 0. -1.
       -1   -1    0    0    0  501  0.00000000000E+00  0.00000000000E+00 -0.11720852798E+04  0.11720852798E+04  0.50400001928E-02 0.  1.
    10030    2    1    2    0    0  0.00000000000E+00  0.00000000000E+00 -0.45452824881E+02  0.22987177347E+04  0.22982683187E+04 0.  0.
        3    1    3    3  502    0 -0.35791106883E+03 -0.59211102999E+03  0.89495695279E+03  0.11312134028E+04  0.10100000352E+00 0. -1.
       -3    1    3    3    0  502  0.35791106883E+03  0.59211102999E+03 -0.94040977767E+03  0.11675043320E+04  0.10100000352E+00 0.  1.
</event>
<event>
 5   0  0.7932912E-07  0.2298194E+04  0.7818609E-02  0.8478634E-01
        1   -1    0    0  501    0  0.00000000000E+00  0.00000000000E+00  0.22531657034E+04  0.22531657034E+04  0.50400001928E-02 0.  1.
       -1   -1    0    0    0  501  0.00000000000E+00  0.00000000000E+00 -0.58603050633E+03  0.58603050635E+03  0.50400001928E-02 0. -1.
    10030    2    1    2    0    0  0.00000000000E+00  0.00000000000E+00  0.16671351971E+04  0.28391962098E+04  0.22981939327E+04 0.  0.
        5    1    3    3  502    0  0.14734158088E+03  0.35010265833E+02 -0.57363558017E+03  0.59330862880E+03  0.46999998093E+01 0. -1.
       -5    1    3    3    0  502 -0.14734158088E+03 -0.35010265833E+02  0.22407707773E+04  0.22458875810E+04  0.46999998093E+01 0.  1.
</event>
<event>
 5   0  0.1828646E-06  0.2299641E+04  0.7818609E-02  0.8478063E-01
       -2   -1    0    0    0  501  0.00000000000E+00  0.00000000000E+00  0.61157107426E+03  0.61157107427E+03  0.25500000920E-02 0. -1.
        2   -1    0    0  501    0  0.00000000000E+00  0.00000000000E+00 -0.21617883777E+04  0.21617883777E+04  0.25500000920E-02 0.  1.
    10030    2    1    2    0    0  0.00000000000E+00  0.00000000000E+00 -0.15502173034E+04  0.27733594520E+04  0.22996410507E+04 0.  0.
        3    1    3    3  502    0  0.58357080826E+03  0.69078084525E+03  0.81364819004E+02  0.90793904442E+03  0.10100000352E+00 0. -1.
       -3    1    3    3    0  502 -0.58357080826E+03 -0.69078084525E+03 -0.16315821224E+04  0.18654204075E+04  0.10100000352E+00 0.  1.
</event>
<event>
 5   0  0.7761069E-07  0.2299715E+04  0.7818609E-02  0.8478034E-01
        1   -1    0    0  501    0  0.00000000000E+00  0.00000000000E+00  0.10679085614E+04  0.10679085614E+04  0.50400001928E-02 0.  1.
       -1   -1    0    0    0  501  0.00000000000E+00  0.00000000000E+00 -0.12380947995E+04  0.12380947995E+04  0.50400001928E-02 0. -1.
    10030    2    1    2    0    0  0.00000000000E+00  0.00000000000E+00 -0.17018623810E+03  0.23060033609E+04  0.22997147964E+04 0.  0.
        1    1    3    3  502    0  0.48647186239E+03 -0.10168496747E+04 -0.31272467737E+03  0.11698012044E+04  0.50400001928E-02 0. -1.
       -1    1    3    3    0  502 -0.48647186239E+03  0.10168496747E+04  0.14253843926E+03  0.11362021565E+04  0.50400001928E-02 0.  1.
</event>
<event>
 5   0  0.7607231E-07  0.2299917E+04  0.7818609E-02  0.8477954E-01
        1   -1    0    0  501    0  0.00000000000E+00  0.00000000000E+00  0.93902816923E+03  0.93902816924E+03  0.50400001928E-02 0. -1.
       -1   -1    0    0    0  501  0.00000000000E+00  0.00000000000E+00 -0.14082695732E+04  0.14082695732E+04  0.50400001928E-02 0.  1.
    10030    2    1    2    0    0  0.00000000000E+00  0.00000000000E+00 -0.46924140396E+03  0.23472977424E+04  0.22999172151E+04 0.  0.
        2    1    3    3  502    0  0.17529570491E+03  0.84373856929E+03  0.54249938008E+03  0.10182970759E+04  0.25500000920E-02 0. -1.
       -2    1    3    3    0  502 -0.17529570491E+03 -0.84373856929E+03 -0.10117407840E+04  0.13290006665E+04  0.25500000920E-02 0.  1.
</event>
<event>
 5   0  0.1689444E-06  0.2300708E+04  0.7818609E-02  0.8477642E-01
       -2   -1    0    0    0  501  0.00000000000E+00  0.00000000000E+00  0.65681206479E+03  0.65681206479E+03  0.25500000920E-02 0. -1.
        2   -1    0    0  501    0  0.00000000000E+00  0.00000000000E+00 -0.20147529448E+04  0.20147529448E+04  0.25500000920E-02 0.  1.
    10030    2    1    2    0    0  0.00000000000E+00  0.00000000000E+00 -0.13579408801E+04  0.26715650096E+04  0.23007077535E+04 0.  0.
        2    1    3    3  502    0  0.10184416602E+03 -0.10217990938E+04 -0.12810781493E+04  0.16418303343E+04  0.25500000920E-02 0.  1.
       -2    1    3    3    0  502 -0.10184416602E+03  0.10217990938E+04 -0.76862730797E+02  0.10297346753E+04  0.25500000920E-02 0. -1.
</event>
<event>
 5   0  0.1689444E-06  0.2299089E+04  0.7818609E-02  0.8478280E-01
        2   -1    0    0  501    0  0.00000000000E+00  0.00000000000E+00  0.17111442474E+04  0.17111442474E+04  0.25500000920E-02 0.  1.
       -2   -1    0    0    0  501  0.00000000000E+00  0.00000000000E+00 -0.77226237857E+03  0.77226237858E+03  0.25500000920E-02 0. -1.
    10030    2    1    2    0    0  0.00000000000E+00  0.00000000000E+00  0.93888186879E+03  0.24834066259E+04  0.22990887991E+04 0.  0.
        2    1    3    3  502    0  0.85945260387E+02  0.42566181714E+03 -0.68025663897E+03  0.80704625965E+03  0.25500000920E-02 0. -1.
       -2    1    3    3    0  502 -0.85945260387E+02 -0.42566181714E+03  0.16191385078E+04  0.16763603663E+04  0.25500000920E-02 0.  1.
</event>
<event>
 5   0  0.1888779E-06  0.2301011E+04  0.7818609E-02  0.8477523E-01
        2   -1    0    0  501    0  0.00000000000E+00  0.00000000000E+00  0.13534490975E+04  0.13534490975E+04  0.25500000920E-02 0.  1.
       -2   -1    0    0    0  501  0.00000000000E+00  0.00000000000E+00 -0.97799234748E+03  0.97799234748E+03  0.25500000920E-02 0. -1.
    10030    2    1    2    0    0  0.00000000000E+00  0.00000000000E+00  0.37545675003E+03  0.23314414450E+04  0.23010109605E+04 0.  0.
        4    1    3    3  502    0  0.89908458759E+03 -0.63584253700E+03 -0.14986320754E+03  0.11113547685E+04  0.12699999809E+01 0.  1.
       -4    1    3    3    0  502 -0.89908458759E+03  0.63584253700E+03  0.52531995757E+03  0.12200866765E+04  0.12699999809E+01 0. -1.
</event>
<event>
 5   0  0.1744876E-06  0.2300124E+04  0.7818609E-02  0.8477872E-01
        2   -1    0    0  501    0  0.00000000000E+00  0.00000000000E+00  0.20343663579E+04  0.20343663579E+04  0.25500000920E-02 0.  1.
       -2   -1    0    0    0  501  0.00000000000E+00  0.00000000000E+00 -0.65014956861E+03  0.65014956862E+03  0.25500000920E-02 0. -1.
    10030    2    1    2    0    0  0.00000000000E+00  0.00000000000E+00  0.13842167893E+04  0.26845159265E+04  0.23001238315E+04 0.  0.
        1    1    3    3  502    0 -0.67051849622E+03 -0.86133734041E+03  0.26944834225E+03  0.11243217853E+04  0.50400001928E-02 0. -1.
       -1    1    3    3    0  502  0.67051849622E+03  0.86133734041E+03  0.11147684471E+04  0.15601941412E+04  0.50400001928E-02 0.  1.
</event>
<event>
 5   0  0.1825521E-06  0.2300964E+04  0.7818609E-02  0.8477541E-01
        2   -1    0    0  501    0  0.00000000000E+00  0.00000000000E+00  0.15516933715E+04  0.15516933715E+04  0.25500000920E-02 0. -1.
       -2   -1    0    0    0  501  0.00000000000E+00  0.00000000000E+00 -0.85300892186E+03  0.85300892186E+03  0.25500000920E-02 0.  1.
    10030    2    1    2    0    0  0.00000000000E+00  0.00000000000E+00  0.69868444965E+03  0.24047022934E+04  0.23009635285E+04 0.  0.
        5    1    3    3  502    0  0.10333356251E+04 -0.20775250071E+03 -0.13257972063E+03  0.10623290865E+04  0.46999998093E+01 0.  1.
       -5    1    3    3    0  502 -0.10333356251E+04  0.20775250071E+03  0.83126417028E+03  0.13423732069E+04  0.46999998093E+01 0. -1.
</event>
<event>
 5   0  0.1689444E-06  0.2300918E+04  0.7818609E-02  0.8477559E-01
       -2   -1    0    0    0  501  0.00000000000E+00  0.00000000000E+00  0.66699231320E+03  0.66699231321E+03  0.25500000920E-02 0.  1.
        2   -1    0    0  501    0  0.00000000000E+00  0.00000000000E+00 -0.19843639451E+04  0.19843639451E+04  0.25500000920E-02 0. -1.
    10030    2    1    2    0    0  0.00000000000E+00  0.00000000000E+00 -0.13173716319E+04  0.26513562584E+04  0.23009176413E+04 0.  0.
        2    1    3    3  502    0 -0.78107137229E+03 -0.47104132589E+03  0.14924525483E+03  0.92424378029E+03  0.25500000920E-02 0.  1.
       -2    1    3    3    0  502  0.78107137229E+03  0.47104132589E+03 -0.14666168868E+04  0.17271124781E+04  0.25500000920E-02 0. -1.
</event>
<event>
 5   0  0.1744876E-06  0.2300075E+04  0.7818609E-02  0.8477892E-01
       -2   -1    0    0    0  501  0.00000000000E+00  0.00000000000E+00  0.10815769809E+04  0.10815769809E+04  0.25500000920E-02 0.  1.
        2   -1    0    0  501    0  0.00000000000E+00  0.00000000000E+00 -0.12228314449E+04  0.12228314449E+04  0.25500000920E-02 0. -1.
    10030    2    1    2    0    0  0.00000000000E+00  0.00000000000E+00 -0.14125446392E+03  0.23044084258E+04  0.23000750791E+04 0.  0.
        1    1    3    3  502    0  0.65045958065E+03 -0.66807381223E+01 -0.10208042396E+04  0.12104476833E+04  0.50400001928E-02 0. -1.
       -1    1    3    3    0  502 -0.65045958065E+03  0.66807381223E+01  0.87954977568E+03  0.10939607425E+04  0.50400001928E-02 0.  1.
</event>
<event>
 5   0  0.6319125E-07  0.2302047E+04  0.7818609E-02  0.8477114E-01
       -3   -1    0    0    0  501  0.00000000000E+00  0.00000000000E+00  0.10845603609E+04  0.10845603656E+04  0.10100000352E+00 0.  1.
        3   -1    0    0  501    0  0.00000000000E+00  0.00000000000E+00 -0.12215600800E+04  0.12215600842E+04  0.10100000352E+00 0. -1.
    10030    2    1    2    0    0  0.00000000000E+00  0.00000000000E+00 -0.13699971908E+03  0.23061204498E+04  0.23020474812E+04 0.  0.
        4    1    3    3  502    0  0.51698977648E+03 -0.18757815527E+03  0.94442216903E+03  0.10928855565E+04  0.12699999809E+01 0.  1.
       -4    1    3    3    0  502 -0.51698977648E+03  0.18757815527E+03 -0.10814218881E+04  0.12132348933E+04  0.12699999809E+01 0. -1.
</event>
<event>
 5   0  0.6319125E-07  0.2305322E+04  0.7818609E-02  0.8475826E-01
        3   -1    0    0  501    0  0.00000000000E+00  0.00000000000E+00  0.10771184536E+04  0.10771184584E+04  0.10100000352E+00 0. -1.
       -3   -1    0    0    0  501  0.00000000000E+00  0.00000000000E+00 -0.12335012817E+04  0.12335012858E+04  0.10100000352E+00 0.  1.
    10030    2    1    2    0    0  0.00000000000E+00  0.00000000000E+00 -0.15638282803E+03  0.23106197442E+04  0.23053216724E+04 0.  0.
        4    1    3    3  502    0 -0.19245407775E+03  0.66693669196E+03  0.84413113051E+03  0.10928870488E+04  0.12699999809E+01 0. -1.
       -4    1    3    3    0  502  0.19245407775E+03 -0.66693669196E+03 -0.10005139585E+04  0.12177326953E+04  0.12699999809E+01 0.  1.
</event>
<event>
 5   0  0.8097672E-07  0.2300879E+04  0.7818609E-02  0.8477575E-01
        1   -1    0    0  501    0  0.00000000000E+00  0.00000000000E+00  0.21386038020E+04  0.21386038020E+04  0.50400001928E-02 0.  1.
       -1   -1    0    0    0  501  0.00000000000E+00  0.00000000000E+00 -0.61886675386E+03  0.61886675388E+03  0.50400001928E-02 0. -1.
    10030    2    1    2    0    0  0.00000000000E+00  0.00000000000E+00  0.15197370481E+04  0.27574705558E+04  0.23008787823E+04 0.  0.
        3    1    3    3  502    0  0.38879609072E+03 -0.10764712745E+04  0.89941362626E+03  0.14556433926E+04  0.10100000352E+00 0.  1.
       -3    1    3    3    0  502 -0.38879609072E+03  0.10764712745E+04  0.62032342184E+03  0.13018271632E+04  0.10100000352E+00 0. -1.
</event>
<event>
 5   0  0.1825521E-06  0.2316249E+04  0.7818609E-02  0.8471542E-01
       -2   -1    0    0    0  501  0.00000000000E+00  0.00000000000E+00  0.15417881218E+04  0.15417881218E+04  0.25500000920E-02 0.  1.
        2   -1    0    0  501    0  0.00000000000E+00  0.00000000000E+00 -0.86993277317E+03  0.86993277317E+03  0.25500000920E-02 0. -1.
    10030    2    1    2    0    0  0.00000000000E+00  0.00000000000E+00  0.67185534866E+03  0.24117208950E+04  0.23162487055E+04 0.  0.
        5    1    3    3  502    0  0.14421715326E+03 -0.64218798384E+03  0.13281088485E+04  0.14822615145E+04  0.46999998093E+01 0.  1.
       -5    1    3    3    0  502 -0.14421715326E+03  0.64218798384E+03 -0.65625349986E+03  0.92945938048E+03  0.46999998093E+01 0. -1.
</event>
<event>
 5   0  0.8108242E-07  0.2300559E+04  0.7818609E-02  0.8477701E-01
        1   -1    0    0  501    0  0.00000000000E+00  0.00000000000E+00  0.13986036840E+04  0.13986036840E+04  0.50400001928E-02 0.  1.
       -1   -1    0    0    0  501  0.00000000000E+00  0.00000000000E+00 -0.94604576212E+03  0.94604576213E+03  0.50400001928E-02 0. -1.
    10030    2    1    2    0    0  0.00000000000E+00  0.00000000000E+00  0.45255792188E+03  0.23446494461E+04  0.23005591391E+04 0.  0.
        4    1    3    3  502    0  0.91745631484E+03  0.12148020937E+03  0.92249472003E+03  0.13067064140E+04  0.12699999809E+01 0.  1.
       -4    1    3    3    0  502 -0.91745631484E+03 -0.12148020937E+03 -0.46993679815E+03  0.10379430322E+04  0.12699999809E+01 0. -1.
</event>
<event>
 5   0  0.1744876E-06  0.2299136E+04  0.7818609E-02  0.8478262E-01
        2   -1    0    0  501    0  0.00000000000E+00  0.00000000000E+00  0.12707841897E+04  0.12707841897E+04  0.25500000920E-02 0.  1.
       -2   -1    0    0    0  501  0.00000000000E+00  0.00000000000E+00 -0.10399146938E+04  0.10399146938E+04  0.25500000920E-02 0. -1.
    10030    2    1    2    0    0  0.00000000000E+00  0.00000000000E+00  0.23086949586E+03  0.23106988835E+04  0.22991364914E+04 0.  0.
        1    1    3    3  502    0 -0.10656354256E+04 -0.14277877282E+03  0.52435005897E+03  0.11962055102E+04  0.50400001928E-02 0.  1.
       -1    1    3    3    0  502  0.10656354256E+04  0.14277877282E+03 -0.29348056311E+03  0.11144933733E+04  0.50400001928E-02 0. -1.
</event>
<event>
 5   0  0.1689444E-06  0.2299885E+04  0.7818609E-02  0.8477966E-01
       -2   -1    0    0    0  501  0.00000000000E+00  0.00000000000E+00  0.11998036546E+04  0.11998036546E+04  0.25500000920E-02 0. -1.
        2   -1    0    0  501    0  0.00000000000E+00  0.00000000000E+00 -0.11021536984E+04  0.11021536984E+04  0.25500000920E-02 0.  1.
    10030    2    1    2    0    0  0.00000000000E+00  0.00000000000E+00  0.97649956223E+02  0.23019573529E+04  0.22998852451E+04 0.  0.
        2    1    3    3  502    0  0.11350316879E+04 -0.35845745370E+02 -0.13240771732E+03  0.11432907127E+04  0.25500000920E-02 0.  1.
       -2    1    3    3    0  502 -0.11350316879E+04  0.35845745370E+02  0.23005767354E+03  0.11586666403E+04  0.25500000920E-02 0. -1.
</event>
<event>
 5   0  0.7932912E-07  0.2300416E+04  0.7818609E-02  0.8477757E-01
       -1   -1    0    0    0  501  0.00000000000E+00  0.00000000000E+00  0.60797203718E+03  0.60797203720E+03  0.50400001928E-02 0. -1.
        1   -1    0    0  501    0  0.00000000000E+00  0.00000000000E+00 -0.21760516058E+04  0.21760516058E+04  0.50400001928E-02 0.  1.
    10030    2    1    2    0    0  0.00000000000E+00  0.00000000000E+00 -0.15680795687E+04  0.27840236430E+04  0.23004160735E+04 0.  0.
        5    1    3    3  502    0 -0.45290710119E+02 -0.34170695694E+02  0.60626594688E+03  0.60893297924E+03  0.46999998093E+01 0. -1.
       -5    1    3    3    0  502  0.45290710119E+02  0.34170695694E+02 -0.21743455155E+04  0.21750906638E+04  0.46999998093E+01 0.  1.
</event>
<event>
 5   0  0.1689444E-06  0.2300629E+04  0.7818609E-02  0.8477673E-01
       -2   -1    0    0    0  501  0.00000000000E+00  0.00000000000E+00  0.59939058968E+03  0.59939058968E+03  0.25500000920E-02 0. -1.
        2   -1    0    0  501    0  0.00000000000E+00  0.00000000000E+00 -0.22076143214E+04  0.22076143214E+04  0.25500000920E-02 0.  1.
    10030    2    1    2    0    0  0.00000000000E+00  0.00000000000E+00 -0.16082237317E+04  0.28070049111E+04  0.23006288270E+04 0.  0.
        2    1    3    3  502    0  0.79415528053E+02  0.78303273980E+03  0.21944950783E+03  0.81707110106E+03  0.25500000920E-02 0. -1.
       -2    1    3    3    0  502 -0.79415528053E+02 -0.78303273980E+03 -0.18276732395E+04  0.19899338100E+04  0.25500000920E-02 0.  1.
</event>
<event>
 5   0  0.1825521E-06  0.2299157E+04  0.7818609E-02  0.8478254E-01
       -2   -1    0    0    0  501  0.00000000000E+00  0.00000000000E+00  0.81634209646E+03  0.81634209647E+03  0.25500000920E-02 0. -1.
        2   -1    0    0  501    0  0.00000000000E+00  0.00000000000E+00 -0.16188442802E+04  0.16188442802E+04  0.25500000920E-02 0.  1.
    10030    2    1    2    0    0  0.00000000000E+00  0.00000000000E+00 -0.80250218376E+03  0.24351863767E+04  0.22991570051E+04 0.  0.
        5    1    3    3  502    0  0.30919806698E+02  0.10228557359E+04 -0.95599344543E+03  0.14004054587E+04  0.46999998093E+01 0. -1.
       -5    1    3    3    0  502 -0.30919806698E+02 -0.10228557359E+04  0.15349126167E+03  0.10347809180E+04  0.46999998093E+01 0.  1.
</event>
<event>
 5   0  0.8108242E-07  0.2300359E+04  0.7818609E-02  0.8477780E-01
        1   -1    0    0  501    0  0.00000000000E+00  0.00000000000E+00  0.12633119996E+04  0.12633119996E+04  0.50400001928E-02 0. -1.
       -1   -1    0    0    0  501  0.00000000000E+00  0.00000000000E+00 -0.10471784176E+04  0.10471784176E+04  0.50400001928E-02 0.  1.
    10030    2    1    2    0    0  0.00000000000E+00  0.00000000000E+00  0.21613358203E+03  0.23104904172E+04  0.23003591552E+04 0.  0.
        4    1    3    3  502    0 -0.96846269528E+03  0.47883260799E+03  0.50440676521E+03  0.11923206181E+04  0.12699999809E+01 0. -1.
       -4    1    3    3    0  502  0.96846269528E+03 -0.47883260799E+03 -0.28827318318E+03  0.11181697991E+04  0.12699999809E+01 0.  1.
</event>
<event>
 5   0  0.1744876E-06  0.2296832E+04  0.7818609E-02  0.8479171E-01
       -2   -1    0    0    0  501  0.00000000000E+00  0.00000000000E+00  0.65560219350E+03  0.65560219350E+03  0.25500000920E-02 0.  1.
        2   -1    0    0  501    0  0.00000000000E+00  0.00000000000E+00 -0.20116758772E+04  0.20116758772E+04  0.25500000920E-02 0. -1.
    10030    2    1    2    0    0  0.00000000000E+00  0.00000000000E+00 -0.13560736837E+04  0.26672780707E+04  0.22968318334E+04 0.  0.
        1    1    3    3  502    0 -0.20202042416E+03 -0.49675287479E+03 -0.18573472167E+04  0.19332134786E+04  0.50400001928E-02 0. -1.
       -1    1    3    3    0  502  0.20202042416E+03  0.49675287479E+03  0.50127353304E+03  0.73406459208E+03  0.50400001928E-02 0.  1.
</event>
<event>
 5   0  0.7932912E-07  0.2306676E+04  0.7818609E-02  0.8475294E-01
       -1   -1    0    0    0  501  0.00000000000E+00  0.00000000000E+00  0.80099035460E+03  0.80099035462E+03  0.50400001928E-02 0.  1.
        1   -1    0    0  501    0  0.00000000000E+00  0.00000000000E+00 -0.16606793094E+04  0.16606793094E+04  0.50400001928E-02 0. -1.
    10030    2    1    2    0    0  0.00000000000E+00  0.00000000000E+00 -0.85968895478E+03  0.24616696640E+04  0.23066756243E+04 0.  0.
        5    1    3    3  502    0 -0.38727918746E+03  0.11100614506E+03 -0.15831340298E+04  0.16335981696E+04  0.46999998093E+01 0. -1.
       -5    1    3    3    0  502  0.38727918746E+03 -0.11100614506E+03  0.72344507504E+03  0.82807149443E+03  0.46999998093E+01 0.  1.
</event>
<event>
 5   0  0.8097672E-07  0.2300646E+04  0.7818609E-02  0.8477666E-01
       -1   -1    0    0    0  501  0.00000000000E+00  0.00000000000E+00  0.10141758391E+04  0.10141758391E+04  0.50400001928E-02 0. -1.
        1   -1    0    0  501    0  0.00000000000E+00  0.00000000000E+00 -0.13047474481E+04  0.13047474481E+04  0.50400001928E-02 0.  1.
    10030    2    1    2    0    0  0.00000000000E+00  0.00000000000E+00 -0.29057160896E+03  0.23189232872E+04  0.23006462901E+04 0.  0.
        3    1    3    3  502    0  0.26759033907E+03  0.61944518707E+03 -0.10843125824E+04  0.12771259593E+04  0.10100000352E+00 0.  1.
       -3    1    3    3    0  502 -0.26759033907E+03 -0.61944518707E+03  0.79374097344E+03  0.10417973279E+04  0.10100000352E+00 0. -1.
</event>
<event>
 5   0  0.8097672E-07  0.2299427E+04  0.7818609E-02  0.8478147E-01
        1   -1    0    0  501    0  0.00000000000E+00  0.00000000000E+00  0.17753737290E+04  0.17753737291E+04  0.50400001928E-02 0.  1.
       -1   -1    0    0    0  501  0.00000000000E+00  0.00000000000E+00 -0.74454249074E+03  0.74454249076E+03  0.50400001928E-02 0. -1.
    10030    2    1    2    0    0  0.00000000000E+00  0.00000000000E+00  0.10308312383E+04  0.25199162198E+04  0.22994270402E+04 0.  0.
        3    1    3    3  502    0  0.11274170974E+03  0.83744519176E+03 -0.33896726798E+03  0.91045261341E+03  0.10100000352E+00 0. -1.
       -3    1    3    3    0  502 -0.11274170974E+03 -0.83744519176E+03  0.13697985063E+04  0.16094636064E+04  0.10100000352E+00 0.  1.
</event>
<event>
 5   0  0.8108242E-07  0.2299453E+04  0.7818609E-02  0.8478137E-01
       -1   -1    0    0    0  501  0.00000000000E+00  0.00000000000E+00  0.20956868464E+04  0.20956868465E+04  0.50400001928E-02 0. -1.
        1   -1    0    0  501    0  0.00000000000E+00  0.00000000000E+00 -0.63075771971E+03  0.63075771973E+03  0.50400001928E-02 0.  1.
    10030    2    1    2    0    0  0.00000000000E+00  0.00000000000E+00  0.14649291267E+04  0.27264445662E+04  0.22994526797E+04 0.  0.
        4    1    3    3  502    0  0.10571711547E+04  0.39035403079E+03  0.10025369810E+04  0.15083332293E+04  0.12699999809E+01 0.  1.
       -4    1    3    3    0  502 -0.10571711547E+04 -0.39035403079E+03  0.46239214577E+03  0.12181113369E+04  0.12699999809E+01 0. -1.
</event>
<event>
 5   0  0.1828646E-06  0.2301143E+04  0.7818609E-02  0.8477471E-01
       -2   -1    0    0    0  501  0.00000000000E+00  0.00000000000E+00  0.15139490099E+04  0.15139490099E+04  0.25500000920E-02 0.  1.
        2   -1    0    0  501    0  0.00000000000E+00  0.00000000000E+00 -0.87441135330E+03  0.87441135330E+03  0.25500000920E-02 0. -1.
    10030    2    1    2    0    0  0.00000000000E+00  0.00000000000E+00  0.63953765657E+03  0.23883603632E+04  0.23011425011E+04 0.  0.
        3    1    3    3  502    0  0.84917327564E+02  0.35119257781E+03  0.14535393444E+04  0.14977729518E+04  0.10100000352E+00 0.  1.
       -3    1    3    3    0  502 -0.84917327564E+02 -0.35119257781E+03 -0.81400168785E+03  0.89058741135E+03  0.10100000352E+00 0. -1.
</event>
<event>
 5   0  0.7932912E-07  0.2301080E+04  0.7818609E-02  0.8477495E-01
       -1   -1    0    0    0  501  0.00000000000E+00  0.00000000000E+00  0.12755441381E+04  0.12755441381E+04  0.50400001928E-02 0. -1.
        1   -1    0    0  501    0  0.00000000000E+00  0.00000000000E+00 -0.10377861668E+04  0.10377861668E+04  0.50400001928E-02 0.  1.
    10030    2    1    2    0    0  0.00000000000E+00  0.00000000000E+00  0.23775797134E+03  0.23133303049E+04  0.23010798001E+04 0.  0.
        5    1    3    3  502    0 -0.24327135469E+03  0.10860925025E+04  0.41187887268E+03  0.11867789060E+04  0.46999998093E+01 0. -1.
       -5    1    3    3    0  502  0.24327135469E+03 -0.10860925025E+04 -0.17412090135E+03  0.11265513989E+04  0.46999998093E+01 0.  1.
</event>
<event>
 5   0  0.1828646E-06  0.2301699E+04  0.7818609E-02  0.8477252E-01
       -2   -1    0    0    0  501  0.00000000000E+00  0.00000000000E+00  0.74063019744E+03  0.74063019745E+03  0.25500000920E-02 0.  1.
        2   -1    0    0  501    0  0.00000000000E+00  0.00000000000E+00 -0.17882806322E+04  0.17882806323E+04  0.25500000920E-02 0. -1.
    10030    2    1    2    0    0  0.00000000000E+00  0.00000000000E+00 -0.10476504348E+04  0.25289108297E+04  0.23016990574E+04 0.  0.
        3    1    3    3  502    0  0.29569743463E+03 -0.50029984203E+02 -0.17445931183E+04  0.17701822310E+04  0.10100000352E+00 0. -1.
       -3    1    3    3    0  502 -0.29569743463E+03  0.50029984203E+02  0.69694268353E+03  0.75872859871E+03  0.10100000352E+00 0.  1.
</event>
<event>
 5   0  0.1825521E-06  0.2299779E+04  0.7818609E-02  0.8478008E-01
       -2   -1    0    0    0  501  0.00000000000E+00  0.00000000000E+00  0.11048905683E+04  0.11048905683E+04  0.25500000920E-02 0. -1.
        2   -1    0    0  501    0  0.00000000000E+00  0.00000000000E+00 -0.11967208378E+04  0.11967208378E+04  0.25500000920E-02 0.  1.
    10030    2    1    2    0    0  0.00000000000E+00  0.00000000000E+00 -0.91830269470E+02  0.23016114061E+04  0.22997787429E+04 0.  0.
        5    1    3    3  502    0  0.29809051589E+03  0.11002170730E+04 -0.19732321211E+03  0.11568466205E+04  0.46999998093E+01 0. -1.
       -5    1    3    3    0  502 -0.29809051589E+03 -0.11002170730E+04  0.10549294264E+03  0.11447647856E+04  0.46999998093E+01 0.  1.
</event>
<event>
 5   0  0.7607231E-07  0.2299737E+04  0.7818609E-02  0.8478025E-01
        1   -1    0    0  501    0  0.00000000000E+00  0.00000000000E+00  0.17829119925E+04  0.17829119925E+04  0.50400001928E-02 0. -1.
       -1   -1    0    0    0  501  0.00000000000E+00  0.00000000000E+00 -0.74159449109E+03  0.74159449110E+03  0.50400001928E-02 0.  1.
    10030    2    1    2    0    0  0.00000000000E+00  0.00000000000E+00  0.10413175014E+04  0.25245064836E+04  0.22997371256E+04 0.  0.
        2    1    3    3  502    0 -0.17452869434E+03 -0.81595765912E+02 -0.72375071250E+03  0.74895475699E+03  0.25500000920E-02 0.  1.
       -2    1    3    3    0  502  0.17452869434E+03  0.81595765912E+02  0.17650682139E+04  0.17755517266E+04  0.25500000920E-02 0. -1.
</event>
<event>
 5   0  0.8108242E-07  0.2299323E+04  0.7818609E-02  0.8478188E-01
       -1   -1    0    0    0  501  0.00000000000E+00  0.00000000000E+00  0.11490489671E+04  0.11490489671E+04  0.50400001928E-02 0.  1.
        1   -1    0    0  501    0  0.00000000000E+00  0.00000000000E+00 -0.11502745279E+04  0.11502745279E+04  0.50400001928E-02 0. -1.
    10030    2    1    2    0    0  0.00000000000E+00  0.00000000000E+00 -0.12255607606E+01  0.22993234950E+04  0.22993231684E+04 0.  0.
        4    1    3    3  502    0  0.34908981250E+03  0.10934446717E+04 -0.65691188417E+02  0.11496964349E+04  0.12699999809E+01 0. -1.
       -4    1    3    3    0  502 -0.34908981250E+03 -0.10934446717E+04  0.64465627657E+02  0.11496270601E+04  0.12699999809E+01 0.  1.
</event>
<event>
 5   0  0.1689444E-06  0.2300815E+04  0.7818609E-02  0.8477600E-01
        2   -1    0    0  501    0  0.00000000000E+00  0.00000000000E+00  0.14675613796E+04  0.14675613796E+04  0.25500000920E-02 0. -1.
       -2   -1    0    0    0  501  0.00000000000E+00  0.00000000000E+00 -0.90179357384E+03  0.90179357384E+03  0.25500000920E-02 0.  1.
    10030    2    1    2    0    0  0.00000000000E+00  0.00000000000E+00  0.56576780574E+03  0.23693549534E+04  0.23008150046E+04 0.  0.
        2    1    3    3  502    0 -0.45402711117E+03 -0.92561659920E+03  0.80851117685E+03  0.13101896922E+04  0.25500000920E-02 0.  1.
       -2    1    3    3    0  502  0.45402711117E+03  0.92561659920E+03 -0.24274337111E+03  0.10591652612E+04  0.25500000920E-02 0. -1.
</event>
<event>
 5   0  0.1828646E-06  0.2300332E+04  0.7818609E-02  0.8477790E-01
       -2   -1    0    0    0  501  0.00000000000E+00  0.00000000000E+00  0.26624794104E+04  0.26624794104E+04  0.25500000920E-02 0.  1.
        2   -1    0    0  501    0  0.00000000000E+00  0.00000000000E+00 -0.49686099607E+03  0.49686099608E+03  0.25500000920E-02 0. -1.
    10030    2    1    2    0    0  0.00000000000E+00  0.00000000000E+00  0.21656184143E+04  0.31593404065E+04  0.23003322994E+04 0.  0.
        3    1    3    3  502    0 -0.10754682675E+04 -0.21509259723E+03  0.15585495061E+04  0.19057736993E+04  0.10100000352E+00 0. -1.
       -3    1    3    3    0  502  0.10754682675E+04  0.21509259723E+03  0.60706890821E+03  0.12535667072E+04  0.10100000352E+00 0.  1.
</event>
<event>
 5   0  0.7761069E-07  0.2299318E+04  0.7818609E-02  0.8478190E-01
        1   -1    0    0  501    0  0.00000000000E+00  0.00000000000E+00  0.97668150841E+03  0.97668150843E+03  0.50400001928E-02 0.  1.
       -1   -1    0    0    0  501  0.00000000000E+00  0.00000000000E+00 -0.13532716476E+04  0.13532716476E+04  0.50400001928E-02 0. -1.
    10030    2    1    2    0    0  0.00000000000E+00  0.00000000000E+00 -0.37659013923E+03  0.23299531561E+04  0.22993176328E+04 0.  0.
        1    1    3    3  502    0 -0.63901595935E+01 -0.59154189864E+03  0.81061434696E+03  0.10035229302E+04  0.50400001928E-02 0.  1.
       -1    1    3    3    0  502  0.63901595935E+01  0.59154189864E+03 -0.11872044862E+04  0.13264302258E+04  0.50400001928E-02 0. -1.
</event>
<event>
 5   0  0.1825521E-06  0.2301273E+04  0.7818609E-02  0.8477419E-01
        2   -1    0    0  501    0  0.00000000000E+00  0.00000000000E+00  0.11045584129E+04  0.11045584129E+04  0.25500000920E-02 0. -1.
       -2   -1    0    0    0  501  0.00000000000E+00  0.00000000000E+00 -0.11986372124E+04  0.11986372124E+04  0.25500000920E-02 0.  1.
    10030    2    1    2    0    0  0.00000000000E+00  0.00000000000E+00 -0.94078799492E+02  0.23031956254E+04  0.23012734014E+04 0.  0.
        5    1    3    3  502    0 -0.43368921508E+03 -0.11793985415E+02 -0.11136299426E+04  0.11951649143E+04  0.46999998093E+01 0.  1.
       -5    1    3    3    0  502  0.43368921508E+03  0.11793985415E+02  0.10195511431E+04  0.11080307111E+04  0.46999998093E+01 0. -1.
</event>
<event>
 5   0  0.8108242E-07  0.2296936E+04  0.7818609E-02  0.8479130E-01
        1   -1    0    0  501    0  0.00000000000E+00  0.00000000000E+00  0.13262312589E+04  0.13262312589E+04  0.50400001928E-02 0.  1.
       -1   -1    0    0    0  501  0.00000000000E+00  0.00000000000E+00 -0.99453181004E+03  0.99453181006E+03  0.50400001928E-02 0. -1.
    10030    2    1    2    0    0  0.00000000000E+00  0.00000000000E+00  0.33169944881E+03  0.23207630689E+04  0.22969363721E+04 0.  0.
        4    1    3    3  502    0 -0.27742319723E+03  0.15033434534E+03  0.12815751808E+04  0.13198487045E+04  0.12699999809E+01 0.  1.
       -4    1    3    3    0  502  0.27742319723E+03 -0.15033434534E+03 -0.94987573201E+03  0.10009143644E+04  0.12699999809E+01 0. -1.
</event>
<event>
 5   0  0.7932912E-07  0.2299651E+04  0.7818609E-02  0.8478059E-01
        1   -1    0    0  501    0  0.00000000000E+00  0.00000000000E+00  0.11116061123E+04  0.11116061123E+04  0.50400001928E-02 0.  1.
       -1   -1    0    0    0  501  0.00000000000E+00  0.00000000000E+00 -0.11893585090E+04  0.11893585090E+04  0.50400001928E-02 0. -1.
    10030    2    1    2    0    0  0.00000000000E+00  0.00000000000E+00 -0.77752396693E+02  0.23009646213E+04  0.22996505720E+04 0.  0.
        5    1    3    3  502    0 -0.41166665427E+03  0.10372145622E+04  0.23839695499E+03  0.11411129131E+04  0.46999998093E+01 0.  1.
       -5    1    3    3    0  502  0.41166665427E+03 -0.10372145622E+04 -0.31614935169E+03  0.11598517082E+04  0.46999998093E+01 0. -1.
</event>
<event>
 5   0  0.1689444E-06  0.2299021E+04  0.7818609E-02  0.8478307E-01
        2   -1    0    0  501    0  0.00000000000E+00  0.00000000000E+00  0.11250523150E+04  0.11250523150E+04  0.25500000920E-02 0.  1.
       -2   -1    0    0    0  501  0.00000000000E+00  0.00000000000E+00 -0.11745002966E+04  0.11745002966E+04  0.25500000920E-02 0. -1.
    10030    2    1    2    0    0  0.00000000000E+00  0.00000000000E+00 -0.49447981564E+02  0.22995526116E+04  0.22990209026E+04 0.  0.
        2    1    3    3  502    0 -0.34825232693E+03  0.10726542677E+04 -0.24727807128E+03  0.11545619541E+04  0.25500000920E-02 0. -1.
       -2    1    3    3    0  502  0.34825232693E+03 -0.10726542677E+04  0.19783008972E+03  0.11449906575E+04  0.25500000920E-02 0.  1.
</event>
<event>
 5   0  0.7761069E-07  0.2299785E+04  0.7818609E-02  0.8478006E-01
        1   -1    0    0  501    0  0.00000000000E+00  0.00000000000E+00  0.82510468408E+03  0.82510468409E+03  0.50400001928E-02 0. -1.
       -1   -1    0    0    0  501  0.00000000000E+00  0.00000000000E+00 -0.16025267538E+04  0.16025267538E+04  0.50400001928E-02 0.  1.
    10030    2    1    2    0    0  0.00000000000E+00  0.00000000000E+00 -0.77742206972E+03  0.24276314379E+04  0.22997846255E+04 0.  0.
        1    1    3    3  502    0 -0.36603291350E+03 -0.56973884290E+03 -0.13697120928E+04  0.15279704382E+04  0.50400001928E-02 0.  1.
       -1    1    3    3    0  502  0.36603291350E+03  0.56973884290E+03  0.59229002309E+03  0.89966099968E+03  0.50400001928E-02 0. -1.
</event>
<event>
 5   0  0.7607231E-07  0.2299994E+04  0.7818609E-02  0.8477923E-01
       -1   -1    0    0    0  501  0.00000000000E+00  0.00000000000E+00  0.84406370406E+03  0.84406370407E+03  0.50400001928E-02 0. -1.
        1   -1    0    0  501    0  0.00000000000E+00  0.00000000000E+00 -0.15668168626E+04  0.15668168626E+04  0.50400001928E-02 0.  1.
    10030    2    1    2    0    0  0.00000000000E+00  0.00000000000E+00 -0.72275315851E+03  0.24108805667E+04  0.22999941258E+04 0.  0.
        2    1    3    3  502    0  0.71942955075E+03  0.89508339651E+03 -0.29727195161E+03  0.11862224827E+04  0.25500000920E-02 0.  1.
       -2    1    3    3    0  502 -0.71942955075E+03 -0.89508339651E+03 -0.42548120690E+03  0.12246580840E+04  0.25500000920E-02 0. -1.
</event>
<event>
 5   0  0.1825521E-06  0.2301087E+04  0.7818609E-02  0.8477493E-01
        2   -1    0    0  501    0  0.00000000000E+00  0.00000000000E+00  0.24366906446E+04  0.24366906446E+04  0.25500000920E-02 0.  1.
       -2   -1    0    0    0  501  0.00000000000E+00  0.00000000000E+00 -0.54325746830E+03  0.54325746831E+03  0.25500000920E-02 0. -1.
    10030    2    1    2    0    0  0.00000000000E+00  0.00000000000E+00  0.18934331763E+04  0.29799481129E+04  0.23010870393E+04 0.  0.
        5    1    3    3  502    0  0.83157021674E+03 -0.10077556049E+03 -0.74676788240E+02  0.84098956692E+03  0.46999998093E+01 0.  1.
       -5    1    3    3    0  502 -0.83157021674E+03  0.10077556049E+03  0.19681099646E+04  0.21389585460E+04  0.46999998093E+01 0. -1.
</event>
<event>
 5   0  0.1888779E-06  0.2300076E+04  0.7818609E-02  0.8477891E-01
       -2   -1    0    0    0  501  0.00000000000E+00  0.00000000000E+00  0.70460977786E+03  0.70460977787E+03  0.25500000920E-02 0.  1.
        2   -1    0    0  501    0  0.00000000000E+00  0.00000000000E+00 -0.18770502012E+04  0.18770502012E+04  0.25500000920E-02 0. -1.
    10030    2    1    2    0    0  0.00000000000E+00  0.00000000000E+00 -0.11724404233E+04  0.25816599791E+04  0.23000764555E+04 0.  0.
        4    1    3    3  502    0  0.10146194331E+04 -0.22110721042E+03 -0.31505230137E+02  0.10389105760E+04  0.12699999809E+01 0.  1.
       -4    1    3    3    0  502 -0.10146194331E+04  0.22110721042E+03 -0.11409351932E+04  0.15427494030E+04  0.12699999809E+01 0. -1.
</event>
<event>
 5   0  0.7607231E-07  0.2299718E+04  0.7818609E-02  0.8478032E-01
        1   -1    0    0  501    0  0.00000000000E+00  0.00000000000E+00  0.10687449454E+04  0.10687449454E+04  0.50400001928E-02 0. -1.
       -1   -1    0    0    0  501  0.00000000000E+00  0.00000000000E+00 -0.12371293362E+04  0.12371293362E+04  0.50400001928E-02 0.  1.
    10030    2    1    2    0    0  0.00000000000E+00  0.00000000000E+00 -0.16838439079E+03  0.23058742816E+04  0.22997180043E+04 0.  0.
        2    1    3    3  502    0  0.15420573424E+03 -0.30840643932E+03 -0.11840706919E+04  0.12332547765E+04  0.25500000920E-02 0.  1.
       -2    1    3    3    0  502 -0.15420573424E+03  0.30840643932E+03  0.10156863012E+04  0.10726195051E+04  0.25500000920E-02 0. -1.
</event>
<event>
 5   0  0.8097672E-07  0.2298874E+04  0.7818609E-02  0.8478365E-01
       -1   -1    0    0    0  501  0.00000000000E+00  0.00000000000E+00  0.58012175154E+03  0.58012175157E+03  0.50400001928E-02 0. -1.
        1   -1    0    0  501    0  0.00000000000E+00  0.00000000000E+00 -0.22774629915E+04  0.22774629915E+04  0.50400001928E-02 0.  1.
    10030    2    1    2    0    0  0.00000000000E+00  0.00000000000E+00 -0.16973412400E+04  0.28575847431E+04  0.22988743504E+04 0.  0.
        3    1    3    3  502    0 -0.84114264770E+03 -0.77872336008E+03 -0.74264912034E+03  0.13658179789E+04  0.10100000352E+00 0. -1.
       -3    1    3    3    0  502  0.84114264770E+03  0.77872336008E+03 -0.95469211966E+03  0.14917667642E+04  0.10100000352E+00 0.  1.
</event>
<event>
 5   0  0.7607231E-07  0.2304090E+04  0.7818609E-02  0.8476310E-01
        1   -1    0    0  501    0  0.00000000000E+00  0.00000000000E+00  0.10683944655E+04  0.10683944655E+04  0.50400001928E-02 0. -1.
       -1   -1    0    0    0  501  0.00000000000E+00  0.00000000000E+00 -0.12422446797E+04  0.12422446797E+04  0.50400001928E-02 0.  1.
    10030    2    1    2    0    0  0.00000000000E+00  0.00000000000E+00 -0.17385021417E+03  0.23106391452E+04  0.23040897036E+04 0.  0.
        2    1    3    3  502    0 -0.11420682170E+04 -0.89325640254E+02 -0.20937237849E+03  0.11645323847E+04  0.25500000920E-02 0.  1.
       -2    1    3    3    0  502  0.11420682170E+04  0.89325640254E+02  0.35522164323E+02  0.11461067605E+04  0.25500000920E-02 0. -1.
</event>
<event>
 5   0  0.1828646E-06  0.2300576E+04  0.7818609E-02  0.8477694E-01
        2   -1    0    0  501    0  0.00000000000E+00  0.00000000000E+00  0.20692443554E+04  0.20692443554E+04  0.25500000920E-02 0.  1.
       -2   -1    0    0    0  501  0.00000000000E+00  0.00000000000E+00 -0.63944252412E+03  0.63944252412E+03  0.25500000920E-02 0. -1.
    10030    2    1    2    0    0  0.00000000000E+00  0.00000000000E+00  0.14298018313E+04  0.27086868796E+04  0.23005763049E+04 0.  0.
        3    1    3    3  502    0 -0.10224045632E+04 -0.22799514227E+03  0.15533482664E+03  0.10589720460E+04  0.10100000352E+00 0. -1.
       -3    1    3    3    0  502  0.10224045632E+04  0.22799514227E+03  0.12744670047E+04  0.16497148335E+04  0.10100000352E+00 0.  1.
</event>
<event>
 5   0  0.7932912E-07  0.2301357E+04  0.7818609E-02  0.8477386E-01
       -1   -1    0    0    0  501  0.00000000000E+00  0.00000000000E+00  0.92864941492E+03  0.92864941493E+03  0.50400001928E-02 0.  1.
        1   -1    0    0  501    0  0.00000000000E+00  0.00000000000E+00 -0.14257919975E+04  0.14257919975E+04  0.50400001928E-02 0. -1.
    10030    2    1    2    0    0  0.00000000000E+00  0.00000000000E+00 -0.49714258257E+03  0.23544414124E+04  0.23013569078E+04 0.  0.
        5    1    3    3  502    0  0.57614889657E+03 -0.46514641754E+03 -0.11496427329E+04  0.13674828130E+04  0.46999998093E+01 0. -1.
       -5    1    3    3    0  502 -0.57614889657E+03  0.46514641754E+03  0.65250015029E+03  0.98695859938E+03  0.46999998093E+01 0.  1.
</event>
<event>
 5   0  0.8108242E-07  0.2299951E+04  0.7818609E-02  0.8477940E-01
        1   -1    0    0  501    0  0.00000000000E+00  0.00000000000E+00  0.31347943028E+04  0.31347943028E+04  0.50400001928E-02 0. -1.
       -1   -1    0    0    0  501  0.00000000000E+00  0.00000000000E+00 -0.42185990055E+03  0.42185990058E+03  0.50400001928E-02 0.  1.
    10030    2    1    2    0    0  0.00000000000E+00  0.00000000000E+00  0.27129344022E+04  0.35566542033E+04  0.22999513150E+04 0.  0.
        4    1    3    3  502    0  0.77244729399E+03  0.11481774410E+03  0.51074517005E+02  0.78260344718E+03  0.12699999809E+01 0.  1.
       -4    1    3    3    0  502 -0.77244729399E+03 -0.11481774410E+03  0.26618598852E+04  0.27740507562E+04  0.12699999809E+01 0. -1.
</event>
<event>
 5   0  0.8097672E-07  0.2300263E+04  0.7818609E-02  0.8477817E-01
       -1   -1    0    0    0  501  0.00000000000E+00  0.00000000000E+00  0.73849357348E+03  0.73849357349E+03  0.50400001928E-02 0.  1.
        1   -1    0    0  501    0  0.00000000000E+00  0.00000000000E+00 -0.17912171138E+04  0.17912171138E+04  0.50400001928E-02 0. -1.
    10030    2    1    2    0    0  0.00000000000E+00  0.00000000000E+00 -0.10527235404E+04  0.25297106873E+04  0.23002628783E+04 0.  0.
        3    1    3    3  502    0  0.13461515466E+03  0.11165278725E+04 -0.79132263339E+03  0.13751171769E+04  0.10100000352E+00 0.  1.
       -3    1    3    3    0  502 -0.13461515466E+03 -0.11165278725E+04 -0.26140090696E+03  0.11545935104E+04  0.10100000352E+00 0. -1.
</event>
<event>
 5   0  0.1744876E-06  0.2291325E+04  0.7818609E-02  0.8481349E-01
       -2   -1    0    0    0  501  0.00000000000E+00  0.00000000000E+00  0.10169752777E+04  0.10169752777E+04  0.25500000920E-02 0. -1.
        2   -1    0    0  501    0  0.00000000000E+00  0.00000000000E+00 -0.12906340712E+04  0.12906340712E+04  0.25500000920E-02 0.  1.
    10030    2    1    2    0    0  0.00000000000E+00  0.00000000000E+00 -0.27365879347E+03  0.23076093489E+04  0.22913253308E+04 0.  0.
        1    1    3    3  502    0 -0.40321617994E+03  0.10671935211E+04 -0.30926746096E+02  0.11412457066E+04  0.50400001928E-02 0. -1.
       -1    1    3    3    0  502  0.40321617994E+03 -0.10671935211E+04 -0.24273204738E+03  0.11663636423E+04  0.50400001928E-02 0.  1.
</event>
<event>
 5   0  0.7761069E-07  0.2299363E+04  0.7818609E-02  0.8478172E-01
        1   -1    0    0  501    0  0.00000000000E+00  0.00000000000E+00  0.88055272918E+03  0.88055272920E+03  0.50400001928E-02 0. -1.
       -1   -1    0    0    0  501  0.00000000000E+00  0.00000000000E+00 -0.15010653138E+04  0.15010653138E+04  0.50400001928E-02 0.  1.
    10030    2    1    2    0    0  0.00000000000E+00  0.00000000000E+00 -0.62051258459E+03  0.23816180430E+04  0.22993626584E+04 0.  0.
        1    1    3    3  502    0 -0.35856468758E+02 -0.39569447397E+03 -0.14276953422E+04  0.14819493221E+04  0.50400001928E-02 0.  1.
       -1    1    3    3    0  502  0.35856468758E+02  0.39569447397E+03  0.80718275763E+03  0.89966872087E+03  0.50400001928E-02 0. -1.
</event>
<event>
 5   0  0.1828646E-06  0.2298822E+04  0.7818609E-02  0.8478386E-01
       -2   -1    0    0    0  501  0.00000000000E+00  0.00000000000E+00  0.64283005800E+03  0.64283005800E+03  0.25500000920E-02 0.  1.
        2   -1    0    0  501    0  0.00000000000E+00  0.00000000000E+00 -0.20552027652E+04  0.20552027652E+04  0.25500000920E-02 0. -1.
    10030    2    1    2    0    0  0.00000000000E+00  0.00000000000E+00 -0.14123727072E+04  0.26980328232E+04  0.22988224053E+04 0.  0.
        3    1    3    3  502    0 -0.93670275271E+03 -0.53134993886E+03 -0.23467156429E+03  0.11021867164E+04  0.10100000352E+00 0.  1.
       -3    1    3    3    0  502  0.93670275271E+03  0.53134993886E+03 -0.11777011429E+04  0.15958461068E+04  0.10100000352E+00 0. -1.
</event>
<event>
 5   0  0.1828646E-06  0.2300413E+04  0.7818609E-02  0.8477758E-01
       -2   -1    0    0    0  501  0.00000000000E+00  0.00000000000E+00  0.59256266552E+03  0.59256266553E+03  0.25500000920E-02 0.  1.
        2   -1    0    0  501    0  0.00000000000E+00  0.00000000000E+00 -0.22326331355E+04  0.22326331355E+04  0.25500000920E-02 0. -1.
    10030    2    1    2    0    0  0.00000000000E+00  0.00000000000E+00 -0.16400704700E+04  0.28251958011E+04  0.23004130428E+04 0.  0.
        3    1    3    3  502    0  0.53798013740E+03  0.41139835338E+03 -0.19617981731E+04  0.20754091924E+04  0.10100000352E+00 0. -1.
       -3    1    3    3    0  502 -0.53798013740E+03 -0.41139835338E+03  0.32172770314E+03  0.74978660869E+03  0.10100000352E+00 0.  1.
</event>
<event>
 5   0  0.1888779E-06  0.2299777E+04  0.7818609E-02  0.8478009E-01
       -2   -1    0    0    0  501  0.00000000000E+00  0.00000000000E+00  0.10090913360E+04  0.10090913360E+04  0.25500000920E-02 0.  1.
        2   -1    0    0  501    0  0.00000000000E+00  0.00000000000E+00 -0.13103311991E+04  0.13103311991E+04  0.25500000920E-02 0. -1.
    10030    2    1    2    0    0  0.00000000000E+00  0.00000000000E+00 -0.30123986309E+03  0.23194225351E+04  0.22997772590E+04 0.  0.
        4    1    3    3  502    0  0.48058596449E+03  0.37903504137E+03 -0.11323889675E+04  0.12872205788E+04  0.12699999809E+01 0. -1.
       -4    1    3    3    0  502 -0.48058596449E+03 -0.37903504137E+03  0.83114910441E+03  0.10322019563E+04  0.12699999809E+01 0.  1.
</event>
<event>
 5   0  0.8097672E-07  0.2300239E+04  0.7818609E-02  0.8477827E-01
        1   -1    0    0  501    0  0.00000000000E+00  0.00000000000E+00  0.20474384224E+04  0.20474384224E+04  0.50400001928E-02 0.  1.
       -1   -1    0    0    0  501  0.00000000000E+00  0.00000000000E+00 -0.64606358948E+03  0.64606358950E+03  0.50400001928E-02 0. -1.
    10030    2    1    2    0    0  0.00000000000E+00  0.00000000000E+00  0.14013748329E+04  0.26935020119E+04  0.23002394801E+04 0.  0.
        3    1    3    3  502    0 -0.99168954786E+03  0.39029322239E+03  0.19432291555E+03  0.10832997575E+04  0.10100000352E+00 0. -1.
       -3    1    3    3    0  502  0.99168954786E+03 -0.39029322239E+03  0.12070519174E+04  0.16102022544E+04  0.10100000352E+00 0.  1.
</event>
<event>
 5   0  0.1888779E-06  0.2299414E+04  0.7818609E-02  0.8478152E-01
        2   -1    0    0  501    0  0.00000000000E+00  0.00000000000E+00  0.16836093169E+04  0.16836093169E+04  0.25500000920E-02 0. -1.
       -2   -1    0    0    0  501  0.00000000000E+00  0.00000000000E+00 -0.78511444871E+03  0.78511444871E+03  0.25500000920E-02 0.  1.
    10030    2    1    2    0    0  0.00000000000E+00  0.00000000000E+00  0.89849486818E+03  0.24687237656E+04  0.22994138389E+04 0.  0.
        4    1    3    3  502    0 -0.84379697845E+02  0.15495717913E+02 -0.78167237528E+03  0.78636719531E+03  0.12699999809E+01 0.  1.
       -4    1    3    3    0  502  0.84379697845E+02 -0.15495717913E+02  0.16801672435E+04  0.16823565703E+04  0.12699999809E+01 0. -1.
</event>
<event>
 5   0  0.7932912E-07  0.2300970E+04  0.7818609E-02  0.8477539E-01
       -1   -1    0    0    0  501  0.00000000000E+00  0.00000000000E+00  0.60894250323E+03  0.60894250325E+03  0.50400001928E-02 0. -1.
        1   -1    0    0  501    0  0.00000000000E+00  0.00000000000E+00 -0.21736296740E+04  0.21736296740E+04  0.50400001928E-02 0.  1.
    10030    2    1    2    0    0  0.00000000000E+00  0.00000000000E+00 -0.15646871708E+04  0.27825721773E+04  0.23009697910E+04 0.  0.
        5    1    3    3  502    0 -0.57414967270E+03 -0.88100706514E+03 -0.13466781491E+04  0.17086209125E+04  0.46999998093E+01 0.  1.
       -5    1    3    3    0  502  0.57414967270E+03  0.88100706514E+03 -0.21800902168E+03  0.10739512647E+04  0.46999998093E+01 0. -1.
</event>
<event>
 5   0  0.1744876E-06  0.2300575E+04  0.7818609E-02  0.8477694E-01
        2   -1    0    0  501    0  0.00000000000E+00  0.00000000000E+00  0.17217811564E+04  0.17217811564E+04  0.25500000920E-02 0. -1.
       -2   -1    0    0    0  501  0.00000000000E+00  0.00000000000E+00 -0.76848395555E+03  0.76848395556E+03  0.25500000920E-02 0.  1.
    10030    2    1    2    0    0  0.00000000000E+00  0.00000000000E+00  0.95329720085E+03  0.24902651120E+04  0.23005748792E+04 0.  0.
        1    1    3    3  502    0  0.82061343632E+03  0.80601618069E+03  0.48707045412E+03  0.12491221408E+04  0.50400001928E-02 0. -1.
       -1    1    3    3    0  502 -0.82061343632E+03 -0.80601618069E+03  0.46622674672E+03  0.12411429711E+04  0.50400001928E-02 0.  1.
</event>
<event>
 5   0  0.7607231E-07  0.2299884E+04  0.7818609E-02  0.8477967E-01
        1   -1    0    0  501    0  0.00000000000E+00  0.00000000000E+00  0.74152205862E+03  0.74152205864E+03  0.50400001928E-02 0.  1.
       -1   -1    0    0    0  501  0.00000000000E+00  0.00000000000E+00 -0.17833145110E+04  0.17833145110E+04  0.50400001928E-02 0. -1.
    10030    2    1    2    0    0  0.00000000000E+00  0.00000000000E+00 -0.10417924524E+04  0.25248365697E+04  0.22998843862E+04 0.  0.
        2    1    3    3  502    0  0.53280663135E+03  0.57947047081E+03  0.39936613804E+03  0.88270167394E+03  0.25500000920E-02 0.  1.
       -2    1    3    3    0  502 -0.53280663135E+03 -0.57947047081E+03 -0.14411585905E+04  0.16421348957E+04  0.25500000920E-02 0. -1.
</event>
<event>
 5   0  0.1825521E-06  0.2310822E+04  0.7818609E-02  0.8473667E-01
        2   -1    0    0  501    0  0.00000000000E+00  0.00000000000E+00  0.15213326628E+04  0.15213326628E+04  0.25500000920E-02 0. -1.
       -2   -1    0    0    0  501  0.00000000000E+00  0.00000000000E+00 -0.87750302686E+03  0.87750302687E+03  0.25500000920E-02 0.  1.
    10030    2    1    2    0    0  0.00000000000E+00  0.00000000000E+00  0.64382963594E+03  0.23988356897E+04  0.23108215132E+04 0.  0.
        5    1    3    3  502    0  0.11399127198E+02  0.10276571041E+04  0.86998475122E+03  0.13465157337E+04  0.46999998093E+01 0. -1.
       -5    1    3    3    0  502 -0.11399127198E+02 -0.10276571041E+04 -0.22615511528E+03  0.10523199560E+04  0.46999998093E+01 0.  1.
</event>
<event>
 5   0  0.8097672E-07  0.2299577E+04  0.7818609E-02  0.8478088E-01
       -1   -1    0    0    0  501  0.00000000000E+00  0.00000000000E+00  0.88466065327E+03  0.88466065329E+03  0.50400001928E-02 0. -1.
        1   -1    0    0  501    0  0.00000000000E+00  0.00000000000E+00 -0.14943736135E+04  0.14943736135E+04  0.50400001928E-02 0.  1.
    10030    2    1    2    0    0  0.00000000000E+00  0.00000000000E+00 -0.60971296024E+03  0.23790342668E+04  0.22995769500E+04 0.  0.
        3    1    3    3  502    0  0.41057261394E+03 -0.79896837929E+03  0.43764214276E+03  0.99922519871E+03  0.10100000352E+00 0. -1.
       -3    1    3    3    0  502 -0.41057261394E+03  0.79896837929E+03 -0.10473551030E+04  0.13798090681E+04  0.10100000352E+00 0.  1.
</event>
<event>
 5   0  0.8097672E-07  0.2301024E+04  0.7818609E-02  0.8477517E-01
        1   -1    0    0  501    0  0.00000000000E+00  0.00000000000E+00  0.86613285049E+03  0.86613285050E+03  0.50400001928E-02 0.  1.
       -1   -1    0    0    0  501  0.00000000000E+00  0.00000000000E+00 -0.15282624969E+04  0.15282624969E+04  0.50400001928E-02 0. -1.
    10030    2    1    2    0    0  0.00000000000E+00  0.00000000000E+00 -0.66212964637E+03  0.23943953474E+04  0.23010244264E+04 0.  0.
        3    1    3    3  502    0  0.78368482109E+03 -0.45489103398E+03  0.40663861564E+03  0.99319823073E+03  0.10100000352E+00 0.  1.
       -3    1    3    3    0  502 -0.78368482109E+03  0.45489103398E+03 -0.10687682620E+04  0.14011971166E+04  0.10100000352E+00 0. -1.
</event>
<event>
 5   0  0.6319125E-07  0.2300291E+04  0.7818609E-02  0.8477807E-01
        3   -1    0    0  501    0  0.00000000000E+00  0.00000000000E+00  0.92563393905E+03  0.92563394457E+03  0.10100000352E+00 0. -1.
       -3   -1    0    0    0  501  0.00000000000E+00  0.00000000000E+00 -0.14291114964E+04  0.14291115000E+04  0.10100000352E+00 0.  1.
    10030    2    1    2    0    0  0.00000000000E+00  0.00000000000E+00 -0.50347755738E+03  0.23547454446E+04  0.23002905160E+04 0.  0.
        2    1    3    3  502    0  0.23562104374E+03  0.17060609760E+02  0.90053054820E+03  0.93100140114E+03  0.25500000920E-02 0. -1.
       -2    1    3    3    0  502 -0.23562104374E+03 -0.17060609760E+02 -0.14040081056E+04  0.14237440434E+04  0.25500000920E-02 0.  1.
</event>
<event>
 5   0  0.7761069E-07  0.2300564E+04  0.7818609E-02  0.8477699E-01
        1   -1    0    0  501    0  0.00000000000E+00  0.00000000000E+00  0.66889909130E+03  0.66889909132E+03  0.50400001928E-02 0.  1.
       -1   -1    0    0    0  501  0.00000000000E+00  0.00000000000E+00 -0.19780988623E+04  0.19780988623E+04  0.50400001928E-02 0. -1.
    10030    2    1    2    0    0  0.00000000000E+00  0.00000000000E+00 -0.13091997710E+04  0.26469979536E+04  0.23005638713E+04 0.  0.
        1    1    3    3  502    0  0.66011712572E+03  0.12584558021E+03  0.41955561965E+03  0.79222386213E+03  0.50400001928E-02 0.  1.
       -1    1    3    3    0  502 -0.66011712572E+03 -0.12584558021E+03 -0.17287553907E+04  0.18547740915E+04  0.50400001928E-02 0. -1.
</event>
<event>
 5   0  0.7607231E-07  0.2302852E+04  0.7818609E-02  0.8476797E-01
       -1   -1    0    0    0  501  0.00000000000E+00  0.00000000000E+00  0.59535153497E+03  0.59535153499E+03  0.50400001928E-02 0.  1.
        1   -1    0    0  501    0  0.00000000000E+00  0.00000000000E+00 -0.22268897455E+04  0.22268897455E+04  0.50400001928E-02 0. -1.
    10030    2    1    2    0    0  0.00000000000E+00  0.00000000000E+00 -0.16315382105E+04  0.28222412805E+04  0.23028523428E+04 0.  0.
        2    1    3    3  502    0 -0.10680723906E+04 -0.11134865121E+03 -0.30660846077E+03  0.11167747767E+04  0.25500000920E-02 0.  1.
       -2    1    3    3    0  502  0.10680723906E+04  0.11134865121E+03 -0.13249297498E+04  0.17054665038E+04  0.25500000920E-02 0. -1.
</event>
<event>
 5   0  0.7932912E-07  0.2299855E+04  0.7818609E-02  0.8477978E-01
        1   -1    0    0  501    0  0.00000000000E+00  0.00000000000E+00  0.10028859354E+04  0.10028859354E+04  0.50400001928E-02 0. -1.
       -1   -1    0    0    0  501  0.00000000000E+00  0.00000000000E+00 -0.13185280589E+04  0.13185280589E+04  0.50400001928E-02 0.  1.
    10030    2    1    2    0    0  0.00000000000E+00  0.00000000000E+00 -0.31564212351E+03  0.23214139943E+04  0.22998549917E+04 0.  0.
        5    1    3    3  502    0 -0.12480882070E+03  0.84739139303E+03 -0.93225619899E+03  0.12660067635E+04  0.46999998093E+01 0.  1.
       -5    1    3    3    0  502  0.12480882070E+03 -0.84739139303E+03  0.61661407548E+03  0.10554072308E+04  0.46999998093E+01 0. -1.
</event>
<event>
 5   0  0.1825521E-06  0.2304623E+04  0.7818609E-02  0.8476101E-01
       -2   -1    0    0    0  501  0.00000000000E+00  0.00000000000E+00  0.71212478785E+03  0.71212478785E+03  0.25500000920E-02 0.  1.
        2   -1    0    0  501    0  0.00000000000E+00  0.00000000000E+00 -0.18645907380E+04  0.18645907380E+04  0.25500000920E-02 0. -1.
    10030    2    1    2    0    0  0.00000000000E+00  0.00000000000E+00 -0.11524659501E+04  0.25767155258E+04  0.23046225580E+04 0.  0.
        5    1    3    3  502    0 -0.34933597409E+01  0.42860615454E+03 -0.17721349282E+04  0.18232388031E+04  0.46999998093E+01 0. -1.
       -5    1    3    3    0  502  0.34933597409E+01 -0.42860615454E+03  0.61966897811E+03  0.75347672273E+03  0.46999998093E+01 0.  1.
</event>
<event>
 5   0  0.7932912E-07  0.2300287E+04  0.7818609E-02  0.8477808E-01
        1   -1    0    0  501    0  0.00000000000E+00  0.00000000000E+00  0.14012825464E+04  0.14012825464E+04  0.50400001928E-02 0.  1.
       -1   -1    0    0    0  501  0.00000000000E+00  0.00000000000E+00 -0.94401399290E+03  0.94401399292E+03  0.50400001928E-02 0. -1.
    10030    2    1    2    0    0  0.00000000000E+00  0.00000000000E+00  0.45726855347E+03  0.23452965393E+04  0.23002872271E+04 0.  0.
        5    1    3    3  502    0  0.10181327264E+03 -0.11119575828E+04  0.50969583004E+03  0.12274475702E+04  0.46999998093E+01 0. -1.
       -5    1    3    3    0  502 -0.10181327264E+03  0.11119575828E+04 -0.52427276565E+02  0.11178489691E+04  0.46999998093E+01 0.  1.
</event>
<event>
 5   0  0.1744876E-06  0.2298603E+04  0.7818609E-02  0.8478472E-01
        2   -1    0    0  501    0  0.00000000000E+00  0.00000000000E+00  0.12745394279E+04  0.12745394279E+04  0.25500000920E-02 0. -1.
       -2   -1    0    0    0  501  0.00000000000E+00  0.00000000000E+00 -0.10363695328E+04  0.10363695328E+04  0.25500000920E-02 0.  1.
    10030    2    1    2    0    0  0.00000000000E+00  0.00000000000E+00  0.23816989514E+03  0.23109089608E+04  0.22986029074E+04 0.  0.
        1    1    3    3  502    0  0.78842724360E+03  0.83558616207E+03  0.86167039076E+02  0.11520618522E+04  0.50400001928E-02 0.  1.
       -1    1    3    3    0  502 -0.78842724360E+03 -0.83558616207E+03  0.15200285606E+03  0.11588471085E+04  0.50400001928E-02 0. -1.
</event>
<event>
 5   0  0.7761069E-07  0.2300316E+04  0.7818609E-02  0.8477796E-01
       -1   -1    0    0    0  501  0.00000000000E+00  0.00000000000E+00  0.77323433184E+03  0.77323433186E+03  0.50400001928E-02 0. -1.
        1   -1    0    0  501    0  0.00000000000E+00  0.00000000000E+00 -0.17108187380E+04  0.17108187380E+04  0.50400001928E-02 0.  1.
    10030    2    1    2    0    0  0.00000000000E+00  0.00000000000E+00 -0.93758440616E+03  0.24840530699E+04  0.23003163120E+04 0.  0.
        1    1    3    3  502    0  0.63593916751E+03  0.20811371369E+02  0.56586741869E+03  0.85150318468E+03  0.50400001928E-02 0. -1.
       -1    1    3    3    0  502 -0.63593916751E+03 -0.20811371369E+02 -0.15034518249E+04  0.16325498852E+04  0.50400001928E-02 0.  1.
</event>
<event>
 5   0  0.1888779E-06  0.2299863E+04  0.7818609E-02  0.8477975E-01
        2   -1    0    0  501    0  0.00000000000E+00  0.00000000000E+00  0.13512776176E+04  0.13512776176E+04  0.25500000920E-02 0.  1.
       -2   -1    0    0    0  501  0.00000000000E+00  0.00000000000E+00 -0.97858703786E+03  0.97858703786E+03  0.25500000920E-02 0. -1.
    10030    2    1    2    0    0  0.00000000000E+00  0.00000000000E+00  0.37269057979E+03  0.23298646555E+04  0.22998632665E+04 0.  0.
        4    1    3    3  502    0 -0.61098752870E+03  0.13331771920E+03  0.11639528797E+04  0.13213127160E+04  0.12699999809E+01 0.  1.
       -4    1    3    3    0  502  0.61098752870E+03 -0.13331771920E+03 -0.79126229991E+03  0.10085519395E+04  0.12699999809E+01 0. -1.
</event>
<event>
 5   0  0.1828646E-06  0.2299977E+04  0.7818609E-02  0.8477930E-01
       -2   -1    0    0    0  501  0.00000000000E+00  0.00000000000E+00  0.12963626963E+04  0.12963626963E+04  0.25500000920E-02 0.  1.
        2   -1    0    0  501    0  0.00000000000E+00  0.00000000000E+00 -0.10201418152E+04  0.10201418152E+04  0.25500000920E-02 0. -1.
    10030    2    1    2    0    0  0.00000000000E+00  0.00000000000E+00  0.27622088106E+03  0.23165045115E+04  0.22999772122E+04 0.  0.
        3    1    3    3  502    0  0.61705686076E+02  0.20005410787E+03  0.12770076596E+04  0.12940547943E+04  0.10100000352E+00 0.  1.
       -3    1    3    3    0  502 -0.61705686076E+02 -0.20005410787E+03 -0.10007867786E+04  0.10224497171E+04  0.10100000352E+00 0. -1.
</event>
<event>
 5   0  0.8097672E-07  0.2299829E+04  0.7818609E-02  0.8477989E-01
       -1   -1    0    0    0  501  0.00000000000E+00  0.00000000000E+00  0.13355336345E+04  0.13355336345E+04  0.50400001928E-02 0.  1.
        1   -1    0    0  501    0  0.00000000000E+00  0.00000000000E+00 -0.99009354015E+03  0.99009354016E+03  0.50400001928E-02 0. -1.
    10030    2    1    2    0    0  0.00000000000E+00  0.00000000000E+00  0.34544009433E+03  0.23256271746E+04  0.22998288842E+04 0.  0.
        3    1    3    3  502    0  0.11250640560E+04  0.11045233960E+03 -0.40199147033E+02  0.11311873545E+04  0.10100000352E+00 0. -1.
       -3    1    3    3    0  502 -0.11250640560E+04 -0.11045233960E+03  0.38563924136E+03  0.11944398202E+04  0.10100000352E+00 0.  1.
</event>
<event>
 5   0  0.7932912E-07  0.2300027E+04  0.7818609E-02  0.8477911E-01
       -1   -1    0    0    0  501  0.00000000000E+00  0.00000000000E+00  0.59435897523E+03  0.59435897525E+03  0.50400001928E-02 0. -1.
        1   -1    0    0  501    0  0.00000000000E+00  0.00000000000E+00 -0.22251383445E+04  0.22251383445E+04  0.50400001928E-02 0.  1.
    10030    2    1    2    0    0  0.00000000000E+00  0.00000000000E+00 -0.16307793692E+04  0.28194973197E+04  0.23000269096E+04 0.  0.
        5    1    3    3  502    0 -0.82824368857E+03 -0.79781206245E+03 -0.81031140008E+03  0.14068114123E+04  0.46999998093E+01 0.  1.
       -5    1    3    3    0  502  0.82824368857E+03  0.79781206245E+03 -0.82046796916E+03  0.14126859074E+04  0.46999998093E+01 0. -1.
</event>
<event>
 5   0  0.6319125E-07  0.2300575E+04  0.7818609E-02  0.8477695E-01
       -3   -1    0    0    0  501  0.00000000000E+00  0.00000000000E+00  0.22695387289E+04  0.22695387311E+04  0.10100000352E+00 0.  1.
        3   -1    0    0  501    0  0.00000000000E+00  0.00000000000E+00 -0.58300875423E+03  0.58300876298E+03  0.10100000352E+00 0. -1.
    10030    2    1    2    0    0  0.00000000000E+00  0.00000000000E+00  0.16865299747E+04  0.28525474941E+04  0.23005746784E+04 0.  0.
        1    1    3    3  502    0 -0.98148976818E+03 -0.11731463319E+03  0.15726928301E+04  0.18575380551E+04  0.50400001928E-02 0.  1.
       -1    1    3    3    0  502  0.98148976818E+03  0.11731463319E+03  0.11383714452E+03  0.99500943900E+03  0.50400001928E-02 0. -1.
</event>
<event>
 5   0  0.7607231E-07  0.2298864E+04  0.7818609E-02  0.8478369E-01
       -1   -1    0    0    0  501  0.00000000000E+00  0.00000000000E+00  0.17305338368E+04  0.17305338368E+04  0.50400001928E-02 0.  1.
        1   -1    0    0  501    0  0.00000000000E+00  0.00000000000E+00 -0.76346034141E+03  0.76346034142E+03  0.50400001928E-02 0. -1.
    10030    2    1    2    0    0  0.00000000000E+00  0.00000000000E+00  0.96707349536E+03  0.24939941782E+04  0.22988640272E+04 0.  0.
        2    1    3    3  502    0 -0.10600147600E+04  0.12753538036E+03  0.94546861704E+03  0.14261162191E+04  0.25500000920E-02 0.  1.
       -2    1    3    3    0  502  0.10600147600E+04 -0.12753538036E+03  0.21604878325E+02  0.10678779591E+04  0.25500000920E-02 0. -1.
</event>
<event>
 5   0  0.1828646E-06  0.2299785E+04  0.7818609E-02  0.8478006E-01
        2   -1    0    0  501    0  0.00000000000E+00  0.00000000000E+00  0.11376039200E+04  0.11376039200E+04  0.25500000920E-02 0.  1.
       -2   -1    0    0    0  501  0.00000000000E+00  0.00000000000E+00 -0.11623140191E+04  0.11623140191E+04  0.25500000920E-02 0. -1.
    10030    2    1    2    0    0  0.00000000000E+00  0.00000000000E+00 -0.24710099053E+02  0.22999179391E+04  0.22997851938E+04 0.  0.
        3    1    3    3  502    0 -0.51758085611E+03  0.70768174459E+03 -0.75640712053E+03  0.11579529940E+04  0.10100000352E+00 0. -1.
       -3    1    3    3    0  502  0.51758085611E+03 -0.70768174459E+03  0.73169702148E+03  0.11419649450E+04  0.10100000352E+00 0.  1.
</event>
<event>
 5   0  0.1689444E-06  0.2299063E+04  0.7818609E-02  0.8478291E-01
        2   -1    0    0  501    0  0.00000000000E+00  0.00000000000E+00  0.17036884118E+04  0.17036884118E+04  0.25500000920E-02 0.  1.
       -2   -1    0    0    0  501  0.00000000000E+00  0.00000000000E+00 -0.77562459260E+03  0.77562459260E+03  0.25500000920E-02 0. -1.
    10030    2    1    2    0    0  0.00000000000E+00  0.00000000000E+00  0.92806381924E+03  0.24793130044E+04  0.22990629660E+04 0.  0.
        2    1    3    3  502    0  0.31093898350E+03 -0.99135056290E+03  0.99449545980E+03  0.14382211963E+04  0.25500000920E-02 0. -1.
       -2    1    3    3    0  502 -0.31093898350E+03  0.99135056290E+03 -0.66431640570E+02  0.10410918081E+04  0.25500000920E-02 0.  1.
</event>
<event>
 5   0  0.1828646E-06  0.2299685E+04  0.7818609E-02  0.8478045E-01
       -2   -1    0    0    0  501  0.00000000000E+00  0.00000000000E+00  0.74265772427E+03  0.74265772427E+03  0.25500000920E-02 0. -1.
        2   -1    0    0  501    0  0.00000000000E+00  0.00000000000E+00 -0.17802793499E+04  0.17802793499E+04  0.25500000920E-02 0.  1.
    10030    2    1    2    0    0  0.00000000000E+00  0.00000000000E+00 -0.10376216256E+04  0.25229370741E+04  0.22996853789E+04 0.  0.
        3    1    3    3  502    0  0.52387998339E+03 -0.10034444531E+04 -0.74037517315E+03  0.13525924791E+04  0.10100000352E+00 0.  1.
       -3    1    3    3    0  502 -0.52387998339E+03  0.10034444531E+04 -0.29724645244E+03  0.11703445950E+04  0.10100000352E+00 0. -1.
</event>
<event>
 5   0  0.1689444E-06  0.2299157E+04  0.7818609E-02  0.8478253E-01
        2   -1    0    0  501    0  0.00000000000E+00  0.00000000000E+00  0.12401513255E+04  0.12401513255E+04  0.25500000920E-02 0.  1.
       -2   -1    0    0    0  501  0.00000000000E+00  0.00000000000E+00 -0.10656208860E+04  0.10656208860E+04  0.25500000920E-02 0. -1.
    10030    2    1    2    0    0  0.00000000000E+00  0.00000000000E+00  0.17453043952E+03  0.23057722115E+04  0.22991573711E+04 0.  0.
        2    1    3    3  502    0 -0.57747165222E+03 -0.71715352312E+03 -0.60300893403E+03  0.11006372969E+04  0.25500000920E-02 0. -1.
       -2    1    3    3    0  502  0.57747165222E+03  0.71715352312E+03  0.77753937355E+03  0.12051349146E+04  0.25500000920E-02 0.  1.
</event>
<event>
 5   0  0.1828646E-06  0.2300095E+04  0.7818609E-02  0.8477884E-01
       -2   -1    0    0    0  501  0.00000000000E+00  0.00000000000E+00  0.14354965214E+04  0.14354965214E+04  0.25500000920E-02 0.  1.
        2   -1    0    0  501    0  0.00000000000E+00  0.00000000000E+00 -0.92135993076E+03  0.92135993077E+03  0.25500000920E-02 0. -1.
    10030    2    1    2    0    0  0.00000000000E+00  0.00000000000E+00  0.51413659061E+03  0.23568564521E+04  0.23000947594E+04 0.  0.
        3    1    3    3  502    0 -0.33986184026E+03 -0.24298793207E+03 -0.84084906183E+03  0.93892297905E+03  0.10100000352E+00 0. -1.
       -3    1    3    3    0  502  0.33986184026E+03  0.24298793207E+03  0.13549856524E+04  0.14179334731E+04  0.10100000352E+00 0.  1.
</event>
<event>
 5   0  0.1825521E-06  0.2289831E+04  0.7818609E-02  0.8481942E-01
       -2   -1    0    0    0  501  0.00000000000E+00  0.00000000000E+00  0.13417926908E+04  0.13417926908E+04  0.25500000920E-02 0.  1.
        2   -1    0    0  501    0  0.00000000000E+00  0.00000000000E+00 -0.97692518597E+03  0.97692518597E+03  0.25500000920E-02 0. -1.
    10030    2    1    2    0    0  0.00000000000E+00  0.00000000000E+00  0.36486750488E+03  0.23187178768E+04  0.22898306261E+04 0.  0.
        5    1    3    3  502    0 -0.53722930213E+03 -0.67439317276E+03  0.94518765115E+03  0.12793839378E+04  0.46999998093E+01 0.  1.
       -5    1    3    3    0  502  0.53722930213E+03  0.67439317276E+03 -0.58032014627E+03  0.10393339390E+04  0.46999998093E+01 0. -1.
</event>
<event>
 5   0  0.1888779E-06  0.2300409E+04  0.7818609E-02  0.8477760E-01
        2   -1    0    0  501    0  0.00000000000E+00  0.00000000000E+00  0.88890146085E+03  0.88890146085E+03  0.25500000920E-02 0.  1.
       -2   -1    0    0    0  501  0.00000000000E+00  0.00000000000E+00 -0.14883212464E+04  0.14883212464E+04  0.25500000920E-02 0. -1.
    10030    2    1    2    0    0  0.00000000000E+00  0.00000000000E+00 -0.59941978553E+03  0.23772227072E+04  0.23004094680E+04 0.  0.
        4    1    3    3  502    0 -0.52827629590E+03  0.48803648321E+03  0.62787815027E+03  0.95471882679E+03  0.12699999809E+01 0.  1.
       -4    1    3    3    0  502  0.52827629590E+03 -0.48803648321E+03 -0.12272979358E+04  0.14225038804E+04  0.12699999809E+01 0. -1.
</event>
<event>
 5   0  0.1888779E-06  0.2304081E+04  0.7818609E-02  0.8476314E-01
        2   -1    0    0  501    0  0.00000000000E+00  0.00000000000E+00  0.10628708480E+04  0.10628708480E+04  0.25500000920E-02 0. -1.
       -2   -1    0    0    0  501  0.00000000000E+00  0.00000000000E+00 -0.12486915372E+04  0.12486915372E+04  0.25500000920E-02 0.  1.
    10030    2    1    2    0    0  0.00000000000E+00  0.00000000000E+00 -0.18582068923E+03  0.23115623852E+04  0.23040814509E+04 0.  0.
        4    1    3    3  502    0 -0.96135794293E+03 -0.59647479969E+03 -0.31088274758E+03  0.11733034461E+04  0.12699999809E+01 0.  1.
       -4    1    3    3    0  502  0.96135794293E+03  0.59647479969E+03  0.12506205835E+03  0.11382589391E+04  0.12699999809E+01 0. -1.
</event>
<event>
 5   0  0.7761069E-07  0.2300210E+04  0.7818609E-02  0.8477838E-01
       -1   -1    0    0    0  501  0.00000000000E+00  0.00000000000E+00  0.90155602947E+03  0.90155602948E+03  0.50400001928E-02 0. -1.
        1   -1    0    0  501    0  0.00000000000E+00  0.00000000000E+00 -0.14671759495E+04  0.14671759495E+04  0.50400001928E-02 0.  1.
    10030    2    1    2    0    0  0.00000000000E+00  0.00000000000E+00 -0.56561992005E+03  0.23687319790E+04  0.23002098370E+04 0.  0.
        1    1    3    3  502    0 -0.17811492798E+03 -0.28527089292E+03 -0.14154084612E+04  0.14548146006E+04  0.50400001928E-02 0.  1.
       -1    1    3    3    0  502  0.17811492798E+03  0.28527089292E+03  0.84978854116E+03  0.91391737845E+03  0.50400001928E-02 0. -1.
</event>
<event>
 5   0  0.1689444E-06  0.2300094E+04  0.7818609E-02  0.8477884E-01
        2   -1    0    0  501    0  0.00000000000E+00  0.00000000000E+00  0.16647275725E+04  0.16647275725E+04  0.25500000920E-02 0.  1.
       -2   -1    0    0    0  501  0.00000000000E+00  0.00000000000E+00 -0.79448919173E+03  0.79448919174E+03  0.25500000920E-02 0. -1.
    10030    2    1    2    0    0  0.00000000000E+00  0.00000000000E+00  0.87023838076E+03  0.24592167642E+04  0.23000939664E+04 0.  0.
        2    1    3    3  502    0 -0.39725519105E+03  0.59922948143E+03 -0.52459830786E+03  0.88999496788E+03  0.25500000920E-02 0. -1.
       -2    1    3    3    0  502  0.39725519105E+03 -0.59922948143E+03  0.13948366886E+04  0.15692217964E+04  0.25500000920E-02 0.  1.
</event>
<event>
 5   0  0.7932912E-07  0.2300629E+04  0.7818609E-02  0.8477673E-01
       -1   -1    0    0    0  501  0.00000000000E+00  0.00000000000E+00  0.14295211262E+04  0.14295211262E+04  0.50400001928E-02 0.  1.
        1   -1    0    0  501    0  0.00000000000E+00  0.00000000000E+00 -0.92564111561E+03  0.92564111562E+03  0.50400001928E-02 0. -1.
    10030    2    1    2    0    0  0.00000000000E+00  0.00000000000E+00  0.50388001057E+03  0.23551622418E+04  0.23006290705E+04 0.  0.
        5    1    3    3  502    0 -0.10166866636E+04 -0.53561635205E+03  0.30478524121E+03  0.11888872032E+04  0.46999998093E+01 0.  1.
       -5    1    3    3    0  502  0.10166866636E+04  0.53561635205E+03  0.19909476936E+03  0.11662750386E+04  0.46999998093E+01 0. -1.
</event>
<event>
 5   0  0.8108242E-07  0.2315414E+04  0.7818609E-02  0.8471868E-01
        1   -1    0    0  501    0  0.00000000000E+00  0.00000000000E+00  0.12463520075E+04  0.12463520075E+04  0.50400001928E-02 0. -1.
       -1   -1    0    0    0  501  0.00000000000E+00  0.00000000000E+00 -0.10753665699E+04  0.10753665699E+04  0.50400001928E-02 0.  1.
    10030    2    1    2    0    0  0.00000000000E+00  0.00000000000E+00  0.17098543756E+03  0.23217185774E+04  0.23154138146E+04 0.  0.
        4    1    3    3  502    0 -0.89172702021E+03 -0.45982552441E+03 -0.49371939461E+03  0.11182025957E+04  0.12699999809E+01 0.  1.
       -4    1    3    3    0  502  0.89172702021E+03  0.45982552441E+03  0.66470483218E+03  0.12035159817E+04  0.12699999809E+01 0. -1.
</event>
<event>
 5   0  0.7932912E-07  0.2301923E+04  0.7818609E-02  0.8477163E-01
        1   -1    0    0  501    0  0.00000000000E+00  0.00000000000E+00  0.31486237897E+04  0.31486237897E+04  0.50400001928E-02 0. -1.
       -1   -1    0    0    0  501  0.00000000000E+00  0.00000000000E+00 -0.42072725983E+03  0.42072725986E+03  0.50400001928E-02 0.  1.
    10030    2    1    2    0    0  0.00000000000E+00  0.00000000000E+00  0.27278965298E+04  0.35693510495E+04  0.23019225524E+04 0.  0.
        5    1    3    3  502    0 -0.70420325350E+03 -0.21534031275E+03 -0.76200504777E+01  0.73644675823E+03  0.46999998093E+01 0.  1.
       -5    1    3    3    0  502  0.70420325350E+03  0.21534031275E+03  0.27355165803E+04  0.28329042913E+04  0.46999998093E+01 0. -1.
</event>
<event>
 5   0  0.1744876E-06  0.2302658E+04  0.7818609E-02  0.8476874E-01
        2   -1    0    0  501    0  0.00000000000E+00  0.00000000000E+00  0.10287011990E+04  0.10287011990E+04  0.25500000920E-02 0. -1.
       -2   -1    0    0    0  501  0.00000000000E+00  0.00000000000E+00 -0.12885753131E+04  0.12885753131E+04  0.25500000920E-02 0.  1.
    10030    2    1    2    0    0  0.00000000000E+00  0.00000000000E+00 -0.25987411410E+03  0.23172765121E+04  0.23026584372E+04 0.  0.
        1    1    3    3  502    0  0.56265206602E+01  0.31142526088E+03  0.98549539178E+03  0.10335465728E+04  0.50400001928E-02 0. -1.
       -1    1    3    3    0  502 -0.56265206602E+01 -0.31142526088E+03 -0.12453695059E+04  0.12837299393E+04  0.50400001928E-02 0.  1.
</event>
<event>
 5   0  0.1828646E-06  0.2300834E+04  0.7818609E-02  0.8477592E-01
        2   -1    0    0  501    0  0.00000000000E+00  0.00000000000E+00  0.18282542459E+04  0.18282542459E+04  0.25500000920E-02 0.  1.
       -2   -1    0    0    0  501  0.00000000000E+00  0.00000000000E+00 -0.72389261319E+03  0.72389261319E+03  0.25500000920E-02 0. -1.
    10030    2    1    2    0    0  0.00000000000E+00  0.00000000000E+00  0.11043616327E+04  0.25521468591E+04  0.23008344083E+04 0.  0.
        3    1    3    3  502    0  0.54201182604E+03 -0.92759555750E+03  0.95845730548E+02  0.10786087113E+04  0.10100000352E+00 0.  1.
       -3    1    3    3    0  502 -0.54201182604E+03  0.92759555750E+03  0.10085159022E+04  0.14735381478E+04  0.10100000352E+00 0. -1.
</event>
<event>
 5   0  0.1825521E-06  0.2299393E+04  0.7818609E-02  0.8478161E-01
       -2   -1    0    0    0  501  0.00000000000E+00  0.00000000000E+00  0.90392184323E+03  0.90392184323E+03  0.25500000920E-02 0.  1.
        2   -1    0    0  501    0  0.00000000000E+00  0.00000000000E+00 -0.14622966056E+04  0.14622966056E+04  0.25500000920E-02 0. -1.
    10030    2    1    2    0    0  0.00000000000E+00  0.00000000000E+00 -0.55837476235E+03  0.23662184488E+04  0.22993928269E+04 0.  0.
        5    1    3    3  502    0  0.52868628808E+03 -0.93710380748E+03  0.13768703023E+03  0.10847361640E+04  0.46999998093E+01 0. -1.
       -5    1    3    3    0  502 -0.52868628808E+03  0.93710380748E+03 -0.69606179258E+03  0.12814822848E+04  0.46999998093E+01 0.  1.
</event>
<event>
 5   0  0.7932912E-07  0.2300295E+04  0.7818609E-02  0.8477805E-01
       -1   -1    0    0    0  501  0.00000000000E+00  0.00000000000E+00  0.69661673659E+03  0.69661673661E+03  0.50400001928E-02 0.  1.
        1   -1    0    0  501    0  0.00000000000E+00  0.00000000000E+00 -0.18989489695E+04  0.18989489695E+04  0.50400001928E-02 0. -1.
    10030    2    1    2    0    0  0.00000000000E+00  0.00000000000E+00 -0.12023322329E+04  0.25955657061E+04  0.23002953151E+04 0.  0.
        5    1    3    3  502    0  0.65400702511E+03 -0.88257085190E+03 -0.21659320454E+03  0.11196388720E+04  0.46999998093E+01 0.  1.
       -5    1    3    3    0  502 -0.65400702511E+03  0.88257085190E+03 -0.98573902835E+03  0.14759268341E+04  0.46999998093E+01 0. -1.
</event>
<event>
 5   0  0.1828646E-06  0.2300872E+04  0.7818609E-02  0.8477577E-01
        2   -1    0    0  501    0  0.00000000000E+00  0.00000000000E+00  0.22474438162E+04  0.22474438162E+04  0.25500000920E-02 0. -1.
       -2   -1    0    0    0  501  0.00000000000E+00  0.00000000000E+00 -0.58889260876E+03  0.58889260877E+03  0.25500000920E-02 0.  1.
    10030    2    1    2    0    0  0.00000000000E+00  0.00000000000E+00  0.16585512074E+04  0.28363364249E+04  0.23008720538E+04 0.  0.
        3    1    3    3  502    0  0.75105009071E+02  0.18523443570E+03 -0.56732347229E+03  0.60150518781E+03  0.10100000352E+00 0.  1.
       -3    1    3    3    0  502 -0.75105009071E+02 -0.18523443570E+03  0.22258746797E+04  0.22348312371E+04  0.10100000352E+00 0. -1.
</event>
<event>
 5   0  0.1888779E-06  0.2302742E+04  0.7818609E-02  0.8476841E-01
       -2   -1    0    0    0  501  0.00000000000E+00  0.00000000000E+00  0.23831434101E+04  0.23831434101E+04  0.25500000920E-02 0. -1.
        2   -1    0    0  501    0  0.00000000000E+00  0.00000000000E+00 -0.55626343097E+03  0.55626343097E+03  0.25500000920E-02 0.  1.
    10030    2    1    2    0    0  0.00000000000E+00  0.00000000000E+00  0.18268799791E+04  0.29394068410E+04  0.23027423041E+04 0.  0.
        4    1    3    3  502    0 -0.65393156863E+03  0.94680367283E+03  0.96434303004E+03  0.15013403291E+04  0.12699999809E+01 0. -1.
       -4    1    3    3    0  502  0.65393156863E+03 -0.94680367283E+03  0.86253694904E+03  0.14380665119E+04  0.12699999809E+01 0.  1.
</event>
<event>
 5   0  0.1825521E-06  0.2299850E+04  0.7818609E-02  0.8477980E-01
        2   -1    0    0  501    0  0.00000000000E+00  0.00000000000E+00  0.15066464291E+04  0.15066464291E+04  0.25500000920E-02 0. -1.
       -2   -1    0    0    0  501  0.00000000000E+00  0.00000000000E+00 -0.87766267812E+03  0.87766267812E+03  0.25500000920E-02 0.  1.
    10030    2    1    2    0    0  0.00000000000E+00  0.00000000000E+00  0.62898375101E+03  0.23843091073E+04  0.22998498559E+04 0.  0.
        5    1    3    3  502    0  0.91127396382E+03 -0.29325803137E+03  0.97497912027E+03  0.13663919222E+04  0.46999998093E+01 0. -1.
       -5    1    3    3    0  502 -0.91127396382E+03  0.29325803137E+03 -0.34599536926E+03  0.10179171851E+04  0.46999998093E+01 0.  1.
</event>
<event>
 5   0  0.7932912E-07  0.2300010E+04  0.7818609E-02  0.8477917E-01
       -1   -1    0    0    0  501  0.00000000000E+00  0.00000000000E+00  0.14781256261E+04  0.14781256262E+04  0.50400001928E-02 0.  1.
        1   -1    0    0  501    0  0.00000000000E+00  0.00000000000E+00 -0.89472189902E+03  0.89472189903E+03  0.50400001928E-02 0. -1.
    10030    2    1    2    0    0  0.00000000000E+00  0.00000000000E+00  0.58340372712E+03  0.23728475252E+04  0.23000098845E+04 0.  0.
        5    1    3    3  502    0  0.38249083821E+03 -0.15754303976E+03  0.13987018794E+04  0.14585979872E+04  0.46999998093E+01 0.  1.
       -5    1    3    3    0  502 -0.38249083821E+03  0.15754303976E+03 -0.81529815228E+03  0.91424953803E+03  0.46999998093E+01 0. -1.
</event>
<event>
 5   0  0.1828646E-06  0.2297424E+04  0.7818609E-02  0.8478938E-01
        2   -1    0    0  501    0  0.00000000000E+00  0.00000000000E+00  0.14905340417E+04  0.14905340417E+04  0.25500000920E-02 0.  1.
       -2   -1    0    0    0  501  0.00000000000E+00  0.00000000000E+00 -0.88527939265E+03  0.88527939265E+03  0.25500000920E-02 0. -1.
    10030    2    1    2    0    0  0.00000000000E+00  0.00000000000E+00  0.60525464908E+03  0.23758134344E+04  0.22974238365E+04 0.  0.
        3    1    3    3  502    0  0.93907194804E+03  0.29174352096E+03  0.91666223137E+03  0.13443362906E+04  0.10100000352E+00 0. -1.
       -3    1    3    3    0  502 -0.93907194804E+03 -0.29174352096E+03 -0.31140758230E+03  0.10314771438E+04  0.10100000352E+00 0.  1.
</event>
<event>
 5   0  0.1744876E-06  0.2300046E+04  0.7818609E-02  0.8477903E-01
        2   -1    0    0  501    0  0.00000000000E+00  0.00000000000E+00  0.22448409834E+04  0.22448409834E+04  0.25500000920E-02 0. -1.
       -2   -1    0    0    0  501  0.00000000000E+00  0.00000000000E+00 -0.58915231198E+03  0.58915231198E+03  0.25500000920E-02 0.  1.
    10030    2    1    2    0    0  0.00000000000E+00  0.00000000000E+00  0.16556886714E+04  0.28339932954E+04  0.23000463086E+04 0.  0.
        1    1    3    3  502    0 -0.11121975151E+03 -0.29606990333E+03 -0.53451382207E+03  0.62107346328E+03  0.50400001928E-02 0.  1.
       -1    1    3    3    0  502  0.11121975151E+03  0.29606990333E+03  0.21902024935E+04  0.22129198321E+04  0.50400001928E-02 0. -1.
</event>
<event>
 5   0  0.1888779E-06  0.2300036E+04  0.7818609E-02  0.8477907E-01
        2   -1    0    0  501    0  0.00000000000E+00  0.00000000000E+00  0.75454665534E+03  0.75454665534E+03  0.25500000920E-02 0. -1.
       -2   -1    0    0    0  501  0.00000000000E+00  0.00000000000E+00 -0.17527625826E+04  0.17527625826E+04  0.25500000920E-02 0.  1.
    10030    2    1    2    0    0  0.00000000000E+00  0.00000000000E+00 -0.99821592723E+03  0.25073092379E+04  0.23000357774E+04 0.  0.
        4    1    3    3  502    0 -0.77700664445E+03  0.74748369113E+03 -0.62967856239E+02  0.10800174803E+04  0.12699999809E+01 0. -1.
       -4    1    3    3    0  502  0.77700664445E+03 -0.74748369113E+03 -0.93524807100E+03  0.14272917576E+04  0.12699999809E+01 0.  1.
</event>
<event>
 5   0  0.1744876E-06  0.2299406E+04  0.7818609E-02  0.8478155E-01
        2   -1    0    0  501    0  0.00000000000E+00  0.00000000000E+00  0.13091828331E+04  0.13091828331E+04  0.25500000920E-02 0. -1.
       -2   -1    0    0    0  501  0.00000000000E+00  0.00000000000E+00 -0.10096506230E+04  0.10096506230E+04  0.25500000920E-02 0.  1.
    10030    2    1    2    0    0  0.00000000000E+00  0.00000000000E+00  0.29953221009E+03  0.23188334562E+04  0.22994062392E+04 0.  0.
        1    1    3    3  502    0  0.28798894544E+03  0.57662322489E+03 -0.81032020237E+03  0.10353988635E+04  0.50400001928E-02 0.  1.
       -1    1    3    3    0  502 -0.28798894544E+03 -0.57662322489E+03  0.11098524125E+04  0.12834345927E+04  0.50400001928E-02 0. -1.
</event>
<event>
 5   0  0.1828646E-06  0.2300582E+04  0.7818609E-02  0.8477692E-01
       -2   -1    0    0    0  501  0.00000000000E+00  0.00000000000E+00  0.89181208637E+03  0.89181208637E+03  0.25500000920E-02 0.  1.
        2   -1    0    0  501    0  0.00000000000E+00  0.00000000000E+00 -0.14836860871E+04  0.14836860871E+04  0.25500000920E-02 0. -1.
    10030    2    1    2    0    0  0.00000000000E+00  0.00000000000E+00 -0.59187400077E+03  0.23754981735E+04  0.23005818263E+04 0.  0.
        3    1    3    3  502    0  0.82024257405E+03  0.42921395944E+03  0.40904545634E+03  0.10120971785E+04  0.10100000352E+00 0. -1.
       -3    1    3    3    0  502 -0.82024257405E+03 -0.42921395944E+03 -0.10009194571E+04  0.13634009950E+04  0.10100000352E+00 0.  1.
</event>
<event>
 5   0  0.1689444E-06  0.2299966E+04  0.7818609E-02  0.8477935E-01
        2   -1    0    0  501    0  0.00000000000E+00  0.00000000000E+00  0.14433580858E+04  0.14433580858E+04  0.25500000920E-02 0. -1.
       -2   -1    0    0    0  501  0.00000000000E+00  0.00000000000E+00 -0.91623892417E+03  0.91623892417E+03  0.25500000920E-02 0.  1.
    10030    2    1    2    0    0  0.00000000000E+00  0.00000000000E+00  0.52711916164E+03  0.23595970100E+04  0.22999659647E+04 0.  0.
        2    1    3    3  502    0 -0.30189630631E+03  0.91134170625E+03  0.91304163988E+03  0.13248887204E+04  0.25500000920E-02 0. -1.
       -2    1    3    3    0  502  0.30189630631E+03 -0.91134170625E+03 -0.38592247823E+03  0.10347082896E+04  0.25500000920E-02 0.  1.
</event>
<event>
 5   0  0.1744876E-06  0.2298086E+04  0.7818609E-02  0.8478676E-01
        2   -1    0    0  501    0  0.00000000000E+00  0.00000000000E+00  0.22170315597E+04  0.22170315597E+04  0.25500000920E-02 0. -1.
       -2   -1    0    0    0  501  0.00000000000E+00  0.00000000000E+00 -0.59552611149E+03  0.59552611149E+03  0.25500000920E-02 0.  1.
    10030    2    1    2    0    0  0.00000000000E+00  0.00000000000E+00  0.16215054482E+04  0.28125576712E+04  0.22980863202E+04 0.  0.
        1    1    3    3  502    0  0.69018761102E+03 -0.81233698156E+03  0.28570006680E+03  0.11035736669E+04  0.50400001928E-02 0.  1.
       -1    1    3    3    0  502 -0.69018761102E+03  0.81233698156E+03  0.13358053814E+04  0.17089840044E+04  0.50400001928E-02 0. -1.
</event>
<event>
 5   0  0.1689444E-06  0.2299994E+04  0.7818609E-02  0.8477923E-01
       -2   -1    0    0    0  501  0.00000000000E+00  0.00000000000E+00  0.85395123864E+03  0.85395123865E+03  0.25500000920E-02 0. -1.
        2   -1    0    0  501    0  0.00000000000E+00  0.00000000000E+00 -0.15486751169E+04  0.15486751169E+04  0.25500000920E-02 0.  1.
    10030    2    1    2    0    0  0.00000000000E+00  0.00000000000E+00 -0.69472387823E+03  0.24026263555E+04  0.22999939429E+04 0.  0.
        2    1    3    3  502    0  0.81432669519E+02  0.22973556473E+03  0.82665819578E+03  0.86184307274E+03  0.25500000920E-02 0. -1.
       -2    1    3    3    0  502 -0.81432669519E+02 -0.22973556473E+03 -0.15213820740E+04  0.15407832828E+04  0.25500000920E-02 0.  1.
</event>
<event>
 5   0  0.7761069E-07  0.2300398E+04  0.7818609E-02  0.8477764E-01
        1   -1    0    0  501    0  0.00000000000E+00  0.00000000000E+00  0.13756858946E+04  0.13756858946E+04  0.50400001928E-02 0. -1.
       -1   -1    0    0    0  501  0.00000000000E+00  0.00000000000E+00 -0.96167128831E+03  0.96167128832E+03  0.50400001928E-02 0.  1.
    10030    2    1    2    0    0  0.00000000000E+00  0.00000000000E+00  0.41401460626E+03  0.23373571829E+04  0.23003979017E+04 0.  0.
        1    1    3    3  502    0 -0.15969209878E+03 -0.31092769335E+02  0.13639359897E+04  0.13736046413E+04  0.50400001928E-02 0. -1.
       -1    1    3    3    0  502  0.15969209878E+03  0.31092769335E+02 -0.94992138341E+03  0.96375254158E+03  0.50400001928E-02 0.  1.
</event>
<event>
 5   0  0.7607231E-07  0.2301118E+04  0.7818609E-02  0.8477481E-01
       -1   -1    0    0    0  501  0.00000000000E+00  0.00000000000E+00  0.64936270121E+03  0.64936270122E+03  0.50400001928E-02 0.  1.
        1   -1    0    0  501    0  0.00000000000E+00  0.00000000000E+00 -0.20385922303E+04  0.20385922303E+04  0.50400001928E-02 0. -1.
    10030    2    1    2    0    0  0.00000000000E+00  0.00000000000E+00 -0.13892295291E+04  0.26879549315E+04  0.23011177782E+04 0.  0.
        2    1    3    3  502    0 -0.59185887131E+03  0.12641394552E+03 -0.18376363172E+04  0.19347311554E+04  0.25500000920E-02 0. -1.
       -2    1    3    3    0  502  0.59185887131E+03 -0.12641394552E+03  0.44840678819E+03  0.75322377610E+03  0.25500000920E-02 0.  1.
</event>
<event>
 5   0  0.8108242E-07  0.2299840E+04  0.7818609E-02  0.8477984E-01
        1   -1    0    0  501    0  0.00000000000E+00  0.00000000000E+00  0.14412461200E+04  0.14412461200E+04  0.50400001928E-02 0.  1.
       -1   -1    0    0    0  501  0.00000000000E+00  0.00000000000E+00 -0.91748142846E+03  0.91748142848E+03  0.50400001928E-02 0. -1.
    10030    2    1    2    0    0  0.00000000000E+00  0.00000000000E+00  0.52376469157E+03  0.23587275485E+04  0.22998404719E+04 0.  0.
        4    1    3    3  502    0  0.11242230880E+04  0.17910877712E+03  0.42838900293E+03  0.12163372297E+04  0.12699999809E+01 0.  1.
       -4    1    3    3    0  502 -0.11242230880E+04 -0.17910877712E+03  0.95375688640E+02  0.11423903188E+04  0.12699999809E+01 0. -1.
</event>
<event>
 5   0  0.7932912E-07  0.2293704E+04  0.7818609E-02  0.8480407E-01
        1   -1    0    0  501    0  0.00000000000E+00  0.00000000000E+00  0.22137656918E+04  0.22137656918E+04  0.50400001928E-02 0. -1.
       -1   -1    0    0    0  501  0.00000000000E+00  0.00000000000E+00 -0.59413245165E+03  0.59413245167E+03  0.50400001928E-02 0.  1.
    10030    2    1    2    0    0  0.00000000000E+00  0.00000000000E+00  0.16196332401E+04  0.28078981435E+04  0.22937044604E+04 0.  0.
        5    1    3    3  502    0  0.27507634075E+03  0.45431833703E+03  0.20541335322E+04  0.21216877250E+04  0.46999998093E+01 0. -1.
       -5    1    3    3    0  502 -0.27507634075E+03 -0.45431833703E+03 -0.43450029202E+03  0.68621041843E+03  0.46999998093E+01 0.  1.
</event>
<event>
 5   0  0.1828646E-06  0.2299633E+04  0.7818609E-02  0.8478066E-01
        2   -1    0    0  501    0  0.00000000000E+00  0.00000000000E+00  0.13306952926E+04  0.13306952926E+04  0.25500000920E-02 0. -1.
       -2   -1    0    0    0  501  0.00000000000E+00  0.00000000000E+00 -0.99352421519E+03  0.99352421519E+03  0.25500000920E-02 0.  1.
    10030    2    1    2    0    0  0.00000000000E+00  0.00000000000E+00  0.33717107743E+03  0.23242195078E+04  0.22996330110E+04 0.  0.
        3    1    3    3  502    0 -0.52284153559E+03 -0.57894908419E+03  0.10223253620E+04  0.12859605241E+04  0.10100000352E+00 0. -1.
       -3    1    3    3    0  502  0.52284153559E+03  0.57894908419E+03 -0.68515428460E+03  0.10382589837E+04  0.10100000352E+00 0.  1.
</event>
<event>
 5   0  0.6319125E-07  0.2301406E+04  0.7818609E-02  0.8477367E-01
        3   -1    0    0  501    0  0.00000000000E+00  0.00000000000E+00  0.15312591439E+04  0.15312591473E+04  0.10100000352E+00 0. -1.
       -3   -1    0    0    0  501  0.00000000000E+00  0.00000000000E+00 -0.86472443747E+03  0.86472444337E+03  0.10100000352E+00 0.  1.
    10030    2    1    2    0    0  0.00000000000E+00  0.00000000000E+00  0.66653470646E+03  0.23959835906E+04  0.23014058424E+04 0.  0.
        3    1    3    3  502    0 -0.58113586627E+03  0.56567377661E+03  0.11831556815E+04  0.14344208216E+04  0.10100000352E+00 0. -1.
       -3    1    3    3    0  502  0.58113586627E+03 -0.56567377661E+03 -0.51662097508E+03  0.96156276898E+03  0.10100000352E+00 0.  1.
</event>
<event>
 5   0  0.1828646E-06  0.2299840E+04  0.7818609E-02  0.8477984E-01
       -2   -1    0    0    0  501  0.00000000000E+00  0.00000000000E+00  0.89473587469E+03  0.89473587469E+03  0.25500000920E-02 0.  1.
        2   -1    0    0  501    0  0.00000000000E+00  0.00000000000E+00 -0.14778846320E+04  0.14778846320E+04  0.25500000920E-02 0. -1.
    10030    2    1    2    0    0  0.00000000000E+00  0.00000000000E+00 -0.58314875730E+03  0.23726205067E+04  0.22998403413E+04 0.  0.
        3    1    3    3  502    0  0.25837129591E+03  0.98971674677E+03  0.25042899227E+03  0.10530952738E+04  0.10100000352E+00 0.  1.
       -3    1    3    3    0  502 -0.25837129591E+03 -0.98971674677E+03 -0.83357774957E+03  0.13195252329E+04  0.10100000352E+00 0. -1.
</event>
<event>
 5   0  0.8097672E-07  0.2302186E+04  0.7818609E-02  0.8477060E-01
       -1   -1    0    0    0  501  0.00000000000E+00  0.00000000000E+00  0.12365074434E+04  0.12365074434E+04  0.50400001928E-02 0. -1.
        1   -1    0    0  501    0  0.00000000000E+00  0.00000000000E+00 -0.10715784784E+04  0.10715784784E+04  0.50400001928E-02 0.  1.
    10030    2    1    2    0    0  0.00000000000E+00  0.00000000000E+00  0.16492896498E+03  0.23080859218E+04  0.23021857134E+04 0.  0.
        3    1    3    3  502    0 -0.50538225217E+02  0.82360674370E+03  0.88710009207E+03  0.12115398318E+04  0.10100000352E+00 0. -1.
       -3    1    3    3    0  502  0.50538225217E+02 -0.82360674370E+03 -0.72217112708E+03  0.10965460900E+04  0.10100000352E+00 0.  1.
</event>
<event>
 5   0  0.8108242E-07  0.2299842E+04  0.7818609E-02  0.8477983E-01
       -1   -1    0    0    0  501  0.00000000000E+00  0.00000000000E+00  0.96450584358E+03  0.96450584359E+03  0.50400001928E-02 0.  1.
        1   -1    0    0  501    0  0.00000000000E+00  0.00000000000E+00 -0.13709805267E+04  0.13709805267E+04  0.50400001928E-02 0. -1.
    10030    2    1    2    0    0  0.00000000000E+00  0.00000000000E+00 -0.40647468308E+03  0.23354863703E+04  0.22998423680E+04 0.  0.
        4    1    3    3  502    0 -0.98103910129E+03 -0.51478568760E+03  0.10955447096E+03  0.11133040094E+04  0.12699999809E+01 0.  1.
       -4    1    3    3    0  502  0.98103910129E+03  0.51478568760E+03 -0.51602915404E+03  0.12221823608E+04  0.12699999809E+01 0. -1.
</event>
<event>
 5   0  0.7932912E-07  0.2299976E+04  0.7818609E-02  0.8477931E-01
        1   -1    0    0  501    0  0.00000000000E+00  0.00000000000E+00  0.17640270715E+04  0.17640270715E+04  0.50400001928E-02 0. -1.
       -1   -1    0    0    0  501  0.00000000000E+00  0.00000000000E+00 -0.74968927306E+03  0.74968927307E+03  0.50400001928E-02 0.  1.
    10030    2    1    2    0    0  0.00000000000E+00  0.00000000000E+00  0.10143377984E+04  0.25137163446E+04  0.22999758024E+04 0.  0.
        5    1    3    3  502    0 -0.92088274508E+03  0.13868432401E+03 -0.23020909821E+03  0.95931052888E+03  0.46999998093E+01 0.  1.
       -5    1    3    3    0  502  0.92088274508E+03 -0.13868432401E+03  0.12445468966E+04  0.15544058157E+04  0.46999998093E+01 0. -1.
</event>
<event>
 5   0  0.1888779E-06  0.2300025E+04  0.7818609E-02  0.8477911E-01
        2   -1    0    0  501    0  0.00000000000E+00  0.00000000000E+00  0.13010623558E+04  0.13010623558E+04  0.25500000920E-02 0. -1.
       -2   -1    0    0    0  501  0.00000000000E+00  0.00000000000E+00 -0.10164989545E+04  0.10164989545E+04  0.25500000920E-02 0.  1.
    10030    2    1    2    0    0  0.00000000000E+00  0.00000000000E+00  0.28456340131E+03  0.23175613103E+04  0.23000248037E+04 0.  0.
        4    1    3    3  502    0 -0.34928775062E+03 -0.49186376617E+03  0.11288253279E+04  0.12799141108E+04  0.12699999809E+01 0. -1.
       -4    1    3    3    0  502  0.34928775062E+03  0.49186376617E+03 -0.84426192657E+03  0.10376471996E+04  0.12699999809E+01 0.  1.
</event>
<event>
 5   0  0.1888779E-06  0.2301003E+04  0.7818609E-02  0.8477526E-01
       -2   -1    0    0    0  501  0.00000000000E+00  0.00000000000E+00  0.98563568331E+03  0.98563568332E+03  0.25500000920E-02 0.  1.
        2   -1    0    0  501    0  0.00000000000E+00  0.00000000000E+00 -0.13429438637E+04  0.13429438637E+04  0.25500000920E-02 0. -1.
    10030    2    1    2    0    0  0.00000000000E+00  0.00000000000E+00 -0.35730818037E+03  0.23285795470E+04  0.23010027316E+04 0.  0.
        4    1    3    3  502    0 -0.15165029557E+03  0.90790849531E+03  0.51980315111E+03  0.10571152145E+04  0.12699999809E+01 0.  1.
       -4    1    3    3    0  502  0.15165029557E+03 -0.90790849531E+03 -0.87711133149E+03  0.12714643325E+04  0.12699999809E+01 0. -1.
</event>
<event>
 5   0  0.1828646E-06  0.2299843E+04  0.7818609E-02  0.8477983E-01
        2   -1    0    0  501    0  0.00000000000E+00  0.00000000000E+00  0.11841027069E+04  0.11841027069E+04  0.25500000920E-02 0.  1.
       -2   -1    0    0    0  501  0.00000000000E+00  0.00000000000E+00 -0.11167272633E+04  0.11167272633E+04  0.25500000920E-02 0. -1.
    10030    2    1    2    0    0  0.00000000000E+00  0.00000000000E+00  0.67375443591E+02  0.23008299702E+04  0.22998432775E+04 0.  0.
        3    1    3    3  502    0  0.65744171294E+03 -0.24545685789E+03  0.94503468630E+03  0.11771020531E+04  0.10100000352E+00 0.  1.
       -3    1    3    3    0  502 -0.65744171294E+03  0.24545685789E+03 -0.87765924271E+03  0.11237279170E+04  0.10100000352E+00 0. -1.
</event>
<event>
 5   0  0.7761069E-07  0.2300456E+04  0.7818609E-02  0.8477741E-01
        1   -1    0    0  501    0  0.00000000000E+00  0.00000000000E+00  0.12972957803E+04  0.12972957803E+04  0.50400001928E-02 0. -1.
       -1   -1    0    0    0  501  0.00000000000E+00  0.00000000000E+00 -0.10198325347E+04  0.10198325347E+04  0.50400001928E-02 0.  1.
    10030    2    1    2    0    0  0.00000000000E+00  0.00000000000E+00  0.27746324553E+03  0.23171283150E+04  0.23004559930E+04 0.  0.
        1    1    3    3  502    0  0.75140252883E+03  0.46320810988E+03 -0.60407965382E+03  0.10696166330E+04  0.50400001928E-02 0.  1.
       -1    1    3    3    0  502 -0.75140252883E+03 -0.46320810988E+03  0.88154289935E+03  0.12475116820E+04  0.50400001928E-02 0. -1.
</event>
<event>
 5   0  0.1888779E-06  0.2300377E+04  0.7818609E-02  0.8477773E-01
       -2   -1    0    0    0  501  0.00000000000E+00  0.00000000000E+00  0.12011696130E+04  0.12011696130E+04  0.25500000920E-02 0.  1.
        2   -1    0    0  501    0  0.00000000000E+00  0.00000000000E+00 -0.11013709324E+04  0.11013709324E+04  0.25500000920E-02 0. -1.
    10030    2    1    2    0    0  0.00000000000E+00  0.00000000000E+00  0.99798680667E+02  0.23025405454E+04  0.23003767489E+04 0.  0.
        4    1    3    3  502    0 -0.68177634136E+03 -0.34010160813E+03  0.91236150311E+03  0.11886518451E+04  0.12699999809E+01 0.  1.
       -4    1    3    3    0  502  0.68177634136E+03  0.34010160813E+03 -0.81256282245E+03  0.11138887004E+04  0.12699999809E+01 0. -1.
</event>
<event>
 5   0  0.8108242E-07  0.2299393E+04  0.7818609E-02  0.8478160E-01
       -1   -1    0    0    0  501  0.00000000000E+00  0.00000000000E+00  0.13921705909E+04  0.13921705909E+04  0.50400001928E-02 0. -1.
        1   -1    0    0  501    0  0.00000000000E+00  0.00000000000E+00 -0.94945413514E+03  0.94945413515E+03  0.50400001928E-02 0.  1.
    10030    2    1    2    0    0  0.00000000000E+00  0.00000000000E+00  0.44271645574E+03  0.23416247260E+04  0.22993930715E+04 0.  0.
        4    1    3    3  502    0 -0.75258505955E+03  0.11629893016E+03  0.10985086348E+04  0.13366497472E+04  0.12699999809E+01 0. -1.
       -4    1    3    3    0  502  0.75258505955E+03 -0.11629893016E+03 -0.65579217910E+03  0.10049749788E+04  0.12699999809E+01 0.  1.
</event>
<event>
 5   0  0.1744876E-06  0.2299822E+04  0.7818609E-02  0.8477991E-01
        2   -1    0    0  501    0  0.00000000000E+00  0.00000000000E+00  0.91259454432E+03  0.91259454432E+03  0.25500000920E-02 0.  1.
       -2   -1    0    0    0  501  0.00000000000E+00  0.00000000000E+00 -0.14489412120E+04  0.14489412120E+04  0.25500000920E-02 0. -1.
    10030    2    1    2    0    0  0.00000000000E+00  0.00000000000E+00 -0.53634666771E+03  0.23615357563E+04  0.22998224672E+04 0.  0.
        1    1    3    3  502    0 -0.10726365582E+03  0.94821782502E+03  0.39066152381E+03  0.10311347932E+04  0.50400001928E-02 0.  1.
       -1    1    3    3    0  502  0.10726365582E+03 -0.94821782502E+03 -0.92700819152E+03  0.13304009631E+04  0.50400001928E-02 0. -1.
</event>
<event>
 5   0  0.1825521E-06  0.2300689E+04  0.7818609E-02  0.8477649E-01
        2   -1    0    0  501    0  0.00000000000E+00  0.00000000000E+00  0.17169758168E+04  0.17169758168E+04  0.25500000920E-02 0.  1.
       -2   -1    0    0    0  501  0.00000000000E+00  0.00000000000E+00 -0.77071128282E+03  0.77071128282E+03  0.25500000920E-02 0. -1.
    10030    2    1    2    0    0  0.00000000000E+00  0.00000000000E+00  0.94626453397E+03  0.24876870996E+04  0.23006891440E+04 0.  0.
        5    1    3    3  502    0  0.48130606098E+03  0.10446419201E+04  0.45324499364E+03  0.12362788438E+04  0.46999998093E+01 0.  1.
       -5    1    3    3    0  502 -0.48130606098E+03 -0.10446419201E+04  0.49301954033E+03  0.12514082558E+04  0.46999998093E+01 0. -1.
</event>
<event>
 5   0  0.8108242E-07  0.2300017E+04  0.7818609E-02  0.8477914E-01
       -1   -1    0    0    0  501  0.00000000000E+00  0.00000000000E+00  0.95019941520E+03  0.95019941521E+03  0.50400001928E-02 0.  1.
        1   -1    0    0  501    0  0.00000000000E+00  0.00000000000E+00 -0.13918338664E+04  0.13918338664E+04  0.50400001928E-02 0. -1.
    10030    2    1    2    0    0  0.00000000000E+00  0.00000000000E+00 -0.44163445122E+03  0.23420332816E+04  0.23000171529E+04 0.  0.
        4    1    3    3  502    0 -0.82943191094E+03  0.47009726137E+03  0.43402424850E+03  0.10475339571E+04  0.12699999809E+01 0.  1.
       -4    1    3    3    0  502  0.82943191094E+03 -0.47009726137E+03 -0.87565869971E+03  0.12944993246E+04  0.12699999809E+01 0. -1.
</event>
<event>
 5   0  0.7761069E-07  0.2310353E+04  0.7818609E-02  0.8473850E-01
        1   -1    0    0  501    0  0.00000000000E+00  0.00000000000E+00  0.13832446916E+04  0.13832446916E+04  0.50400001928E-02 0. -1.
       -1   -1    0    0    0  501  0.00000000000E+00  0.00000000000E+00 -0.96471206916E+03  0.96471206917E+03  0.50400001928E-02 0.  1.
    10030    2    1    2    0    0  0.00000000000E+00  0.00000000000E+00  0.41853262242E+03  0.23479567608E+04  0.23103530887E+04 0.  0.
        1    1    3    3  502    0 -0.36717712098E+03  0.58868432437E+03 -0.72938154215E+03  0.10066606707E+04  0.50400001928E-02 0.  1.
       -1    1    3    3    0  502  0.36717712098E+03 -0.58868432437E+03  0.11479141646E+04  0.13412960900E+04  0.50400001928E-02 0. -1.
</event>
<event>
 5   0  0.8108242E-07  0.2299219E+04  0.7818609E-02  0.8478229E-01
       -1   -1    0    0    0  501  0.00000000000E+00  0.00000000000E+00  0.64502607850E+03  0.64502607852E+03  0.50400001928E-02 0.  1.
        1   -1    0    0  501    0  0.00000000000E+00  0.00000000000E+00 -0.20489117009E+04  0.20489117009E+04  0.50400001928E-02 0. -1.
    10030    2    1    2    0    0  0.00000000000E+00  0.00000000000E+00 -0.14038856224E+04  0.26939377794E+04  0.22992185452E+04 0.  0.
        4    1    3    3  502    0 -0.10054232295E+04 -0.57934493787E+02 -0.13515283434E+04  0.16854859097E+04  0.12699999809E+01 0. -1.
       -4    1    3    3    0  502  0.10054232295E+04  0.57934493787E+02 -0.52357278951E+02  0.10084518697E+04  0.12699999809E+01 0.  1.
</event>
<event>
 5   0  0.1888779E-06  0.2300065E+04  0.7818609E-02  0.8477895E-01
        2   -1    0    0  501    0  0.00000000000E+00  0.00000000000E+00  0.13387503927E+04  0.13387503927E+04  0.25500000920E-02 0.  1.
       -2   -1    0    0    0  501  0.00000000000E+00  0.00000000000E+00 -0.98791732459E+03  0.98791732459E+03  0.25500000920E-02 0. -1.
    10030    2    1    2    0    0  0.00000000000E+00  0.00000000000E+00  0.35083306814E+03  0.23266677173E+04  0.23000649611E+04 0.  0.
        4    1    3    3  502    0 -0.64540754567E+03 -0.74576625020E+03  0.77374303422E+03  0.12535541855E+04  0.12699999809E+01 0.  1.
       -4    1    3    3    0  502  0.64540754567E+03  0.74576625020E+03 -0.42290996608E+03  0.10731135319E+04  0.12699999809E+01 0. -1.
</event>
<event>
 5   0  0.7761069E-07  0.2299573E+04  0.7818609E-02  0.8478090E-01
       -1   -1    0    0    0  501  0.00000000000E+00  0.00000000000E+00  0.63351511999E+03  0.63351512001E+03  0.50400001928E-02 0. -1.
        1   -1    0    0  501    0  0.00000000000E+00  0.00000000000E+00 -0.20867831070E+04  0.20867831070E+04  0.50400001928E-02 0.  1.
    10030    2    1    2    0    0  0.00000000000E+00  0.00000000000E+00 -0.14532679870E+04  0.27202982271E+04  0.22995726999E+04 0.  0.
        1    1    3    3  502    0 -0.61043019270E+03 -0.17554149924E+03 -0.18604046752E+04  0.19658447023E+04  0.50400001928E-02 0.  1.
       -1    1    3    3    0  502  0.61043019270E+03  0.17554149924E+03  0.40713668815E+03  0.75445352473E+03  0.50400001928E-02 0. -1.
</event>
<event>
 5   0  0.1744876E-06  0.2300862E+04  0.7818609E-02  0.8477581E-01
        2   -1    0    0  501    0  0.00000000000E+00  0.00000000000E+00  0.17874671302E+04  0.17874671302E+04  0.25500000920E-02 0.  1.
       -2   -1    0    0    0  501  0.00000000000E+00  0.00000000000E+00 -0.74042838299E+03  0.74042838299E+03  0.25500000920E-02 0. -1.
    10030    2    1    2    0    0  0.00000000000E+00  0.00000000000E+00  0.10470387472E+04  0.25278955132E+04  0.23008619227E+04 0.  0.
        1    1    3    3  502    0 -0.36081080514E+02  0.10949256823E+04  0.13768743185E+03  0.11041385434E+04  0.50400001928E-02 0. -1.
       -1    1    3    3    0  502  0.36081080514E+02 -0.10949256823E+04  0.90935131538E+03  0.14237569698E+04  0.50400001928E-02 0.  1.
</event>
<event>
 5   0  0.6319125E-07  0.2299662E+04  0.7818609E-02  0.8478054E-01
       -3   -1    0    0    0  501  0.00000000000E+00  0.00000000000E+00  0.12992572042E+04  0.12992572081E+04  0.10100000352E+00 0. -1.
        3   -1    0    0  501    0  0.00000000000E+00  0.00000000000E+00 -0.10175899102E+04  0.10175899152E+04  0.10100000352E+00 0.  1.
    10030    2    1    2    0    0  0.00000000000E+00  0.00000000000E+00  0.28166729404E+03  0.23168471233E+04  0.22996617422E+04 0.  0.
        4    1    3    3  502    0 -0.10458732271E+04  0.32290865414E+03 -0.21391791709E+03  0.11152951601E+04  0.12699999809E+01 0.  1.
       -4    1    3    3    0  502  0.10458732271E+04 -0.32290865414E+03  0.49558521113E+03  0.12015519632E+04  0.12699999809E+01 0. -1.
</event>
<event>
 5   0  0.7932912E-07  0.2300929E+04  0.7818609E-02  0.8477555E-01
       -1   -1    0    0    0  501  0.00000000000E+00  0.00000000000E+00  0.10477790951E+04  0.10477790951E+04  0.50400001928E-02 0. -1.
        1   -1    0    0  501    0  0.00000000000E+00  0.00000000000E+00 -0.12632136532E+04  0.12632136532E+04  0.50400001928E-02 0.  1.
    10030    2    1    2    0    0  0.00000000000E+00  0.00000000000E+00 -0.21543455816E+03  0.23109927483E+04  0.23009292544E+04 0.  0.
        5    1    3    3  502    0  0.78514451726E+03  0.16225152591E+02 -0.95212713822E+03  0.12342136549E+04  0.46999998093E+01 0.  1.
       -5    1    3    3    0  502 -0.78514451726E+03 -0.16225152591E+02  0.73669258006E+03  0.10767790934E+04  0.46999998093E+01 0. -1.
</event>
<event>
 5   0  0.1828646E-06  0.2299494E+04  0.7818609E-02  0.8478121E-01
       -2   -1    0    0    0  501  0.00000000000E+00  0.00000000000E+00  0.11468366460E+04  0.11468366460E+04  0.25500000920E-02 0. -1.
        2   -1    0    0  501    0  0.00000000000E+00  0.00000000000E+00 -0.11526647014E+04  0.11526647014E+04  0.25500000920E-02 0.  1.
    10030    2    1    2    0    0  0.00000000000E+00  0.00000000000E+00 -0.58280554099E+01  0.22995013474E+04  0.22994939618E+04 0.  0.
        3    1    3    3  502    0  0.24210799474E+03  0.76614153674E+03 -0.82530889576E+03  0.11518350225E+04  0.10100000352E+00 0.  1.
       -3    1    3    3    0  502 -0.24210799474E+03 -0.76614153674E+03  0.81948084035E+03  0.11476663249E+04  0.10100000352E+00 0. -1.
</event>
<event>
 5   0  0.7761069E-07  0.2299977E+04  0.7818609E-02  0.8477930E-01
       -1   -1    0    0    0  501  0.00000000000E+00  0.00000000000E+00  0.79878714009E+03  0.79878714011E+03  0.50400001928E-02 0.  1.
        1   -1    0    0  501    0  0.00000000000E+00  0.00000000000E+00 -0.16556022817E+04  0.16556022818E+04  0.50400001928E-02 0. -1.
    10030    2    1    2    0    0  0.00000000000E+00  0.00000000000E+00 -0.85681514166E+03  0.24543894219E+04  0.22999772275E+04 0.  0.
        1    1    3    3  502    0  0.86137808960E+03  0.33559569524E+03 -0.11583453504E+04  0.14820123599E+04  0.50400001928E-02 0. -1.
       -1    1    3    3    0  502 -0.86137808960E+03 -0.33559569524E+03  0.30153020876E+03  0.97237706201E+03  0.50400001928E-02 0.  1.
</event>
<event>
 5   0  0.7932912E-07  0.2301005E+04  0.7818609E-02  0.8477525E-01
        1   -1    0    0  501    0  0.00000000000E+00  0.00000000000E+00  0.61059031672E+03  0.61059031674E+03  0.50400001928E-02 0.  1.
       -1   -1    0    0    0  501  0.00000000000E+00  0.00000000000E+00 -0.21678301497E+04  0.21678301497E+04  0.50400001928E-02 0. -1.
    10030    2    1    2    0    0  0.00000000000E+00  0.00000000000E+00 -0.15572398330E+04  0.27784204664E+04  0.23010050828E+04 0.  0.
        5    1    3    3  502    0 -0.10243462823E+03 -0.95848725259E+03 -0.15369751809E+04  0.18142506616E+04  0.46999998093E+01 0.  1.
       -5    1    3    3    0  502  0.10243462823E+03  0.95848725259E+03 -0.20264652074E+02  0.96416980483E+03  0.46999998093E+01 0. -1.
</event>
<event>
 5   0  0.1825521E-06  0.2300627E+04  0.7818609E-02  0.8477674E-01
       -2   -1    0    0    0  501  0.00000000000E+00  0.00000000000E+00  0.11293564573E+04  0.11293564573E+04  0.25500000920E-02 0.  1.
        2   -1    0    0  501    0  0.00000000000E+00  0.00000000000E+00 -0.11716593138E+04  0.11716593138E+04  0.25500000920E-02 0. -1.
    10030    2    1    2    0    0  0.00000000000E+00  0.00000000000E+00 -0.42302856551E+02  0.23010157711E+04  0.23006268813E+04 0.  0.
        5    1    3    3  502    0  0.13222135014E+03 -0.10794875665E+04 -0.39594538158E+03  0.11573982576E+04  0.46999998093E+01 0. -1.
       -5    1    3    3    0  502 -0.13222135014E+03  0.10794875665E+04  0.35364252502E+03  0.11436175135E+04  0.46999998093E+01 0.  1.
</event>
<event>
 5   0  0.7761069E-07  0.2296838E+04  0.7818609E-02  0.8479169E-01
       -1   -1    0    0    0  501  0.00000000000E+00  0.00000000000E+00  0.59704684245E+03  0.59704684247E+03  0.50400001928E-02 0.  1.
        1   -1    0    0  501    0  0.00000000000E+00  0.00000000000E+00 -0.22089818394E+04  0.22089818394E+04  0.50400001928E-02 0. -1.
    10030    2    1    2    0    0  0.00000000000E+00  0.00000000000E+00 -0.16119349969E+04  0.28060286819E+04  0.22968375060E+04 0.  0.
        1    1    3    3  502    0  0.72777567675E+03 -0.80298340461E+03 -0.34168287738E+03  0.11363040845E+04  0.50400001928E-02 0.  1.
       -1    1    3    3    0  502 -0.72777567675E+03  0.80298340461E+03 -0.12702521196E+04  0.16697245973E+04  0.50400001928E-02 0. -1.
</event>
<event>
 5   0  0.7932912E-07  0.2300376E+04  0.7818609E-02  0.8477773E-01
        1   -1    0    0  501    0  0.00000000000E+00  0.00000000000E+00  0.11769151475E+04  0.11769151475E+04  0.50400001928E-02 0.  1.
       -1   -1    0    0    0  501  0.00000000000E+00  0.00000000000E+00 -0.11240679766E+04  0.11240679766E+04  0.50400001928E-02 0. -1.
    10030    2    1    2    0    0  0.00000000000E+00  0.00000000000E+00  0.52847170841E+02  0.23009831241E+04  0.23003761679E+04 0.  0.
        5    1    3    3  502    0  0.15057183541E+03 -0.82932825393E+03  0.80922403469E+03  0.11684703072E+04  0.46999998093E+01 0.  1.
       -5    1    3    3    0  502 -0.15057183541E+03  0.82932825393E+03 -0.75637686385E+03  0.11325128170E+04  0.46999998093E+01 0. -1.
</event>
<event>
 5   0  0.8097672E-07  0.2301992E+04  0.7818609E-02  0.8477136E-01
       -1   -1    0    0    0  501  0.00000000000E+00  0.00000000000E+00  0.15309833463E+04  0.15309833463E+04  0.50400001928E-02 0.  1.
        1   -1    0    0  501    0  0.00000000000E+00  0.00000000000E+00 -0.86532118356E+03  0.86532118357E+03  0.50400001928E-02 0. -1.
    10030    2    1    2    0    0  0.00000000000E+00  0.00000000000E+00  0.66566216273E+03  0.23963045299E+04  0.23019924598E+04 0.  0.
        3    1    3    3  502    0  0.20694814284E+03  0.21915701622E+02  0.15112366530E+04  0.15254979723E+04  0.10100000352E+00 0.  1.
       -3    1    3    3    0  502 -0.20694814284E+03 -0.21915701622E+02 -0.84557449032E+03  0.87080655756E+03  0.10100000352E+00 0. -1.
</event>
<event>
 5   0  0.1888779E-06  0.2300160E+04  0.7818609E-02  0.8477858E-01
       -2   -1    0    0    0  501  0.00000000000E+00  0.00000000000E+00  0.12616549315E+04  0.12616549315E+04  0.25500000920E-02 0.  1.
        2   -1    0    0  501    0  0.00000000000E+00  0.00000000000E+00 -0.10483721430E+04  0.10483721431E+04  0.25500000920E-02 0. -1.
    10030    2    1    2    0    0  0.00000000000E+00  0.00000000000E+00  0.21328278843E+03  0.23100270745E+04  0.23001598938E+04 0.  0.
        4    1    3    3  502    0 -0.36361002354E+03 -0.47085137063E+03  0.10951242969E+04  0.12462793030E+04  0.12699999809E+01 0.  1.
       -4    1    3    3    0  502  0.36361002354E+03  0.47085137063E+03 -0.88184150850E+03  0.10637477715E+04  0.12699999809E+01 0. -1.
</event>
<event>
 5   0  0.7607231E-07  0.2299632E+04  0.7818609E-02  0.8478066E-01
       -1   -1    0    0    0  501  0.00000000000E+00  0.00000000000E+00  0.61056959623E+03  0.61056959625E+03  0.50400001928E-02 0.  1.
        1   -1    0    0  501    0  0.00000000000E+00  0.00000000000E+00 -0.21653177940E+04  0.21653177940E+04  0.50400001928E-02 0. -1.
    10030    2    1    2    0    0  0.00000000000E+00  0.00000000000E+00 -0.15547481978E+04  0.27758873903E+04  0.22996323282E+04 0.  0.
        2    1    3    3  502    0  0.48395460502E+03 -0.60481671666E+03 -0.18030984144E+04  0.19624421552E+04  0.25500000920E-02 0. -1.
       -2    1    3    3    0  502 -0.48395460502E+03  0.60481671666E+03  0.24835021656E+03  0.81344523512E+03  0.25500000920E-02 0.  1.
</event>
<event>
 5   0  0.6319125E-07  0.2299723E+04  0.7818609E-02  0.8478030E-01
       -3   -1    0    0    0  501  0.00000000000E+00  0.00000000000E+00  0.23324567355E+04  0.23324567377E+04  0.10100000352E+00 0. -1.
        3   -1    0    0  501    0  0.00000000000E+00  0.00000000000E+00 -0.56686211284E+03  0.56686212183E+03  0.10100000352E+00 0.  1.
    10030    2    1    2    0    0  0.00000000000E+00  0.00000000000E+00  0.17655946227E+04  0.28993188595E+04  0.22997229132E+04 0.  0.
        2    1    3    3  502    0  0.42418203360E+03  0.10670176637E+04  0.95973541319E+03  0.14965123306E+04  0.25500000920E-02 0. -1.
       -2    1    3    3    0  502 -0.42418203360E+03 -0.10670176637E+04  0.80585920947E+03  0.14028065290E+04  0.25500000920E-02 0.  1.
</event>
<event>
 5   0  0.1744876E-06  0.2299894E+04  0.7818609E-02  0.8477963E-01
       -2   -1    0    0    0  501  0.00000000000E+00  0.00000000000E+00  0.87466045931E+03  0.87466045932E+03  0.25500000920E-02 0.  1.
        2   -1    0    0  501    0  0.00000000000E+00  0.00000000000E+00 -0.15118756701E+04  0.15118756701E+04  0.25500000920E-02 0. -1.
    10030    2    1    2    0    0  0.00000000000E+00  0.00000000000E+00 -0.63721521077E+03  0.23865361294E+04  0.22998937958E+04 0.  0.
        1    1    3    3  502    0 -0.33444886877E+03  0.56339158556E+03 -0.12992555711E+04  0.14551052070E+04  0.50400001928E-02 0. -1.
       -1    1    3    3    0  502  0.33444886877E+03 -0.56339158556E+03  0.66204036029E+03  0.93143092239E+03  0.50400001928E-02 0.  1.
</event>
<event>
 5   0  0.1888779E-06  0.2298656E+04  0.7818609E-02  0.8478451E-01
       -2   -1    0    0    0  501  0.00000000000E+00  0.00000000000E+00  0.72384211084E+03  0.72384211085E+03  0.25500000920E-02 0.  1.
        2   -1    0    0  501    0  0.00000000000E+00  0.00000000000E+00 -0.18249207234E+04  0.18249207234E+04  0.25500000920E-02 0. -1.
    10030    2    1    2    0    0  0.00000000000E+00  0.00000000000E+00 -0.11010786125E+04  0.25487628342E+04  0.22986556667E+04 0.  0.
        4    1    3    3  502    0  0.66099082031E+03  0.59339765212E+03 -0.13592254080E+04  0.16237379594E+04  0.12699999809E+01 0. -1.
       -4    1    3    3    0  502 -0.66099082031E+03 -0.59339765212E+03  0.25814679551E+03  0.92502487480E+03  0.12699999809E+01 0.  1.
</event>
<event>
 5   0  0.1888779E-06  0.2299494E+04  0.7818609E-02  0.8478120E-01
        2   -1    0    0  501    0  0.00000000000E+00  0.00000000000E+00  0.14083038080E+04  0.14083038080E+04  0.25500000920E-02 0. -1.
       -2   -1    0    0    0  501  0.00000000000E+00  0.00000000000E+00 -0.93866017664E+03  0.93866017664E+03  0.25500000920E-02 0.  1.
    10030    2    1    2    0    0  0.00000000000E+00  0.00000000000E+00  0.46964363135E+03  0.23469639846E+04  0.22994944672E+04 0.  0.
        4    1    3    3  502    0  0.62910905406E+03  0.30230141874E+03  0.11673307093E+04  0.13600834340E+04  0.12699999809E+01 0. -1.
       -4    1    3    3    0  502 -0.62910905406E+03 -0.30230141874E+03 -0.69768707792E+03  0.98688055066E+03  0.12699999809E+01 0.  1.
</event>
<event>
 5   0  0.1689444E-06  0.2299500E+04  0.7818609E-02  0.8478118E-01
        2   -1    0    0  501    0  0.00000000000E+00  0.00000000000E+00  0.10179179646E+04  0.10179179646E+04  0.25500000920E-02 0.  1.
       -2   -1    0    0    0  501  0.00000000000E+00  0.00000000000E+00 -0.12986555991E+04  0.12986555991E+04  0.25500000920E-02 0. -1.
    10030    2    1    2    0    0  0.00000000000E+00  0.00000000000E+00 -0.28073763449E+03  0.23165735636E+04  0.22994998274E+04 0.  0.
        2    1    3    3  502    0  0.13053874966E+03 -0.33155974571E+03 -0.12416242402E+04  0.12917441636E+04  0.25500000920E-02 0. -1.
       -2    1    3    3    0  502 -0.13053874966E+03  0.33155974571E+03  0.96088660575E+03  0.10248294001E+04  0.25500000920E-02 0.  1.
</event>
<event>
 5   0  0.1828646E-06  0.2300762E+04  0.7818609E-02  0.8477621E-01
       -2   -1    0    0    0  501  0.00000000000E+00  0.00000000000E+00  0.61003358905E+03  0.61003358906E+03  0.25500000920E-02 0. -1.
        2   -1    0    0  501    0  0.00000000000E+00  0.00000000000E+00 -0.21693499175E+04  0.21693499175E+04  0.25500000920E-02 0.  1.
    10030    2    1    2    0    0  0.00000000000E+00  0.00000000000E+00 -0.15593163284E+04  0.27793835065E+04  0.23007618878E+04 0.  0.
        3    1    3    3  502    0 -0.44470269982E+03 -0.76653026514E+03  0.10645048557E+03  0.89255860014E+03  0.10100000352E+00 0. -1.
       -3    1    3    3    0  502  0.44470269982E+03  0.76653026514E+03 -0.16657668140E+04  0.18868249064E+04  0.10100000352E+00 0.  1.
</event>
<event>
 5   0  0.8097672E-07  0.2299720E+04  0.7818609E-02  0.8478031E-01
        1   -1    0    0  501    0  0.00000000000E+00  0.00000000000E+00  0.17386448096E+04  0.17386448096E+04  0.50400001928E-02 0.  1.
       -1   -1    0    0    0  501  0.00000000000E+00  0.00000000000E+00 -0.76046491692E+03  0.76046491693E+03  0.50400001928E-02 0. -1.
    10030    2    1    2    0    0  0.00000000000E+00  0.00000000000E+00  0.97817989263E+03  0.24991097265E+04  0.22997203140E+04 0.  0.
        3    1    3    3  502    0 -0.44193538959E+03  0.26943693715E+03  0.16048923753E+04  0.16862925897E+04  0.10100000352E+00 0.  1.
       -3    1    3    3    0  502  0.44193538959E+03 -0.26943693715E+03 -0.62671248267E+03  0.81281713676E+03  0.10100000352E+00 0. -1.
</event>
<event>
 5   0  0.8108242E-07  0.2299250E+04  0.7818609E-02  0.8478217E-01
       -1   -1    0    0    0  501  0.00000000000E+00  0.00000000000E+00  0.10419993259E+04  0.10419993259E+04  0.50400001928E-02 0. -1.
        1   -1    0    0  501    0  0.00000000000E+00  0.00000000000E+00 -0.12683667920E+04  0.12683667921E+04  0.50400001928E-02 0.  1.
    10030    2    1    2    0    0  0.00000000000E+00  0.00000000000E+00 -0.22636746620E+03  0.23103661179E+04  0.22992497405E+04 0.  0.
        4    1    3    3  502    0  0.67589415760E+03 -0.56139753285E+03  0.63177479920E+03  0.10821927333E+04  0.12699999809E+01 0. -1.
       -4    1    3    3    0  502 -0.67589415760E+03  0.56139753285E+03 -0.85814226540E+03  0.12281733846E+04  0.12699999809E+01 0.  1.
</event>
<event>
 5   0  0.1828646E-06  0.2299864E+04  0.7818609E-02  0.8477975E-01
        2   -1    0    0  501    0  0.00000000000E+00  0.00000000000E+00  0.24910817531E+04  0.24910817531E+04  0.25500000920E-02 0. -1.
       -2   -1    0    0    0  501  0.00000000000E+00  0.00000000000E+00 -0.53083111630E+03  0.53083111630E+03  0.25500000920E-02 0.  1.
    10030    2    1    2    0    0  0.00000000000E+00  0.00000000000E+00  0.19602506368E+04  0.30219128694E+04  0.22998640897E+04 0.  0.
        3    1    3    3  502    0 -0.27261035489E+03 -0.10175115561E+04  0.15861090770E+04  0.19040452166E+04  0.10100000352E+00 0. -1.
       -3    1    3    3    0  502  0.27261035489E+03  0.10175115561E+04  0.37414155984E+03  0.11178676529E+04  0.10100000352E+00 0.  1.
</event>
<event>
 5   0  0.1689444E-06  0.2299668E+04  0.7818609E-02  0.8478052E-01
        2   -1    0    0  501    0  0.00000000000E+00  0.00000000000E+00  0.13243102973E+04  0.13243102973E+04  0.25500000920E-02 0. -1.
       -2   -1    0    0    0  501  0.00000000000E+00  0.00000000000E+00 -0.99834511901E+03  0.99834511901E+03  0.25500000920E-02 0.  1.
    10030    2    1    2    0    0  0.00000000000E+00  0.00000000000E+00  0.32596517830E+03  0.23226554163E+04  0.22996684295E+04 0.  0.
        2    1    3    3  502    0 -0.76011989827E+02  0.31917141927E+03  0.12760284175E+04  0.13175343410E+04  0.25500000920E-02 0. -1.
       -2    1    3    3    0  502  0.76011989827E+02 -0.31917141927E+03 -0.95006323922E+03  0.10051210753E+04  0.25500000920E-02 0.  1.
</event>
<event>
 5   0  0.7761069E-07  0.2294639E+04  0.7818609E-02  0.8480038E-01
        1   -1    0    0  501    0  0.00000000000E+00  0.00000000000E+00  0.13195235693E+04  0.13195235693E+04  0.50400001928E-02 0.  1.
       -1   -1    0    0    0  501  0.00000000000E+00  0.00000000000E+00 -0.99758901243E+03  0.99758901245E+03  0.50400001928E-02 0. -1.
    10030    2    1    2    0    0  0.00000000000E+00  0.00000000000E+00  0.32193455688E+03  0.23171125818E+04  0.22946391563E+04 0.  0.
        1    1    3    3  502    0  0.71398856880E+03  0.87802819667E+03 -0.29637900729E+02  0.11320740240E+04  0.50400001928E-02 0. -1.
       -1    1    3    3    0  502 -0.71398856880E+03 -0.87802819667E+03  0.35157245761E+03  0.11850385578E+04  0.50400001928E-02 0.  1.
</event>
<event>
 5   0  0.1744876E-06  0.2299861E+04  0.7818609E-02  0.8477976E-01
        2   -1    0    0  501    0  0.00000000000E+00  0.00000000000E+00  0.21590906810E+04  0.21590906810E+04  0.25500000920E-02 0.  1.
       -2   -1    0    0    0  501  0.00000000000E+00  0.00000000000E+00 -0.61245213340E+03  0.61245213341E+03  0.25500000920E-02 0. -1.
    10030    2    1    2    0    0  0.00000000000E+00  0.00000000000E+00  0.15466385476E+04  0.27715428144E+04  0.22998605991E+04 0.  0.
        1    1    3    3  502    0 -0.43135559970E+03 -0.74518478972E+03 -0.14521963263E+03  0.87318770373E+03  0.50400001928E-02 0.  1.
       -1    1    3    3    0  502  0.43135559970E+03  0.74518478972E+03  0.16918581802E+04  0.18983551107E+04  0.50400001928E-02 0. -1.
</event>
<event>
 5   0  0.7607231E-07  0.2299794E+04  0.7818609E-02  0.8478003E-01
        1   -1    0    0  501    0  0.00000000000E+00  0.00000000000E+00  0.18613614599E+04  0.18613614599E+04  0.50400001928E-02 0. -1.
       -1   -1    0    0    0  501  0.00000000000E+00  0.00000000000E+00 -0.71037389381E+03  0.71037389383E+03  0.50400001928E-02 0.  1.
    10030    2    1    2    0    0  0.00000000000E+00  0.00000000000E+00  0.11509875661E+04  0.25717353538E+04  0.22997935456E+04 0.  0.
        2    1    3    3  502    0  0.11405711949E+04  0.14610247708E+03  0.57130914460E+03  0.12839948299E+04  0.25500000920E-02 0. -1.
       -2    1    3    3    0  502 -0.11405711949E+04 -0.14610247708E+03  0.57967842151E+03  0.12877405239E+04  0.25500000920E-02 0.  1.
</event>
<event>
 5   0  0.1825521E-06  0.2300031E+04  0.7818609E-02  0.8477909E-01
        2   -1    0    0  501    0  0.00000000000E+00  0.00000000000E+00  0.66419911111E+03  0.66419911112E+03  0.25500000920E-02 0. -1.
       -2   -1    0    0    0  501  0.00000000000E+00  0.00000000000E+00 -0.19911731396E+04  0.19911731396E+04  0.25500000920E-02 0.  1.
    10030    2    1    2    0    0  0.00000000000E+00  0.00000000000E+00 -0.13269740285E+04  0.26553722507E+04  0.23000308080E+04 0.  0.
        5    1    3    3  502    0 -0.52007481345E+03 -0.10009068331E+04 -0.40476427144E+03  0.11983941362E+04  0.46999998093E+01 0.  1.
       -5    1    3    3    0  502  0.52007481345E+03  0.10009068331E+04 -0.92220975702E+03  0.14569781145E+04  0.46999998093E+01 0. -1.
</event>
<event>
 5   0  0.7607231E-07  0.2299698E+04  0.7818609E-02  0.8478040E-01
       -1   -1    0    0    0  501  0.00000000000E+00  0.00000000000E+00  0.10158212122E+04  0.10158212122E+04  0.50400001928E-02 0. -1.
        1   -1    0    0  501    0  0.00000000000E+00  0.00000000000E+00 -0.13015609965E+04  0.13015609965E+04  0.50400001928E-02 0.  1.
    10030    2    1    2    0    0  0.00000000000E+00  0.00000000000E+00 -0.28573978428E+03  0.23173822087E+04  0.22996984752E+04 0.  0.
        2    1    3    3  502    0  0.54679462668E+03  0.40097246708E+02 -0.11613650020E+04  0.12842744336E+04  0.25500000920E-02 0.  1.
       -2    1    3    3    0  502 -0.54679462668E+03 -0.40097246708E+02  0.87562521772E+03  0.10331077751E+04  0.25500000920E-02 0. -1.
</event>
<event>
 5   0  0.8097672E-07  0.2301019E+04  0.7818609E-02  0.8477520E-01
        1   -1    0    0  501    0  0.00000000000E+00  0.00000000000E+00  0.15317910664E+04  0.15317910664E+04  0.50400001928E-02 0. -1.
       -1   -1    0    0    0  501  0.00000000000E+00  0.00000000000E+00 -0.86413340495E+03  0.86413340497E+03  0.50400001928E-02 0.  1.
    10030    2    1    2    0    0  0.00000000000E+00  0.00000000000E+00  0.66765766141E+03  0.23959244713E+04  0.23010187569E+04 0.  0.
        3    1    3    3  502    0  0.70507634432E+03  0.87725222670E+03  0.58235224070E+03  0.12672167388E+04  0.10100000352E+00 0. -1.
       -3    1    3    3    0  502 -0.70507634432E+03 -0.87725222670E+03  0.85305420711E+02  0.11287077326E+04  0.10100000352E+00 0.  1.
</event>
<event>
 5   0  0.7932912E-07  0.2299292E+04  0.7818609E-02  0.8478200E-01
       -1   -1    0    0    0  501  0.00000000000E+00  0.00000000000E+00  0.13109657579E+04  0.13109657579E+04  0.50400001928E-02 0.  1.
        1   -1    0    0  501    0  0.00000000000E+00  0.00000000000E+00 -0.10081773442E+04  0.10081773442E+04  0.50400001928E-02 0. -1.
    10030    2    1    2    0    0  0.00000000000E+00  0.00000000000E+00  0.30278841370E+03  0.23191431022E+04  0.22992920443E+04 0.  0.
        5    1    3    3  502    0 -0.13721418590E+03 -0.10309592119E+04 -0.34269135707E+03  0.10950635076E+04  0.46999998093E+01 0. -1.
       -5    1    3    3    0  502  0.13721418590E+03  0.10309592119E+04  0.64547977077E+03  0.12240795946E+04  0.46999998093E+01 0.  1.
</event>
<event>
 5   0  0.1744876E-06  0.2301501E+04  0.7818609E-02  0.8477330E-01
       -2   -1    0    0    0  501  0.00000000000E+00  0.00000000000E+00  0.10990179562E+04  0.10990179562E+04  0.25500000920E-02 0. -1.
        2   -1    0    0  501    0  0.00000000000E+00  0.00000000000E+00 -0.12049182276E+04  0.12049182276E+04  0.25500000920E-02 0.  1.
    10030    2    1    2    0    0  0.00000000000E+00  0.00000000000E+00 -0.10590027143E+03  0.23039361838E+04  0.23015010474E+04 0.  0.
        1    1    3    3  502    0 -0.22986663519E+03  0.99086529479E+03  0.48574009588E+03  0.11272072317E+04  0.50400001928E-02 0. -1.
       -1    1    3    3    0  502  0.22986663519E+03 -0.99086529479E+03 -0.59164036731E+03  0.11767289521E+04  0.50400001928E-02 0.  1.
</event>
<event>
 5   0  0.8097672E-07  0.2300405E+04  0.7818609E-02  0.8477762E-01
        1   -1    0    0  501    0  0.00000000000E+00  0.00000000000E+00  0.76729315035E+03  0.76729315037E+03  0.50400001928E-02 0. -1.
       -1   -1    0    0    0  501  0.00000000000E+00  0.00000000000E+00 -0.17241982632E+04  0.17241982632E+04  0.50400001928E-02 0.  1.
    10030    2    1    2    0    0  0.00000000000E+00  0.00000000000E+00 -0.95690511289E+03  0.24914914136E+04  0.23004047620E+04 0.  0.
        3    1    3    3  502    0  0.32046898647E+03  0.10562890283E+04 -0.12830429079E+03  0.11112645427E+04  0.10100000352E+00 0.  1.
       -3    1    3    3    0  502 -0.32046898647E+03 -0.10562890283E+04 -0.82860082210E+03  0.13802268709E+04  0.10100000352E+00 0. -1.
</event>
<event>
 5   0  0.1689444E-06  0.2299620E+04  0.7818609E-02  0.8478071E-01
        2   -1    0    0  501    0  0.00000000000E+00  0.00000000000E+00  0.14630111009E+04  0.14630111009E+04  0.25500000920E-02 0.  1.
       -2   -1    0    0    0  501  0.00000000000E+00  0.00000000000E+00 -0.90365892626E+03  0.90365892626E+03  0.25500000920E-02 0. -1.
    10030    2    1    2    0    0  0.00000000000E+00  0.00000000000E+00  0.55935217464E+03  0.23666700272E+04  0.22996200039E+04 0.  0.
        2    1    3    3  502    0 -0.99236986410E+03 -0.23867689576E+03 -0.26519274701E+03  0.10545576328E+04  0.25500000920E-02 0. -1.
       -2    1    3    3    0  502  0.99236986410E+03  0.23867689576E+03  0.82454492165E+03  0.13121123944E+04  0.25500000920E-02 0.  1.
</event>
<event>
 5   0  0.8108242E-07  0.2304778E+04  0.7818609E-02  0.8476040E-01
       -1   -1    0    0    0  501  0.00000000000E+00  0.00000000000E+00  0.10660478558E+04  0.10660478558E+04  0.50400001928E-02 0.  1.
        1   -1    0    0  501    0  0.00000000000E+00  0.00000000000E+00 -0.12457231474E+04  0.12457231474E+04  0.50400001928E-02 0. -1.
    10030    2    1    2    0    0  0.00000000000E+00  0.00000000000E+00 -0.17967529160E+03  0.23117710032E+04  0.23047780719E+04 0.  0.
        4    1    3    3  502    0  0.87168247330E+03 -0.65021180580E+03 -0.47229910053E+03  0.11856111420E+04  0.12699999809E+01 0.  1.
       -4    1    3    3    0  502 -0.87168247330E+03  0.65021180580E+03  0.29262380893E+03  0.11261598613E+04  0.12699999809E+01 0. -1.
</event>
<event>
 5   0  0.7932912E-07  0.2298729E+04  0.7818609E-02  0.8478422E-01
        1   -1    0    0  501    0  0.00000000000E+00  0.00000000000E+00  0.14262274775E+04  0.14262274775E+04  0.50400001928E-02 0.  1.
       -1   -1    0    0    0  501  0.00000000000E+00  0.00000000000E+00 -0.92624697042E+03  0.92624697043E+03  0.50400001928E-02 0. -1.
    10030    2    1    2    0    0  0.00000000000E+00  0.00000000000E+00  0.49998050706E+03  0.23524744479E+04  0.22987291099E+04 0.  0.
        5    1    3    3  502    0 -0.80847974923E+03 -0.52180595680E+03  0.89325291260E+03  0.13129523287E+04  0.46999998093E+01 0. -1.
       -5    1    3    3    0  502  0.80847974923E+03  0.52180595680E+03 -0.39327240554E+03  0.10395221193E+04  0.46999998093E+01 0.  1.
</event>
<event>
 5   0  0.1825521E-06  0.2300840E+04  0.7818609E-02  0.8477590E-01
        2   -1    0    0  501    0  0.00000000000E+00  0.00000000000E+00  0.16882849635E+04  0.16882849635E+04  0.25500000920E-02 0.  1.
       -2   -1    0    0    0  501  0.00000000000E+00  0.00000000000E+00 -0.78391169159E+03  0.78391169160E+03  0.25500000920E-02 0. -1.
    10030    2    1    2    0    0  0.00000000000E+00  0.00000000000E+00  0.90437327194E+03  0.24721966551E+04  0.23008401263E+04 0.  0.
        5    1    3    3  502    0  0.24170785507E+03  0.82821637370E+03 -0.36545980015E+03  0.93698879630E+03  0.46999998093E+01 0. -1.
       -5    1    3    3    0  502 -0.24170785507E+03 -0.82821637370E+03  0.12698330721E+04  0.15352078588E+04  0.46999998093E+01 0.  1.
</event>
<event>
 5   0  0.7932912E-07  0.2300332E+04  0.7818609E-02  0.8477790E-01
       -1   -1    0    0    0  501  0.00000000000E+00  0.00000000000E+00  0.11855859615E+04  0.11855859615E+04  0.50400001928E-02 0.  1.
        1   -1    0    0  501    0  0.00000000000E+00  0.00000000000E+00 -0.11158040805E+04  0.11158040805E+04  0.50400001928E-02 0. -1.
    10030    2    1    2    0    0  0.00000000000E+00  0.00000000000E+00  0.69781880991E+02  0.23013900419E+04  0.23003318487E+04 0.  0.
        5    1    3    3  502    0 -0.10178391919E+04 -0.43611956993E+03  0.34594016029E+03  0.11601265381E+04  0.46999998093E+01 0.  1.
       -5    1    3    3    0  502  0.10178391919E+04  0.43611956993E+03 -0.27615827930E+03  0.11412635038E+04  0.46999998093E+01 0. -1.
</event>
<event>
 5   0  0.7607231E-07  0.2299655E+04  0.7818609E-02  0.8478057E-01
        1   -1    0    0  501    0  0.00000000000E+00  0.00000000000E+00  0.11686958414E+04  0.11686958414E+04  0.50400001928E-02 0.  1.
       -1   -1    0    0    0  501  0.00000000000E+00  0.00000000000E+00 -0.11312635836E+04  0.11312635836E+04  0.50400001928E-02 0. -1.
    10030    2    1    2    0    0  0.00000000000E+00  0.00000000000E+00  0.37432257765E+02  0.22999594250E+04  0.22996547965E+04 0.  0.
        2    1    3    3  502    0  0.75283064624E+02  0.60141537265E+03 -0.95851875288E+03  0.11340750372E+04  0.25500000920E-02 0. -1.
       -2    1    3    3    0  502 -0.75283064624E+02 -0.60141537265E+03  0.99595101064E+03  0.11658843879E+04  0.25500000920E-02 0.  1.
</event>
<event>
 5   0  0.1744876E-06  0.2300047E+04  0.7818609E-02  0.8477903E-01
       -2   -1    0    0    0  501  0.00000000000E+00  0.00000000000E+00  0.10163905286E+04  0.10163905286E+04  0.25500000920E-02 0.  1.
        2   -1    0    0  501    0  0.00000000000E+00  0.00000000000E+00 -0.13012257865E+04  0.13012257865E+04  0.25500000920E-02 0. -1.
    10030    2    1    2    0    0  0.00000000000E+00  0.00000000000E+00 -0.28483525786E+03  0.23176163151E+04  0.23000465778E+04 0.  0.
        1    1    3    3  502    0  0.62880068938E+03  0.45948506214E+03  0.71023583464E+03  0.10540169686E+04  0.50400001928E-02 0.  1.
       -1    1    3    3    0  502 -0.62880068938E+03 -0.45948506214E+03 -0.99507109249E+03  0.12635993465E+04  0.50400001928E-02 0. -1.
</event>
<event>
 5   0  0.8108242E-07  0.2301281E+04  0.7818609E-02  0.8477416E-01
        1   -1    0    0  501    0  0.00000000000E+00  0.00000000000E+00  0.15601088224E+04  0.15601088224E+04  0.50400001928E-02 0. -1.
       -1   -1    0    0    0  501  0.00000000000E+00  0.00000000000E+00 -0.84864210920E+03  0.84864210921E+03  0.50400001928E-02 0.  1.
    10030    2    1    2    0    0  0.00000000000E+00  0.00000000000E+00  0.71146671324E+03  0.24087509317E+04  0.23012814184E+04 0.  0.
        4    1    3    3  502    0  0.59271412445E+03  0.40313146723E+03  0.12978489462E+04  0.14826457814E+04  0.12699999809E+01 0. -1.
       -4    1    3    3    0  502 -0.59271412445E+03 -0.40313146723E+03 -0.58638223296E+03  0.92610515020E+03  0.12699999809E+01 0.  1.
</event>
<event>
 5   0  0.1744876E-06  0.2299208E+04  0.7818609E-02  0.8478233E-01
        2   -1    0    0  501    0  0.00000000000E+00  0.00000000000E+00  0.63556598249E+03  0.63556598249E+03  0.25500000920E-02 0.  1.
       -2   -1    0    0    0  501  0.00000000000E+00  0.00000000000E+00 -0.20793902775E+04  0.20793902775E+04  0.25500000920E-02 0. -1.
    10030    2    1    2    0    0  0.00000000000E+00  0.00000000000E+00 -0.14438242950E+04  0.27149562600E+04  0.22992083200E+04 0.  0.
        1    1    3    3  502    0 -0.65539015112E+03 -0.70571487489E+03 -0.14631261968E+04  0.17516586433E+04  0.50400001928E-02 0. -1.
       -1    1    3    3    0  502  0.65539015112E+03  0.70571487489E+03  0.19301901834E+02  0.96329761666E+03  0.50400001928E-02 0.  1.
</event>
<event>
 5   0  0.1744876E-06  0.2300167E+04  0.7818609E-02  0.8477855E-01
        2   -1    0    0  501    0  0.00000000000E+00  0.00000000000E+00  0.22356971656E+04  0.22356971656E+04  0.25500000920E-02 0. -1.
       -2   -1    0    0    0  501  0.00000000000E+00  0.00000000000E+00 -0.59162421858E+03  0.59162421859E+03  0.25500000920E-02 0.  1.
    10030    2    1    2    0    0  0.00000000000E+00  0.00000000000E+00  0.16440729470E+04  0.28273213842E+04  0.23001674622E+04 0.  0.
        1    1    3    3  502    0  0.57054164996E+03 -0.96288843532E+03  0.11472951345E+04  0.16027969425E+04  0.50400001928E-02 0. -1.
       -1    1    3    3    0  502 -0.57054164996E+03  0.96288843532E+03  0.49677781247E+03  0.12245244417E+04  0.50400001928E-02 0.  1.
</event>
<event>
 5   0  0.8108242E-07  0.2299968E+04  0.7818609E-02  0.8477934E-01
        1   -1    0    0  501    0  0.00000000000E+00  0.00000000000E+00  0.12074718599E+04  0.12074718599E+04  0.50400001928E-02 0. -1.
       -1   -1    0    0    0  501  0.00000000000E+00  0.00000000000E+00 -0.10952333486E+04  0.10952333486E+04  0.50400001928E-02 0.  1.
    10030    2    1    2    0    0  0.00000000000E+00  0.00000000000E+00  0.11223851130E+03  0.23027052085E+04  0.22999682158E+04 0.  0.
        4    1    3    3  502    0  0.30049173598E+03  0.38554106037E+03 -0.98604435660E+03  0.11005554410E+04  0.12699999809E+01 0.  1.
       -4    1    3    3    0  502 -0.30049173598E+03 -0.38554106037E+03  0.10982828679E+04  0.12021497675E+04  0.12699999809E+01 0. -1.
</event>
<event>
 5   0  0.8097672E-07  0.2297523E+04  0.7818609E-02  0.8478898E-01
        1   -1    0    0  501    0  0.00000000000E+00  0.00000000000E+00  0.10972072711E+04  0.10972072711E+04  0.50400001928E-02 0.  1.
       -1   -1    0    0    0  501  0.00000000000E+00  0.00000000000E+00 -0.12027384265E+04  0.12027384266E+04  0.50400001928E-02 0. -1.
    10030    2    1    2    0    0  0.00000000000E+00  0.00000000000E+00 -0.10553115549E+03  0.22999456976E+04  0.22975233159E+04 0.  0.
        3    1    3    3  502    0 -0.75753644481E+03  0.14761507357E+03  0.79901441792E+03  0.11108896099E+04  0.10100000352E+00 0.  1.
       -3    1    3    3    0  502  0.75753644481E+03 -0.14761507357E+03 -0.90454557341E+03  0.11890560877E+04  0.10100000352E+00 0. -1.
</event>
<event>
 5   0  0.1888779E-06  0.2299645E+04  0.7818609E-02  0.8478061E-01
        2   -1    0    0  501    0  0.00000000000E+00  0.00000000000E+00  0.13050949693E+04  0.13050949694E+04  0.25500000920E-02 0. -1.
       -2   -1    0    0    0  501  0.00000000000E+00  0.00000000000E+00 -0.10130237816E+04  0.10130237816E+04  0.25500000920E-02 0.  1.
    10030    2    1    2    0    0  0.00000000000E+00  0.00000000000E+00  0.29207118773E+03  0.23181187510E+04  0.22996453998E+04 0.  0.
        4    1    3    3  502    0  0.70792535558E+03  0.82342298829E+03  0.52710265240E+03  0.12070718892E+04  0.12699999809E+01 0. -1.
       -4    1    3    3    0  502 -0.70792535558E+03 -0.82342298829E+03 -0.23503146467E+03  0.11110468617E+04  0.12699999809E+01 0.  1.
</event>
<event>
 5   0  0.8108242E-07  0.2300695E+04  0.7818609E-02  0.8477647E-01
       -1   -1    0    0    0  501  0.00000000000E+00  0.00000000000E+00  0.65710549931E+03  0.65710549933E+03  0.50400001928E-02 0.  1.
        1   -1    0    0  501    0  0.00000000000E+00  0.00000000000E+00 -0.20138304387E+04  0.20138304387E+04  0.50400001928E-02 0. -1.
    10030    2    1    2    0    0  0.00000000000E+00  0.00000000000E+00 -0.13567249393E+04  0.26709359380E+04  0.23006947263E+04 0.  0.
        4    1    3    3  502    0 -0.36348545396E+03 -0.82264535481E+03  0.15429768366E+03  0.91251106465E+03  0.12699999809E+01 0.  1.
       -4    1    3    3    0  502  0.36348545396E+03  0.82264535481E+03 -0.15110226230E+04  0.17584248733E+04  0.12699999809E+01 0. -1.
</event>
<event>
 5   0  0.7761069E-07  0.2299350E+04  0.7818609E-02  0.8478177E-01
       -1   -1    0    0    0  501  0.00000000000E+00  0.00000000000E+00  0.10755090388E+04  0.10755090388E+04  0.50400001928E-02 0.  1.
        1   -1    0    0  501    0  0.00000000000E+00  0.00000000000E+00 -0.12289557018E+04  0.12289557018E+04  0.50400001928E-02 0. -1.
    10030    2    1    2    0    0  0.00000000000E+00  0.00000000000E+00 -0.15344666299E+03  0.23044647405E+04  0.22993503130E+04 0.  0.
        1    1    3    3  502    0  0.23821090927E+03 -0.36404273480E+03  0.98982481934E+03  0.10812144667E+04  0.50400001928E-02 0.  1.
       -1    1    3    3    0  502 -0.23821090927E+03  0.36404273480E+03 -0.11432714823E+04  0.12232502738E+04  0.50400001928E-02 0. -1.
</event>
<event>
 5   0  0.7932912E-07  0.2300056E+04  0.7818609E-02  0.8477899E-01
        1   -1    0    0  501    0  0.00000000000E+00  0.00000000000E+00  0.80905888003E+03  0.80905888005E+03  0.50400001928E-02 0.  1.
       -1   -1    0    0    0  501  0.00000000000E+00  0.00000000000E+00 -0.16346950375E+04  0.16346950375E+04  0.50400001928E-02 0. -1.
    10030    2    1    2    0    0  0.00000000000E+00  0.00000000000E+00 -0.82563615745E+03  0.24437539175E+04  0.23000561178E+04 0.  0.
        5    1    3    3  502    0  0.23289776866E+03 -0.28637674516E+02  0.78334325778E+03  0.81774704925E+03  0.46999998093E+01 0.  1.
       -5    1    3    3    0  502 -0.23289776866E+03  0.28637674516E+02 -0.16089794152E+04  0.16260068683E+04  0.46999998093E+01 0. -1.
</event>
<event>
 5   0  0.1888779E-06  0.2301325E+04  0.7818609E-02  0.8477399E-01
       -2   -1    0    0    0  501  0.00000000000E+00  0.00000000000E+00  0.11335990667E+04  0.11335990667E+04  0.25500000920E-02 0.  1.
        2   -1    0    0  501    0  0.00000000000E+00  0.00000000000E+00 -0.11679827215E+04  0.11679827215E+04  0.25500000920E-02 0. -1.
    10030    2    1    2    0    0  0.00000000000E+00  0.00000000000E+00 -0.34383654803E+02  0.23015817883E+04  0.23013249428E+04 0.  0.
        4    1    3    3  502    0 -0.82877097248E+03  0.75955691443E+03 -0.26264635496E+03  0.11544577739E+04  0.12699999809E+01 0.  1.
       -4    1    3    3    0  502  0.82877097248E+03 -0.75955691443E+03  0.22826270015E+03  0.11471240143E+04  0.12699999809E+01 0. -1.
</event>
<event>
 5   0  0.1689444E-06  0.2294573E+04  0.7818609E-02  0.8480064E-01
       -2   -1    0    0    0  501  0.00000000000E+00  0.00000000000E+00  0.11635270542E+04  0.11635270542E+04  0.25500000920E-02 0. -1.
        2   -1    0    0  501    0  0.00000000000E+00  0.00000000000E+00 -0.11312729729E+04  0.11312729729E+04  0.25500000920E-02 0.  1.
    10030    2    1    2    0    0  0.00000000000E+00  0.00000000000E+00  0.32254081296E+02  0.22948000271E+04  0.22945733456E+04 0.  0.
        2    1    3    3  502    0  0.19467548745E+03 -0.39251536709E+02 -0.11139525007E+04  0.11315164172E+04  0.25500000920E-02 0.  1.
       -2    1    3    3    0  502 -0.19467548745E+03  0.39251536709E+02  0.11462065820E+04  0.11632836099E+04  0.25500000920E-02 0. -1.
</event>
<event>
 5   0  0.7932912E-07  0.2297956E+04  0.7818609E-02  0.8478728E-01
       -1   -1    0    0    0  501  0.00000000000E+00  0.00000000000E+00  0.12297994653E+04  0.12297994653E+04  0.50400001928E-02 0.  1.
        1   -1    0    0  501    0  0.00000000000E+00  0.00000000000E+00 -0.10734676799E+04  0.10734676799E+04  0.50400001928E-02 0. -1.
    10030    2    1    2    0    0  0.00000000000E+00  0.00000000000E+00  0.15633178536E+03  0.23032671452E+04  0.22979555947E+04 0.  0.
        5    1    3    3  502    0  0.70314913076E+02  0.32085718295E+03 -0.10253941748E+04  0.10767306175E+04  0.46999998093E+01 0. -1.
       -5    1    3    3    0  502 -0.70314913076E+02 -0.32085718295E+03  0.11817259602E+04  0.12265365277E+04  0.46999998093E+01 0.  1.
</event>
<event>
 5   0  0.7761069E-07  0.2301671E+04  0.7818609E-02  0.8477263E-01
        1   -1    0    0  501    0  0.00000000000E+00  0.00000000000E+00  0.12407565988E+04  0.12407565988E+04  0.50400001928E-02 0. -1.
       -1   -1    0    0    0  501  0.00000000000E+00  0.00000000000E+00 -0.10674309099E+04  0.10674309099E+04  0.50400001928E-02 0.  1.
    10030    2    1    2    0    0  0.00000000000E+00  0.00000000000E+00  0.17332568891E+03  0.23081875087E+04  0.23016706500E+04 0.  0.
        1    1    3    3  502    0  0.10764952851E+04  0.29890481414E+03 -0.19022715408E+03  0.11333016179E+04  0.50400001928E-02 0.  1.
       -1    1    3    3    0  502 -0.10764952851E+04 -0.29890481414E+03  0.36355284299E+03  0.11748858909E+04  0.50400001928E-02 0. -1.
</event>
<event>
 5   0  0.1828646E-06  0.2299672E+04  0.7818609E-02  0.8478051E-01
        2   -1    0    0  501    0  0.00000000000E+00  0.00000000000E+00  0.17392455200E+04  0.17392455200E+04  0.25500000920E-02 0.  1.
       -2   -1    0    0    0  501  0.00000000000E+00  0.00000000000E+00 -0.76017013892E+03  0.76017013892E+03  0.25500000920E-02 0. -1.
    10030    2    1    2    0    0  0.00000000000E+00  0.00000000000E+00  0.97907538108E+03  0.24994156589E+04  0.22996717232E+04 0.  0.
        3    1    3    3  502    0  0.13199365064E+03  0.62655593925E+03  0.15275451977E+04  0.16563179073E+04  0.10100000352E+00 0.  1.
       -3    1    3    3    0  502 -0.13199365064E+03 -0.62655593925E+03 -0.54846981663E+03  0.84309775162E+03  0.10100000352E+00 0. -1.
</event>
<event>
 5   0  0.1888779E-06  0.2299740E+04  0.7818609E-02  0.8478024E-01
        2   -1    0    0  501    0  0.00000000000E+00  0.00000000000E+00  0.23912712524E+04  0.23912712524E+04  0.25500000920E-02 0. -1.
       -2   -1    0    0    0  501  0.00000000000E+00  0.00000000000E+00 -0.55292805392E+03  0.55292805393E+03  0.25500000920E-02 0.  1.
    10030    2    1    2    0    0  0.00000000000E+00  0.00000000000E+00  0.18383431985E+04  0.29441993064E+04  0.22997399505E+04 0.  0.
        4    1    3    3  502    0 -0.76243014739E+03  0.50258558714E+03  0.24558805295E+02  0.91350793640E+03  0.12699999809E+01 0. -1.
       -4    1    3    3    0  502  0.76243014739E+03 -0.50258558714E+03  0.18137843932E+04  0.20306913700E+04  0.12699999809E+01 0.  1.
</event>
<event>
 5   0  0.1888779E-06  0.2304202E+04  0.7818609E-02  0.8476266E-01
       -2   -1    0    0    0  501  0.00000000000E+00  0.00000000000E+00  0.70371345624E+03  0.70371345625E+03  0.25500000920E-02 0. -1.
        2   -1    0    0  501    0  0.00000000000E+00  0.00000000000E+00 -0.18861894521E+04  0.18861894521E+04  0.25500000920E-02 0.  1.
    10030    2    1    2    0    0  0.00000000000E+00  0.00000000000E+00 -0.11824759959E+04  0.25899029084E+04  0.23042021600E+04 0.  0.
        4    1    3    3  502    0 -0.35243543617E+03 -0.94918180946E+03 -0.12091044887E+04  0.15770517181E+04  0.12699999809E+01 0.  1.
       -4    1    3    3    0  502  0.35243543617E+03  0.94918180946E+03  0.26628492818E+02  0.10128511903E+04  0.12699999809E+01 0. -1.
</event>
<event>
 5   0  0.8097672E-07  0.2301739E+04  0.7818609E-02  0.8477236E-01
        1   -1    0    0  501    0  0.00000000000E+00  0.00000000000E+00  0.16580503266E+04  0.16580503266E+04  0.50400001928E-02 0. -1.
       -1   -1    0    0    0  501  0.00000000000E+00  0.00000000000E+00 -0.79882985071E+03  0.79882985073E+03  0.50400001928E-02 0.  1.
    10030    2    1    2    0    0  0.00000000000E+00  0.00000000000E+00  0.85922047592E+03  0.24568801774E+04  0.23017385559E+04 0.  0.
        3    1    3    3  502    0 -0.67486009706E+03 -0.70740721459E+03  0.10776902153E+04  0.14550867081E+04  0.10100000352E+00 0.  1.
       -3    1    3    3    0  502  0.67486009706E+03  0.70740721459E+03 -0.21846973934E+03  0.10017934693E+04  0.10100000352E+00 0. -1.
</event>
<event>
 5   0  0.8097672E-07  0.2301143E+04  0.7818609E-02  0.8477471E-01
       -1   -1    0    0    0  501  0.00000000000E+00  0.00000000000E+00  0.55740330416E+03  0.55740330418E+03  0.50400001928E-02 0.  1.
        1   -1    0    0  501    0  0.00000000000E+00  0.00000000000E+00 -0.23749673812E+04  0.23749673813E+04  0.50400001928E-02 0. -1.
    10030    2    1    2    0    0  0.00000000000E+00  0.00000000000E+00 -0.18175640771E+04  0.29323706854E+04  0.23011429035E+04 0.  0.
        3    1    3    3  502    0 -0.47320418551E+03  0.68313123218E+03  0.10525547716E+03  0.83765697469E+03  0.10100000352E+00 0.  1.
       -3    1    3    3    0  502  0.47320418551E+03 -0.68313123218E+03 -0.19228195543E+04  0.20947137107E+04  0.10100000352E+00 0. -1.
</event>
<event>
 5   0  0.7761069E-07  0.2298246E+04  0.7818609E-02  0.8478613E-01
       -1   -1    0    0    0  501  0.00000000000E+00  0.00000000000E+00  0.14883873827E+04  0.14883873827E+04  0.50400001928E-02 0. -1.
        1   -1    0    0  501    0  0.00000000000E+00  0.00000000000E+00 -0.88719108082E+03  0.88719108084E+03  0.50400001928E-02 0.  1.
    10030    2    1    2    0    0  0.00000000000E+00  0.00000000000E+00  0.60119630191E+03  0.23755784636E+04  0.22982462973E+04 0.  0.
        1    1    3    3  502    0 -0.80441947830E+03 -0.10161941613E+03  0.11422867693E+04  0.14007984388E+04  0.50400001928E-02 0. -1.
       -1    1    3    3    0  502  0.80441947830E+03  0.10161941613E+03 -0.54109046738E+03  0.97478002478E+03  0.50400001928E-02 0.  1.
</event>
<event>
 5   0  0.7607231E-07  0.2300269E+04  0.7818609E-02  0.8477815E-01
        1   -1    0    0  501    0  0.00000000000E+00  0.00000000000E+00  0.25506281639E+04  0.25506281639E+04  0.50400001928E-02 0. -1.
       -1   -1    0    0    0  501  0.00000000000E+00  0.00000000000E+00 -0.51862115808E+03  0.51862115810E+03  0.50400001928E-02 0.  1.
    10030    2    1    2    0    0  0.00000000000E+00  0.00000000000E+00  0.20320070058E+04  0.30692493220E+04  0.23002693166E+04 0.  0.
        2    1    3    3  502    0  0.56947993306E+03 -0.75185501886E+02  0.23455244622E+04  0.24148385570E+04  0.25500000920E-02 0. -1.
       -2    1    3    3    0  502 -0.56947993306E+03  0.75185501886E+02 -0.31351745636E+03  0.65441076497E+03  0.25500000920E-02 0.  1.
</event>
<event>
 5   0  0.1828646E-06  0.2301050E+04  0.7818609E-02  0.8477507E-01
        2   -1    0    0  501    0  0.00000000000E+00  0.00000000000E+00  0.57515343134E+03  0.57515343135E+03  0.25500000920E-02 0.  1.
       -2   -1    0    0    0  501  0.00000000000E+00  0.00000000000E+00 -0.23014872659E+04  0.23014872659E+04  0.25500000920E-02 0. -1.
    10030    2    1    2    0    0  0.00000000000E+00  0.00000000000E+00 -0.17263338346E+04  0.28766406973E+04  0.23010504542E+04 0.  0.
        3    1    3    3  502    0 -0.76363640219E+03 -0.51823589523E+03 -0.17220422933E+04  0.19537498991E+04  0.10100000352E+00 0. -1.
       -3    1    3    3    0  502  0.76363640219E+03  0.51823589523E+03 -0.42915412310E+01  0.92289079819E+03  0.10100000352E+00 0.  1.
</event>
<event>
 5   0  0.1828646E-06  0.2299849E+04  0.7818609E-02  0.8477980E-01
       -2   -1    0    0    0  501  0.00000000000E+00  0.00000000000E+00  0.12575883933E+04  0.12575883933E+04  0.25500000920E-02 0.  1.
        2   -1    0    0  501    0  0.00000000000E+00  0.00000000000E+00 -0.10514783131E+04  0.10514783131E+04  0.25500000920E-02 0. -1.
    10030    2    1    2    0    0  0.00000000000E+00  0.00000000000E+00  0.20611008015E+03  0.23090667064E+04  0.22998494928E+04 0.  0.
        3    1    3    3  502    0 -0.74780433972E+03  0.81985791751E+03 -0.19973042073E+03  0.11275063577E+04  0.10100000352E+00 0.  1.
       -3    1    3    3    0  502  0.74780433972E+03 -0.81985791751E+03  0.40584050088E+03  0.11815603488E+04  0.10100000352E+00 0. -1.
</event>
<event>
 5   0  0.8097672E-07  0.2300236E+04  0.7818609E-02  0.8477828E-01
       -1   -1    0    0    0  501  0.00000000000E+00  0.00000000000E+00  0.12315160438E+04  0.12315160438E+04  0.50400001928E-02 0.  1.
        1   -1    0    0  501    0  0.00000000000E+00  0.00000000000E+00 -0.10741000720E+04  0.10741000720E+04  0.50400001928E-02 0. -1.
    10030    2    1    2    0    0  0.00000000000E+00  0.00000000000E+00  0.15741597174E+03  0.23056161158E+04  0.23002360499E+04 0.  0.
        3    1    3    3  502    0 -0.14058013968E+03 -0.10793352127E+04  0.45111997237E+03  0.11782344914E+04  0.10100000352E+00 0.  1.
       -3    1    3    3    0  502  0.14058013968E+03  0.10793352127E+04 -0.29370400062E+03  0.11273816245E+04  0.10100000352E+00 0. -1.
</event>
<event>
 5   0  0.1689444E-06  0.2296551E+04  0.7818609E-02  0.8479282E-01
        2   -1    0    0  501    0  0.00000000000E+00  0.00000000000E+00  0.13332827550E+04  0.13332827550E+04  0.25500000920E-02 0.  1.
       -2   -1    0    0    0  501  0.00000000000E+00  0.00000000000E+00 -0.98893960349E+03  0.98893960350E+03  0.25500000920E-02 0. -1.
    10030    2    1    2    0    0  0.00000000000E+00  0.00000000000E+00  0.34434315153E+03  0.23222223585E+04  0.22965505604E+04 0.  0.
        2    1    3    3  502    0  0.78174630032E+03  0.82734513888E+03  0.32522024257E+03  0.11838055005E+04  0.25500000920E-02 0.  1.
       -2    1    3    3    0  502 -0.78174630032E+03 -0.82734513888E+03  0.19122908959E+02  0.11384168580E+04  0.25500000920E-02 0. -1.
</event>
<event>
 5   0  0.1744876E-06  0.2299500E+04  0.7818609E-02  0.8478118E-01
       -2   -1    0    0    0  501  0.00000000000E+00  0.00000000000E+00  0.87304564635E+03  0.87304564635E+03  0.25500000920E-02 0. -1.
        2   -1    0    0  501    0  0.00000000000E+00  0.00000000000E+00 -0.15141539451E+04  0.15141539451E+04  0.25500000920E-02 0.  1.
    10030    2    1    2    0    0  0.00000000000E+00  0.00000000000E+00 -0.64110829872E+03  0.23871995914E+04  0.22995003889E+04 0.  0.
        1    1    3    3  502    0 -0.27854335479E+03  0.86188962837E+03  0.41461010320E+03  0.99616347538E+03  0.50400001928E-02 0. -1.
       -1    1    3    3    0  502  0.27854335479E+03 -0.86188962837E+03 -0.10557184019E+04  0.13910361160E+04  0.50400001928E-02 0.  1.
</event>
<event>
 5   0  0.1888779E-06  0.2300106E+04  0.7818609E-02  0.8477879E-01
       -2   -1    0    0    0  501  0.00000000000E+00  0.00000000000E+00  0.90069186824E+03  0.90069186825E+03  0.25500000920E-02 0. -1.
        2   -1    0    0  501    0  0.00000000000E+00  0.00000000000E+00 -0.14684514328E+04  0.14684514328E+04  0.25500000920E-02 0.  1.
    10030    2    1    2    0    0  0.00000000000E+00  0.00000000000E+00 -0.56775956456E+03  0.23691433011E+04  0.23001063144E+04 0.  0.
        4    1    3    3  502    0 -0.81130774422E+03 -0.70799964097E+03 -0.69990487718E+03  0.12842710763E+04  0.12699999809E+01 0.  1.
       -4    1    3    3    0  502  0.81130774422E+03  0.70799964097E+03  0.13214531262E+03  0.10848722247E+04  0.12699999809E+01 0. -1.
</event>
<event>
 5   0  0.7932912E-07  0.2300452E+04  0.7818609E-02  0.8477743E-01
        1   -1    0    0  501    0  0.00000000000E+00  0.00000000000E+00  0.15436455742E+04  0.15436455742E+04  0.50400001928E-02 0. -1.
       -1   -1    0    0    0  501  0.00000000000E+00  0.00000000000E+00 -0.85707488973E+03  0.85707488975E+03  0.50400001928E-02 0.  1.
    10030    2    1    2    0    0  0.00000000000E+00  0.00000000000E+00  0.68657068442E+03  0.24007204639E+04  0.23004520080E+04 0.  0.
        5    1    3    3  502    0  0.56986008773E+03 -0.75394457635E+03  0.10274713138E+04  0.13960273402E+04  0.46999998093E+01 0. -1.
       -5    1    3    3    0  502 -0.56986008773E+03  0.75394457635E+03 -0.34090062938E+03  0.10046931237E+04  0.46999998093E+01 0.  1.
</event>
<event>
 5   0  0.1744876E-06  0.2299560E+04  0.7818609E-02  0.8478095E-01
       -2   -1    0    0    0  501  0.00000000000E+00  0.00000000000E+00  0.90137013203E+03  0.90137013204E+03  0.25500000920E-02 0. -1.
        2   -1    0    0  501    0  0.00000000000E+00  0.00000000000E+00 -0.14666490932E+04  0.14666490932E+04  0.25500000920E-02 0.  1.
    10030    2    1    2    0    0  0.00000000000E+00  0.00000000000E+00 -0.56527896112E+03  0.23680192252E+04  0.22995596855E+04 0.  0.
        1    1    3    3  502    0  0.32385208459E+03  0.45078041587E+03 -0.13195477896E+04  0.14315339762E+04  0.50400001928E-02 0.  1.
       -1    1    3    3    0  502 -0.32385208459E+03 -0.45078041587E+03  0.75426882844E+03  0.93648524901E+03  0.50400001928E-02 0. -1.
</event>
<event>
 5   0  0.1828646E-06  0.2299560E+04  0.7818609E-02  0.8478095E-01
        2   -1    0    0  501    0  0.00000000000E+00  0.00000000000E+00  0.19650783812E+04  0.19650783812E+04  0.25500000920E-02 0.  1.
       -2   -1    0    0    0  501  0.00000000000E+00  0.00000000000E+00 -0.67274347614E+03  0.67274347614E+03  0.25500000920E-02 0. -1.
    10030    2    1    2    0    0  0.00000000000E+00  0.00000000000E+00  0.12923349051E+04  0.26378218573E+04  0.22995596631E+04 0.  0.
        3    1    3    3  502    0  0.66919332015E+03  0.62049010354E+03  0.14484528811E+04  0.17119706269E+04  0.10100000352E+00 0.  1.
       -3    1    3    3    0  502 -0.66919332015E+03 -0.62049010354E+03 -0.15611797603E+03  0.92585123048E+03  0.10100000352E+00 0. -1.
</event>
<event>
 5   0  0.8108242E-07  0.2298825E+04  0.7818609E-02  0.8478385E-01
       -1   -1    0    0    0  501  0.00000000000E+00  0.00000000000E+00  0.78152697577E+03  0.78152697579E+03  0.50400001928E-02 0. -1.
        1   -1    0    0  501    0  0.00000000000E+00  0.00000000000E+00 -0.16904712410E+04  0.16904712410E+04  0.50400001928E-02 0.  1.
    10030    2    1    2    0    0  0.00000000000E+00  0.00000000000E+00 -0.90894426519E+03  0.24719982168E+04  0.22988248099E+04 0.  0.
        4    1    3    3  502    0 -0.43225303360E+03  0.61453700171E+03  0.48091085392E+03  0.89206237105E+03  0.12699999809E+01 0. -1.
       -4    1    3    3    0  502  0.43225303360E+03 -0.61453700171E+03 -0.13898551191E+04  0.15799358457E+04  0.12699999809E+01 0.  1.
</event>
<event>
 5   0  0.1825521E-06  0.2300025E+04  0.7818609E-02  0.8477911E-01
       -2   -1    0    0    0  501  0.00000000000E+00  0.00000000000E+00  0.83570691734E+03  0.83570691734E+03  0.25500000920E-02 0. -1.
        2   -1    0    0  501    0  0.00000000000E+00  0.00000000000E+00 -0.15825274664E+04  0.15825274664E+04  0.25500000920E-02 0.  1.
    10030    2    1    2    0    0  0.00000000000E+00  0.00000000000E+00 -0.74682054910E+03  0.24182343838E+04  0.23000253482E+04 0.  0.
        5    1    3    3  502    0  0.57266589557E+03 -0.75198950414E+03  0.31529144895E+03  0.99642622911E+03  0.46999998093E+01 0. -1.
       -5    1    3    3    0  502 -0.57266589557E+03  0.75198950414E+03 -0.10621119981E+04  0.14218081547E+04  0.46999998093E+01 0.  1.
</event>
<event>
 5   0  0.1689444E-06  0.2302336E+04  0.7818609E-02  0.8477001E-01
        2   -1    0    0  501    0  0.00000000000E+00  0.00000000000E+00  0.24176509650E+04  0.24176509650E+04  0.25500000920E-02 0. -1.
       -2   -1    0    0    0  501  0.00000000000E+00  0.00000000000E+00 -0.54813025625E+03  0.54813025625E+03  0.25500000920E-02 0.  1.
    10030    2    1    2    0    0  0.00000000000E+00  0.00000000000E+00  0.18695207088E+04  0.29657812213E+04  0.23023358947E+04 0.  0.
        2    1    3    3  502    0 -0.55736597003E+03 -0.79132693243E+03  0.17374955380E+04  0.19889056999E+04  0.25500000920E-02 0. -1.
       -2    1    3    3    0  502  0.55736597003E+03  0.79132693243E+03  0.13202517077E+03  0.97687552137E+03  0.25500000920E-02 0.  1.
</event>
<event>
 5   0  0.1689444E-06  0.2300745E+04  0.7818609E-02  0.8477627E-01
       -2   -1    0    0    0  501  0.00000000000E+00  0.00000000000E+00  0.14109486162E+04  0.14109486162E+04  0.25500000920E-02 0.  1.
        2   -1    0    0  501    0  0.00000000000E+00  0.00000000000E+00 -0.93792033224E+03  0.93792033224E+03  0.25500000920E-02 0. -1.
    10030    2    1    2    0    0  0.00000000000E+00  0.00000000000E+00  0.47302828400E+03  0.23488689485E+04  0.23007454400E+04 0.  0.
        2    1    3    3  502    0 -0.28894741431E+03 -0.10918435002E+04  0.45958978523E+03  0.12193586871E+04  0.25500000920E-02 0. -1.
       -2    1    3    3    0  502  0.28894741431E+03  0.10918435002E+04  0.13438498766E+02  0.11295102613E+04  0.25500000920E-02 0.  1.
</event>
<event>
 5   0  0.8097672E-07  0.2298675E+04  0.7818609E-02  0.8478444E-01
        1   -1    0    0  501    0  0.00000000000E+00  0.00000000000E+00  0.88373232819E+03  0.88373232820E+03  0.50400001928E-02 0. -1.
       -1   -1    0    0    0  501  0.00000000000E+00  0.00000000000E+00 -0.14947699941E+04  0.14947699941E+04  0.50400001928E-02 0.  1.
    10030    2    1    2    0    0  0.00000000000E+00  0.00000000000E+00 -0.61103766593E+03  0.23785023223E+04  0.22986748940E+04 0.  0.
        3    1    3    3  502    0 -0.47724857251E+03 -0.20309273928E+03 -0.13667900931E+04  0.14618919350E+04  0.10100000352E+00 0.  1.
       -3    1    3    3    0  502  0.47724857251E+03  0.20309273928E+03  0.75575242722E+03  0.91661038733E+03  0.10100000352E+00 0. -1.
</event>
<event>
 5   0  0.7607231E-07  0.2299669E+04  0.7818609E-02  0.8478051E-01
       -1   -1    0    0    0  501  0.00000000000E+00  0.00000000000E+00  0.11847099757E+04  0.11847099757E+04  0.50400001928E-02 0. -1.
        1   -1    0    0  501    0  0.00000000000E+00  0.00000000000E+00 -0.11159860844E+04  0.11159860844E+04  0.50400001928E-02 0.  1.
    10030    2    1    2    0    0  0.00000000000E+00  0.00000000000E+00  0.68723891303E+02  0.23006960600E+04  0.22996694083E+04 0.  0.
        2    1    3    3  502    0  0.35650912063E+03  0.85398764595E+02  0.11246778939E+04  0.11829167626E+04  0.25500000920E-02 0. -1.
       -2    1    3    3    0  502 -0.35650912063E+03 -0.85398764595E+02 -0.10559540026E+04  0.11177792974E+04  0.25500000920E-02 0.  1.
</event>
<event>
 5   0  0.1744876E-06  0.2300888E+04  0.7818609E-02  0.8477571E-01
       -2   -1    0    0    0  501  0.00000000000E+00  0.00000000000E+00  0.11015430095E+04  0.11015430095E+04  0.25500000920E-02 0.  1.
        2   -1    0    0  501    0  0.00000000000E+00  0.00000000000E+00 -0.12015162186E+04  0.12015162186E+04  0.25500000920E-02 0. -1.
    10030    2    1    2    0    0  0.00000000000E+00  0.00000000000E+00 -0.99973209134E+02  0.23030592281E+04  0.23008883427E+04 0.  0.
        1    1    3    3  502    0 -0.91984855117E+03  0.67572290537E+03 -0.19434122222E+03  0.11577958856E+04  0.50400001928E-02 0. -1.
       -1    1    3    3    0  502  0.91984855117E+03 -0.67572290537E+03  0.94368013081E+02  0.11452633426E+04  0.50400001928E-02 0.  1.
</event>
<event>
 5   0  0.6319125E-07  0.2299262E+04  0.7818609E-02  0.8478212E-01
        4   -1    0    0  501    0  0.00000000000E+00  0.00000000000E+00  0.10507596320E+04  0.10507603995E+04  0.12699999809E+01 0. -1.
       -4   -1    0    0    0  501  0.00000000000E+00  0.00000000000E+00 -0.12578040978E+04  0.12578047389E+04  0.12699999809E+01 0.  1.
    10030    2    1    2    0    0  0.00000000000E+00  0.00000000000E+00 -0.20704446573E+03  0.23085651385E+04  0.22992619659E+04 0.  0.
        5    1    3    3  502    0  0.31980481379E+03 -0.10969991402E+04 -0.23031491504E+03  0.11656540149E+04  0.46999998093E+01 0. -1.
       -5    1    3    3    0  502 -0.31980481379E+03  0.10969991402E+04  0.23270449309E+02  0.11429111235E+04  0.46999998093E+01 0.  1.
</event>
<event>
 5   0  0.7932912E-07  0.2300105E+04  0.7818609E-02  0.8477880E-01
        1   -1    0    0  501    0  0.00000000000E+00  0.00000000000E+00  0.18752637153E+04  0.18752637153E+04  0.50400001928E-02 0. -1.
       -1   -1    0    0    0  501  0.00000000000E+00  0.00000000000E+00 -0.70529862792E+03  0.70529862793E+03  0.50400001928E-02 0.  1.
    10030    2    1    2    0    0  0.00000000000E+00  0.00000000000E+00  0.11699650874E+04  0.25805623433E+04  0.23001051501E+04 0.  0.
        5    1    3    3  502    0  0.61082048585E+03  0.91288150666E+00 -0.50825191401E+03  0.79463488306E+03  0.46999998093E+01 0.  1.
       -5    1    3    3    0  502 -0.61082048585E+03 -0.91288150666E+00  0.16782170014E+04  0.17859274602E+04  0.46999998093E+01 0. -1.
</event>
<event>
 5   0  0.1825521E-06  0.2299019E+04  0.7818609E-02  0.8478308E-01
        2   -1    0    0  501    0  0.00000000000E+00  0.00000000000E+00  0.21728954210E+04  0.21728954210E+04  0.25500000920E-02 0. -1.
       -2   -1    0    0    0  501  0.00000000000E+00  0.00000000000E+00 -0.60811596802E+03  0.60811596802E+03  0.25500000920E-02 0.  1.
    10030    2    1    2    0    0  0.00000000000E+00  0.00000000000E+00  0.15647794530E+04  0.27810113890E+04  0.22990192712E+04 0.  0.
        5    1    3    3  502    0 -0.16634584723E+03 -0.76365935278E+03 -0.23724201641E+03  0.81679398402E+03  0.46999998093E+01 0.  1.
       -5    1    3    3    0  502  0.16634584723E+03  0.76365935278E+03  0.18020214694E+04  0.19642174050E+04  0.46999998093E+01 0. -1.
</event>
<event>
 5   0  0.7607231E-07  0.2300320E+04  0.7818609E-02  0.8477795E-01
       -1   -1    0    0    0  501  0.00000000000E+00  0.00000000000E+00  0.74433505034E+03  0.74433505035E+03  0.50400001928E-02 0. -1.
        1   -1    0    0  501    0  0.00000000000E+00  0.00000000000E+00 -0.17772484605E+04  0.17772484605E+04  0.50400001928E-02 0.  1.
    10030    2    1    2    0    0  0.00000000000E+00  0.00000000000E+00 -0.10329134102E+04  0.25215835109E+04  0.23003202580E+04 0.  0.
        2    1    3    3  502    0  0.55417242242E+03  0.80202415689E+03 -0.11855073208E+04  0.15348542047E+04  0.25500000920E-02 0.  1.
       -2    1    3    3    0  502 -0.55417242242E+03 -0.80202415689E+03  0.15259391067E+03  0.98672930614E+03  0.25500000920E-02 0. -1.
</event>
<event>
 5   0  0.8097672E-07  0.2299817E+04  0.7818609E-02  0.8477993E-01
       -1   -1    0    0    0  501  0.00000000000E+00  0.00000000000E+00  0.16268388960E+04  0.16268388960E+04  0.50400001928E-02 0. -1.
        1   -1    0    0  501    0  0.00000000000E+00  0.00000000000E+00 -0.81279674565E+03  0.81279674567E+03  0.50400001928E-02 0.  1.
    10030    2    1    2    0    0  0.00000000000E+00  0.00000000000E+00  0.81404215033E+03  0.24396356417E+04  0.22998168278E+04 0.  0.
        3    1    3    3  502    0 -0.13802462479E+03 -0.22791597182E+02 -0.80373626838E+03  0.81581998827E+03  0.10100000352E+00 0.  1.
       -3    1    3    3    0  502  0.13802462479E+03  0.22791597182E+02  0.16177784187E+04  0.16238156534E+04  0.10100000352E+00 0. -1.
</event>
<event>
 5   0  0.8097672E-07  0.2299904E+04  0.7818609E-02  0.8477959E-01
       -1   -1    0    0    0  501  0.00000000000E+00  0.00000000000E+00  0.59890681045E+03  0.59890681047E+03  0.50400001928E-02 0. -1.
        1   -1    0    0  501    0  0.00000000000E+00  0.00000000000E+00 -0.22080049841E+04  0.22080049841E+04  0.50400001928E-02 0.  1.
    10030    2    1    2    0    0  0.00000000000E+00  0.00000000000E+00 -0.16090981737E+04  0.28069117946E+04  0.22999036698E+04 0.  0.
        3    1    3    3  502    0 -0.84054826177E+03  0.30202720289E+02  0.15251497664E+03  0.85480665240E+03  0.10100000352E+00 0. -1.
       -3    1    3    3    0  502  0.84054826177E+03 -0.30202720289E+02 -0.17616131503E+04  0.19521051422E+04  0.10100000352E+00 0.  1.
</event>
<event>
 5   0  0.1689444E-06  0.2300603E+04  0.7818609E-02  0.8477683E-01
        2   -1    0    0  501    0  0.00000000000E+00  0.00000000000E+00  0.22016024465E+04  0.22016024465E+04  0.25500000920E-02 0.  1.
       -2   -1    0    0    0  501  0.00000000000E+00  0.00000000000E+00 -0.60101375517E+03  0.60101375518E+03  0.25500000920E-02 0. -1.
    10030    2    1    2    0    0  0.00000000000E+00  0.00000000000E+00  0.16005886913E+04  0.28026162016E+04  0.23006028373E+04 0.  0.
        2    1    3    3  502    0 -0.66197200791E+03 -0.69008875588E+03  0.21436396478E+02  0.95649827462E+03  0.25500000920E-02 0. -1.
       -2    1    3    3    0  502  0.66197200791E+03  0.69008875588E+03  0.15791522948E+04  0.18461179270E+04  0.25500000920E-02 0.  1.
</event>
<event>
 5   0  0.1744876E-06  0.2301790E+04  0.7818609E-02  0.8477216E-01
        2   -1    0    0  501    0  0.00000000000E+00  0.00000000000E+00  0.20540757725E+04  0.20540757725E+04  0.25500000920E-02 0. -1.
       -2   -1    0    0    0  501  0.00000000000E+00  0.00000000000E+00 -0.64484451806E+03  0.64484451806E+03  0.25500000920E-02 0.  1.
    10030    2    1    2    0    0  0.00000000000E+00  0.00000000000E+00  0.14092312544E+04  0.26989202906E+04  0.23017901743E+04 0.  0.
        1    1    3    3  502    0  0.24971055149E+03  0.98479163570E+03  0.70592252425E+02  0.10184071835E+04  0.50400001928E-02 0. -1.
       -1    1    3    3    0  502 -0.24971055149E+03 -0.98479163570E+03  0.13386390020E+04  0.16805131071E+04  0.50400001928E-02 0.  1.
</event>
<event>
 5   0  0.7761069E-07  0.2299492E+04  0.7818609E-02  0.8478122E-01
       -1   -1    0    0    0  501  0.00000000000E+00  0.00000000000E+00  0.13932732381E+04  0.13932732381E+04  0.50400001928E-02 0. -1.
        1   -1    0    0  501    0  0.00000000000E+00  0.00000000000E+00 -0.94878413010E+03  0.94878413011E+03  0.50400001928E-02 0.  1.
    10030    2    1    2    0    0  0.00000000000E+00  0.00000000000E+00  0.44448910800E+03  0.23420573682E+04  0.22994917153E+04 0.  0.
        1    1    3    3  502    0  0.80196957127E+02  0.96103975600E+03  0.85984097602E+03  0.12920353976E+04  0.50400001928E-02 0. -1.
       -1    1    3    3    0  502 -0.80196957127E+02 -0.96103975600E+03 -0.41535186802E+03  0.10500219706E+04  0.50400001928E-02 0.  1.
</event>
<event>
 5   0  0.1744876E-06  0.2299621E+04  0.7818609E-02  0.8478071E-01
       -2   -1    0    0    0  501  0.00000000000E+00  0.00000000000E+00  0.16183081551E+04  0.16183081551E+04  0.25500000920E-02 0. -1.
        2   -1    0    0  501    0  0.00000000000E+00  0.00000000000E+00 -0.81694205644E+03  0.81694205644E+03  0.25500000920E-02 0.  1.
    10030    2    1    2    0    0  0.00000000000E+00  0.00000000000E+00  0.80136609867E+03  0.24352502115E+04  0.22996208315E+04 0.  0.
        1    1    3    3  502    0 -0.75822462597E+03 -0.43556031192E+03  0.11913416513E+04  0.14778065837E+04  0.50400001928E-02 0. -1.
       -1    1    3    3    0  502  0.75822462597E+03  0.43556031192E+03 -0.38997555264E+03  0.95744362781E+03  0.50400001928E-02 0.  1.
</event>
<event>
 5   0  0.1744876E-06  0.2300031E+04  0.7818609E-02  0.8477909E-01
       -2   -1    0    0    0  501  0.00000000000E+00  0.00000000000E+00  0.10130851654E+04  0.10130851654E+04  0.25500000920E-02 0. -1.
        2   -1    0    0  501    0  0.00000000000E+00  0.00000000000E+00 -0.13054537273E+04  0.13054537273E+04  0.25500000920E-02 0.  1.
    10030    2    1    2    0    0  0.00000000000E+00  0.00000000000E+00 -0.29236856190E+03  0.23185388927E+04  0.23000311348E+04 0.  0.
        1    1    3    3  502    0 -0.88673095768E+03  0.56468305025E+03  0.32380454482E+03  0.11000036917E+04  0.50400001928E-02 0. -1.
       -1    1    3    3    0  502  0.88673095768E+03 -0.56468305025E+03 -0.61617310672E+03  0.12185352010E+04  0.50400001928E-02 0.  1.
</event>
<event>
 5   0  0.1825521E-06  0.2301217E+04  0.7818609E-02  0.8477441E-01
        2   -1    0    0  501    0  0.00000000000E+00  0.00000000000E+00  0.16931732615E+04  0.16931732615E+04  0.25500000920E-02 0. -1.
       -2   -1    0    0    0  501  0.00000000000E+00  0.00000000000E+00 -0.78190471788E+03  0.78190471788E+03  0.25500000920E-02 0.  1.
    10030    2    1    2    0    0  0.00000000000E+00  0.00000000000E+00  0.91126854367E+03  0.24750779794E+04  0.23012172096E+04 0.  0.
        5    1    3    3  502    0 -0.15430536151E+03 -0.84566142352E+03 -0.36695160263E+03  0.93468120580E+03  0.46999998093E+01 0.  1.
       -5    1    3    3    0  502  0.15430536151E+03  0.84566142352E+03  0.12782201463E+04  0.15403967736E+04  0.46999998093E+01 0. -1.
</event>
<event>
 5   0  0.1744876E-06  0.2300397E+04  0.7818609E-02  0.8477765E-01
        2   -1    0    0  501    0  0.00000000000E+00  0.00000000000E+00  0.29728747600E+04  0.29728747600E+04  0.25500000920E-02 0. -1.
       -2   -1    0    0    0  501  0.00000000000E+00  0.00000000000E+00 -0.44500899859E+03  0.44500899860E+03  0.25500000920E-02 0.  1.
    10030    2    1    2    0    0  0.00000000000E+00  0.00000000000E+00  0.25278657614E+04  0.34178837586E+04  0.23003965048E+04 0.  0.
        1    1    3    3  502    0 -0.27758616772E+03  0.11155228318E+04  0.12061830071E+04  0.16662300908E+04  0.50400001928E-02 0. -1.
       -1    1    3    3    0  502  0.27758616772E+03 -0.11155228318E+04  0.13216827542E+04  0.17516536677E+04  0.50400001928E-02 0.  1.
</event>
<event>
 5   0  0.8108242E-07  0.2299825E+04  0.7818609E-02  0.8477990E-01
       -1   -1    0    0    0  501  0.00000000000E+00  0.00000000000E+00  0.67023023092E+03  0.67023023094E+03  0.50400001928E-02 0.  1.
        1   -1    0    0  501    0  0.00000000000E+00  0.00000000000E+00 -0.19729020205E+04  0.19729020206E+04  0.50400001928E-02 0. -1.
    10030    2    1    2    0    0  0.00000000000E+00  0.00000000000E+00 -0.13026717896E+04  0.26431322515E+04  0.22998248428E+04 0.  0.
        4    1    3    3  502    0  0.50178133835E+03  0.58064995844E+03  0.33286141406E+03  0.83650297048E+03  0.12699999809E+01 0.  1.
       -4    1    3    3    0  502 -0.50178133835E+03 -0.58064995844E+03 -0.16355332037E+04  0.18066292810E+04  0.12699999809E+01 0. -1.
</event>
<event>
 5   0  0.7761069E-07  0.2301460E+04  0.7818609E-02  0.8477346E-01
        1   -1    0    0  501    0  0.00000000000E+00  0.00000000000E+00  0.16358354038E+04  0.16358354038E+04  0.50400001928E-02 0. -1.
       -1   -1    0    0    0  501  0.00000000000E+00  0.00000000000E+00 -0.80948242876E+03  0.80948242878E+03  0.50400001928E-02 0.  1.
    10030    2    1    2    0    0  0.00000000000E+00  0.00000000000E+00  0.82635297502E+03  0.24453178326E+04  0.23014604196E+04 0.  0.
        1    1    3    3  502    0  0.94378803614E+03  0.14257244870E+03 -0.26974137497E+03  0.99187860632E+03  0.50400001928E-02 0.  1.
       -1    1    3    3    0  502 -0.94378803614E+03 -0.14257244870E+03  0.10960943500E+04  0.14534392262E+04  0.50400001928E-02 0. -1.
</event>
<event>
 5   0  0.7761069E-07  0.2299733E+04  0.7818609E-02  0.8478027E-01
       -1   -1    0    0    0  501  0.00000000000E+00  0.00000000000E+00  0.11539360660E+04  0.11539360660E+04  0.50400001928E-02 0. -1.
        1   -1    0    0  501    0  0.00000000000E+00  0.00000000000E+00 -0.11458108121E+04  0.11458108121E+04  0.50400001928E-02 0.  1.
    10030    2    1    2    0    0  0.00000000000E+00  0.00000000000E+00  0.81252538591E+01  0.22997468781E+04  0.22997325244E+04 0.  0.
        1    1    3    3  502    0  0.94108548788E+03 -0.61098902860E+03 -0.24742041785E+03  0.11489849223E+04  0.50400001928E-02 0.  1.
       -1    1    3    3    0  502 -0.94108548788E+03  0.61098902860E+03  0.25554567170E+03  0.11507619558E+04  0.50400001928E-02 0. -1.
</event>
<event>
 5   0  0.1825521E-06  0.2299746E+04  0.7818609E-02  0.8478021E-01
        2   -1    0    0  501    0  0.00000000000E+00  0.00000000000E+00  0.17133592084E+04  0.17133592084E+04  0.25500000920E-02 0. -1.
       -2   -1    0    0    0  501  0.00000000000E+00  0.00000000000E+00 -0.77170489348E+03  0.77170489349E+03  0.25500000920E-02 0.  1.
    10030    2    1    2    0    0  0.00000000000E+00  0.00000000000E+00  0.94165431489E+03  0.24850641019E+04  0.22997457993E+04 0.  0.
        5    1    3    3  502    0  0.78061832308E+03  0.40821227579E+03 -0.32776859636E+03  0.93992370499E+03  0.46999998093E+01 0.  1.
       -5    1    3    3    0  502 -0.78061832308E+03 -0.40821227579E+03  0.12694229113E+04  0.15451403969E+04  0.46999998093E+01 0. -1.
</event>
<event>
 5   0  0.1744876E-06  0.2300173E+04  0.7818609E-02  0.8477853E-01
        2   -1    0    0  501    0  0.00000000000E+00  0.00000000000E+00  0.11485922848E+04  0.11485922848E+04  0.25500000920E-02 0.  1.
       -2   -1    0    0    0  501  0.00000000000E+00  0.00000000000E+00 -0.11515831283E+04  0.11515831283E+04  0.25500000920E-02 0. -1.
    10030    2    1    2    0    0  0.00000000000E+00  0.00000000000E+00 -0.29908435160E+01  0.23001754132E+04  0.23001734687E+04 0.  0.
        1    1    3    3  502    0 -0.11652823638E+03 -0.57959620096E+03  0.98500878800E+03  0.11488049871E+04  0.50400001928E-02 0.  1.
       -1    1    3    3    0  502  0.11652823638E+03  0.57959620096E+03 -0.98799963151E+03  0.11513704260E+04  0.50400001928E-02 0. -1.
</event>
<event>
 5   0  0.7932912E-07  0.2300954E+04  0.7818609E-02  0.8477545E-01
       -1   -1    0    0    0  501  0.00000000000E+00  0.00000000000E+00  0.10897667759E+04  0.10897667759E+04  0.50400001928E-02 0.  1.
        1   -1    0    0  501    0  0.00000000000E+00  0.00000000000E+00 -0.12145690255E+04  0.12145690255E+04  0.50400001928E-02 0. -1.
    10030    2    1    2    0    0  0.00000000000E+00  0.00000000000E+00 -0.12480224963E+03  0.23043358014E+04  0.23009536901E+04 0.  0.
        5    1    3    3  502    0 -0.64484005208E+03  0.70370313497E+02 -0.10139578357E+04  0.12037039737E+04  0.46999998093E+01 0. -1.
       -5    1    3    3    0  502  0.64484005208E+03 -0.70370313497E+02  0.88915558608E+03  0.11006318277E+04  0.46999998093E+01 0.  1.
</event>
<event>
 5   0  0.8097672E-07  0.2298794E+04  0.7818609E-02  0.8478397E-01
       -1   -1    0    0    0  501  0.00000000000E+00  0.00000000000E+00  0.10454158793E+04  0.10454158793E+04  0.50400001928E-02 0. -1.
        1   -1    0    0  501    0  0.00000000000E+00  0.00000000000E+00 -0.12637203875E+04  0.12637203875E+04  0.50400001928E-02 0.  1.
    10030    2    1    2    0    0  0.00000000000E+00  0.00000000000E+00 -0.21830450828E+03  0.23091362668E+04  0.22987939099E+04 0.  0.
        3    1    3    3  502    0 -0.41767293485E+03  0.73949367256E+03 -0.88711180858E+03  0.12281160138E+04  0.10100000352E+00 0.  1.
       -3    1    3    3    0  502  0.41767293485E+03 -0.73949367256E+03  0.66880730030E+03  0.10810202530E+04  0.10100000352E+00 0. -1.
</event>
<event>
 5   0  0.1744876E-06  0.2300245E+04  0.7818609E-02  0.8477825E-01
       -2   -1    0    0    0  501  0.00000000000E+00  0.00000000000E+00  0.72555761365E+03  0.72555761365E+03  0.25500000920E-02 0.  1.
        2   -1    0    0  501    0  0.00000000000E+00  0.00000000000E+00 -0.18231240172E+04  0.18231240172E+04  0.25500000920E-02 0. -1.
    10030    2    1    2    0    0  0.00000000000E+00  0.00000000000E+00 -0.10975664035E+04  0.25486816308E+04  0.23002447794E+04 0.  0.
        1    1    3    3  502    0 -0.34907910221E+03  0.10517065773E+04 -0.20756355686E+03  0.11273977002E+04  0.50400001928E-02 0.  1.
       -1    1    3    3    0  502  0.34907910221E+03 -0.10517065773E+04 -0.89000284667E+03  0.14212839306E+04  0.50400001928E-02 0. -1.
</event>
<event>
 5   0  0.7761069E-07  0.2299875E+04  0.7818609E-02  0.8477971E-01
        1   -1    0    0  501    0  0.00000000000E+00  0.00000000000E+00  0.84305984860E+03  0.84305984862E+03  0.50400001928E-02 0. -1.
       -1   -1    0    0    0  501  0.00000000000E+00  0.00000000000E+00 -0.15685196221E+04  0.15685196221E+04  0.50400001928E-02 0.  1.
    10030    2    1    2    0    0  0.00000000000E+00  0.00000000000E+00 -0.72545977346E+03  0.24115794707E+04  0.22998747054E+04 0.  0.
        1    1    3    3  502    0  0.21366139845E+03  0.56531852772E+02 -0.15460394890E+04  0.15617570698E+04  0.50400001928E-02 0.  1.
       -1    1    3    3    0  502 -0.21366139845E+03 -0.56531852772E+02  0.82057971550E+03  0.84982240091E+03  0.50400001928E-02 0. -1.
</event>
<event>
 5   0  0.7607231E-07  0.2298436E+04  0.7818609E-02  0.8478538E-01
       -1   -1    0    0    0  501  0.00000000000E+00  0.00000000000E+00  0.11856871681E+04  0.11856871681E+04  0.50400001928E-02 0.  1.
        1   -1    0    0  501    0  0.00000000000E+00  0.00000000000E+00 -0.11138709320E+04  0.11138709320E+04  0.50400001928E-02 0. -1.
    10030    2    1    2    0    0  0.00000000000E+00  0.00000000000E+00  0.71816236067E+02  0.22995581001E+04  0.22984363998E+04 0.  0.
        2    1    3    3  502    0  0.16232556885E+03 -0.57242198794E+03  0.10195898335E+04  0.11804998735E+04  0.25500000920E-02 0.  1.
       -2    1    3    3    0  502 -0.16232556885E+03  0.57242198794E+03 -0.94777359748E+03  0.11190582267E+04  0.25500000920E-02 0. -1.
</event>
<event>
 5   0  0.8108242E-07  0.2300650E+04  0.7818609E-02  0.8477665E-01
       -1   -1    0    0    0  501  0.00000000000E+00  0.00000000000E+00  0.84262039361E+03  0.84262039363E+03  0.50400001928E-02 0. -1.
        1   -1    0    0  501    0  0.00000000000E+00  0.00000000000E+00 -0.15703953386E+04  0.15703953386E+04  0.50400001928E-02 0.  1.
    10030    2    1    2    0    0  0.00000000000E+00  0.00000000000E+00 -0.72777494496E+03  0.24130157322E+04  0.23006495938E+04 0.  0.
        4    1    3    3  502    0 -0.83896503750E+03  0.56060001625E+03  0.21545914493E+03  0.10317746694E+04  0.12699999809E+01 0. -1.
       -4    1    3    3    0  502  0.83896503750E+03 -0.56060001625E+03 -0.94323408989E+03  0.13812410628E+04  0.12699999809E+01 0.  1.
</event>
<event>
 5   0  0.7607231E-07  0.2299549E+04  0.7818609E-02  0.8478099E-01
       -1   -1    0    0    0  501  0.00000000000E+00  0.00000000000E+00  0.96363840438E+03  0.96363840439E+03  0.50400001928E-02 0.  1.
        1   -1    0    0  501    0  0.00000000000E+00  0.00000000000E+00 -0.13718644804E+04  0.13718644804E+04  0.50400001928E-02 0. -1.
    10030    2    1    2    0    0  0.00000000000E+00  0.00000000000E+00 -0.40822607603E+03  0.23355028848E+04  0.22995489114E+04 0.  0.
        2    1    3    3  502    0 -0.34039251538E+03  0.57710571679E+03 -0.11531007840E+04  0.13336264436E+04  0.25500000920E-02 0. -1.
       -2    1    3    3    0  502  0.34039251538E+03 -0.57710571679E+03  0.74487470799E+03  0.10018764412E+04  0.25500000920E-02 0.  1.
</event>
<event>
 5   0  0.7761069E-07  0.2300020E+04  0.7818609E-02  0.8477913E-01
       -1   -1    0    0    0  501  0.00000000000E+00  0.00000000000E+00  0.68488843890E+03  0.68488843892E+03  0.50400001928E-02 0. -1.
        1   -1    0    0  501    0  0.00000000000E+00  0.00000000000E+00 -0.19310053867E+04  0.19310053867E+04  0.50400001928E-02 0.  1.
    10030    2    1    2    0    0  0.00000000000E+00  0.00000000000E+00 -0.12461169478E+04  0.26158938257E+04  0.23000202302E+04 0.  0.
        1    1    3    3  502    0  0.15484882444E+03  0.11117208834E+04 -0.33844780625E+03  0.11723687127E+04  0.50400001928E-02 0. -1.
       -1    1    3    3    0  502 -0.15484882444E+03 -0.11117208834E+04 -0.90766914158E+03  0.14435251129E+04  0.50400001928E-02 0.  1.
</event>
<event>
 5   0  0.8097672E-07  0.2300244E+04  0.7818609E-02  0.8477825E-01
       -1   -1    0    0    0  501  0.00000000000E+00  0.00000000000E+00  0.10992273269E+04  0.10992273269E+04  0.50400001928E-02 0.  1.
        1   -1    0    0  501    0  0.00000000000E+00  0.00000000000E+00 -0.12033734222E+04  0.12033734222E+04  0.50400001928E-02 0. -1.
    10030    2    1    2    0    0  0.00000000000E+00  0.00000000000E+00 -0.10414609537E+03  0.23026007491E+04  0.23002442915E+04 0.  0.
        3    1    3    3  502    0 -0.11865418515E+03 -0.31658437543E+03 -0.11525064824E+04  0.12010727224E+04  0.10100000352E+00 0. -1.
       -3    1    3    3    0  502  0.11865418515E+03  0.31658437543E+03  0.10483603870E+04  0.11015280267E+04  0.10100000352E+00 0.  1.
</event>
<event>
 5   0  0.8108242E-07  0.2299616E+04  0.7818609E-02  0.8478073E-01
       -1   -1    0    0    0  501  0.00000000000E+00  0.00000000000E+00  0.81973170224E+03  0.81973170226E+03  0.50400001928E-02 0. -1.
        1   -1    0    0  501    0  0.00000000000E+00  0.00000000000E+00 -0.16127938679E+04  0.16127938679E+04  0.50400001928E-02 0.  1.
    10030    2    1    2    0    0  0.00000000000E+00  0.00000000000E+00 -0.79306216568E+03  0.24325255702E+04  0.22996158486E+04 0.  0.
        4    1    3    3  502    0 -0.33870452806E+03  0.30488079941E+03 -0.15131872668E+04  0.15803197070E+04  0.12699999809E+01 0.  1.
       -4    1    3    3    0  502  0.33870452806E+03 -0.30488079941E+03  0.72012510107E+03  0.85220586319E+03  0.12699999809E+01 0. -1.
</event>
<event>
 5   0  0.1828646E-06  0.2299867E+04  0.7818609E-02  0.8477974E-01
       -2   -1    0    0    0  501  0.00000000000E+00  0.00000000000E+00  0.61711993650E+03  0.61711993651E+03  0.25500000920E-02 0. -1.
        2   -1    0    0  501    0  0.00000000000E+00  0.00000000000E+00 -0.21427716833E+04  0.21427716833E+04  0.25500000920E-02 0.  1.
    10030    2    1    2    0    0  0.00000000000E+00  0.00000000000E+00 -0.15256517468E+04  0.27598916198E+04  0.22998670615E+04 0.  0.
        3    1    3    3  502    0  0.47654226346E+03 -0.61086672153E+03  0.25690811471E+03  0.81624289887E+03  0.10100000352E+00 0. -1.
       -3    1    3    3    0  502 -0.47654226346E+03  0.61086672153E+03 -0.17825598615E+04  0.19436487209E+04  0.10100000352E+00 0.  1.
</event>
<event>
 5   0  0.7607231E-07  0.2300847E+04  0.7818609E-02  0.8477587E-01
        1   -1    0    0  501    0  0.00000000000E+00  0.00000000000E+00  0.11640687563E+04  0.11640687563E+04  0.50400001928E-02 0. -1.
       -1   -1    0    0    0  501  0.00000000000E+00  0.00000000000E+00 -0.11369383505E+04  0.11369383505E+04  0.50400001928E-02 0.  1.
    10030    2    1    2    0    0  0.00000000000E+00  0.00000000000E+00  0.27130405801E+02  0.23010071068E+04  0.23008471584E+04 0.  0.
        2    1    3    3  502    0  0.30904205006E+03  0.11003691997E+04 -0.11742117970E+03  0.11489591367E+04  0.25500000920E-02 0. -1.
       -2    1    3    3    0  502 -0.30904205006E+03 -0.11003691997E+04  0.14455158550E+03  0.11520479700E+04  0.25500000920E-02 0.  1.
</event>
<event>
 5   0  0.8097672E-07  0.2299827E+04  0.7818609E-02  0.8477990E-01
        1   -1    0    0  501    0  0.00000000000E+00  0.00000000000E+00  0.12434552000E+04  0.12434552000E+04  0.50400001928E-02 0.  1.
       -1   -1    0    0    0  501  0.00000000000E+00  0.00000000000E+00 -0.10634082596E+04  0.10634082596E+04  0.50400001928E-02 0. -1.
    10030    2    1    2    0    0  0.00000000000E+00  0.00000000000E+00  0.18004694040E+03  0.23068634596E+04  0.22998265414E+04 0.  0.
        3    1    3    3  502    0 -0.10903074117E+04 -0.20941303295E+03  0.39040001072E+03  0.11768756302E+04  0.10100000352E+00 0.  1.
       -3    1    3    3    0  502  0.10903074117E+04  0.20941303295E+03 -0.21035307032E+03  0.11299878295E+04  0.10100000352E+00 0. -1.
</event>
<event>
 5   0  0.7607231E-07  0.2282886E+04  0.7818609E-02  0.8484699E-01
       -1   -1    0    0    0  501  0.00000000000E+00  0.00000000000E+00  0.15040453089E+04  0.15040453090E+04  0.50400001928E-02 0.  1.
        1   -1    0    0  501    0  0.00000000000E+00  0.00000000000E+00 -0.86625880409E+03  0.86625880410E+03  0.50400001928E-02 0. -1.
    10030    2    1    2    0    0  0.00000000000E+00  0.00000000000E+00  0.63778650486E+03  0.23703041131E+04  0.22828863228E+04 0.  0.
        2    1    3    3  502    0  0.81060048992E+03  0.54716682830E+03  0.93001276535E+03  0.13495882468E+04  0.25500000920E-02 0.  1.
       -2    1    3    3    0  502 -0.81060048992E+03 -0.54716682830E+03 -0.29222626049E+03  0.10207158662E+04  0.25500000920E-02 0. -1.
</event>
<event>
 5   0  0.1744876E-06  0.2300699E+04  0.7818609E-02  0.8477646E-01
       -2   -1    0    0    0  501  0.00000000000E+00  0.00000000000E+00  0.12641897629E+04  0.12641897629E+04  0.25500000920E-02 0. -1.
        2   -1    0    0  501    0  0.00000000000E+00  0.00000000000E+00 -0.10467606829E+04  0.10467606829E+04  0.25500000920E-02 0.  1.
    10030    2    1    2    0    0  0.00000000000E+00  0.00000000000E+00  0.21742907998E+03  0.23109504458E+04  0.23006991455E+04 0.  0.
        1    1    3    3  502    0  0.15430534501E+03 -0.10520227437E+04 -0.33226571843E+03  0.11139849642E+04  0.50400001928E-02 0.  1.
       -1    1    3    3    0  502 -0.15430534501E+03  0.10520227437E+04  0.54969479841E+03  0.11969654816E+04  0.50400001928E-02 0. -1.
</event>
<event>
 5   0  0.7761069E-07  0.2297834E+04  0.7818609E-02  0.8478776E-01
       -1   -1    0    0    0  501  0.00000000000E+00  0.00000000000E+00  0.10798960833E+04  0.10798960833E+04  0.50400001928E-02 0. -1.
        1   -1    0    0  501    0  0.00000000000E+00  0.00000000000E+00 -0.12223491207E+04  0.12223491207E+04  0.50400001928E-02 0.  1.
    10030    2    1    2    0    0  0.00000000000E+00  0.00000000000E+00 -0.14245303741E+03  0.23022452040E+04  0.22978337867E+04 0.  0.
        1    1    3    3  502    0  0.75665161196E+03 -0.15246949867E+03  0.78143103700E+03  0.10983638175E+04  0.50400001928E-02 0. -1.
       -1    1    3    3    0  502 -0.75665161196E+03  0.15246949867E+03 -0.92388407441E+03  0.12038813865E+04  0.50400001928E-02 0.  1.
</event>
<event>
 5   0  0.1689444E-06  0.2300899E+04  0.7818609E-02  0.8477567E-01
        2   -1    0    0  501    0  0.00000000000E+00  0.00000000000E+00  0.15251880198E+04  0.15251880198E+04  0.25500000920E-02 0.  1.
       -2   -1    0    0    0  501  0.00000000000E+00  0.00000000000E+00 -0.86778394982E+03  0.86778394983E+03  0.25500000920E-02 0. -1.
    10030    2    1    2    0    0  0.00000000000E+00  0.00000000000E+00  0.65740406999E+03  0.23929719696E+04  0.23008986801E+04 0.  0.
        2    1    3    3  502    0  0.19616846148E+02 -0.15986723509E+03  0.15134039328E+04  0.15219506619E+04  0.25500000920E-02 0.  1.
       -2    1    3    3    0  502 -0.19616846148E+02  0.15986723509E+03 -0.85599986277E+03  0.87102130776E+03  0.25500000920E-02 0. -1.
</event>
<event>
 5   0  0.7932912E-07  0.2299637E+04  0.7818609E-02  0.8478064E-01
       -1   -1    0    0    0  501  0.00000000000E+00  0.00000000000E+00  0.16868749821E+04  0.16868749821E+04  0.50400001928E-02 0. -1.
        1   -1    0    0  501    0  0.00000000000E+00  0.00000000000E+00 -0.78374659269E+03  0.78374659271E+03  0.50400001928E-02 0.  1.
    10030    2    1    2    0    0  0.00000000000E+00  0.00000000000E+00  0.90312838939E+03  0.24706215748E+04  0.22996369449E+04 0.  0.
        5    1    3    3  502    0  0.41415165305E+03 -0.80093538300E+03  0.12180841815E+04  0.15155098952E+04  0.46999998093E+01 0. -1.
       -5    1    3    3    0  502 -0.41415165305E+03  0.80093538300E+03 -0.31495579207E+03  0.95511167955E+03  0.46999998093E+01 0.  1.
</event>
<event>
 5   0  0.8108242E-07  0.2300755E+04  0.7818609E-02  0.8477624E-01
       -1   -1    0    0    0  501  0.00000000000E+00  0.00000000000E+00  0.82700245967E+03  0.82700245968E+03  0.50400001928E-02 0. -1.
        1   -1    0    0  501    0  0.00000000000E+00  0.00000000000E+00 -0.16001984982E+04  0.16001984982E+04  0.50400001928E-02 0.  1.
    10030    2    1    2    0    0  0.00000000000E+00  0.00000000000E+00 -0.77319603853E+03  0.24272009579E+04  0.23007547405E+04 0.  0.
        4    1    3    3  502    0  0.69245774739E+02 -0.80797528618E+03  0.47417800557E+03  0.93939631373E+03  0.12699999809E+01 0. -1.
       -4    1    3    3    0  502 -0.69245774739E+02  0.80797528618E+03 -0.12473740441E+04  0.14878046442E+04  0.12699999809E+01 0.  1.
</event>
<event>
 5   0  0.8097672E-07  0.2299263E+04  0.7818609E-02  0.8478212E-01
        1   -1    0    0  501    0  0.00000000000E+00  0.00000000000E+00  0.13885900374E+04  0.13885900374E+04  0.50400001928E-02 0. -1.
       -1   -1    0    0    0  501  0.00000000000E+00  0.00000000000E+00 -0.95179482002E+03  0.95179482003E+03  0.50400001928E-02 0.  1.
    10030    2    1    2    0    0  0.00000000000E+00  0.00000000000E+00  0.43679521736E+03  0.23403848574E+04  0.22992631904E+04 0.  0.
        3    1    3    3  502    0  0.36829009581E+03  0.59510897471E+03  0.11467734840E+04  0.13434588643E+04  0.10100000352E+00 0. -1.
       -3    1    3    3    0  502 -0.36829009581E+03 -0.59510897471E+03 -0.70997826660E+03  0.99692599309E+03  0.10100000352E+00 0.  1.
</event>
<event>
 5   0  0.6319125E-07  0.2301851E+04  0.7818609E-02  0.8477192E-01
        3   -1    0    0  501    0  0.00000000000E+00  0.00000000000E+00  0.64834850359E+03  0.64834851145E+03  0.10100000352E+00 0. -1.
       -3   -1    0    0    0  501  0.00000000000E+00  0.00000000000E+00 -0.20430826079E+04  0.20430826104E+04  0.10100000352E+00 0.  1.
    10030    2    1    2    0    0  0.00000000000E+00  0.00000000000E+00 -0.13947341043E+04  0.26914311218E+04  0.23018510512E+04 0.  0.
        5    1    3    3  502    0 -0.53971575302E+03  0.53230063606E+03 -0.17099441905E+04  0.18704460125E+04  0.46999998093E+01 0.  1.
       -5    1    3    3    0  502  0.53971575302E+03 -0.53230063606E+03  0.31521008621E+03  0.82098510928E+03  0.46999998093E+01 0. -1.
</event>
<event>
 5   0  0.1828646E-06  0.2301686E+04  0.7818609E-02  0.8477257E-01
        2   -1    0    0  501    0  0.00000000000E+00  0.00000000000E+00  0.10564257015E+04  0.10564257015E+04  0.25500000920E-02 0. -1.
       -2   -1    0    0    0  501  0.00000000000E+00  0.00000000000E+00 -0.12536987217E+04  0.12536987217E+04  0.25500000920E-02 0.  1.
    10030    2    1    2    0    0  0.00000000000E+00  0.00000000000E+00 -0.19727302019E+03  0.23101244233E+04  0.23016859487E+04 0.  0.
        3    1    3    3  502    0  0.31656095780E+03 -0.15794000415E+03  0.10004965295E+04  0.10612017719E+04  0.10100000352E+00 0. -1.
       -3    1    3    3    0  502 -0.31656095780E+03  0.15794000415E+03 -0.11977695497E+04  0.12489226514E+04  0.10100000352E+00 0.  1.
</event>
<event>
 5   0  0.1888779E-06  0.2300325E+04  0.7818609E-02  0.8477793E-01
        2   -1    0    0  501    0  0.00000000000E+00  0.00000000000E+00  0.14165901529E+04  0.14165901529E+04  0.25500000920E-02 0.  1.
       -2   -1    0    0    0  501  0.00000000000E+00  0.00000000000E+00 -0.93384356445E+03  0.93384356445E+03  0.25500000920E-02 0. -1.
    10030    2    1    2    0    0  0.00000000000E+00  0.00000000000E+00  0.48274658849E+03  0.23504337174E+04  0.23003248447E+04 0.  0.
        4    1    3    3  502    0  0.66640856935E+03  0.26477834485E+03  0.11602196597E+04  0.13639351982E+04  0.12699999809E+01 0.  1.
       -4    1    3    3    0  502 -0.66640856935E+03 -0.26477834485E+03 -0.67747307123E+03  0.98649851918E+03  0.12699999809E+01 0. -1.
</event>
<event>
 5   0  0.8108242E-07  0.2297899E+04  0.7818609E-02  0.8478750E-01
       -1   -1    0    0    0  501  0.00000000000E+00  0.00000000000E+00  0.95191550990E+03  0.95191550992E+03  0.50400001928E-02 0. -1.
        1   -1    0    0  501    0  0.00000000000E+00  0.00000000000E+00 -0.13867672076E+04  0.13867672076E+04  0.50400001928E-02 0.  1.
    10030    2    1    2    0    0  0.00000000000E+00  0.00000000000E+00 -0.43485169768E+03  0.23386827175E+04  0.22978992263E+04 0.  0.
        4    1    3    3  502    0  0.11292273167E+04 -0.21169013438E+03 -0.20643818385E+03  0.11672983263E+04  0.12699999809E+01 0. -1.
       -4    1    3    3    0  502 -0.11292273167E+04  0.21169013438E+03 -0.22841351383E+03  0.11713843912E+04  0.12699999809E+01 0.  1.
</event>
<event>
 5   0  0.7932912E-07  0.2300417E+04  0.7818609E-02  0.8477757E-01
       -1   -1    0    0    0  501  0.00000000000E+00  0.00000000000E+00  0.87018155686E+03  0.87018155687E+03  0.50400001928E-02 0. -1.
        1   -1    0    0  501    0  0.00000000000E+00  0.00000000000E+00 -0.15203490165E+04  0.15203490165E+04  0.50400001928E-02 0.  1.
    10030    2    1    2    0    0  0.00000000000E+00  0.00000000000E+00 -0.65016745963E+03  0.23905305734E+04  0.23004170702E+04 0.  0.
        5    1    3    3  502    0  0.81653614491E+03 -0.74673186737E+03 -0.65142006654E+03  0.12840210087E+04  0.46999998093E+01 0.  1.
       -5    1    3    3    0  502 -0.81653614491E+03  0.74673186737E+03  0.12526069050E+01  0.11065095647E+04  0.46999998093E+01 0. -1.
</event>
<event>
 5   0  0.1828646E-06  0.2299190E+04  0.7818609E-02  0.8478241E-01
        2   -1    0    0  501    0  0.00000000000E+00  0.00000000000E+00  0.14810622586E+04  0.14810622586E+04  0.25500000920E-02 0. -1.
       -2   -1    0    0    0  501  0.00000000000E+00  0.00000000000E+00 -0.89231098196E+03  0.89231098196E+03  0.25500000920E-02 0.  1.
    10030    2    1    2    0    0  0.00000000000E+00  0.00000000000E+00  0.58875127665E+03  0.23733732406E+04  0.22991895253E+04 0.  0.
        3    1    3    3  502    0  0.69295526028E+02 -0.27897886874E+03  0.14433646777E+04  0.14717108012E+04  0.10100000352E+00 0. -1.
       -3    1    3    3    0  502 -0.69295526028E+02  0.27897886874E+03 -0.85461340109E+03  0.90166243941E+03  0.10100000352E+00 0.  1.
</event>
<event>
 5   0  0.8108242E-07  0.2301610E+04  0.7818609E-02  0.8477287E-01
       -1   -1    0    0    0  501  0.00000000000E+00  0.00000000000E+00  0.10764512055E+04  0.10764512055E+04  0.50400001928E-02 0. -1.
        1   -1    0    0  501    0  0.00000000000E+00  0.00000000000E+00 -0.12302947785E+04  0.12302947785E+04  0.50400001928E-02 0.  1.
    10030    2    1    2    0    0  0.00000000000E+00  0.00000000000E+00 -0.15384357296E+03  0.23067459840E+04  0.23016101298E+04 0.  0.
        4    1    3    3  502    0 -0.60049769905E+03 -0.85197191928E+03 -0.56575706214E+03  0.11859748328E+04  0.12699999809E+01 0.  1.
       -4    1    3    3    0  502  0.60049769905E+03  0.85197191928E+03  0.41191348918E+03  0.11207711512E+04  0.12699999809E+01 0. -1.
</event>
<event>
 5   0  0.1828646E-06  0.2299634E+04  0.7818609E-02  0.8478065E-01
        2   -1    0    0  501    0  0.00000000000E+00  0.00000000000E+00  0.17206993181E+04  0.17206993181E+04  0.25500000920E-02 0. -1.
       -2   -1    0    0    0  501  0.00000000000E+00  0.00000000000E+00 -0.76833817009E+03  0.76833817009E+03  0.25500000920E-02 0.  1.
    10030    2    1    2    0    0  0.00000000000E+00  0.00000000000E+00  0.95236114802E+03  0.24890374882E+04  0.22996338538E+04 0.  0.
        3    1    3    3  502    0 -0.81471674085E+03 -0.15707858307E+03  0.13377587510E+04  0.15741777330E+04  0.10100000352E+00 0. -1.
       -3    1    3    3    0  502  0.81471674085E+03  0.15707858307E+03 -0.38539760297E+03  0.91485975518E+03  0.10100000352E+00 0.  1.
</event>
<event>
 5   0  0.7932912E-07  0.2300292E+04  0.7818609E-02  0.8477806E-01
       -1   -1    0    0    0  501  0.00000000000E+00  0.00000000000E+00  0.11552704021E+04  0.11552704022E+04  0.50400001928E-02 0.  1.
        1   -1    0    0  501    0  0.00000000000E+00  0.00000000000E+00 -0.11450440888E+04  0.11450440888E+04  0.50400001928E-02 0. -1.
    10030    2    1    2    0    0  0.00000000000E+00  0.00000000000E+00  0.10226313318E+02  0.23003144910E+04  0.23002917598E+04 0.  0.
        5    1    3    3  502    0 -0.82560022893E+03  0.60546997961E+03 -0.51891856759E+03  0.11478276020E+04  0.46999998093E+01 0. -1.
       -5    1    3    3    0  502  0.82560022893E+03 -0.60546997961E+03  0.52914488091E+03  0.11524868890E+04  0.46999998093E+01 0.  1.
</event>
<event>
 5   0  0.7607231E-07  0.2300638E+04  0.7818609E-02  0.8477669E-01
        1   -1    0    0  501    0  0.00000000000E+00  0.00000000000E+00  0.10579357057E+04  0.10579357057E+04  0.50400001928E-02 0.  1.
       -1   -1    0    0    0  501  0.00000000000E+00  0.00000000000E+00 -0.12507701019E+04  0.12507701019E+04  0.50400001928E-02 0. -1.
    10030    2    1    2    0    0  0.00000000000E+00  0.00000000000E+00 -0.19283439620E+03  0.23087058076E+04  0.23006384769E+04 0.  0.
        2    1    3    3  502    0  0.65334470330E+03  0.90835999238E+03 -0.36429363384E+03  0.11767272533E+04  0.25500000920E-02 0. -1.
       -2    1    3    3    0  502 -0.65334470330E+03 -0.90835999238E+03  0.17145923764E+03  0.11319785542E+04  0.25500000920E-02 0.  1.
</event>
<event>
 5   0  0.1825521E-06  0.2299570E+04  0.7818609E-02  0.8478091E-01
        2   -1    0    0  501    0  0.00000000000E+00  0.00000000000E+00  0.22928783120E+04  0.22928783120E+04  0.25500000920E-02 0. -1.
       -2   -1    0    0    0  501  0.00000000000E+00  0.00000000000E+00 -0.57657027299E+03  0.57657027299E+03  0.25500000920E-02 0.  1.
    10030    2    1    2    0    0  0.00000000000E+00  0.00000000000E+00  0.17163080390E+04  0.28694485849E+04  0.22995699374E+04 0.  0.
        5    1    3    3  502    0 -0.14620906368E+03  0.47636386006E+03 -0.43482065520E+03  0.66135520687E+03  0.46999998093E+01 0.  1.
       -5    1    3    3    0  502  0.14620906368E+03 -0.47636386006E+03  0.21511286942E+04  0.22080933781E+04  0.46999998093E+01 0. -1.
</event>
<event>
 5   0  0.7761069E-07  0.2298857E+04  0.7818609E-02  0.8478372E-01
       -1   -1    0    0    0  501  0.00000000000E+00  0.00000000000E+00  0.47456963558E+03  0.47456963561E+03  0.50400001928E-02 0. -1.
        1   -1    0    0  501    0  0.00000000000E+00  0.00000000000E+00 -0.27839659320E+04  0.27839659320E+04  0.50400001928E-02 0.  1.
    10030    2    1    2    0    0  0.00000000000E+00  0.00000000000E+00 -0.23093962964E+04  0.32585355676E+04  0.22988568445E+04 0.  0.
        1    1    3    3  502    0 -0.69498785039E+03  0.59845576990E+03 -0.21367715499E+04  0.23252849454E+04  0.50400001928E-02 0.  1.
       -1    1    3    3    0  502  0.69498785039E+03 -0.59845576990E+03 -0.17262474649E+03  0.93325062220E+03  0.50400001928E-02 0. -1.
</event>
<event>
 5   0  0.7761069E-07  0.2301540E+04  0.7818609E-02  0.8477314E-01
       -1   -1    0    0    0  501  0.00000000000E+00  0.00000000000E+00  0.87426713242E+03  0.87426713243E+03  0.50400001928E-02 0.  1.
        1   -1    0    0  501    0  0.00000000000E+00  0.00000000000E+00 -0.15147224601E+04  0.15147224601E+04  0.50400001928E-02 0. -1.
    10030    2    1    2    0    0  0.00000000000E+00  0.00000000000E+00 -0.64045532769E+03  0.23889895925E+04  0.23015404073E+04 0.  0.
        1    1    3    3  502    0 -0.77402818933E+03 -0.64306233179E+02 -0.12016183274E+04  0.14307835386E+04  0.50400001928E-02 0. -1.
       -1    1    3    3    0  502  0.77402818933E+03  0.64306233179E+02  0.56116299974E+03  0.95820605394E+03  0.50400001928E-02 0.  1.
</event>
<event>
 5   0  0.1828646E-06  0.2300736E+04  0.7818609E-02  0.8477631E-01
       -2   -1    0    0    0  501  0.00000000000E+00  0.00000000000E+00  0.66086899784E+03  0.66086899785E+03  0.25500000920E-02 0. -1.
        2   -1    0    0  501    0  0.00000000000E+00  0.00000000000E+00 -0.20024347937E+04  0.20024347937E+04  0.25500000920E-02 0.  1.
    10030    2    1    2    0    0  0.00000000000E+00  0.00000000000E+00 -0.13415657958E+04  0.26633037915E+04  0.23007364693E+04 0.  0.
        3    1    3    3  502    0 -0.68681907819E+02  0.51816964947E+03 -0.18570305860E+04  0.19291914362E+04  0.10100000352E+00 0.  1.
       -3    1    3    3    0  502  0.68681907819E+02 -0.51816964947E+03  0.51546479016E+03  0.73411235529E+03  0.10100000352E+00 0. -1.
</event>
<event>
 5   0  0.8108242E-07  0.2300227E+04  0.7818609E-02  0.8477832E-01
       -1   -1    0    0    0  501  0.00000000000E+00  0.00000000000E+00  0.73591234618E+03  0.73591234620E+03  0.50400001928E-02 0.  1.
        1   -1    0    0  501    0  0.00000000000E+00  0.00000000000E+00 -0.17974440708E+04  0.17974440708E+04  0.50400001928E-02 0. -1.
    10030    2    1    2    0    0  0.00000000000E+00  0.00000000000E+00 -0.10615317246E+04  0.25333564170E+04  0.23002271917E+04 0.  0.
        4    1    3    3  502    0 -0.23174803936E+03 -0.82988202090E+03  0.30824954876E+03  0.91511240816E+03  0.12699999809E+01 0.  1.
       -4    1    3    3    0  502  0.23174803936E+03  0.82988202090E+03 -0.13697812734E+04  0.16182440088E+04  0.12699999809E+01 0. -1.
</event>
<event>
 5   0  0.7761069E-07  0.2296971E+04  0.7818609E-02  0.8479116E-01
        1   -1    0    0  501    0  0.00000000000E+00  0.00000000000E+00  0.22787744018E+04  0.22787744018E+04  0.50400001928E-02 0. -1.
       -1   -1    0    0    0  501  0.00000000000E+00  0.00000000000E+00 -0.57882830910E+03  0.57882830912E+03  0.50400001928E-02 0.  1.
    10030    2    1    2    0    0  0.00000000000E+00  0.00000000000E+00  0.16999460927E+04  0.28576027110E+04  0.22969711656E+04 0.  0.
        1    1    3    3  502    0 -0.53802107293E+03  0.22895941911E+03  0.20797390672E+04  0.21603711899E+04  0.50400001928E-02 0. -1.
       -1    1    3    3    0  502  0.53802107293E+03 -0.22895941911E+03 -0.37979297444E+03  0.69723152107E+03  0.50400001928E-02 0.  1.
</event>
<event>
 5   0  0.1825521E-06  0.2300030E+04  0.7818609E-02  0.8477909E-01
        2   -1    0    0  501    0  0.00000000000E+00  0.00000000000E+00  0.13330327281E+04  0.13330327281E+04  0.25500000920E-02 0. -1.
       -2   -1    0    0    0  501  0.00000000000E+00  0.00000000000E+00 -0.99212438630E+03  0.99212438630E+03  0.25500000920E-02 0.  1.
    10030    2    1    2    0    0  0.00000000000E+00  0.00000000000E+00  0.34090834180E+03  0.23251571144E+04  0.23000298061E+04 0.  0.
        5    1    3    3  502    0  0.45594597275E+03  0.24948770978E+03 -0.86660947285E+03  0.10105270485E+04  0.46999998093E+01 0.  1.
       -5    1    3    3    0  502 -0.45594597275E+03 -0.24948770978E+03  0.12075178147E+04  0.13146300659E+04  0.46999998093E+01 0. -1.
</event>
<event>
 5   0  0.7932912E-07  0.2299627E+04  0.7818609E-02  0.8478068E-01
       -1   -1    0    0    0  501  0.00000000000E+00  0.00000000000E+00  0.17669613484E+04  0.17669613484E+04  0.50400001928E-02 0.  1.
        1   -1    0    0  501    0  0.00000000000E+00  0.00000000000E+00 -0.74821760049E+03  0.74821760051E+03  0.50400001928E-02 0. -1.
    10030    2    1    2    0    0  0.00000000000E+00  0.00000000000E+00  0.10187437479E+04  0.25151789489E+04  0.22996274310E+04 0.  0.
        5    1    3    3  502    0 -0.54036224175E+03 -0.15869674040E+03 -0.58702326654E+03  0.81350747580E+03  0.46999998093E+01 0. -1.
       -5    1    3    3    0  502  0.54036224175E+03  0.15869674040E+03  0.16057670145E+04  0.17016714731E+04  0.46999998093E+01 0.  1.
</event>
<event>
 5   0  0.1828646E-06  0.2299314E+04  0.7818609E-02  0.8478192E-01
       -2   -1    0    0    0  501  0.00000000000E+00  0.00000000000E+00  0.24123276421E+04  0.24123276421E+04  0.25500000920E-02 0.  1.
        2   -1    0    0  501    0  0.00000000000E+00  0.00000000000E+00 -0.54789852354E+03  0.54789852355E+03  0.25500000920E-02 0. -1.
    10030    2    1    2    0    0  0.00000000000E+00  0.00000000000E+00  0.18644291186E+04  0.29602261657E+04  0.22993135962E+04 0.  0.
        3    1    3    3  502    0 -0.29899348345E+02 -0.19098138762E+03 -0.52682536969E+03  0.56117095595E+03  0.10100000352E+00 0. -1.
       -3    1    3    3    0  502  0.29899348345E+02  0.19098138762E+03  0.23912544882E+04  0.23990552097E+04  0.10100000352E+00 0.  1.
</event>
<event>
 5   0  0.7607231E-07  0.2300317E+04  0.7818609E-02  0.8477796E-01
       -1   -1    0    0    0  501  0.00000000000E+00  0.00000000000E+00  0.17463949905E+04  0.17463949905E+04  0.50400001928E-02 0. -1.
        1   -1    0    0  501    0  0.00000000000E+00  0.00000000000E+00 -0.75748288121E+03  0.75748288122E+03  0.50400001928E-02 0.  1.
    10030    2    1    2    0    0  0.00000000000E+00  0.00000000000E+00  0.98891210932E+03  0.25038778718E+04  0.23003167688E+04 0.  0.
        2    1    3    3  502    0  0.87661940855E+03 -0.29918803187E+03 -0.24770856257E+03  0.95881937707E+03  0.25500000920E-02 0.  1.
       -2    1    3    3    0  502 -0.87661940855E+03  0.29918803187E+03  0.12366206719E+04  0.15450584947E+04  0.25500000920E-02 0. -1.
</event>
<event>
 5   0  0.8108242E-07  0.2300106E+04  0.7818609E-02  0.8477879E-01
       -1   -1    0    0    0  501  0.00000000000E+00  0.00000000000E+00  0.81172745710E+03  0.81172745712E+03  0.50400001928E-02 0.  1.
        1   -1    0    0  501    0  0.00000000000E+00  0.00000000000E+00 -0.16293918118E+04  0.16293918118E+04  0.50400001928E-02 0. -1.
    10030    2    1    2    0    0  0.00000000000E+00  0.00000000000E+00 -0.81766435468E+03  0.24411192689E+04  0.23001061471E+04 0.  0.
        4    1    3    3  502    0 -0.16475752237E+03 -0.21082029403E+03 -0.15958986002E+04  0.16181731034E+04  0.12699999809E+01 0. -1.
       -4    1    3    3    0  502  0.16475752237E+03  0.21082029403E+03  0.77823424551E+03  0.82294616551E+03  0.12699999809E+01 0.  1.
</event>
<event>
 5   0  0.7761069E-07  0.2300699E+04  0.7818609E-02  0.8477646E-01
        1   -1    0    0  501    0  0.00000000000E+00  0.00000000000E+00  0.82348069147E+03  0.82348069148E+03  0.50400001928E-02 0.  1.
       -1   -1    0    0    0  501  0.00000000000E+00  0.00000000000E+00 -0.16069637491E+04  0.16069637491E+04  0.50400001928E-02 0. -1.
    10030    2    1    2    0    0  0.00000000000E+00  0.00000000000E+00 -0.78348305760E+03  0.24304444406E+04  0.23006986932E+04 0.  0.
        1    1    3    3  502    0 -0.55236561977E+03  0.10057373477E+04 -0.30534794046E+03  0.11873722058E+04  0.50400001928E-02 0.  1.
       -1    1    3    3    0  502  0.55236561977E+03 -0.10057373477E+04 -0.47813511715E+03  0.12430722347E+04  0.50400001928E-02 0. -1.
</event>
<event>
 5   0  0.8108242E-07  0.2299552E+04  0.7818609E-02  0.8478098E-01
        1   -1    0    0  501    0  0.00000000000E+00  0.00000000000E+00  0.10756981922E+04  0.10756981922E+04  0.50400001928E-02 0. -1.
       -1   -1    0    0    0  501  0.00000000000E+00  0.00000000000E+00 -0.12289547320E+04  0.12289547321E+04  0.50400001928E-02 0.  1.
    10030    2    1    2    0    0  0.00000000000E+00  0.00000000000E+00 -0.15325653988E+03  0.23046529242E+04  0.22995515941E+04 0.  0.
        4    1    3    3  502    0  0.91252060014E+03 -0.55859151958E+03  0.34533357572E+03  0.11242665266E+04  0.12699999809E+01 0. -1.
       -4    1    3    3    0  502 -0.91252060014E+03  0.55859151958E+03 -0.49859011561E+03  0.11803863976E+04  0.12699999809E+01 0.  1.
</event>
<event>
 5   0  0.1689444E-06  0.2303044E+04  0.7818609E-02  0.8476722E-01
       -2   -1    0    0    0  501  0.00000000000E+00  0.00000000000E+00  0.49322016967E+03  0.49322016967E+03  0.25500000920E-02 0. -1.
        2   -1    0    0  501    0  0.00000000000E+00  0.00000000000E+00 -0.26884596726E+04  0.26884596726E+04  0.25500000920E-02 0.  1.
    10030    2    1    2    0    0  0.00000000000E+00  0.00000000000E+00 -0.21952395029E+04  0.31816798423E+04  0.23030436695E+04 0.  0.
        2    1    3    3  502    0  0.86989700149E+03  0.16518373235E+03 -0.80546166512E+02  0.88909737576E+03  0.25500000920E-02 0. -1.
       -2    1    3    3    0  502 -0.86989700149E+03 -0.16518373235E+03 -0.21146933364E+04  0.22925824665E+04  0.25500000920E-02 0.  1.
</event>
<event>
 5   0  0.1744876E-06  0.2300210E+04  0.7818609E-02  0.8477838E-01
       -2   -1    0    0    0  501  0.00000000000E+00  0.00000000000E+00  0.79207825978E+03  0.79207825978E+03  0.25500000920E-02 0.  1.
        2   -1    0    0  501    0  0.00000000000E+00  0.00000000000E+00 -0.16699633664E+04  0.16699633664E+04  0.25500000920E-02 0. -1.
    10030    2    1    2    0    0  0.00000000000E+00  0.00000000000E+00 -0.87788510666E+03  0.24620416262E+04  0.23002101445E+04 0.  0.
        1    1    3    3  502    0 -0.64270790546E+03 -0.18890697454E+02  0.58172471333E+03  0.86708359015E+03  0.50400001928E-02 0.  1.
       -1    1    3    3    0  502  0.64270790546E+03  0.18890697454E+02 -0.14596098200E+04  0.15949580361E+04  0.50400001928E-02 0. -1.
</event>
<event>
 5   0  0.1828646E-06  0.2299666E+04  0.7818609E-02  0.8478053E-01
       -2   -1    0    0    0  501  0.00000000000E+00  0.00000000000E+00  0.77623698624E+03  0.77623698625E+03  0.25500000920E-02 0. -1.
        2   -1    0    0  501    0  0.00000000000E+00  0.00000000000E+00 -0.17032379437E+04  0.17032379437E+04  0.25500000920E-02 0.  1.
    10030    2    1    2    0    0  0.00000000000E+00  0.00000000000E+00 -0.92700095749E+03  0.24794749300E+04  0.22996663134E+04 0.  0.
        3    1    3    3  502    0 -0.90803381209E+03  0.68837176824E+03 -0.29739223396E+03  0.11776345979E+04  0.10100000352E+00 0.  1.
       -3    1    3    3    0  502  0.90803381209E+03 -0.68837176824E+03 -0.62960872352E+03  0.13018403320E+04  0.10100000352E+00 0. -1.
</event>
<event>
 5   0  0.1744876E-06  0.2299419E+04  0.7818609E-02  0.8478150E-01
       -2   -1    0    0    0  501  0.00000000000E+00  0.00000000000E+00  0.14917086910E+04  0.14917086910E+04  0.25500000920E-02 0. -1.
        2   -1    0    0  501    0  0.00000000000E+00  0.00000000000E+00 -0.88611955916E+03  0.88611955917E+03  0.25500000920E-02 0.  1.
    10030    2    1    2    0    0  0.00000000000E+00  0.00000000000E+00  0.60558913186E+03  0.23778282502E+04  0.22994192725E+04 0.  0.
        1    1    3    3  502    0 -0.64778000634E+03 -0.69787663875E+03  0.96911221451E+03  0.13586129780E+04  0.50400001928E-02 0. -1.
       -1    1    3    3    0  502  0.64778000634E+03  0.69787663875E+03 -0.36352308264E+03  0.10192152722E+04  0.50400001928E-02 0.  1.
</event>
<event>
 5   0  0.1888779E-06  0.2299539E+04  0.7818609E-02  0.8478103E-01
        2   -1    0    0  501    0  0.00000000000E+00  0.00000000000E+00  0.89699561039E+03  0.89699561040E+03  0.25500000920E-02 0.  1.
       -2   -1    0    0    0  501  0.00000000000E+00  0.00000000000E+00 -0.14737754915E+04  0.14737754915E+04  0.25500000920E-02 0. -1.
    10030    2    1    2    0    0  0.00000000000E+00  0.00000000000E+00 -0.57677988111E+03  0.23707711019E+04  0.22995392117E+04 0.  0.
        4    1    3    3  502    0 -0.57378806830E+03  0.99181593594E+03 -0.19038242091E+03  0.11615415090E+04  0.12699999809E+01 0.  1.
       -4    1    3    3    0  502  0.57378806830E+03 -0.99181593594E+03 -0.38639746019E+03  0.12092295929E+04  0.12699999809E+01 0. -1.
</event>
<event>
 5   0  0.8097672E-07  0.2299993E+04  0.7818609E-02  0.8477924E-01
       -1   -1    0    0    0  501  0.00000000000E+00  0.00000000000E+00  0.96191849627E+03  0.96191849628E+03  0.50400001928E-02 0.  1.
        1   -1    0    0  501    0  0.00000000000E+00  0.00000000000E+00 -0.13748482914E+04  0.13748482914E+04  0.50400001928E-02 0. -1.
    10030    2    1    2    0    0  0.00000000000E+00  0.00000000000E+00 -0.41292979510E+03  0.23367667877E+04  0.22999930444E+04 0.  0.
        3    1    3    3  502    0 -0.11315105959E+03 -0.10231121235E+04  0.31450095663E+03  0.10763235766E+04  0.10100000352E+00 0.  1.
       -3    1    3    3    0  502  0.11315105959E+03  0.10231121235E+04 -0.72743075173E+03  0.12604432111E+04  0.10100000352E+00 0. -1.
</event>
<event>
 5   0  0.7761069E-07  0.2299093E+04  0.7818609E-02  0.8478279E-01
        1   -1    0    0  501    0  0.00000000000E+00  0.00000000000E+00  0.17005780882E+04  0.17005780882E+04  0.50400001928E-02 0. -1.
       -1   -1    0    0    0  501  0.00000000000E+00  0.00000000000E+00 -0.77706374929E+03  0.77706374930E+03  0.50400001928E-02 0.  1.
    10030    2    1    2    0    0  0.00000000000E+00  0.00000000000E+00  0.92351433890E+03  0.24776418375E+04  0.22990933736E+04 0.  0.
        1    1    3    3  502    0  0.28258892634E+03 -0.90226663177E+03 -0.24286792705E+03  0.97617949483E+03  0.50400001928E-02 0.  1.
       -1    1    3    3    0  502 -0.28258892634E+03  0.90226663177E+03  0.11663822660E+04  0.15014623427E+04  0.50400001928E-02 0. -1.
</event>
<event>
 5   0  0.7932912E-07  0.2300013E+04  0.7818609E-02  0.8477916E-01
        1   -1    0    0  501    0  0.00000000000E+00  0.00000000000E+00  0.14120869849E+04  0.14120869849E+04  0.50400001928E-02 0. -1.
       -1   -1    0    0    0  501  0.00000000000E+00  0.00000000000E+00 -0.93656723007E+03  0.93656723008E+03  0.50400001928E-02 0.  1.
    10030    2    1    2    0    0  0.00000000000E+00  0.00000000000E+00  0.47551975484E+03  0.23486542150E+04  0.23000125183E+04 0.  0.
        5    1    3    3  502    0  0.15813225514E+03  0.62839371166E+03 -0.73238910486E+03  0.97790610893E+03  0.46999998093E+01 0.  1.
       -5    1    3    3    0  502 -0.15813225514E+03 -0.62839371166E+03  0.12079088597E+04  0.13707481061E+04  0.46999998093E+01 0. -1.
</event>
<event>
 5   0  0.7761069E-07  0.2309905E+04  0.7818609E-02  0.8474026E-01
       -1   -1    0    0    0  501  0.00000000000E+00  0.00000000000E+00  0.63938536560E+03  0.63938536562E+03  0.50400001928E-02 0. -1.
        1   -1    0    0  501    0  0.00000000000E+00  0.00000000000E+00 -0.20862459535E+04  0.20862459535E+04  0.50400001928E-02 0.  1.
    10030    2    1    2    0    0  0.00000000000E+00  0.00000000000E+00 -0.14468605879E+04  0.27256313191E+04  0.23099048740E+04 0.  0.
        1    1    3    3  502    0 -0.49947831663E+03 -0.52015723252E+03 -0.17879441905E+04  0.19278969277E+04  0.50400001928E-02 0.  1.
       -1    1    3    3    0  502  0.49947831663E+03  0.52015723252E+03  0.34108360261E+03  0.79773439146E+03  0.50400001928E-02 0. -1.
</event>
<event>
 5   0  0.8108242E-07  0.2305407E+04  0.7818609E-02  0.8475792E-01
        1   -1    0    0  501    0  0.00000000000E+00  0.00000000000E+00  0.23825742020E+04  0.23825742020E+04  0.50400001928E-02 0.  1.
       -1   -1    0    0    0  501  0.00000000000E+00  0.00000000000E+00 -0.55768471238E+03  0.55768471241E+03  0.50400001928E-02 0. -1.
    10030    2    1    2    0    0  0.00000000000E+00  0.00000000000E+00  0.18248894896E+04  0.29402589144E+04  0.23054068696E+04 0.  0.
        4    1    3    3  502    0 -0.10149203653E+04  0.45935954394E+03  0.12900270356E+04  0.17044781911E+04  0.12699999809E+01 0.  1.
       -4    1    3    3    0  502  0.10149203653E+04 -0.45935954394E+03  0.53486245402E+03  0.12357807233E+04  0.12699999809E+01 0. -1.
</event>
<event>
 5   0  0.8097672E-07  0.2300049E+04  0.7818609E-02  0.8477902E-01
       -1   -1    0    0    0  501  0.00000000000E+00  0.00000000000E+00  0.87651396415E+03  0.87651396417E+03  0.50400001928E-02 0.  1.
        1   -1    0    0  501    0  0.00000000000E+00  0.00000000000E+00 -0.15088824671E+04  0.15088824671E+04  0.50400001928E-02 0. -1.
    10030    2    1    2    0    0  0.00000000000E+00  0.00000000000E+00 -0.63236850293E+03  0.23853964313E+04  0.23000491757E+04 0.  0.
        3    1    3    3  502    0 -0.32955964349E+03  0.91222438182E+03 -0.95700682314E+03  0.13625802549E+04  0.10100000352E+00 0. -1.
       -3    1    3    3    0  502  0.32955964349E+03 -0.91222438182E+03  0.32463832021E+03  0.10228161763E+04  0.10100000352E+00 0.  1.
</event>
<event>
 5   0  0.1888779E-06  0.2300135E+04  0.7818609E-02  0.8477868E-01
       -2   -1    0    0    0  501  0.00000000000E+00  0.00000000000E+00  0.64837972454E+03  0.64837972454E+03  0.25500000920E-02 0.  1.
        2   -1    0    0  501    0  0.00000000000E+00  0.00000000000E+00 -0.20399389401E+04  0.20399389401E+04  0.25500000920E-02 0. -1.
    10030    2    1    2    0    0  0.00000000000E+00  0.00000000000E+00 -0.13915592156E+04  0.26883186647E+04  0.23001348205E+04 0.  0.
        4    1    3    3  502    0  0.80546146537E+03 -0.78687313104E+03 -0.42238850201E+03  0.12026434035E+04  0.12699999809E+01 0.  1.
       -4    1    3    3    0  502 -0.80546146537E+03  0.78687313104E+03 -0.96917071358E+03  0.14856752611E+04  0.12699999809E+01 0. -1.
</event>
<event>
 5   0  0.7607231E-07  0.2300700E+04  0.7818609E-02  0.8477645E-01
        1   -1    0    0  501    0  0.00000000000E+00  0.00000000000E+00  0.11882787865E+04  0.11882787865E+04  0.50400001928E-02 0. -1.
       -1   -1    0    0    0  501  0.00000000000E+00  0.00000000000E+00 -0.11136321619E+04  0.11136321619E+04  0.50400001928E-02 0.  1.
    10030    2    1    2    0    0  0.00000000000E+00  0.00000000000E+00  0.74646624581E+02  0.23019109485E+04  0.23007003056E+04 0.  0.
        2    1    3    3  502    0 -0.55795324347E+03 -0.82044492311E+03 -0.54510307668E+03  0.11320684864E+04  0.25500000920E-02 0. -1.
       -2    1    3    3    0  502  0.55795324347E+03  0.82044492311E+03  0.61974970126E+03  0.11698424620E+04  0.25500000920E-02 0.  1.
</event>
<event>
 5   0  0.8097672E-07  0.2299290E+04  0.7818609E-02  0.8478201E-01
       -1   -1    0    0    0  501  0.00000000000E+00  0.00000000000E+00  0.13474413200E+04  0.13474413200E+04  0.50400001928E-02 0.  1.
        1   -1    0    0  501    0  0.00000000000E+00  0.00000000000E+00 -0.98088374079E+03  0.98088374080E+03  0.50400001928E-02 0. -1.
    10030    2    1    2    0    0  0.00000000000E+00  0.00000000000E+00  0.36655757919E+03  0.23283250608E+04  0.22992897012E+04 0.  0.
        3    1    3    3  502    0  0.10052700724E+04 -0.11867782234E+03 -0.36860896106E+03  0.10772766220E+04  0.10100000352E+00 0. -1.
       -3    1    3    3    0  502 -0.10052700724E+04  0.11867782234E+03  0.73516654025E+03  0.12510484388E+04  0.10100000352E+00 0.  1.
</event>
<event>
 5   0  0.1825521E-06  0.2299323E+04  0.7818609E-02  0.8478188E-01
       -2   -1    0    0    0  501  0.00000000000E+00  0.00000000000E+00  0.81552209213E+03  0.81552209213E+03  0.25500000920E-02 0. -1.
        2   -1    0    0  501    0  0.00000000000E+00  0.00000000000E+00 -0.16207059708E+04  0.16207059708E+04  0.25500000920E-02 0.  1.
    10030    2    1    2    0    0  0.00000000000E+00  0.00000000000E+00 -0.80518387864E+03  0.24362280629E+04  0.22993229647E+04 0.  0.
        5    1    3    3  502    0 -0.47815222597E+03  0.43254739406E+03 -0.14110910151E+04  0.15514273242E+04  0.46999998093E+01 0.  1.
       -5    1    3    3    0  502  0.47815222597E+03 -0.43254739406E+03  0.60590713644E+03  0.88480073875E+03  0.46999998093E+01 0. -1.
</event>
<event>
 5   0  0.7607231E-07  0.2299846E+04  0.7818609E-02  0.8477982E-01
       -1   -1    0    0    0  501  0.00000000000E+00  0.00000000000E+00  0.14838510122E+04  0.14838510122E+04  0.50400001928E-02 0. -1.
        1   -1    0    0  501    0  0.00000000000E+00  0.00000000000E+00 -0.89114285394E+03  0.89114285396E+03  0.50400001928E-02 0.  1.
    10030    2    1    2    0    0  0.00000000000E+00  0.00000000000E+00  0.59270815827E+03  0.23749938662E+04  0.22998462782E+04 0.  0.
        2    1    3    3  502    0 -0.21986157190E+03  0.78166716201E+03  0.11371954694E+04  0.13973389705E+04  0.25500000920E-02 0. -1.
       -2    1    3    3    0  502  0.21986157190E+03 -0.78166716201E+03 -0.54448731113E+03  0.97765489563E+03  0.25500000920E-02 0.  1.
</event>
<event>
 5   0  0.8097672E-07  0.2299538E+04  0.7818609E-02  0.8478103E-01
       -1   -1    0    0    0  501  0.00000000000E+00  0.00000000000E+00  0.13567103502E+04  0.13567103502E+04  0.50400001928E-02 0. -1.
        1   -1    0    0  501    0  0.00000000000E+00  0.00000000000E+00 -0.97439271324E+03  0.97439271325E+03  0.50400001928E-02 0.  1.
    10030    2    1    2    0    0  0.00000000000E+00  0.00000000000E+00  0.38231763696E+03  0.23311030635E+04  0.22995379355E+04 0.  0.
        3    1    3    3  502    0 -0.30626187491E+03 -0.71783160726E+03 -0.66475924805E+03  0.10251748243E+04  0.10100000352E+00 0.  1.
       -3    1    3    3    0  502  0.30626187491E+03  0.71783160726E+03  0.10470768850E+04  0.13059282391E+04  0.10100000352E+00 0. -1.
</event>
<event>
 5   0  0.7932912E-07  0.2299369E+04  0.7818609E-02  0.8478170E-01
        1   -1    0    0  501    0  0.00000000000E+00  0.00000000000E+00  0.21911170002E+04  0.21911170002E+04  0.50400001928E-02 0. -1.
       -1   -1    0    0    0  501  0.00000000000E+00  0.00000000000E+00 -0.60324234201E+03  0.60324234203E+03  0.50400001928E-02 0.  1.
    10030    2    1    2    0    0  0.00000000000E+00  0.00000000000E+00  0.15878746582E+04  0.27943593423E+04  0.22993690881E+04 0.  0.
        5    1    3    3  502    0 -0.66059021350E+03 -0.36653743186E+03 -0.25923704351E+03  0.79872088608E+03  0.46999998093E+01 0.  1.
       -5    1    3    3    0  502  0.66059021350E+03  0.36653743186E+03  0.18471117017E+04  0.19956384562E+04  0.46999998093E+01 0. -1.
</event>
<event>
 5   0  0.1689444E-06  0.2299782E+04  0.7818609E-02  0.8478007E-01
        2   -1    0    0  501    0  0.00000000000E+00  0.00000000000E+00  0.17298557073E+04  0.17298557073E+04  0.25500000920E-02 0.  1.
       -2   -1    0    0    0  501  0.00000000000E+00  0.00000000000E+00 -0.76437002899E+03  0.76437002899E+03  0.25500000920E-02 0. -1.
    10030    2    1    2    0    0  0.00000000000E+00  0.00000000000E+00  0.96548567836E+03  0.24942257363E+04  0.22997824742E+04 0.  0.
        2    1    3    3  502    0  0.32267614666E+02 -0.11460797141E+04  0.57797303976E+03  0.12839753676E+04  0.25500000920E-02 0.  1.
       -2    1    3    3    0  502 -0.32267614666E+02  0.11460797141E+04  0.38751263859E+03  0.12102503687E+04  0.25500000920E-02 0. -1.
</event>
<event>
 5   0  0.1689444E-06  0.2300323E+04  0.7818609E-02  0.8477794E-01
        2   -1    0    0  501    0  0.00000000000E+00  0.00000000000E+00  0.10617970514E+04  0.10617970514E+04  0.25500000920E-02 0.  1.
       -2   -1    0    0    0  501  0.00000000000E+00  0.00000000000E+00 -0.12458800295E+04  0.12458800295E+04  0.25500000920E-02 0. -1.
    10030    2    1    2    0    0  0.00000000000E+00  0.00000000000E+00 -0.18408297807E+03  0.23076770809E+04  0.23003232309E+04 0.  0.
        2    1    3    3  502    0 -0.99249006137E+03 -0.32060669434E+03  0.39432442193E+03  0.11150412208E+04  0.25500000920E-02 0.  1.
       -2    1    3    3    0  502  0.99249006137E+03  0.32060669434E+03 -0.57840739999E+03  0.11926358601E+04  0.25500000920E-02 0. -1.
</event>
<event>
 5   0  0.1828646E-06  0.2296968E+04  0.7818609E-02  0.8479117E-01
        2   -1    0    0  501    0  0.00000000000E+00  0.00000000000E+00  0.13779758905E+04  0.13779758905E+04  0.25500000920E-02 0. -1.
       -2   -1    0    0    0  501  0.00000000000E+00  0.00000000000E+00 -0.95721263065E+03  0.95721263066E+03  0.25500000920E-02 0.  1.
    10030    2    1    2    0    0  0.00000000000E+00  0.00000000000E+00  0.42076325983E+03  0.23351885211E+04  0.22969683734E+04 0.  0.
        3    1    3    3  502    0  0.11457611872E+03 -0.44931264405E+03 -0.85781873702E+03  0.97512180515E+03  0.10100000352E+00 0.  1.
       -3    1    3    3    0  502 -0.11457611872E+03  0.44931264405E+03  0.12785819969E+04  0.13600667160E+04  0.10100000352E+00 0. -1.
</event>
<event>
 5   0  0.1888779E-06  0.2296880E+04  0.7818609E-02  0.8479152E-01
        2   -1    0    0  501    0  0.00000000000E+00  0.00000000000E+00  0.18011793648E+04  0.18011793648E+04  0.25500000920E-02 0.  1.
       -2   -1    0    0    0  501  0.00000000000E+00  0.00000000000E+00 -0.73225042992E+03  0.73225042992E+03  0.25500000920E-02 0. -1.
    10030    2    1    2    0    0  0.00000000000E+00  0.00000000000E+00  0.10689289348E+04  0.25334297947E+04  0.22968799396E+04 0.  0.
        4    1    3    3  502    0  0.27856443235E+03 -0.49547858484E+03  0.16351418376E+04  0.17311232229E+04  0.12699999809E+01 0.  1.
       -4    1    3    3    0  502 -0.27856443235E+03  0.49547858484E+03 -0.56621290272E+03  0.80230657178E+03  0.12699999809E+01 0. -1.
</event>
<event>
 5   0  0.7761069E-07  0.2304400E+04  0.7818609E-02  0.8476188E-01
       -1   -1    0    0    0  501  0.00000000000E+00  0.00000000000E+00  0.82163616799E+03  0.82163616800E+03  0.50400001928E-02 0. -1.
        1   -1    0    0  501    0  0.00000000000E+00  0.00000000000E+00 -0.16157573984E+04  0.16157573984E+04  0.50400001928E-02 0.  1.
    10030    2    1    2    0    0  0.00000000000E+00  0.00000000000E+00 -0.79412123039E+03  0.24373935664E+04  0.23043998934E+04 0.  0.
        1    1    3    3  502    0 -0.62156062401E+03 -0.84949710935E+03 -0.89270016500E+03  0.13801798914E+04  0.50400001928E-02 0.  1.
       -1    1    3    3    0  502  0.62156062401E+03  0.84949710935E+03  0.98578934609E+02  0.10572136749E+04  0.50400001928E-02 0. -1.
</event>
<event>
 5   0  0.1888779E-06  0.2299948E+04  0.7818609E-02  0.8477942E-01
       -2   -1    0    0    0  501  0.00000000000E+00  0.00000000000E+00  0.87740136336E+03  0.87740136337E+03  0.25500000920E-02 0.  1.
        2   -1    0    0  501    0  0.00000000000E+00  0.00000000000E+00 -0.15072234541E+04  0.15072234541E+04  0.25500000920E-02 0. -1.
    10030    2    1    2    0    0  0.00000000000E+00  0.00000000000E+00 -0.62982209075E+03  0.23846248175E+04  0.22999477503E+04 0.  0.
        4    1    3    3  502    0  0.69295267420E+03  0.89501115066E+03 -0.10443482356E+03  0.11367218718E+04  0.12699999809E+01 0.  1.
       -4    1    3    3    0  502 -0.69295267420E+03 -0.89501115066E+03 -0.52538726720E+03  0.12479029457E+04  0.12699999809E+01 0. -1.
</event>
<event>
 5   0  0.8108242E-07  0.2300750E+04  0.7818609E-02  0.8477625E-01
        1   -1    0    0  501    0  0.00000000000E+00  0.00000000000E+00  0.15863877072E+04  0.15863877072E+04  0.50400001928E-02 0.  1.
       -1   -1    0    0    0  501  0.00000000000E+00  0.00000000000E+00 -0.83419881578E+03  0.83419881580E+03  0.50400001928E-02 0. -1.
    10030    2    1    2    0    0  0.00000000000E+00  0.00000000000E+00  0.75218889138E+03  0.24205865230E+04  0.23007500922E+04 0.  0.
        4    1    3    3  502    0  0.12224474428E+03 -0.62273083554E+03 -0.63337279448E+03  0.89660480744E+03  0.12699999809E+01 0. -1.
       -4    1    3    3    0  502 -0.12224474428E+03  0.62273083554E+03  0.13855616859E+04  0.15239817155E+04  0.12699999809E+01 0.  1.
</event>
<event>
 5   0  0.1744876E-06  0.2299658E+04  0.7818609E-02  0.8478056E-01
        2   -1    0    0  501    0  0.00000000000E+00  0.00000000000E+00  0.21998776162E+04  0.21998776162E+04  0.25500000920E-02 0. -1.
       -2   -1    0    0    0  501  0.00000000000E+00  0.00000000000E+00 -0.60099114370E+03  0.60099114371E+03  0.25500000920E-02 0.  1.
    10030    2    1    2    0    0  0.00000000000E+00  0.00000000000E+00  0.15988864725E+04  0.28008687600E+04  0.22996582047E+04 0.  0.
        1    1    3    3  502    0  0.20302579519E+03 -0.34239965138E+03  0.21132776966E+04  0.21504417262E+04  0.50400001928E-02 0. -1.
       -1    1    3    3    0  502 -0.20302579519E+03  0.34239965138E+03 -0.51439122408E+03  0.65042703373E+03  0.50400001928E-02 0.  1.
</event>
<event>
 5   0  0.8097672E-07  0.2300095E+04  0.7818609E-02  0.8477884E-01
       -1   -1    0    0    0  501  0.00000000000E+00  0.00000000000E+00  0.96681533307E+03  0.96681533308E+03  0.50400001928E-02 0. -1.
        1   -1    0    0  501    0  0.00000000000E+00  0.00000000000E+00 -0.13680056915E+04  0.13680056915E+04  0.50400001928E-02 0.  1.
    10030    2    1    2    0    0  0.00000000000E+00  0.00000000000E+00 -0.40119035842E+03  0.23348210246E+04  0.23000946748E+04 0.  0.
        3    1    3    3  502    0  0.15277237409E+03 -0.14781345433E+02  0.95637184420E+03  0.96860982911E+03  0.10100000352E+00 0. -1.
       -3    1    3    3    0  502 -0.15277237409E+03  0.14781345433E+02 -0.13575622026E+04  0.13662111955E+04  0.10100000352E+00 0.  1.
</event>
<event>
 5   0  0.1828646E-06  0.2299958E+04  0.7818609E-02  0.8477938E-01
        2   -1    0    0  501    0  0.00000000000E+00  0.00000000000E+00  0.18531646384E+04  0.18531646384E+04  0.25500000920E-02 0. -1.
       -2   -1    0    0    0  501  0.00000000000E+00  0.00000000000E+00 -0.71361772503E+03  0.71361772503E+03  0.25500000920E-02 0.  1.
    10030    2    1    2    0    0  0.00000000000E+00  0.00000000000E+00  0.11395469134E+04  0.25667823635E+04  0.22999575069E+04 0.  0.
        3    1    3    3  502    0  0.28508721812E+03  0.45674519766E+03 -0.56426277528E+03  0.77992524468E+03  0.10100000352E+00 0.  1.
       -3    1    3    3    0  502 -0.28508721812E+03 -0.45674519766E+03  0.17038096887E+04  0.17868571188E+04  0.10100000352E+00 0. -1.
</event>
<event>
 5   0  0.7932912E-07  0.2300226E+04  0.7818609E-02  0.8477832E-01
       -1   -1    0    0    0  501  0.00000000000E+00  0.00000000000E+00  0.90689061172E+03  0.90689061173E+03  0.50400001928E-02 0.  1.
        1   -1    0    0  501    0  0.00000000000E+00  0.00000000000E+00 -0.14585666032E+04  0.14585666032E+04  0.50400001928E-02 0. -1.
    10030    2    1    2    0    0  0.00000000000E+00  0.00000000000E+00 -0.55167599145E+03  0.23654572149E+04  0.23002263880E+04 0.  0.
        5    1    3    3  502    0  0.26103351454E+03 -0.50514499475E+02 -0.14265191900E+04  0.14510924505E+04  0.46999998093E+01 0. -1.
       -5    1    3    3    0  502 -0.26103351454E+03  0.50514499475E+02  0.87484319856E+03  0.91436476443E+03  0.46999998093E+01 0.  1.
</event>
<event>
 5   0  0.1744876E-06  0.2300134E+04  0.7818609E-02  0.8477868E-01
       -2   -1    0    0    0  501  0.00000000000E+00  0.00000000000E+00  0.99834682182E+03  0.99834682182E+03  0.25500000920E-02 0. -1.
        2   -1    0    0  501    0  0.00000000000E+00  0.00000000000E+00 -0.13248440710E+04  0.13248440710E+04  0.25500000920E-02 0.  1.
    10030    2    1    2    0    0  0.00000000000E+00  0.00000000000E+00 -0.32649724922E+03  0.23231908929E+04  0.23001337941E+04 0.  0.
        1    1    3    3  502    0  0.63023273046E+03  0.41717429991E+03 -0.10387865395E+04  0.12846420379E+04  0.50400001928E-02 0.  1.
       -1    1    3    3    0  502 -0.63023273046E+03 -0.41717429991E+03  0.71228929024E+03  0.10385488549E+04  0.50400001928E-02 0. -1.
</event>
<event>
 5   0  0.1828646E-06  0.2298901E+04  0.7818609E-02  0.8478355E-01
        2   -1    0    0  501    0  0.00000000000E+00  0.00000000000E+00  0.22973990415E+04  0.22973990415E+04  0.25500000920E-02 0. -1.
       -2   -1    0    0    0  501  0.00000000000E+00  0.00000000000E+00 -0.57510085347E+03  0.57510085348E+03  0.25500000920E-02 0.  1.
    10030    2    1    2    0    0  0.00000000000E+00  0.00000000000E+00  0.17222981880E+04  0.28724998950E+04  0.22989007369E+04 0.  0.
        3    1    3    3  502    0  0.26591745589E+03  0.11081345821E+04  0.10488328201E+04  0.15487816631E+04  0.10100000352E+00 0.  1.
       -3    1    3    3    0  502 -0.26591745589E+03 -0.11081345821E+04  0.67346536789E+03  0.13237182318E+04  0.10100000352E+00 0. -1.
</event>
<event>
 5   0  0.7932912E-07  0.2301189E+04  0.7818609E-02  0.8477452E-01
        1   -1    0    0  501    0  0.00000000000E+00  0.00000000000E+00  0.12882379718E+04  0.12882379718E+04  0.50400001928E-02 0. -1.
       -1   -1    0    0    0  501  0.00000000000E+00  0.00000000000E+00 -0.10276580426E+04  0.10276580426E+04  0.50400001928E-02 0.  1.
    10030    2    1    2    0    0  0.00000000000E+00  0.00000000000E+00  0.26057992921E+03  0.23158960144E+04  0.23011893555E+04 0.  0.
        5    1    3    3  502    0 -0.30829818550E+03  0.10681608300E+04  0.42854642019E+03  0.11915072195E+04  0.46999998093E+01 0. -1.
       -5    1    3    3    0  502  0.30829818550E+03 -0.10681608300E+04 -0.16796649098E+03  0.11243887949E+04  0.46999998093E+01 0.  1.
</event>
<event>
 5   0  0.8108242E-07  0.2301288E+04  0.7818609E-02  0.8477414E-01
        1   -1    0    0  501    0  0.00000000000E+00  0.00000000000E+00  0.28478541040E+04  0.28478541040E+04  0.50400001928E-02 0. -1.
       -1   -1    0    0    0  501  0.00000000000E+00  0.00000000000E+00 -0.46490480037E+03  0.46490480039E+03  0.50400001928E-02 0.  1.
    10030    2    1    2    0    0  0.00000000000E+00  0.00000000000E+00  0.23829493036E+04  0.33127589043E+04  0.23012875037E+04 0.  0.
        4    1    3    3  502    0  0.96775733958E+03  0.13341884360E+03  0.31629065111E+03  0.10268379838E+04  0.12699999809E+01 0.  1.
       -4    1    3    3    0  502 -0.96775733958E+03 -0.13341884360E+03  0.20666586525E+04  0.22859209205E+04  0.12699999809E+01 0. -1.
</event>
<event>
 5   0  0.7607231E-07  0.2300583E+04  0.7818609E-02  0.8477691E-01
       -1   -1    0    0    0  501  0.00000000000E+00  0.00000000000E+00  0.93862666566E+03  0.93862666567E+03  0.50400001928E-02 0.  1.
        1   -1    0    0  501    0  0.00000000000E+00  0.00000000000E+00 -0.14096880598E+04  0.14096880598E+04  0.50400001928E-02 0. -1.
    10030    2    1    2    0    0  0.00000000000E+00  0.00000000000E+00 -0.47106139413E+03  0.23483147255E+04  0.23005832332E+04 0.  0.
        2    1    3    3  502    0  0.72826798949E+03 -0.28332602030E+03 -0.10971546546E+04  0.13469952614E+04  0.25500000920E-02 0. -1.
       -2    1    3    3    0  502 -0.72826798949E+03  0.28332602030E+03  0.62609326043E+03  0.10013194640E+04  0.25500000920E-02 0.  1.
</event>
<event>
 5   0  0.1888779E-06  0.2300321E+04  0.7818609E-02  0.8477794E-01
       -2   -1    0    0    0  501  0.00000000000E+00  0.00000000000E+00  0.49524527732E+03  0.49524527732E+03  0.25500000920E-02 0. -1.
        2   -1    0    0  501    0  0.00000000000E+00  0.00000000000E+00 -0.26711400242E+04  0.26711400242E+04  0.25500000920E-02 0.  1.
    10030    2    1    2    0    0  0.00000000000E+00  0.00000000000E+00 -0.21758947468E+04  0.31663853015E+04  0.23003212663E+04 0.  0.
        4    1    3    3  502    0 -0.59847272027E+03 -0.58983981432E+03 -0.21689903652E+04  0.23260699518E+04  0.12699999809E+01 0.  1.
       -4    1    3    3    0  502  0.59847272027E+03  0.58983981432E+03 -0.69043816049E+01  0.84031534964E+03  0.12699999809E+01 0. -1.
</event>
<event>
 5   0  0.1744876E-06  0.2301231E+04  0.7818609E-02  0.8477436E-01
       -2   -1    0    0    0  501  0.00000000000E+00  0.00000000000E+00  0.11253750969E+04  0.11253750969E+04  0.25500000920E-02 0.  1.
        2   -1    0    0  501    0  0.00000000000E+00  0.00000000000E+00 -0.11764220122E+04  0.11764220122E+04  0.25500000920E-02 0. -1.
    10030    2    1    2    0    0  0.00000000000E+00  0.00000000000E+00 -0.51046915345E+02  0.23017971091E+04  0.23012310062E+04 0.  0.
        1    1    3    3  502    0  0.33106728348E+02 -0.45526524357E+03  0.10309340467E+04  0.11274695145E+04  0.50400001928E-02 0.  1.
       -1    1    3    3    0  502 -0.33106728348E+02  0.45526524357E+03 -0.10819809620E+04  0.11743275947E+04  0.50400001928E-02 0. -1.
</event>
<event>
 5   0  0.7761069E-07  0.2300011E+04  0.7818609E-02  0.8477917E-01
        1   -1    0    0  501    0  0.00000000000E+00  0.00000000000E+00  0.17384638196E+04  0.17384638196E+04  0.50400001928E-02 0. -1.
       -1   -1    0    0    0  501  0.00000000000E+00  0.00000000000E+00 -0.76073644210E+03  0.76073644212E+03  0.50400001928E-02 0.  1.
    10030    2    1    2    0    0  0.00000000000E+00  0.00000000000E+00  0.97772737749E+03  0.24992002617E+04  0.23000111138E+04 0.  0.
        1    1    3    3  502    0  0.38458855251E+03  0.28975494069E+03  0.16236474913E+04  0.16935458235E+04  0.50400001928E-02 0. -1.
       -1    1    3    3    0  502 -0.38458855251E+03 -0.28975494069E+03 -0.64592011379E+03  0.80565443821E+03  0.50400001928E-02 0.  1.
</event>
<event>
 5   0  0.1825521E-06  0.2299881E+04  0.7818609E-02  0.8477968E-01
        2   -1    0    0  501    0  0.00000000000E+00  0.00000000000E+00  0.14804965140E+04  0.14804965140E+04  0.25500000920E-02 0.  1.
       -2   -1    0    0    0  501  0.00000000000E+00  0.00000000000E+00 -0.89318891891E+03  0.89318891891E+03  0.25500000920E-02 0. -1.
    10030    2    1    2    0    0  0.00000000000E+00  0.00000000000E+00  0.58730759511E+03  0.23736854329E+04  0.22998809368E+04 0.  0.
        5    1    3    3  502    0  0.39400100783E+03 -0.53263506434E+03 -0.67640378039E+03  0.94682684271E+03  0.46999998093E+01 0. -1.
       -5    1    3    3    0  502 -0.39400100783E+03  0.53263506434E+03  0.12637113755E+04  0.14268585902E+04  0.46999998093E+01 0.  1.
</event>
<event>
 5   0  0.8108242E-07  0.2299364E+04  0.7818609E-02  0.8478172E-01
        1   -1    0    0  501    0  0.00000000000E+00  0.00000000000E+00  0.16307940489E+04  0.16307940489E+04  0.50400001928E-02 0.  1.
       -1   -1    0    0    0  501  0.00000000000E+00  0.00000000000E+00 -0.81050616679E+03  0.81050616680E+03  0.50400001928E-02 0. -1.
    10030    2    1    2    0    0  0.00000000000E+00  0.00000000000E+00  0.82028788215E+03  0.24413002158E+04  0.22993639411E+04 0.  0.
        4    1    3    3  502    0 -0.10007745500E+04 -0.53347841650E+03  0.61052139156E+03  0.12879778349E+04  0.12699999809E+01 0.  1.
       -4    1    3    3    0  502  0.10007745500E+04  0.53347841650E+03  0.20976649060E+03  0.11533223809E+04  0.12699999809E+01 0. -1.
</event>
<event>
 5   0  0.8097672E-07  0.2299805E+04  0.7818609E-02  0.8477998E-01
        1   -1    0    0  501    0  0.00000000000E+00  0.00000000000E+00  0.11671622725E+04  0.11671622725E+04  0.50400001928E-02 0. -1.
       -1   -1    0    0    0  501  0.00000000000E+00  0.00000000000E+00 -0.11328980459E+04  0.11328980459E+04  0.50400001928E-02 0.  1.
    10030    2    1    2    0    0  0.00000000000E+00  0.00000000000E+00  0.34264226678E+02  0.23000603184E+04  0.22998050854E+04 0.  0.
        3    1    3    3  502    0  0.17845272929E+03  0.75757050079E+03 -0.82943534097E+03  0.11374187599E+04  0.10100000352E+00 0. -1.
       -3    1    3    3    0  502 -0.17845272929E+03 -0.75757050079E+03  0.86369956765E+03  0.11626415585E+04  0.10100000352E+00 0.  1.
</event>
<event>
 5   0  0.7607231E-07  0.2304264E+04  0.7818609E-02  0.8476242E-01
       -1   -1    0    0    0  501  0.00000000000E+00  0.00000000000E+00  0.55095308370E+03  0.55095308373E+03  0.50400001928E-02 0. -1.
        1   -1    0    0  501    0  0.00000000000E+00  0.00000000000E+00 -0.24092936206E+04  0.24092936206E+04  0.50400001928E-02 0.  1.
    10030    2    1    2    0    0  0.00000000000E+00  0.00000000000E+00 -0.18583405369E+04  0.29602467043E+04  0.23042636567E+04 0.  0.
        2    1    3    3  502    0  0.44333739376E+03  0.56528213854E+03  0.22798251796E+03  0.75370283889E+03  0.25500000920E-02 0. -1.
       -2    1    3    3    0  502 -0.44333739376E+03 -0.56528213854E+03 -0.20863230548E+04  0.22065438654E+04  0.25500000920E-02 0.  1.
</event>
<event>
 5   0  0.1888779E-06  0.2301706E+04  0.7818609E-02  0.8477249E-01
       -2   -1    0    0    0  501  0.00000000000E+00  0.00000000000E+00  0.71697701501E+03  0.71697701501E+03  0.25500000920E-02 0.  1.
        2   -1    0    0  501    0  0.00000000000E+00  0.00000000000E+00 -0.18472866538E+04  0.18472866538E+04  0.25500000920E-02 0. -1.
    10030    2    1    2    0    0  0.00000000000E+00  0.00000000000E+00 -0.11303096388E+04  0.25642636688E+04  0.23017055163E+04 0.  0.
        4    1    3    3  502    0 -0.48320898784E+03 -0.33869069975E+03 -0.16659214487E+04  0.17673421294E+04  0.12699999809E+01 0. -1.
       -4    1    3    3    0  502  0.48320898784E+03  0.33869069975E+03  0.53561180999E+03  0.79692153938E+03  0.12699999809E+01 0.  1.
</event>
<event>
 5   0  0.7761069E-07  0.2299737E+04  0.7818609E-02  0.8478025E-01
        1   -1    0    0  501    0  0.00000000000E+00  0.00000000000E+00  0.15852779974E+04  0.15852779974E+04  0.50400001928E-02 0.  1.
       -1   -1    0    0    0  501  0.00000000000E+00  0.00000000000E+00 -0.83404781216E+03  0.83404781218E+03  0.50400001928E-02 0. -1.
    10030    2    1    2    0    0  0.00000000000E+00  0.00000000000E+00  0.75123018527E+03  0.24193258096E+04  0.22997370680E+04 0.  0.
        1    1    3    3  502    0  0.10154512970E+04 -0.10020412925E+03  0.93329020746E+03  0.13828278329E+04  0.50400001928E-02 0. -1.
       -1    1    3    3    0  502 -0.10154512970E+04  0.10020412925E+03 -0.18206002219E+03  0.10364979767E+04  0.50400001928E-02 0.  1.
</event>
<event>
 5   0  0.8097672E-07  0.2298772E+04  0.7818609E-02  0.8478405E-01
       -1   -1    0    0    0  501  0.00000000000E+00  0.00000000000E+00  0.15547905070E+04  0.15547905070E+04  0.50400001928E-02 0. -1.
        1   -1    0    0  501    0  0.00000000000E+00  0.00000000000E+00 -0.84968900837E+03  0.84968900839E+03  0.50400001928E-02 0.  1.
    10030    2    1    2    0    0  0.00000000000E+00  0.00000000000E+00  0.70510149862E+03  0.24044795154E+04  0.22987721976E+04 0.  0.
        3    1    3    3  502    0 -0.56637697209E+03 -0.90186280054E+03  0.80480923953E+03  0.13348622804E+04  0.10100000352E+00 0. -1.
       -3    1    3    3    0  502  0.56637697209E+03  0.90186280054E+03 -0.99707740909E+02  0.10696172350E+04  0.10100000352E+00 0.  1.
</event>
<event>
 5   0  0.1689444E-06  0.2300704E+04  0.7818609E-02  0.8477643E-01
        2   -1    0    0  501    0  0.00000000000E+00  0.00000000000E+00  0.18604380025E+04  0.18604380025E+04  0.25500000920E-02 0.  1.
       -2   -1    0    0    0  501  0.00000000000E+00  0.00000000000E+00 -0.71128962978E+03  0.71128962979E+03  0.25500000920E-02 0. -1.
    10030    2    1    2    0    0  0.00000000000E+00  0.00000000000E+00  0.11491483728E+04  0.25717276323E+04  0.23007044644E+04 0.  0.
        2    1    3    3  502    0 -0.28657432568E+03 -0.73833379648E+03 -0.35800114676E+03  0.86915272550E+03  0.25500000920E-02 0. -1.
       -2    1    3    3    0  502  0.28657432568E+03  0.73833379648E+03  0.15071495195E+04  0.17025749068E+04  0.25500000920E-02 0.  1.
</event>
<event>
 5   0  0.1888779E-06  0.2299505E+04  0.7818609E-02  0.8478116E-01
       -2   -1    0    0    0  501  0.00000000000E+00  0.00000000000E+00  0.11333673364E+04  0.11333673364E+04  0.25500000920E-02 0.  1.
        2   -1    0    0  501    0  0.00000000000E+00  0.00000000000E+00 -0.11663740874E+04  0.11663740874E+04  0.25500000920E-02 0. -1.
    10030    2    1    2    0    0  0.00000000000E+00  0.00000000000E+00 -0.33006750981E+02  0.22997414238E+04  0.22995045489E+04 0.  0.
        4    1    3    3  502    0 -0.98832153026E+03 -0.58618365313E+03  0.22717464078E+02  0.11493077997E+04  0.12699999809E+01 0. -1.
       -4    1    3    3    0  502  0.98832153026E+03  0.58618365313E+03 -0.55724215059E+02  0.11504336241E+04  0.12699999809E+01 0.  1.
</event>
<event>
 5   0  0.7932912E-07  0.2299727E+04  0.7818609E-02  0.8478029E-01
        1   -1    0    0  501    0  0.00000000000E+00  0.00000000000E+00  0.88742155815E+03  0.88742155816E+03  0.50400001928E-02 0.  1.
       -1   -1    0    0    0  501  0.00000000000E+00  0.00000000000E+00 -0.14899187665E+04  0.14899187665E+04  0.50400001928E-02 0. -1.
    10030    2    1    2    0    0  0.00000000000E+00  0.00000000000E+00 -0.60249720833E+03  0.23773403246E+04  0.22997269693E+04 0.  0.
        5    1    3    3  502    0  0.74232018083E+03 -0.72817543892E+03 -0.80861319912E+03  0.13172532469E+04  0.46999998093E+01 0. -1.
       -5    1    3    3    0  502 -0.74232018083E+03  0.72817543892E+03  0.20611599079E+03  0.10600870777E+04  0.46999998093E+01 0.  1.
</event>
<event>
 5   0  0.1888779E-06  0.2299277E+04  0.7818609E-02  0.8478206E-01
        2   -1    0    0  501    0  0.00000000000E+00  0.00000000000E+00  0.26283856213E+04  0.26283856213E+04  0.25500000920E-02 0. -1.
       -2   -1    0    0    0  501  0.00000000000E+00  0.00000000000E+00 -0.50284427116E+03  0.50284427117E+03  0.25500000920E-02 0.  1.
    10030    2    1    2    0    0  0.00000000000E+00  0.00000000000E+00  0.21255413501E+04  0.31312298924E+04  0.22992769751E+04 0.  0.
        4    1    3    3  502    0  0.77149797466E+03  0.51166031355E+03  0.19910786329E+04  0.21957689170E+04  0.12699999809E+01 0. -1.
       -4    1    3    3    0  502 -0.77149797466E+03 -0.51166031355E+03  0.13446271717E+03  0.93546097544E+03  0.12699999809E+01 0.  1.
</event>
<event>
 5   0  0.7607231E-07  0.2301255E+04  0.7818609E-02  0.8477426E-01
        1   -1    0    0  501    0  0.00000000000E+00  0.00000000000E+00  0.13262442868E+04  0.13262442868E+04  0.50400001928E-02 0.  1.
       -1   -1    0    0    0  501  0.00000000000E+00  0.00000000000E+00 -0.99826526123E+03  0.99826526125E+03  0.50400001928E-02 0. -1.
    10030    2    1    2    0    0  0.00000000000E+00  0.00000000000E+00  0.32797902558E+03  0.23245095481E+04  0.23012549615E+04 0.  0.
        2    1    3    3  502    0 -0.83037889682E+03 -0.52458280560E+03  0.76940190214E+03  0.12476760474E+04  0.25500000920E-02 0.  1.
       -2    1    3    3    0  502  0.83037889682E+03  0.52458280560E+03 -0.44142287656E+03  0.10768335007E+04  0.25500000920E-02 0. -1.
</event>
<event>
 5   0  0.1825521E-06  0.2302332E+04  0.7818609E-02  0.8477002E-01
        2   -1    0    0  501    0  0.00000000000E+00  0.00000000000E+00  0.11031554691E+04  0.11031554691E+04  0.25500000920E-02 0.  1.
       -2   -1    0    0    0  501  0.00000000000E+00  0.00000000000E+00 -0.12012657875E+04  0.12012657875E+04  0.25500000920E-02 0. -1.
    10030    2    1    2    0    0  0.00000000000E+00  0.00000000000E+00 -0.98110318415E+02  0.23044212567E+04  0.23023317948E+04 0.  0.
        5    1    3    3  502    0 -0.52094208828E+03  0.10226739075E+04 -0.13812048283E+03  0.11560025684E+04  0.46999998093E+01 0. -1.
       -5    1    3    3    0  502  0.52094208828E+03 -0.10226739075E+04  0.40010164412E+02  0.11484186883E+04  0.46999998093E+01 0.  1.
</event>
<event>
 5   0  0.7607231E-07  0.2300036E+04  0.7818609E-02  0.8477907E-01
       -1   -1    0    0    0  501  0.00000000000E+00  0.00000000000E+00  0.25219769230E+04  0.25219769230E+04  0.50400001928E-02 0.  1.
        1   -1    0    0  501    0  0.00000000000E+00  0.00000000000E+00 -0.52440675653E+03  0.52440675655E+03  0.50400001928E-02 0. -1.
    10030    2    1    2    0    0  0.00000000000E+00  0.00000000000E+00  0.19975701665E+04  0.30463836796E+04  0.23000362939E+04 0.  0.
        2    1    3    3  502    0  0.89298479479E+03  0.71247285607E+03  0.11740107695E+04  0.16380905657E+04  0.25500000920E-02 0.  1.
       -2    1    3    3    0  502 -0.89298479479E+03 -0.71247285607E+03  0.82355939696E+03  0.14082931139E+04  0.25500000920E-02 0. -1.
</event>
<event>
 5   0  0.1744876E-06  0.2298530E+04  0.7818609E-02  0.8478501E-01
        2   -1    0    0  501    0  0.00000000000E+00  0.00000000000E+00  0.27530465434E+04  0.27530465434E+04  0.25500000920E-02 0. -1.
       -2   -1    0    0    0  501  0.00000000000E+00  0.00000000000E+00 -0.47976311310E+03  0.47976311310E+03  0.25500000920E-02 0.  1.
    10030    2    1    2    0    0  0.00000000000E+00  0.00000000000E+00  0.22732834303E+04  0.32328096565E+04  0.22985301218E+04 0.  0.
        1    1    3    3  502    0 -0.49383535821E+03 -0.93579499764E+03  0.50572736070E+03  0.11727513812E+04  0.50400001928E-02 0.  1.
       -1    1    3    3    0  502  0.49383535821E+03  0.93579499764E+03  0.17675560696E+04  0.20600582754E+04  0.50400001928E-02 0. -1.
</event>
<event>
 5   0  0.6319125E-07  0.2310299E+04  0.7818609E-02  0.8473871E-01
        4   -1    0    0  501    0  0.00000000000E+00  0.00000000000E+00  0.10432187477E+04  0.10432195208E+04  0.12699999809E+01 0.  1.
       -4   -1    0    0    0  501  0.00000000000E+00  0.00000000000E+00 -0.12790879704E+04  0.12790886009E+04  0.12699999809E+01 0. -1.
    10030    2    1    2    0    0  0.00000000000E+00  0.00000000000E+00 -0.23586922267E+03  0.23223081217E+04  0.23102988382E+04 0.  0.
        2    1    3    3  502    0 -0.26804178123E+03  0.14279506595E+03  0.10023691472E+04  0.10473684808E+04  0.25500000920E-02 0.  1.
       -2    1    3    3    0  502  0.26804178123E+03 -0.14279506595E+03 -0.12382383698E+04  0.12749396409E+04  0.25500000920E-02 0. -1.
</event>
<event>
 5   0  0.1689444E-06  0.2302093E+04  0.7818609E-02  0.8477096E-01
        2   -1    0    0  501    0  0.00000000000E+00  0.00000000000E+00  0.24493756761E+04  0.24493756761E+04  0.25500000920E-02 0. -1.
       -2   -1    0    0    0  501  0.00000000000E+00  0.00000000000E+00 -0.54091644268E+03  0.54091644269E+03  0.25500000920E-02 0.  1.
    10030    2    1    2    0    0  0.00000000000E+00  0.00000000000E+00  0.19084592334E+04  0.29902921188E+04  0.23020925937E+04 0.  0.
        2    1    3    3  502    0  0.10408482019E+03 -0.45646382698E+03 -0.41164983243E+03  0.62341676243E+03  0.25500000920E-02 0.  1.
       -2    1    3    3    0  502 -0.10408482019E+03  0.45646382698E+03  0.23201090658E+04  0.23668753563E+04  0.25500000920E-02 0. -1.
</event>
<event>
 5   0  0.6319125E-07  0.2300871E+04  0.7818609E-02  0.8477578E-01
       -3   -1    0    0    0  501  0.00000000000E+00  0.00000000000E+00  0.80504877633E+03  0.80504878266E+03  0.10100000352E+00 0. -1.
        3   -1    0    0  501    0  0.00000000000E+00  0.00000000000E+00 -0.16440021091E+04  0.16440021122E+04  0.10100000352E+00 0.  1.
    10030    2    1    2    0    0  0.00000000000E+00  0.00000000000E+00 -0.83895333281E+03  0.24490508949E+04  0.23008710505E+04 0.  0.
        2    1    3    3  502    0 -0.24646846850E+03 -0.10835430455E+04 -0.10248924670E+03  0.11159374010E+04  0.25500000920E-02 0. -1.
       -2    1    3    3    0  502  0.24646846850E+03  0.10835430455E+04 -0.73646408612E+03  0.13331134939E+04  0.25500000920E-02 0.  1.
</event>
<event>
 5   0  0.1888779E-06  0.2302162E+04  0.7818609E-02  0.8477069E-01
        2   -1    0    0  501    0  0.00000000000E+00  0.00000000000E+00  0.10106544144E+04  0.10106544144E+04  0.25500000920E-02 0. -1.
       -2   -1    0    0    0  501  0.00000000000E+00  0.00000000000E+00 -0.13110189846E+04  0.13110189846E+04  0.25500000920E-02 0.  1.
    10030    2    1    2    0    0  0.00000000000E+00  0.00000000000E+00 -0.30036457026E+03  0.23216733990E+04  0.23021617008E+04 0.  0.
        4    1    3    3  502    0 -0.23944579610E+03 -0.11256325816E+04 -0.12542810120E+03  0.11576341475E+04  0.12699999809E+01 0. -1.
       -4    1    3    3    0  502  0.23944579610E+03  0.11256325816E+04 -0.17493646906E+03  0.11640392515E+04  0.12699999809E+01 0.  1.
</event>
<event>
 5   0  0.1825521E-06  0.2300215E+04  0.7818609E-02  0.8477836E-01
        2   -1    0    0  501    0  0.00000000000E+00  0.00000000000E+00  0.10404661874E+04  0.10404661874E+04  0.25500000920E-02 0. -1.
       -2   -1    0    0    0  501  0.00000000000E+00  0.00000000000E+00 -0.12713026277E+04  0.12713026277E+04  0.25500000920E-02 0.  1.
    10030    2    1    2    0    0  0.00000000000E+00  0.00000000000E+00 -0.23083644028E+03  0.23117688152E+04  0.23002151188E+04 0.  0.
        5    1    3    3  502    0  0.75353009867E+03 -0.76690052138E+03 -0.52585815514E+03  0.11968679579E+04  0.46999998093E+01 0.  1.
       -5    1    3    3    0  502 -0.75353009867E+03  0.76690052138E+03  0.29502171486E+03  0.11149008573E+04  0.46999998093E+01 0. -1.
</event>
<event>
 5   0  0.8108242E-07  0.2299278E+04  0.7818609E-02  0.8478206E-01
        1   -1    0    0  501    0  0.00000000000E+00  0.00000000000E+00  0.15571554389E+04  0.15571554389E+04  0.50400001928E-02 0.  1.
       -1   -1    0    0    0  501  0.00000000000E+00  0.00000000000E+00 -0.84877227349E+03  0.84877227350E+03  0.50400001928E-02 0. -1.
    10030    2    1    2    0    0  0.00000000000E+00  0.00000000000E+00  0.70838316542E+03  0.24059277124E+04  0.22992784625E+04 0.  0.
        4    1    3    3  502    0  0.93454117176E+03 -0.23969585568E+03  0.10083676347E+04  0.13955745070E+04  0.12699999809E+01 0.  1.
       -4    1    3    3    0  502 -0.93454117176E+03  0.23969585568E+03 -0.29998446932E+03  0.10103532054E+04  0.12699999809E+01 0. -1.
</event>
<event>
 5   0  0.6319125E-07  0.2300251E+04  0.7818609E-02  0.8477822E-01
       -4   -1    0    0    0  501  0.00000000000E+00  0.00000000000E+00  0.19744712173E+04  0.19744716257E+04  0.12699999809E+01 0. -1.
        4   -1    0    0  501    0  0.00000000000E+00  0.00000000000E+00 -0.66994485100E+03  0.66994605475E+03  0.12699999809E+01 0.  1.
    10030    2    1    2    0    0  0.00000000000E+00  0.00000000000E+00  0.13045263663E+04  0.26444176805E+04  0.23002512533E+04 0.  0.
        5    1    3    3  502    0  0.11261316009E+04  0.17472414968E+03  0.83060629364E+03  0.14101878655E+04  0.46999998093E+01 0. -1.
       -5    1    3    3    0  502 -0.11261316009E+04 -0.17472414968E+03  0.47392007265E+03  0.12342298150E+04  0.46999998093E+01 0.  1.
</event>
<event>
 5   0  0.1825521E-06  0.2299252E+04  0.7818609E-02  0.8478216E-01
        2   -1    0    0  501    0  0.00000000000E+00  0.00000000000E+00  0.97979684198E+03  0.97979684198E+03  0.25500000920E-02 0.  1.
       -2   -1    0    0    0  501  0.00000000000E+00  0.00000000000E+00 -0.13488913734E+04  0.13488913734E+04  0.25500000920E-02 0. -1.
    10030    2    1    2    0    0  0.00000000000E+00  0.00000000000E+00 -0.36909453142E+03  0.23286882154E+04  0.22992516242E+04 0.  0.
        5    1    3    3  502    0 -0.82757884529E+03  0.47290192523E+03 -0.83550009540E+03  0.12675194182E+04  0.46999998093E+01 0. -1.
       -5    1    3    3    0  502  0.82757884529E+03 -0.47290192523E+03  0.46640556398E+03  0.10611687972E+04  0.46999998093E+01 0.  1.
</event>
<event>
 5   0  0.8097672E-07  0.2303261E+04  0.7818609E-02  0.8476636E-01
       -1   -1    0    0    0  501  0.00000000000E+00  0.00000000000E+00  0.97421273620E+03  0.97421273621E+03  0.50400001928E-02 0.  1.
        1   -1    0    0  501    0  0.00000000000E+00  0.00000000000E+00 -0.13613587896E+04  0.13613587896E+04  0.50400001928E-02 0. -1.
    10030    2    1    2    0    0  0.00000000000E+00  0.00000000000E+00 -0.38714605344E+03  0.23355715259E+04  0.23032612283E+04 0.  0.
        3    1    3    3  502    0  0.14704829846E+03 -0.21618344324E+03  0.94371926989E+03  0.97926735561E+03  0.10100000352E+00 0.  1.
       -3    1    3    3    0  502 -0.14704829846E+03  0.21618344324E+03 -0.13308653233E+04  0.13563041703E+04  0.10100000352E+00 0. -1.
</event>
<event>
 5   0  0.1744876E-06  0.2301167E+04  0.7818609E-02  0.8477461E-01
        2   -1    0    0  501    0  0.00000000000E+00  0.00000000000E+00  0.10983081467E+04  0.10983081467E+04  0.25500000920E-02 0. -1.
       -2   -1    0    0    0  501  0.00000000000E+00  0.00000000000E+00 -0.12053469440E+04  0.12053469440E+04  0.25500000920E-02 0.  1.
    10030    2    1    2    0    0  0.00000000000E+00  0.00000000000E+00 -0.10703879724E+03  0.23036550907E+04  0.23011669806E+04 0.  0.
        1    1    3    3  502    0 -0.34392778770E+03  0.49645456502E+02 -0.11515605806E+04  0.12028477731E+04  0.50400001928E-02 0.  1.
       -1    1    3    3    0  502  0.34392778770E+03 -0.49645456502E+02  0.10445217833E+04  0.11008073176E+04  0.50400001928E-02 0. -1.
</event>
<event>
 5   0  0.7761069E-07  0.2298446E+04  0.7818609E-02  0.8478534E-01
       -1   -1    0    0    0  501  0.00000000000E+00  0.00000000000E+00  0.19313723672E+04  0.19313723672E+04  0.50400001928E-02 0.  1.
        1   -1    0    0  501    0  0.00000000000E+00  0.00000000000E+00 -0.68382119215E+03  0.68382119217E+03  0.50400001928E-02 0. -1.
    10030    2    1    2    0    0  0.00000000000E+00  0.00000000000E+00  0.12475511750E+04  0.26151935594E+04  0.22984458703E+04 0.  0.
        1    1    3    3  502    0  0.20836508477E+03  0.10842350615E+04  0.26086665268E+03  0.11344748069E+04  0.50400001928E-02 0. -1.
       -1    1    3    3    0  502 -0.20836508477E+03 -0.10842350615E+04  0.98668452237E+03  0.14807187524E+04  0.50400001928E-02 0.  1.
</event>
<event>
 5   0  0.1744876E-06  0.2300290E+04  0.7818609E-02  0.8477807E-01
        2   -1    0    0  501    0  0.00000000000E+00  0.00000000000E+00  0.19682797802E+04  0.19682797802E+04  0.25500000920E-02 0.  1.
       -2   -1    0    0    0  501  0.00000000000E+00  0.00000000000E+00 -0.67207570795E+03  0.67207570796E+03  0.25500000920E-02 0. -1.
    10030    2    1    2    0    0  0.00000000000E+00  0.00000000000E+00  0.12962040722E+04  0.26403554881E+04  0.23002895702E+04 0.  0.
        1    1    3    3  502    0  0.46004101478E+02  0.38078382528E+02 -0.67029491591E+03  0.67294993490E+03  0.50400001928E-02 0. -1.
       -1    1    3    3    0  502 -0.46004101478E+02 -0.38078382528E+02  0.19664989881E+04  0.19674055532E+04  0.50400001928E-02 0.  1.
</event>
<event>
 5   0  0.1744876E-06  0.2300078E+04  0.7818609E-02  0.8477891E-01
        2   -1    0    0  501    0  0.00000000000E+00  0.00000000000E+00  0.12132806667E+04  0.12132806667E+04  0.25500000920E-02 0.  1.
       -2   -1    0    0    0  501  0.00000000000E+00  0.00000000000E+00 -0.10900933294E+04  0.10900933294E+04  0.25500000920E-02 0. -1.
    10030    2    1    2    0    0  0.00000000000E+00  0.00000000000E+00  0.12318733726E+03  0.23033739961E+04  0.23000775304E+04 0.  0.
        1    1    3    3  502    0  0.14419626034E+03 -0.57060161350E+03  0.10510433181E+04  0.12046040093E+04  0.50400001928E-02 0.  1.
       -1    1    3    3    0  502 -0.14419626034E+03  0.57060161350E+03 -0.92785598079E+03  0.10987699868E+04  0.50400001928E-02 0. -1.
</event>
<event>
 5   0  0.1825521E-06  0.2300255E+04  0.7818609E-02  0.8477821E-01
        2   -1    0    0  501    0  0.00000000000E+00  0.00000000000E+00  0.12714656611E+04  0.12714656611E+04  0.25500000920E-02 0.  1.
       -2   -1    0    0    0  501  0.00000000000E+00  0.00000000000E+00 -0.10403685939E+04  0.10403685939E+04  0.25500000920E-02 0. -1.
    10030    2    1    2    0    0  0.00000000000E+00  0.00000000000E+00  0.23109706714E+03  0.23118342550E+04  0.23002547181E+04 0.  0.
        5    1    3    3  502    0  0.19621703441E+03  0.36068803926E+03  0.11952815522E+04  0.12638500960E+04  0.46999998093E+01 0.  1.
       -5    1    3    3    0  502 -0.19621703441E+03 -0.36068803926E+03 -0.96418448504E+03  0.10479841590E+04  0.46999998093E+01 0. -1.
</event>
<event>
 5   0  0.1828646E-06  0.2300998E+04  0.7818609E-02  0.8477528E-01
        2   -1    0    0  501    0  0.00000000000E+00  0.00000000000E+00  0.16974891113E+04  0.16974891113E+04  0.25500000920E-02 0.  1.
       -2   -1    0    0    0  501  0.00000000000E+00  0.00000000000E+00 -0.77976784306E+03  0.77976784307E+03  0.25500000920E-02 0. -1.
    10030    2    1    2    0    0  0.00000000000E+00  0.00000000000E+00  0.91772126822E+03  0.24772569544E+04  0.23009975428E+04 0.  0.
        3    1    3    3  502    0 -0.94372265788E+03  0.65758802195E+03  0.48551496751E+03  0.12485028056E+04  0.10100000352E+00 0.  1.
       -3    1    3    3    0  502  0.94372265788E+03 -0.65758802195E+03  0.43220630071E+03  0.12287541488E+04  0.10100000352E+00 0. -1.
</event>
<event>
 5   0  0.7607231E-07  0.2299338E+04  0.7818609E-02  0.8478182E-01
       -1   -1    0    0    0  501  0.00000000000E+00  0.00000000000E+00  0.26151982594E+04  0.26151982594E+04  0.50400001928E-02 0. -1.
        1   -1    0    0  501    0  0.00000000000E+00  0.00000000000E+00 -0.50540672256E+03  0.50540672258E+03  0.50400001928E-02 0.  1.
    10030    2    1    2    0    0  0.00000000000E+00  0.00000000000E+00  0.21097915368E+04  0.31206049820E+04  0.22993379753E+04 0.  0.
        2    1    3    3  502    0 -0.28663097363E+03 -0.85298194896E+03  0.20260145396E+04  0.22168604906E+04  0.25500000920E-02 0. -1.
       -2    1    3    3    0  502  0.28663097363E+03  0.85298194896E+03  0.83776997205E+02  0.90374449131E+03  0.25500000920E-02 0.  1.
</event>
<event>
 5   0  0.8097672E-07  0.2300084E+04  0.7818609E-02  0.8477888E-01
        1   -1    0    0  501    0  0.00000000000E+00  0.00000000000E+00  0.10452611702E+04  0.10452611702E+04  0.50400001928E-02 0. -1.
       -1   -1    0    0    0  501  0.00000000000E+00  0.00000000000E+00 -0.12653261864E+04  0.12653261864E+04  0.50400001928E-02 0.  1.
    10030    2    1    2    0    0  0.00000000000E+00  0.00000000000E+00 -0.22006501626E+03  0.23105873566E+04  0.23000837639E+04 0.  0.
        3    1    3    3  502    0 -0.11194024558E+03 -0.68813707193E+03 -0.10288310511E+04  0.12428019111E+04  0.10100000352E+00 0.  1.
       -3    1    3    3    0  502  0.11194024558E+03  0.68813707193E+03  0.80876603483E+03  0.10677854455E+04  0.10100000352E+00 0. -1.
</event>
<event>
 5   0  0.6319125E-07  0.2300856E+04  0.7818609E-02  0.8477584E-01
       -3   -1    0    0    0  501  0.00000000000E+00  0.00000000000E+00  0.31291908391E+04  0.31291908407E+04  0.10100000352E+00 0. -1.
        3   -1    0    0  501    0  0.00000000000E+00  0.00000000000E+00 -0.42294771615E+03  0.42294772821E+03  0.10100000352E+00 0.  1.
    10030    2    1    2    0    0  0.00000000000E+00  0.00000000000E+00  0.27062431230E+04  0.35521385689E+04  0.23008556175E+04 0.  0.
        4    1    3    3  502    0  0.88658979388E+03 -0.11438312779E+03  0.23519235474E+03  0.92436032973E+03  0.12699999809E+01 0.  1.
       -4    1    3    3    0  502 -0.88658979388E+03  0.11438312779E+03  0.24710507682E+04  0.26277782392E+04  0.12699999809E+01 0. -1.
</event>
<event>
 5   0  0.7607231E-07  0.2297732E+04  0.7818609E-02  0.8478816E-01
       -1   -1    0    0    0  501  0.00000000000E+00  0.00000000000E+00  0.57012722668E+03  0.57012722670E+03  0.50400001928E-02 0.  1.
        1   -1    0    0  501    0  0.00000000000E+00  0.00000000000E+00 -0.23150853960E+04  0.23150853960E+04  0.50400001928E-02 0. -1.
    10030    2    1    2    0    0  0.00000000000E+00  0.00000000000E+00 -0.17449581693E+04  0.28852126227E+04  0.22977321135E+04 0.  0.
        2    1    3    3  502    0 -0.73546634178E+03  0.77149733254E+03 -0.33418343730E+03  0.11170485414E+04  0.25500000920E-02 0.  1.
       -2    1    3    3    0  502  0.73546634178E+03 -0.77149733254E+03 -0.14107747320E+04  0.17681640813E+04  0.25500000920E-02 0. -1.
</event>
<event>
 5   0  0.7761069E-07  0.2305326E+04  0.7818609E-02  0.8475824E-01
       -1   -1    0    0    0  501  0.00000000000E+00  0.00000000000E+00  0.16609016662E+04  0.16609016662E+04  0.50400001928E-02 0.  1.
        1   -1    0    0  501    0  0.00000000000E+00  0.00000000000E+00 -0.79994644590E+03  0.79994644591E+03  0.50400001928E-02 0. -1.
    10030    2    1    2    0    0  0.00000000000E+00  0.00000000000E+00  0.86095522026E+03  0.24608481121E+04  0.23053263412E+04 0.  0.
        1    1    3    3  502    0 -0.49167295122E+03  0.10412278927E+04  0.48629851472E+03  0.12499536235E+04  0.50400001928E-02 0.  1.
       -1    1    3    3    0  502  0.49167295122E+03 -0.10412278927E+04  0.37465670554E+03  0.12108944886E+04  0.50400001928E-02 0. -1.
</event>
<event>
 5   0  0.1888779E-06  0.2300357E+04  0.7818609E-02  0.8477780E-01
       -2   -1    0    0    0  501  0.00000000000E+00  0.00000000000E+00  0.71392327504E+03  0.71392327505E+03  0.25500000920E-02 0.  1.
        2   -1    0    0  501    0  0.00000000000E+00  0.00000000000E+00 -0.18530150377E+04  0.18530150377E+04  0.25500000920E-02 0. -1.
    10030    2    1    2    0    0  0.00000000000E+00  0.00000000000E+00 -0.11390917626E+04  0.25669383127E+04  0.23003569848E+04 0.  0.
        4    1    3    3  502    0  0.12063462371E+03 -0.19147915493E+03  0.68883224033E+03  0.72505754766E+03  0.12699999809E+01 0.  1.
       -4    1    3    3    0  502 -0.12063462371E+03  0.19147915493E+03 -0.18279240029E+04  0.18418807650E+04  0.12699999809E+01 0. -1.
</event>
<event>
 5   0  0.8097672E-07  0.2300325E+04  0.7818609E-02  0.8477793E-01
       -1   -1    0    0    0  501  0.00000000000E+00  0.00000000000E+00  0.12847706751E+04  0.12847706751E+04  0.50400001928E-02 0. -1.
        1   -1    0    0  501    0  0.00000000000E+00  0.00000000000E+00 -0.10296571943E+04  0.10296571943E+04  0.50400001928E-02 0.  1.
    10030    2    1    2    0    0  0.00000000000E+00  0.00000000000E+00  0.25511348085E+03  0.23144278694E+04  0.23003246455E+04 0.  0.
        3    1    3    3  502    0 -0.19545808465E+03 -0.69578636636E+03  0.10277773954E+04  0.12564429614E+04  0.10100000352E+00 0. -1.
       -3    1    3    3    0  502  0.19545808465E+03  0.69578636636E+03 -0.77266391459E+03  0.10579849080E+04  0.10100000352E+00 0.  1.
</event>
<event>
 5   0  0.1689444E-06  0.2300440E+04  0.7818609E-02  0.8477748E-01
        2   -1    0    0  501    0  0.00000000000E+00  0.00000000000E+00  0.14080668472E+04  0.14080668472E+04  0.25500000920E-02 0.  1.
       -2   -1    0    0    0  501  0.00000000000E+00  0.00000000000E+00 -0.93959056974E+03  0.93959056975E+03  0.25500000920E-02 0. -1.
    10030    2    1    2    0    0  0.00000000000E+00  0.00000000000E+00  0.46847627749E+03  0.23476574170E+04  0.23004402459E+04 0.  0.
        2    1    3    3  502    0 -0.84897161349E+02 -0.94118231906E+03 -0.43494530756E+03  0.10402927983E+04  0.25500000920E-02 0. -1.
       -2    1    3    3    0  502  0.84897161349E+02  0.94118231906E+03  0.90342158506E+03  0.13073646186E+04  0.25500000920E-02 0.  1.
</event>
<event>
 5   0  0.7932912E-07  0.2299644E+04  0.7818609E-02  0.8478061E-01
        1   -1    0    0  501    0  0.00000000000E+00  0.00000000000E+00  0.14663403443E+04  0.14663403443E+04  0.50400001928E-02 0. -1.
       -1   -1    0    0    0  501  0.00000000000E+00  0.00000000000E+00 -0.90162608680E+03  0.90162608681E+03  0.50400001928E-02 0.  1.
    10030    2    1    2    0    0  0.00000000000E+00  0.00000000000E+00  0.56471425754E+03  0.23679664312E+04  0.22996440652E+04 0.  0.
        5    1    3    3  502    0  0.63429638587E+03 -0.73663776018E+03 -0.34997327199E+03  0.10331846282E+04  0.46999998093E+01 0. -1.
       -5    1    3    3    0  502 -0.63429638587E+03  0.73663776018E+03  0.91468752952E+03  0.13347818030E+04  0.46999998093E+01 0.  1.
</event>
<event>
 5   0  0.1888779E-06  0.2300463E+04  0.7818609E-02  0.8477739E-01
       -2   -1    0    0    0  501  0.00000000000E+00  0.00000000000E+00  0.82181444437E+03  0.82181444437E+03  0.25500000920E-02 0.  1.
        2   -1    0    0  501    0  0.00000000000E+00  0.00000000000E+00 -0.16098918311E+04  0.16098918311E+04  0.25500000920E-02 0. -1.
    10030    2    1    2    0    0  0.00000000000E+00  0.00000000000E+00 -0.78807738670E+03  0.24317062754E+04  0.23004628757E+04 0.  0.
        4    1    3    3  502    0  0.38981793178E+03  0.30117240965E+03 -0.14927452694E+04  0.15719264908E+04  0.12699999809E+01 0. -1.
       -4    1    3    3    0  502 -0.38981793178E+03 -0.30117240965E+03  0.70466788270E+03  0.85977978464E+03  0.12699999809E+01 0.  1.
</event>
<event>
 5   0  0.1744876E-06  0.2300123E+04  0.7818609E-02  0.8477872E-01
       -2   -1    0    0    0  501  0.00000000000E+00  0.00000000000E+00  0.12222174059E+04  0.12222174060E+04  0.25500000920E-02 0. -1.
        2   -1    0    0  501    0  0.00000000000E+00  0.00000000000E+00 -0.10821658138E+04  0.10821658138E+04  0.25500000920E-02 0.  1.
    10030    2    1    2    0    0  0.00000000000E+00  0.00000000000E+00  0.14005159217E+03  0.23043832197E+04  0.23001233825E+04 0.  0.
        1    1    3    3  502    0  0.39045269577E+02 -0.97794679639E+03  0.67507923608E+03  0.11889644421E+04  0.50400001928E-02 0. -1.
       -1    1    3    3    0  502 -0.39045269577E+02  0.97794679639E+03 -0.53502764391E+03  0.11154187776E+04  0.50400001928E-02 0.  1.
</event>
<event>
 5   0  0.1744876E-06  0.2299997E+04  0.7818609E-02  0.8477922E-01
       -2   -1    0    0    0  501  0.00000000000E+00  0.00000000000E+00  0.65402061744E+03  0.65402061744E+03  0.25500000920E-02 0.  1.
        2   -1    0    0  501    0  0.00000000000E+00  0.00000000000E+00 -0.20221016010E+04  0.20221016010E+04  0.25500000920E-02 0. -1.
    10030    2    1    2    0    0  0.00000000000E+00  0.00000000000E+00 -0.13680809836E+04  0.26761222184E+04  0.22999966414E+04 0.  0.
        1    1    3    3  502    0 -0.38192363138E+02  0.12527784018E+03  0.64531475762E+03  0.65847120687E+03  0.50400001928E-02 0.  1.
       -1    1    3    3    0  502  0.38192363138E+02 -0.12527784018E+03 -0.20133957412E+04  0.20176510116E+04  0.50400001928E-02 0. -1.
</event>
<event>
 5   0  0.8108242E-07  0.2298891E+04  0.7818609E-02  0.8478359E-01
        1   -1    0    0  501    0  0.00000000000E+00  0.00000000000E+00  0.12431094903E+04  0.12431094904E+04  0.50400001928E-02 0.  1.
       -1   -1    0    0    0  501  0.00000000000E+00  0.00000000000E+00 -0.10628385564E+04  0.10628385564E+04  0.50400001928E-02 0. -1.
    10030    2    1    2    0    0  0.00000000000E+00  0.00000000000E+00  0.18027093395E+03  0.23059480468E+04  0.22988907727E+04 0.  0.
        4    1    3    3  502    0 -0.54466646886E+03 -0.50546135940E+03  0.96979418503E+03  0.12217426580E+04  0.12699999809E+01 0.  1.
       -4    1    3    3    0  502  0.54466646886E+03  0.50546135940E+03 -0.78952325108E+03  0.10842053888E+04  0.12699999809E+01 0. -1.
</event>
<event>
 5   0  0.1888779E-06  0.2299352E+04  0.7818609E-02  0.8478177E-01
       -2   -1    0    0    0  501  0.00000000000E+00  0.00000000000E+00  0.10082461477E+04  0.10082461477E+04  0.25500000920E-02 0. -1.
        2   -1    0    0  501    0  0.00000000000E+00  0.00000000000E+00 -0.13109448518E+04  0.13109448518E+04  0.25500000920E-02 0.  1.
    10030    2    1    2    0    0  0.00000000000E+00  0.00000000000E+00 -0.30269870411E+03  0.23191909994E+04  0.22993521667E+04 0.  0.
        4    1    3    3  502    0 -0.11822114157E+03  0.11234606475E+04 -0.36676504429E+03  0.11877113603E+04  0.12699999809E+01 0.  1.
       -4    1    3    3    0  502  0.11822114157E+03 -0.11234606475E+04  0.64066340178E+02  0.11314796391E+04  0.12699999809E+01 0. -1.
</event>
<event>
 5   0  0.1888779E-06  0.2293580E+04  0.7818609E-02  0.8480457E-01
        2   -1    0    0  501    0  0.00000000000E+00  0.00000000000E+00  0.79137239485E+03  0.79137239486E+03  0.25500000920E-02 0.  1.
       -2   -1    0    0    0  501  0.00000000000E+00  0.00000000000E+00 -0.16618312338E+04  0.16618312338E+04  0.25500000920E-02 0. -1.
    10030    2    1    2    0    0  0.00000000000E+00  0.00000000000E+00 -0.87045883890E+03  0.24532036286E+04  0.22935800516E+04 0.  0.
        4    1    3    3  502    0  0.66398341320E+03  0.93496769459E+03 -0.44521668865E+03  0.12301455506E+04  0.12699999809E+01 0.  1.
       -4    1    3    3    0  502 -0.66398341320E+03 -0.93496769459E+03 -0.42524215025E+03  0.12230580780E+04  0.12699999809E+01 0. -1.
</event>
<event>
 5   0  0.6319125E-07  0.2299100E+04  0.7818609E-02  0.8478276E-01
        4   -1    0    0  501    0  0.00000000000E+00  0.00000000000E+00  0.11633304597E+04  0.11633311529E+04  0.12699999809E+01 0. -1.
       -4   -1    0    0    0  501  0.00000000000E+00  0.00000000000E+00 -0.11359318392E+04  0.11359325491E+04  0.12699999809E+01 0.  1.
    10030    2    1    2    0    0  0.00000000000E+00  0.00000000000E+00  0.27398620564E+02  0.22992637020E+04  0.22991004517E+04 0.  0.
        5    1    3    3  502    0  0.77608917646E+03 -0.84576815937E+03  0.75391959755E+02  0.11503669966E+04  0.46999998093E+01 0.  1.
       -5    1    3    3    0  502 -0.77608917646E+03  0.84576815937E+03 -0.47993339191E+02  0.11488967055E+04  0.46999998093E+01 0. -1.
</event>
<event>
 5   0  0.1888779E-06  0.2300936E+04  0.7818609E-02  0.8477552E-01
       -2   -1    0    0    0  501  0.00000000000E+00  0.00000000000E+00  0.59130863381E+03  0.59130863381E+03  0.25500000920E-02 0. -1.
        2   -1    0    0  501    0  0.00000000000E+00  0.00000000000E+00 -0.22383850733E+04  0.22383850733E+04  0.25500000920E-02 0.  1.
    10030    2    1    2    0    0  0.00000000000E+00  0.00000000000E+00 -0.16470764395E+04  0.28296937071E+04  0.23009358267E+04 0.  0.
        4    1    3    3  502    0 -0.10228133486E+04  0.84864905367E+02 -0.14628286072E+04  0.17869578465E+04  0.12699999809E+01 0.  1.
       -4    1    3    3    0  502  0.10228133486E+04 -0.84864905367E+02 -0.18424783229E+03  0.10427358606E+04  0.12699999809E+01 0. -1.
</event>
<event>
 5   0  0.8097672E-07  0.2297542E+04  0.7818609E-02  0.8478891E-01
        1   -1    0    0  501    0  0.00000000000E+00  0.00000000000E+00  0.12710356636E+04  0.12710356636E+04  0.50400001928E-02 0.  1.
       -1   -1    0    0    0  501  0.00000000000E+00  0.00000000000E+00 -0.10382673943E+04  0.10382673943E+04  0.50400001928E-02 0. -1.
    10030    2    1    2    0    0  0.00000000000E+00  0.00000000000E+00  0.23276826928E+03  0.23093030580E+04  0.22975420663E+04 0.  0.
        3    1    3    3  502    0 -0.91716321694E+02  0.10874961413E+03  0.12621476584E+04  0.12701397892E+04  0.10100000352E+00 0.  1.
       -3    1    3    3    0  502  0.91716321694E+02 -0.10874961413E+03 -0.10293793891E+04  0.10391632688E+04  0.10100000352E+00 0. -1.
</event>
<event>
 5   0  0.7932912E-07  0.2304491E+04  0.7818609E-02  0.8476152E-01
       -1   -1    0    0    0  501  0.00000000000E+00  0.00000000000E+00  0.16648973290E+04  0.16648973291E+04  0.50400001928E-02 0.  1.
        1   -1    0    0  501    0  0.00000000000E+00  0.00000000000E+00 -0.79744846334E+03  0.79744846335E+03  0.50400001928E-02 0. -1.
    10030    2    1    2    0    0  0.00000000000E+00  0.00000000000E+00  0.86744886571E+03  0.24623457924E+04  0.23044911080E+04 0.  0.
        5    1    3    3  502    0  0.83452180348E+02  0.29811402082E+03 -0.75217027388E+03  0.81339931567E+03  0.46999998093E+01 0. -1.
       -5    1    3    3    0  502 -0.83452180348E+02 -0.29811402082E+03  0.16196191396E+04  0.16489464767E+04  0.46999998093E+01 0.  1.
</event>
<event>
 5   0  0.7932912E-07  0.2299671E+04  0.7818609E-02  0.8478051E-01
        1   -1    0    0  501    0  0.00000000000E+00  0.00000000000E+00  0.14763132516E+04  0.14763132517E+04  0.50400001928E-02 0. -1.
       -1   -1    0    0    0  501  0.00000000000E+00  0.00000000000E+00 -0.89555649928E+03  0.89555649929E+03  0.50400001928E-02 0.  1.
    10030    2    1    2    0    0  0.00000000000E+00  0.00000000000E+00  0.58075675237E+03  0.23718697509E+04  0.22996712178E+04 0.  0.
        5    1    3    3  502    0 -0.80184522067E+03 -0.49198256565E+03  0.97226805384E+03  0.13528968406E+04  0.46999998093E+01 0. -1.
       -5    1    3    3    0  502  0.80184522067E+03  0.49198256565E+03 -0.39151130147E+03  0.10189729103E+04  0.46999998093E+01 0.  1.
</event>
<event>
 5   0  0.7607231E-07  0.2299037E+04  0.7818609E-02  0.8478301E-01
        1   -1    0    0  501    0  0.00000000000E+00  0.00000000000E+00  0.63281119482E+03  0.63281119484E+03  0.50400001928E-02 0.  1.
       -1   -1    0    0    0  501  0.00000000000E+00  0.00000000000E+00 -0.20881305746E+04  0.20881305746E+04  0.50400001928E-02 0. -1.
    10030    2    1    2    0    0  0.00000000000E+00  0.00000000000E+00 -0.14553193798E+04  0.27209417695E+04  0.22990366712E+04 0.  0.
        2    1    3    3  502    0 -0.53723368935E+03  0.98240699242E+03 -0.41983488252E+03  0.11958281082E+04  0.25500000920E-02 0. -1.
       -2    1    3    3    0  502  0.53723368935E+03 -0.98240699242E+03 -0.10354844973E+04  0.15251136613E+04  0.25500000920E-02 0.  1.
</event>
<event>
 5   0  0.1828646E-06  0.2300144E+04  0.7818609E-02  0.8477864E-01
       -2   -1    0    0    0  501  0.00000000000E+00  0.00000000000E+00  0.85999251268E+03  0.85999251268E+03  0.25500000920E-02 0. -1.
        2   -1    0    0  501    0  0.00000000000E+00  0.00000000000E+00 -0.15379969780E+04  0.15379969780E+04  0.25500000920E-02 0.  1.
    10030    2    1    2    0    0  0.00000000000E+00  0.00000000000E+00 -0.67800446537E+03  0.23979894907E+04  0.23001442439E+04 0.  0.
        3    1    3    3  502    0  0.91106751381E+03 -0.64146509695E+03 -0.63597830138E+03  0.12829613772E+04  0.10100000352E+00 0.  1.
       -3    1    3    3    0  502 -0.91106751381E+03  0.64146509695E+03 -0.42026163987E+02  0.11150281135E+04  0.10100000352E+00 0. -1.
</event>
<event>
 5   0  0.1825521E-06  0.2300013E+04  0.7818609E-02  0.8477916E-01
        2   -1    0    0  501    0  0.00000000000E+00  0.00000000000E+00  0.11672199858E+04  0.11672199858E+04  0.25500000920E-02 0.  1.
       -2   -1    0    0    0  501  0.00000000000E+00  0.00000000000E+00 -0.11330469371E+04  0.11330469371E+04  0.25500000920E-02 0. -1.
    10030    2    1    2    0    0  0.00000000000E+00  0.00000000000E+00  0.34173048721E+02  0.23002669229E+04  0.23000130693E+04 0.  0.
        5    1    3    3  502    0  0.96022166371E+03 -0.63282431006E+03  0.17916626800E+02  0.11501457935E+04  0.46999998093E+01 0. -1.
       -5    1    3    3    0  502 -0.96022166371E+03  0.63282431006E+03  0.16256421922E+02  0.11501211293E+04  0.46999998093E+01 0.  1.
</event>
<event>
 5   0  0.1689444E-06  0.2300549E+04  0.7818609E-02  0.8477705E-01
       -2   -1    0    0    0  501  0.00000000000E+00  0.00000000000E+00  0.65501107609E+03  0.65501107609E+03  0.25500000920E-02 0. -1.
        2   -1    0    0  501    0  0.00000000000E+00  0.00000000000E+00 -0.20200142988E+04  0.20200142988E+04  0.25500000920E-02 0.  1.
    10030    2    1    2    0    0  0.00000000000E+00  0.00000000000E+00 -0.13650032227E+04  0.26750253749E+04  0.23005492732E+04 0.  0.
        2    1    3    3  502    0 -0.78884030759E+02  0.11067092544E+04 -0.10353879514E+04  0.15175823780E+04  0.25500000920E-02 0.  1.
       -2    1    3    3    0  502  0.78884030759E+02 -0.11067092544E+04 -0.32961527130E+03  0.11574429969E+04  0.25500000920E-02 0. -1.
</event>
<event>
 5   0  0.7607231E-07  0.2299796E+04  0.7818609E-02  0.8478002E-01
        1   -1    0    0  501    0  0.00000000000E+00  0.00000000000E+00  0.24500551041E+04  0.24500551041E+04  0.50400001928E-02 0.  1.
       -1   -1    0    0    0  501  0.00000000000E+00  0.00000000000E+00 -0.53968806723E+03  0.53968806726E+03  0.50400001928E-02 0. -1.
    10030    2    1    2    0    0  0.00000000000E+00  0.00000000000E+00  0.19103670369E+04  0.29897431714E+04  0.22997960812E+04 0.  0.
        2    1    3    3  502    0  0.14513664561E+03 -0.10424160524E+04  0.15573667816E+04  0.18796508092E+04  0.25500000920E-02 0.  1.
       -2    1    3    3    0  502 -0.14513664561E+03  0.10424160524E+04  0.35300025523E+03  0.11100923621E+04  0.25500000920E-02 0. -1.
</event>
<event>
 5   0  0.1744876E-06  0.2290596E+04  0.7818609E-02  0.8481638E-01
        2   -1    0    0  501    0  0.00000000000E+00  0.00000000000E+00  0.61351623011E+03  0.61351623012E+03  0.25500000920E-02 0.  1.
       -2   -1    0    0    0  501  0.00000000000E+00  0.00000000000E+00 -0.21380151349E+04  0.21380151349E+04  0.25500000920E-02 0. -1.
    10030    2    1    2    0    0  0.00000000000E+00  0.00000000000E+00 -0.15244989048E+04  0.27515313650E+04  0.22905955431E+04 0.  0.
        1    1    3    3  502    0  0.24229408990E+03  0.74314629956E+02  0.57941059032E+03  0.63241262039E+03  0.50400001928E-02 0.  1.
       -1    1    3    3    0  502 -0.24229408990E+03 -0.74314629956E+02 -0.21039094951E+04  0.21191187446E+04  0.50400001928E-02 0. -1.
</event>
<event>
 5   0  0.6319125E-07  0.2298705E+04  0.7818609E-02  0.8478432E-01
       -3   -1    0    0    0  501  0.00000000000E+00  0.00000000000E+00  0.97167067176E+03  0.97167067701E+03  0.10100000352E+00 0.  1.
        3   -1    0    0  501    0  0.00000000000E+00  0.00000000000E+00 -0.13595261306E+04  0.13595261343E+04  0.10100000352E+00 0. -1.
    10030    2    1    2    0    0  0.00000000000E+00  0.00000000000E+00 -0.38785545883E+03  0.23311968114E+04  0.22987054436E+04 0.  0.
        3    1    3    3  502    0 -0.11076013069E+04 -0.26475527117E+03 -0.36375262562E+02  0.11393854390E+04  0.10100000352E+00 0.  1.
       -3    1    3    3    0  502  0.11076013069E+04  0.26475527117E+03 -0.35148019627E+03  0.11918113723E+04  0.10100000352E+00 0. -1.
</event>
<event>
 5   0  0.6319125E-07  0.2300112E+04  0.7818609E-02  0.8477877E-01
        4   -1    0    0  501    0  0.00000000000E+00  0.00000000000E+00  0.53499825500E+03  0.53499976239E+03  0.12699999809E+01 0. -1.
       -4   -1    0    0    0  501  0.00000000000E+00  0.00000000000E+00 -0.24722066053E+04  0.24722069315E+04  0.12699999809E+01 0.  1.
    10030    2    1    2    0    0  0.00000000000E+00  0.00000000000E+00 -0.19372083503E+04  0.30072066939E+04  0.23001121510E+04 0.  0.
        3    1    3    3  502    0  0.57125713405E+03 -0.51810841556E+03 -0.20840219838E+04  0.22221428133E+04  0.10100000352E+00 0.  1.
       -3    1    3    3    0  502 -0.57125713405E+03  0.51810841556E+03  0.14681363349E+03  0.78506388062E+03  0.10100000352E+00 0. -1.
</event>
<event>
 5   0  0.7761069E-07  0.2299291E+04  0.7818609E-02  0.8478201E-01
       -1   -1    0    0    0  501  0.00000000000E+00  0.00000000000E+00  0.91837373496E+03  0.91837373497E+03  0.50400001928E-02 0. -1.
        1   -1    0    0  501    0  0.00000000000E+00  0.00000000000E+00 -0.14391577704E+04  0.14391577704E+04  0.50400001928E-02 0.  1.
    10030    2    1    2    0    0  0.00000000000E+00  0.00000000000E+00 -0.52078403545E+03  0.23575315054E+04  0.22992909314E+04 0.  0.
        1    1    3    3  502    0  0.24072403456E+03  0.10791260323E+04  0.62584658882E+02  0.11074194752E+04  0.50400001928E-02 0.  1.
       -1    1    3    3    0  502 -0.24072403456E+03 -0.10791260323E+04 -0.58336869433E+03  0.12501120302E+04  0.50400001928E-02 0. -1.
</event>
<event>
 5   0  0.8097672E-07  0.2299686E+04  0.7818609E-02  0.8478045E-01
        1   -1    0    0  501    0  0.00000000000E+00  0.00000000000E+00  0.69274222769E+03  0.69274222771E+03  0.50400001928E-02 0. -1.
       -1   -1    0    0    0  501  0.00000000000E+00  0.00000000000E+00 -0.19085583603E+04  0.19085583603E+04  0.50400001928E-02 0.  1.
    10030    2    1    2    0    0  0.00000000000E+00  0.00000000000E+00 -0.12158161326E+04  0.26013005880E+04  0.22996860396E+04 0.  0.
        3    1    3    3  502    0 -0.10605123281E+03  0.11440957751E+04 -0.55812500689E+03  0.12773822999E+04  0.10100000352E+00 0.  1.
       -3    1    3    3    0  502  0.10605123281E+03 -0.11440957751E+04 -0.65769112569E+03  0.13239182881E+04  0.10100000352E+00 0. -1.
</event>
<event>
 5   0  0.7607231E-07  0.2299594E+04  0.7818609E-02  0.8478081E-01
       -1   -1    0    0    0  501  0.00000000000E+00  0.00000000000E+00  0.12686306857E+04  0.12686306857E+04  0.50400001928E-02 0. -1.
        1   -1    0    0  501    0  0.00000000000E+00  0.00000000000E+00 -0.10420944398E+04  0.10420944399E+04  0.50400001928E-02 0.  1.
    10030    2    1    2    0    0  0.00000000000E+00  0.00000000000E+00  0.22653624585E+03  0.23107251256E+04  0.22995938631E+04 0.  0.
        2    1    3    3  502    0 -0.15665059323E+03  0.21438348896E+03 -0.10108665659E+04  0.10451559227E+04  0.25500000920E-02 0.  1.
       -2    1    3    3    0  502  0.15665059323E+03 -0.21438348896E+03  0.12374028117E+04  0.12655692029E+04  0.25500000920E-02 0. -1.
</event>
<event>
 5   0  0.8097672E-07  0.2300221E+04  0.7818609E-02  0.8477834E-01
       -1   -1    0    0    0  501  0.00000000000E+00  0.00000000000E+00  0.65697342643E+03  0.65697342645E+03  0.50400001928E-02 0. -1.
        1   -1    0    0  501    0  0.00000000000E+00  0.00000000000E+00 -0.20134053049E+04  0.20134053049E+04  0.50400001928E-02 0.  1.
    10030    2    1    2    0    0  0.00000000000E+00  0.00000000000E+00 -0.13564318785E+04  0.26703787314E+04  0.23002206694E+04 0.  0.
        3    1    3    3  502    0  0.52931183476E+03 -0.67855232095E+02 -0.18609783699E+04  0.19359793011E+04  0.10100000352E+00 0.  1.
       -3    1    3    3    0  502 -0.52931183476E+03  0.67855232095E+02  0.50454649142E+03  0.73439943025E+03  0.10100000352E+00 0. -1.
</event>
<event>
 5   0  0.8108242E-07  0.2301331E+04  0.7818609E-02  0.8477397E-01
        1   -1    0    0  501    0  0.00000000000E+00  0.00000000000E+00  0.10534944869E+04  0.10534944869E+04  0.50400001928E-02 0.  1.
       -1   -1    0    0    0  501  0.00000000000E+00  0.00000000000E+00 -0.12567989064E+04  0.12567989064E+04  0.50400001928E-02 0. -1.
    10030    2    1    2    0    0  0.00000000000E+00  0.00000000000E+00 -0.20330441953E+03  0.23102933933E+04  0.23013306751E+04 0.  0.
        4    1    3    3  502    0  0.53214167567E+03 -0.37162198926E+03  0.85218048510E+03  0.10712099971E+04  0.12699999809E+01 0.  1.
       -4    1    3    3    0  502 -0.53214167567E+03  0.37162198926E+03 -0.10554849046E+04  0.12390833962E+04  0.12699999809E+01 0. -1.
</event>
<event>
 5   0  0.7607231E-07  0.2298697E+04  0.7818609E-02  0.8478435E-01
        1   -1    0    0  501    0  0.00000000000E+00  0.00000000000E+00  0.15245810581E+04  0.15245810581E+04  0.50400001928E-02 0. -1.
       -1   -1    0    0    0  501  0.00000000000E+00  0.00000000000E+00 -0.86646889611E+03  0.86646889612E+03  0.50400001928E-02 0.  1.
    10030    2    1    2    0    0  0.00000000000E+00  0.00000000000E+00  0.65811216198E+03  0.23910499542E+04  0.22986970800E+04 0.  0.
        2    1    3    3  502    0 -0.67834941735E+02  0.75179216803E+03  0.12306008614E+04  0.14436660013E+04  0.25500000920E-02 0. -1.
       -2    1    3    3    0  502  0.67834941735E+02 -0.75179216803E+03 -0.57248869943E+03  0.94738395290E+03  0.25500000920E-02 0.  1.
</event>
<event>
 5   0  0.1689444E-06  0.2299832E+04  0.7818609E-02  0.8477987E-01
        2   -1    0    0  501    0  0.00000000000E+00  0.00000000000E+00  0.19409584068E+04  0.19409584068E+04  0.25500000920E-02 0. -1.
       -2   -1    0    0    0  501  0.00000000000E+00  0.00000000000E+00 -0.68126472270E+03  0.68126472271E+03  0.25500000920E-02 0.  1.
    10030    2    1    2    0    0  0.00000000000E+00  0.00000000000E+00  0.12596936841E+04  0.26222231295E+04  0.22998317250E+04 0.  0.
        2    1    3    3  502    0  0.85095555569E+03  0.58291654714E+03  0.50270089724E+02  0.10326878234E+04  0.25500000920E-02 0.  1.
       -2    1    3    3    0  502 -0.85095555569E+03 -0.58291654714E+03  0.12094235944E+04  0.15895353061E+04  0.25500000920E-02 0. -1.
</event>
<event>
 5   0  0.7607231E-07  0.2297539E+04  0.7818609E-02  0.8478892E-01
        1   -1    0    0  501    0  0.00000000000E+00  0.00000000000E+00  0.28945424274E+04  0.28945424274E+04  0.50400001928E-02 0.  1.
       -1   -1    0    0    0  501  0.00000000000E+00  0.00000000000E+00 -0.45591690631E+03  0.45591690634E+03  0.50400001928E-02 0. -1.
    10030    2    1    2    0    0  0.00000000000E+00  0.00000000000E+00  0.24386255211E+04  0.33504593338E+04  0.22975385340E+04 0.  0.
        2    1    3    3  502    0  0.63040954247E+03 -0.28366365062E+03  0.25572733385E+04  0.26490617557E+04  0.25500000920E-02 0.  1.
       -2    1    3    3    0  502 -0.63040954247E+03  0.28366365062E+03 -0.11864781737E+03  0.70139757805E+03  0.25500000920E-02 0. -1.
</event>
<event>
 5   0  0.7932912E-07  0.2300915E+04  0.7818609E-02  0.8477560E-01
       -1   -1    0    0    0  501  0.00000000000E+00  0.00000000000E+00  0.17390898355E+04  0.17390898355E+04  0.50400001928E-02 0. -1.
        1   -1    0    0  501    0  0.00000000000E+00  0.00000000000E+00 -0.76106037528E+03  0.76106037530E+03  0.50400001928E-02 0.  1.
    10030    2    1    2    0    0  0.00000000000E+00  0.00000000000E+00  0.97802946018E+03  0.25001502108E+04  0.23009149162E+04 0.  0.
        5    1    3    3  502    0 -0.46449109309E+03  0.45970711401E+03 -0.53977829979E+03  0.84762332976E+03  0.46999998093E+01 0.  1.
       -5    1    3    3    0  502  0.46449109309E+03 -0.45970711401E+03  0.15178077600E+04  0.16525268810E+04  0.46999998093E+01 0. -1.
</event>
<event>
 5   0  0.6319125E-07  0.2300962E+04  0.7818609E-02  0.8477542E-01
       -3   -1    0    0    0  501  0.00000000000E+00  0.00000000000E+00  0.25049449338E+04  0.25049449359E+04  0.10100000352E+00 0. -1.
        3   -1    0    0  501    0  0.00000000000E+00  0.00000000000E+00 -0.52839739005E+03  0.52839739970E+03  0.10100000352E+00 0.  1.
    10030    2    1    2    0    0  0.00000000000E+00  0.00000000000E+00  0.19765475438E+04  0.30333423356E+04  0.23009618710E+04 0.  0.
        4    1    3    3  502    0 -0.73645144896E+03 -0.66538471929E+03  0.17552748339E+04  0.20164545412E+04  0.12699999809E+01 0.  1.
       -4    1    3    3    0  502  0.73645144896E+03  0.66538471929E+03  0.22127270994E+03  0.10168877944E+04  0.12699999809E+01 0. -1.
</event>
<event>
 5   0  0.1828646E-06  0.2298877E+04  0.7818609E-02  0.8478364E-01
        2   -1    0    0  501    0  0.00000000000E+00  0.00000000000E+00  0.13909109040E+04  0.13909109040E+04  0.25500000920E-02 0. -1.
       -2   -1    0    0    0  501  0.00000000000E+00  0.00000000000E+00 -0.94988783244E+03  0.94988783244E+03  0.25500000920E-02 0.  1.
    10030    2    1    2    0    0  0.00000000000E+00  0.00000000000E+00  0.44102307152E+03  0.23407987364E+04  0.22988774162E+04 0.  0.
        3    1    3    3  502    0  0.26648060210E+03 -0.25823729040E+03  0.13282427558E+04  0.13791037807E+04  0.10100000352E+00 0. -1.
       -3    1    3    3    0  502 -0.26648060210E+03  0.25823729040E+03 -0.88721968427E+03  0.96169495569E+03  0.10100000352E+00 0.  1.
</event>
<event>
 5   0  0.1828646E-06  0.2302760E+04  0.7818609E-02  0.8476834E-01
        2   -1    0    0  501    0  0.00000000000E+00  0.00000000000E+00  0.96963337905E+03  0.96963337905E+03  0.25500000920E-02 0.  1.
       -2   -1    0    0    0  501  0.00000000000E+00  0.00000000000E+00 -0.13671923483E+04  0.13671923483E+04  0.25500000920E-02 0. -1.
    10030    2    1    2    0    0  0.00000000000E+00  0.00000000000E+00 -0.39755896927E+03  0.23368257274E+04  0.23027595068E+04 0.  0.
        3    1    3    3  502    0 -0.42703608015E+03 -0.35227158691E+03 -0.12232790099E+04  0.13427086918E+04  0.10100000352E+00 0. -1.
       -3    1    3    3    0  502  0.42703608015E+03  0.35227158691E+03  0.82572004065E+03  0.99411703558E+03  0.10100000352E+00 0.  1.
</event>
<event>
 5   0  0.1888779E-06  0.2300317E+04  0.7818609E-02  0.8477796E-01
        2   -1    0    0  501    0  0.00000000000E+00  0.00000000000E+00  0.30036622161E+04  0.30036622161E+04  0.25500000920E-02 0. -1.
       -2   -1    0    0    0  501  0.00000000000E+00  0.00000000000E+00 -0.44041711296E+03  0.44041711297E+03  0.25500000920E-02 0.  1.
    10030    2    1    2    0    0  0.00000000000E+00  0.00000000000E+00  0.25632451032E+04  0.34440793291E+04  0.23003167100E+04 0.  0.
        4    1    3    3  502    0 -0.63302278858E+03 -0.93084948821E+03  0.16348648885E+04  0.19849391520E+04  0.12699999809E+01 0. -1.
       -4    1    3    3    0  502  0.63302278858E+03  0.93084948821E+03  0.92838021466E+03  0.14591401771E+04  0.12699999809E+01 0.  1.
</event>
<event>
 5   0  0.1828646E-06  0.2299050E+04  0.7818609E-02  0.8478296E-01
        2   -1    0    0  501    0  0.00000000000E+00  0.00000000000E+00  0.13186759941E+04  0.13186759941E+04  0.25500000920E-02 0.  1.
       -2   -1    0    0    0  501  0.00000000000E+00  0.00000000000E+00 -0.10020715273E+04  0.10020715273E+04  0.25500000920E-02 0. -1.
    10030    2    1    2    0    0  0.00000000000E+00  0.00000000000E+00  0.31660446680E+03  0.23207475214E+04  0.22990499494E+04 0.  0.
        3    1    3    3  502    0 -0.85984726620E+03 -0.76278756918E+03  0.14314518652E+03  0.11583059835E+04  0.10100000352E+00 0. -1.
       -3    1    3    3    0  502  0.85984726620E+03  0.76278756918E+03  0.17345928028E+03  0.11624415379E+04  0.10100000352E+00 0.  1.
</event>
<event>
 5   0  0.1744876E-06  0.2300078E+04  0.7818609E-02  0.8477890E-01
       -2   -1    0    0    0  501  0.00000000000E+00  0.00000000000E+00  0.13859850489E+04  0.13859850489E+04  0.25500000920E-02 0.  1.
        2   -1    0    0  501    0  0.00000000000E+00  0.00000000000E+00 -0.95426010870E+03  0.95426010871E+03  0.25500000920E-02 0. -1.
    10030    2    1    2    0    0  0.00000000000E+00  0.00000000000E+00  0.43172494017E+03  0.23402451576E+04  0.23000784712E+04 0.  0.
        1    1    3    3  502    0 -0.68429070754E+03  0.44891426073E+03 -0.60621532731E+03  0.10184668915E+04  0.50400001928E-02 0. -1.
       -1    1    3    3    0  502  0.68429070754E+03 -0.44891426073E+03  0.10379402675E+04  0.13217782661E+04  0.50400001928E-02 0.  1.
</event>
<event>
 5   0  0.1828646E-06  0.2298060E+04  0.7818609E-02  0.8478687E-01
       -2   -1    0    0    0  501  0.00000000000E+00  0.00000000000E+00  0.92410061971E+03  0.92410061972E+03  0.25500000920E-02 0.  1.
        2   -1    0    0  501    0  0.00000000000E+00  0.00000000000E+00 -0.14287077032E+04  0.14287077032E+04  0.25500000920E-02 0. -1.
    10030    2    1    2    0    0  0.00000000000E+00  0.00000000000E+00 -0.50460708351E+03  0.23528083229E+04  0.22980597677E+04 0.  0.
        3    1    3    3  502    0  0.96590382863E+03  0.60532755423E+03 -0.10436893710E+03  0.11446766090E+04  0.10100000352E+00 0.  1.
       -3    1    3    3    0  502 -0.96590382863E+03 -0.60532755423E+03 -0.40023814642E+03  0.12081317139E+04  0.10100000352E+00 0. -1.
</event>
<event>
 5   0  0.1825521E-06  0.2299330E+04  0.7818609E-02  0.8478185E-01
       -2   -1    0    0    0  501  0.00000000000E+00  0.00000000000E+00  0.10434434163E+04  0.10434434164E+04  0.25500000920E-02 0.  1.
        2   -1    0    0  501    0  0.00000000000E+00  0.00000000000E+00 -0.12667002861E+04  0.12667002861E+04  0.25500000920E-02 0. -1.
    10030    2    1    2    0    0  0.00000000000E+00  0.00000000000E+00 -0.22325686972E+03  0.23101437024E+04  0.22993304016E+04 0.  0.
        5    1    3    3  502    0 -0.75888959993E+03 -0.32622043552E+03 -0.91499798626E+03  0.12327110782E+04  0.46999998093E+01 0. -1.
       -5    1    3    3    0  502  0.75888959993E+03  0.32622043552E+03  0.69174111654E+03  0.10774326242E+04  0.46999998093E+01 0.  1.
</event>
<event>
 5   0  0.8097672E-07  0.2299326E+04  0.7818609E-02  0.8478187E-01
       -1   -1    0    0    0  501  0.00000000000E+00  0.00000000000E+00  0.65876498052E+03  0.65876498054E+03  0.50400001928E-02 0.  1.
        1   -1    0    0  501    0  0.00000000000E+00  0.00000000000E+00 -0.20063680817E+04  0.20063680817E+04  0.50400001928E-02 0. -1.
    10030    2    1    2    0    0  0.00000000000E+00  0.00000000000E+00 -0.13476031011E+04  0.26651330622E+04  0.22993260145E+04 0.  0.
        3    1    3    3  502    0  0.41920747844E+03 -0.95278810322E+03 -0.10811546858E+03  0.10465319127E+04  0.10100000352E+00 0.  1.
       -3    1    3    3    0  502 -0.41920747844E+03  0.95278810322E+03 -0.12394876326E+04  0.16186011495E+04  0.10100000352E+00 0. -1.
</event>
<event>
 5   0  0.7761069E-07  0.2298596E+04  0.7818609E-02  0.8478475E-01
       -1   -1    0    0    0  501  0.00000000000E+00  0.00000000000E+00  0.94980374460E+03  0.94980374462E+03  0.50400001928E-02 0.  1.
        1   -1    0    0  501    0  0.00000000000E+00  0.00000000000E+00 -0.13906931024E+04  0.13906931024E+04  0.50400001928E-02 0. -1.
    10030    2    1    2    0    0  0.00000000000E+00  0.00000000000E+00 -0.44088935775E+03  0.23404968470E+04  0.22985956724E+04 0.  0.
        1    1    3    3  502    0  0.74036293793E+03  0.54495426103E+03  0.48189210216E+03  0.10379462532E+04  0.50400001928E-02 0. -1.
       -1    1    3    3    0  502 -0.74036293793E+03 -0.54495426103E+03 -0.92278145992E+03  0.13025505937E+04  0.50400001928E-02 0.  1.
</event>
<event>
 5   0  0.8097672E-07  0.2296005E+04  0.7818609E-02  0.8479498E-01
        1   -1    0    0  501    0  0.00000000000E+00  0.00000000000E+00  0.15005791422E+04  0.15005791422E+04  0.50400001928E-02 0.  1.
       -1   -1    0    0    0  501  0.00000000000E+00  0.00000000000E+00 -0.87826746068E+03  0.87826746069E+03  0.50400001928E-02 0. -1.
    10030    2    1    2    0    0  0.00000000000E+00  0.00000000000E+00  0.62231168154E+03  0.23788466029E+04  0.22960050808E+04 0.  0.
        3    1    3    3  502    0  0.70116636731E+03  0.66077628265E+03  0.95789785377E+03  0.13586124829E+04  0.10100000352E+00 0.  1.
       -3    1    3    3    0  502 -0.70116636731E+03 -0.66077628265E+03 -0.33558617224E+03  0.10202341200E+04  0.10100000352E+00 0. -1.
</event>
<event>
 5   0  0.7761069E-07  0.2301289E+04  0.7818609E-02  0.8477413E-01
        1   -1    0    0  501    0  0.00000000000E+00  0.00000000000E+00  0.18458083019E+04  0.18458083019E+04  0.50400001928E-02 0.  1.
       -1   -1    0    0    0  501  0.00000000000E+00  0.00000000000E+00 -0.71729148132E+03  0.71729148134E+03  0.50400001928E-02 0. -1.
    10030    2    1    2    0    0  0.00000000000E+00  0.00000000000E+00  0.11285168206E+04  0.25630997832E+04  0.23012888312E+04 0.  0.
        1    1    3    3  502    0  0.10978194092E+04 -0.32171337481E+03  0.70191398798E+03  0.13421587824E+04  0.50400001928E-02 0. -1.
       -1    1    3    3    0  502 -0.10978194092E+04  0.32171337481E+03  0.42660283259E+03  0.12209410008E+04  0.50400001928E-02 0.  1.
</event>
<event>
 5   0  0.8108242E-07  0.2300420E+04  0.7818609E-02  0.8477755E-01
        1   -1    0    0  501    0  0.00000000000E+00  0.00000000000E+00  0.18348646872E+04  0.18348646872E+04  0.50400001928E-02 0. -1.
       -1   -1    0    0    0  501  0.00000000000E+00  0.00000000000E+00 -0.72102507070E+03  0.72102507072E+03  0.50400001928E-02 0.  1.
    10030    2    1    2    0    0  0.00000000000E+00  0.00000000000E+00  0.11138396165E+04  0.25558897579E+04  0.23004203449E+04 0.  0.
        4    1    3    3  502    0 -0.82010693395E+02 -0.53580134764E+03  0.16840630406E+04  0.17691463409E+04  0.12699999809E+01 0. -1.
       -4    1    3    3    0  502  0.82010693395E+02  0.53580134764E+03 -0.57022342408E+03  0.78674341703E+03  0.12699999809E+01 0.  1.
</event>
<event>
 5   0  0.1888779E-06  0.2297946E+04  0.7818609E-02  0.8478731E-01
       -2   -1    0    0    0  501  0.00000000000E+00  0.00000000000E+00  0.10351038041E+04  0.10351038041E+04  0.25500000920E-02 0.  1.
        2   -1    0    0  501    0  0.00000000000E+00  0.00000000000E+00 -0.12753688744E+04  0.12753688744E+04  0.25500000920E-02 0. -1.
    10030    2    1    2    0    0  0.00000000000E+00  0.00000000000E+00 -0.24026507033E+03  0.23104726785E+04  0.22979461905E+04 0.  0.
        4    1    3    3  502    0  0.93699402150E+03  0.66306272376E+03 -0.69583347090E+02  0.11499797507E+04  0.12699999809E+01 0.  1.
       -4    1    3    3    0  502 -0.93699402150E+03 -0.66306272376E+03 -0.17068172324E+03  0.11604929278E+04  0.12699999809E+01 0. -1.
</event>
<event>
 5   0  0.1825521E-06  0.2300176E+04  0.7818609E-02  0.8477852E-01
       -2   -1    0    0    0  501  0.00000000000E+00  0.00000000000E+00  0.84159315648E+03  0.84159315648E+03  0.25500000920E-02 0. -1.
        2   -1    0    0  501    0  0.00000000000E+00  0.00000000000E+00 -0.15716648519E+04  0.15716648519E+04  0.25500000920E-02 0.  1.
    10030    2    1    2    0    0  0.00000000000E+00  0.00000000000E+00 -0.73007169539E+03  0.24132580083E+04  0.23001759790E+04 0.  0.
        5    1    3    3  502    0  0.10431316945E+04  0.48404252767E+03 -0.38193332001E+03  0.12117409177E+04  0.46999998093E+01 0. -1.
       -5    1    3    3    0  502 -0.10431316945E+04 -0.48404252767E+03 -0.34813837538E+03  0.12015170906E+04  0.46999998093E+01 0.  1.
</event>
<event>
 5   0  0.8108242E-07  0.2298218E+04  0.7818609E-02  0.8478624E-01
        1   -1    0    0  501    0  0.00000000000E+00  0.00000000000E+00  0.13342907104E+04  0.13342907104E+04  0.50400001928E-02 0. -1.
       -1   -1    0    0    0  501  0.00000000000E+00  0.00000000000E+00 -0.98962774548E+03  0.98962774549E+03  0.50400001928E-02 0.  1.
    10030    2    1    2    0    0  0.00000000000E+00  0.00000000000E+00  0.34466296489E+03  0.23239184559E+04  0.22982176638E+04 0.  0.
        4    1    3    3  502    0  0.50087139654E+03 -0.17496878820E+03  0.12030256590E+04  0.13148226427E+04  0.12699999809E+01 0. -1.
       -4    1    3    3    0  502 -0.50087139654E+03  0.17496878820E+03 -0.85836269407E+03  0.10090958132E+04  0.12699999809E+01 0.  1.
</event>
<event>
 5   0  0.1828646E-06  0.2301063E+04  0.7818609E-02  0.8477502E-01
        2   -1    0    0  501    0  0.00000000000E+00  0.00000000000E+00  0.25339270151E+04  0.25339270151E+04  0.25500000920E-02 0.  1.
       -2   -1    0    0    0  501  0.00000000000E+00  0.00000000000E+00 -0.52239968871E+03  0.52239968871E+03  0.25500000920E-02 0. -1.
    10030    2    1    2    0    0  0.00000000000E+00  0.00000000000E+00  0.20115273264E+04  0.30563267038E+04  0.23010629578E+04 0.  0.
        3    1    3    3  502    0 -0.17915132921E+03 -0.30806396207E+03  0.24587726080E+04  0.24844639969E+04  0.10100000352E+00 0.  1.
       -3    1    3    3    0  502  0.17915132921E+03  0.30806396207E+03 -0.44724528163E+03  0.57186270697E+03  0.10100000352E+00 0. -1.
</event>
<event>
 5   0  0.1744876E-06  0.2300282E+04  0.7818609E-02  0.8477810E-01
        2   -1    0    0  501    0  0.00000000000E+00  0.00000000000E+00  0.20914388665E+04  0.20914388666E+04  0.25500000920E-02 0. -1.
       -2   -1    0    0    0  501  0.00000000000E+00  0.00000000000E+00 -0.63249504249E+03  0.63249504250E+03  0.25500000920E-02 0.  1.
    10030    2    1    2    0    0  0.00000000000E+00  0.00000000000E+00  0.14589438241E+04  0.27239339090E+04  0.23002823433E+04 0.  0.
        1    1    3    3  502    0  0.51512364361E+03  0.96505625211E+03  0.11500433039E+04  0.15872257366E+04  0.50400001928E-02 0.  1.
       -1    1    3    3    0  502 -0.51512364361E+03 -0.96505625211E+03  0.30890052011E+03  0.11367081724E+04  0.50400001928E-02 0. -1.
</event>
<event>
 5   0  0.1689444E-06  0.2299819E+04  0.7818609E-02  0.8477992E-01
       -2   -1    0    0    0  501  0.00000000000E+00  0.00000000000E+00  0.62606793624E+03  0.62606793625E+03  0.25500000920E-02 0. -1.
        2   -1    0    0  501    0  0.00000000000E+00  0.00000000000E+00 -0.21120584807E+04  0.21120584807E+04  0.25500000920E-02 0.  1.
    10030    2    1    2    0    0  0.00000000000E+00  0.00000000000E+00 -0.14859905445E+04  0.27381264170E+04  0.22998192053E+04 0.  0.
        2    1    3    3  502    0  0.16549886089E+03 -0.10714810219E+04 -0.11992087867E+04  0.16166518386E+04  0.25500000920E-02 0. -1.
       -2    1    3    3    0  502 -0.16549886089E+03  0.10714810219E+04 -0.28678175774E+03  0.11214745783E+04  0.25500000920E-02 0.  1.
</event>
<event>
 5   0  0.6319125E-07  0.2300238E+04  0.7818609E-02  0.8477827E-01
       -4   -1    0    0    0  501  0.00000000000E+00  0.00000000000E+00  0.11280451712E+04  0.11280458861E+04  0.12699999809E+01 0.  1.
        4   -1    0    0  501    0  0.00000000000E+00  0.00000000000E+00 -0.11726237556E+04  0.11726244433E+04  0.12699999809E+01 0. -1.
    10030    2    1    2    0    0  0.00000000000E+00  0.00000000000E+00 -0.44578584319E+02  0.23006703294E+04  0.23002384038E+04 0.  0.
        5    1    3    3  502    0  0.10488157532E+04  0.20890433502E+03  0.40098821606E+03  0.11421335933E+04  0.46999998093E+01 0.  1.
       -5    1    3    3    0  502 -0.10488157532E+04 -0.20890433502E+03 -0.44556680038E+03  0.11585367362E+04  0.46999998093E+01 0. -1.
</event>
<event>
 5   0  0.8108242E-07  0.2300650E+04  0.7818609E-02  0.8477665E-01
       -1   -1    0    0    0  501  0.00000000000E+00  0.00000000000E+00  0.64769341581E+03  0.64769341583E+03  0.50400001928E-02 0. -1.
        1   -1    0    0  501    0  0.00000000000E+00  0.00000000000E+00 -0.20430157820E+04  0.20430157821E+04  0.50400001928E-02 0.  1.
    10030    2    1    2    0    0  0.00000000000E+00  0.00000000000E+00 -0.13953223662E+04  0.26907091979E+04  0.23006502302E+04 0.  0.
        4    1    3    3  502    0 -0.11176581902E+04  0.26373365133E+03 -0.77638618015E+03  0.13861790586E+04  0.12699999809E+01 0.  1.
       -4    1    3    3    0  502  0.11176581902E+04 -0.26373365133E+03 -0.61893618609E+03  0.13045301393E+04  0.12699999809E+01 0. -1.
</event>
<event>
 5   0  0.1825521E-06  0.2299639E+04  0.7818609E-02  0.8478064E-01
        2   -1    0    0  501    0  0.00000000000E+00  0.00000000000E+00  0.16593130465E+04  0.16593130465E+04  0.25500000920E-02 0.  1.
       -2   -1    0    0    0  501  0.00000000000E+00  0.00000000000E+00 -0.79676620350E+03  0.79676620350E+03  0.25500000920E-02 0. -1.
    10030    2    1    2    0    0  0.00000000000E+00  0.00000000000E+00  0.86254684303E+03  0.24560792500E+04  0.22996387164E+04 0.  0.
        5    1    3    3  502    0  0.11158764192E+03 -0.90874593667E+03  0.11741418055E+04  0.14889264752E+04  0.46999998093E+01 0.  1.
       -5    1    3    3    0  502 -0.11158764192E+03  0.90874593667E+03 -0.31159496243E+03  0.96715277483E+03  0.46999998093E+01 0. -1.
</event>
<event>
 5   0  0.6319125E-07  0.2300963E+04  0.7818609E-02  0.8477542E-01
        4   -1    0    0  501    0  0.00000000000E+00  0.00000000000E+00  0.15011042874E+04  0.15011048246E+04  0.12699999809E+01 0.  1.
       -4   -1    0    0    0  501  0.00000000000E+00  0.00000000000E+00 -0.88175474133E+03  0.88175565593E+03  0.12699999809E+01 0. -1.
    10030    2    1    2    0    0  0.00000000000E+00  0.00000000000E+00  0.61934954607E+03  0.23828604806E+04  0.23009628875E+04 0.  0.
        2    1    3    3  502    0  0.86450269288E+01 -0.64983792916E+02  0.14991692095E+04  0.15006018621E+04  0.25500000920E-02 0.  1.
       -2    1    3    3    0  502 -0.86450269288E+01  0.64983792916E+02 -0.87981966339E+03  0.88225861850E+03  0.25500000920E-02 0. -1.
</event>
<event>
 5   0  0.7932912E-07  0.2300508E+04  0.7818609E-02  0.8477721E-01
       -1   -1    0    0    0  501  0.00000000000E+00  0.00000000000E+00  0.98768828154E+03  0.98768828155E+03  0.50400001928E-02 0.  1.
        1   -1    0    0  501    0  0.00000000000E+00  0.00000000000E+00 -0.13395768190E+04  0.13395768190E+04  0.50400001928E-02 0. -1.
    10030    2    1    2    0    0  0.00000000000E+00  0.00000000000E+00 -0.35188853744E+03  0.23272651005E+04  0.23005080538E+04 0.  0.
        5    1    3    3  502    0 -0.80248128111E+03  0.39173585456E+03  0.55749098074E+03  0.10527352326E+04  0.46999998093E+01 0.  1.
       -5    1    3    3    0  502  0.80248128111E+03 -0.39173585456E+03 -0.90937951818E+03  0.12745298680E+04  0.46999998093E+01 0. -1.
</event>
<event>
 5   0  0.8108242E-07  0.2299587E+04  0.7818609E-02  0.8478084E-01
       -1   -1    0    0    0  501  0.00000000000E+00  0.00000000000E+00  0.79787153440E+03  0.79787153441E+03  0.50400001928E-02 0. -1.
        1   -1    0    0  501    0  0.00000000000E+00  0.00000000000E+00 -0.16569399444E+04  0.16569399444E+04  0.50400001928E-02 0.  1.
    10030    2    1    2    0    0  0.00000000000E+00  0.00000000000E+00 -0.85906840996E+03  0.24548114788E+04  0.22995871071E+04 0.  0.
        4    1    3    3  502    0 -0.10673124238E+04 -0.41915471631E+03 -0.33909780072E+03  0.11957572569E+04  0.12699999809E+01 0. -1.
       -4    1    3    3    0  502  0.10673124238E+04  0.41915471631E+03 -0.51997060923E+03  0.12590542218E+04  0.12699999809E+01 0.  1.
</event>
<event>
 5   0  0.8097672E-07  0.2299422E+04  0.7818609E-02  0.8478149E-01
       -1   -1    0    0    0  501  0.00000000000E+00  0.00000000000E+00  0.14003832547E+04  0.14003832547E+04  0.50400001928E-02 0. -1.
        1   -1    0    0  501    0  0.00000000000E+00  0.00000000000E+00 -0.94390944508E+03  0.94390944509E+03  0.50400001928E-02 0.  1.
    10030    2    1    2    0    0  0.00000000000E+00  0.00000000000E+00  0.45647380960E+03  0.23442926998E+04  0.22994216498E+04 0.  0.
        3    1    3    3  502    0 -0.69470807412E+03  0.84584086338E+03 -0.13043633696E+03  0.11023065466E+04  0.10100000352E+00 0.  1.
       -3    1    3    3    0  502  0.69470807412E+03 -0.84584086338E+03  0.58691014656E+03  0.12419861532E+04  0.10100000352E+00 0. -1.
</event>
<event>
 5   0  0.7932912E-07  0.2300065E+04  0.7818609E-02  0.8477896E-01
       -1   -1    0    0    0  501  0.00000000000E+00  0.00000000000E+00  0.78206830081E+03  0.78206830083E+03  0.50400001928E-02 0.  1.
        1   -1    0    0  501    0  0.00000000000E+00  0.00000000000E+00 -0.16911236424E+04  0.16911236424E+04  0.50400001928E-02 0. -1.
    10030    2    1    2    0    0  0.00000000000E+00  0.00000000000E+00 -0.90905534158E+03  0.24731919432E+04  0.23000645152E+04 0.  0.
        5    1    3    3  502    0 -0.29692750934E+03 -0.70852826798E+02 -0.16467531810E+04  0.16748146758E+04  0.46999998093E+01 0. -1.
       -5    1    3    3    0  502  0.29692750934E+03  0.70852826798E+02  0.73769783946E+03  0.79837726747E+03  0.46999998093E+01 0.  1.
</event>
<event>
 5   0  0.7761069E-07  0.2300148E+04  0.7818609E-02  0.8477863E-01
       -1   -1    0    0    0  501  0.00000000000E+00  0.00000000000E+00  0.12239933285E+04  0.12239933286E+04  0.50400001928E-02 0. -1.
        1   -1    0    0  501    0  0.00000000000E+00  0.00000000000E+00 -0.10806192329E+04  0.10806192329E+04  0.50400001928E-02 0.  1.
    10030    2    1    2    0    0  0.00000000000E+00  0.00000000000E+00  0.14337409566E+03  0.23046125615E+04  0.23001484576E+04 0.  0.
        1    1    3    3  502    0 -0.10362423044E+04 -0.35666821880E+03  0.42116250160E+03  0.11740477778E+04  0.50400001928E-02 0. -1.
       -1    1    3    3    0  502  0.10362423044E+04  0.35666821880E+03 -0.27778840594E+03  0.11305647837E+04  0.50400001928E-02 0.  1.
</event>
<event>
 5   0  0.6319125E-07  0.2299959E+04  0.7818609E-02  0.8477937E-01
        3   -1    0    0  501    0  0.00000000000E+00  0.00000000000E+00  0.14806507854E+04  0.14806507888E+04  0.10100000352E+00 0. -1.
       -3   -1    0    0    0  501  0.00000000000E+00  0.00000000000E+00 -0.89315645136E+03  0.89315645707E+03  0.10100000352E+00 0.  1.
    10030    2    1    2    0    0  0.00000000000E+00  0.00000000000E+00  0.58749433400E+03  0.23738072459E+04  0.22999589666E+04 0.  0.
        4    1    3    3  502    0 -0.95854850151E+03  0.14342902174E+03  0.93254153897E+03  0.13449990516E+04  0.12699999809E+01 0. -1.
       -4    1    3    3    0  502  0.95854850151E+03 -0.14342902174E+03 -0.34504720496E+03  0.10288081943E+04  0.12699999809E+01 0.  1.
</event>
<event>
 5   0  0.1744876E-06  0.2299446E+04  0.7818609E-02  0.8478140E-01
        2   -1    0    0  501    0  0.00000000000E+00  0.00000000000E+00  0.19246812084E+04  0.19246812084E+04  0.25500000920E-02 0.  1.
       -2   -1    0    0    0  501  0.00000000000E+00  0.00000000000E+00 -0.68679571932E+03  0.68679571933E+03  0.25500000920E-02 0. -1.
    10030    2    1    2    0    0  0.00000000000E+00  0.00000000000E+00  0.12378854891E+04  0.26114769277E+04  0.22994458593E+04 0.  0.
        1    1    3    3  502    0 -0.88955255502E+03  0.70509956042E+02  0.14422946268E+04  0.16960215778E+04  0.50400001928E-02 0.  1.
       -1    1    3    3    0  502  0.88955255502E+03 -0.70509956042E+02 -0.20440913770E+03  0.91545534989E+03  0.50400001928E-02 0. -1.
</event>
<event>
 5   0  0.7761069E-07  0.2298885E+04  0.7818609E-02  0.8478361E-01
        1   -1    0    0  501    0  0.00000000000E+00  0.00000000000E+00  0.11404326092E+04  0.11404326092E+04  0.50400001928E-02 0.  1.
       -1   -1    0    0    0  501  0.00000000000E+00  0.00000000000E+00 -0.11585235459E+04  0.11585235459E+04  0.50400001928E-02 0. -1.
    10030    2    1    2    0    0  0.00000000000E+00  0.00000000000E+00 -0.18090936675E+02  0.22989561551E+04  0.22988849735E+04 0.  0.
        1    1    3    3  502    0  0.50239258651E+03  0.10300091675E+04 -0.97934856817E+02  0.11501775656E+04  0.50400001928E-02 0. -1.
       -1    1    3    3    0  502 -0.50239258651E+03 -0.10300091675E+04  0.79843920141E+02  0.11487785896E+04  0.50400001928E-02 0.  1.
</event>
<event>
 5   0  0.1888779E-06  0.2300243E+04  0.7818609E-02  0.8477825E-01
        2   -1    0    0  501    0  0.00000000000E+00  0.00000000000E+00  0.15257620516E+04  0.15257620516E+04  0.25500000920E-02 0.  1.
       -2   -1    0    0    0  501  0.00000000000E+00  0.00000000000E+00 -0.86696335868E+03  0.86696335869E+03  0.25500000920E-02 0. -1.
    10030    2    1    2    0    0  0.00000000000E+00  0.00000000000E+00  0.65879869292E+03  0.23927254103E+04  0.23002432852E+04 0.  0.
        4    1    3    3  502    0 -0.51278756693E+03  0.24880384494E+03 -0.70972558974E+03  0.91025626485E+03  0.12699999809E+01 0. -1.
       -4    1    3    3    0  502  0.51278756693E+03 -0.24880384494E+03  0.13685242827E+04  0.14824691454E+04  0.12699999809E+01 0.  1.
</event>
<event>
 5   0  0.1825521E-06  0.2299815E+04  0.7818609E-02  0.8477994E-01
        2   -1    0    0  501    0  0.00000000000E+00  0.00000000000E+00  0.19595673043E+04  0.19595673043E+04  0.25500000920E-02 0.  1.
       -2   -1    0    0    0  501  0.00000000000E+00  0.00000000000E+00 -0.67478540137E+03  0.67478540138E+03  0.25500000920E-02 0. -1.
    10030    2    1    2    0    0  0.00000000000E+00  0.00000000000E+00  0.12847819030E+04  0.26343527057E+04  0.22998151317E+04 0.  0.
        5    1    3    3  502    0  0.11071914698E+04  0.28207069413E+02  0.28822850143E+03  0.11444502386E+04  0.46999998093E+01 0.  1.
       -5    1    3    3    0  502 -0.11071914698E+04 -0.28207069413E+02  0.99655340153E+03  0.14899024671E+04  0.46999998093E+01 0. -1.
</event>
<event>
 5   0  0.7607231E-07  0.2300341E+04  0.7818609E-02  0.8477787E-01
       -1   -1    0    0    0  501  0.00000000000E+00  0.00000000000E+00  0.82177404668E+03  0.82177404669E+03  0.50400001928E-02 0. -1.
        1   -1    0    0  501    0  0.00000000000E+00  0.00000000000E+00 -0.16098002394E+04  0.16098002394E+04  0.50400001928E-02 0.  1.
    10030    2    1    2    0    0  0.00000000000E+00  0.00000000000E+00 -0.78802619271E+03  0.24315742861E+04  0.23003408939E+04 0.  0.
        2    1    3    3  502    0  0.18138183471E+03  0.10298301163E+04  0.11231541971E+03  0.10516958648E+04  0.25500000920E-02 0. -1.
       -2    1    3    3    0  502 -0.18138183471E+03 -0.10298301163E+04 -0.90034161242E+03  0.13798784213E+04  0.25500000920E-02 0.  1.
</event>
<event>
 5   0  0.7761069E-07  0.2300162E+04  0.7818609E-02  0.8477857E-01
        1   -1    0    0  501    0  0.00000000000E+00  0.00000000000E+00  0.10423367186E+04  0.10423367186E+04  0.50400001928E-02 0. -1.
       -1   -1    0    0    0  501  0.00000000000E+00  0.00000000000E+00 -0.12689630355E+04  0.12689630355E+04  0.50400001928E-02 0.  1.
    10030    2    1    2    0    0  0.00000000000E+00  0.00000000000E+00 -0.22662631692E+03  0.23112997541E+04  0.23001623999E+04 0.  0.
        1    1    3    3  502    0 -0.55446435082E+03  0.76031674631E+03  0.55108004627E+03  0.10905051529E+04  0.50400001928E-02 0. -1.
       -1    1    3    3    0  502  0.55446435082E+03 -0.76031674631E+03 -0.77770636319E+03  0.12207946012E+04  0.50400001928E-02 0.  1.
</event>
<event>
 5   0  0.1689444E-06  0.2300386E+04  0.7818609E-02  0.8477769E-01
       -2   -1    0    0    0  501  0.00000000000E+00  0.00000000000E+00  0.59589358273E+03  0.59589358273E+03  0.25500000920E-02 0.  1.
        2   -1    0    0  501    0  0.00000000000E+00  0.00000000000E+00 -0.22201012386E+04  0.22201012386E+04  0.25500000920E-02 0. -1.
    10030    2    1    2    0    0  0.00000000000E+00  0.00000000000E+00 -0.16242076558E+04  0.28159948213E+04  0.23003861250E+04 0.  0.
        2    1    3    3  502    0 -0.11330578013E+04 -0.13793795923E+03 -0.63856402583E+03  0.13079032368E+04  0.25500000920E-02 0. -1.
       -2    1    3    3    0  502  0.11330578013E+04  0.13793795923E+03 -0.98564363000E+03  0.15080915845E+04  0.25500000920E-02 0.  1.
</event>
<event>
 5   0  0.8097672E-07  0.2301150E+04  0.7818609E-02  0.8477468E-01
       -1   -1    0    0    0  501  0.00000000000E+00  0.00000000000E+00  0.12570494301E+04  0.12570494301E+04  0.50400001928E-02 0.  1.
        1   -1    0    0  501    0  0.00000000000E+00  0.00000000000E+00 -0.10531193264E+04  0.10531193265E+04  0.50400001928E-02 0. -1.
    10030    2    1    2    0    0  0.00000000000E+00  0.00000000000E+00  0.20393010361E+03  0.23101687565E+04  0.23011501899E+04 0.  0.
        3    1    3    3  502    0  0.47919245947E+03 -0.86621526301E+03 -0.48673638024E+03  0.11031167704E+04  0.10100000352E+00 0. -1.
       -3    1    3    3    0  502 -0.47919245947E+03  0.86621526301E+03  0.69066648385E+03  0.12070519861E+04  0.10100000352E+00 0.  1.
</event>
<event>
 5   0  0.8097672E-07  0.2299808E+04  0.7818609E-02  0.8477997E-01
       -1   -1    0    0    0  501  0.00000000000E+00  0.00000000000E+00  0.10352702629E+04  0.10352702629E+04  0.50400001928E-02 0. -1.
        1   -1    0    0  501    0  0.00000000000E+00  0.00000000000E+00 -0.12772312719E+04  0.12772312720E+04  0.50400001928E-02 0.  1.
    10030    2    1    2    0    0  0.00000000000E+00  0.00000000000E+00 -0.24196100904E+03  0.23125015349E+04  0.22998083005E+04 0.  0.
        3    1    3    3  502    0 -0.32184693823E+03  0.31798665428E+03 -0.11839711125E+04  0.12674733012E+04  0.10100000352E+00 0.  1.
       -3    1    3    3    0  502  0.32184693823E+03 -0.31798665428E+03  0.94201010343E+03  0.10450282336E+04  0.10100000352E+00 0. -1.
</event>
<event>
 5   0  0.1689444E-06  0.2299346E+04  0.7818609E-02  0.8478179E-01
        2   -1    0    0  501    0  0.00000000000E+00  0.00000000000E+00  0.20396703612E+04  0.20396703612E+04  0.25500000920E-02 0. -1.
       -2   -1    0    0    0  501  0.00000000000E+00  0.00000000000E+00 -0.64802012147E+03  0.64802012147E+03  0.25500000920E-02 0.  1.
    10030    2    1    2    0    0  0.00000000000E+00  0.00000000000E+00  0.13916502397E+04  0.26876904826E+04  0.22993455027E+04 0.  0.
        2    1    3    3  502    0 -0.19377637007E+03  0.36216153673E+03  0.19509781370E+04  0.19937467119E+04  0.25500000920E-02 0. -1.
       -2    1    3    3    0  502  0.19377637007E+03 -0.36216153673E+03 -0.55932789726E+03  0.69394377074E+03  0.25500000920E-02 0.  1.
</event>
<event>
 5   0  0.7932912E-07  0.2300400E+04  0.7818609E-02  0.8477764E-01
       -1   -1    0    0    0  501  0.00000000000E+00  0.00000000000E+00  0.24944946698E+04  0.24944946698E+04  0.50400001928E-02 0.  1.
        1   -1    0    0  501    0  0.00000000000E+00  0.00000000000E+00 -0.53035169598E+03  0.53035169601E+03  0.50400001928E-02 0. -1.
    10030    2    1    2    0    0  0.00000000000E+00  0.00000000000E+00  0.19641429739E+04  0.30248463659E+04  0.23003995121E+04 0.  0.
        5    1    3    3  502    0 -0.69524651784E+03 -0.77921993979E+03  0.34819449013E+03  0.11008237498E+04  0.46999998093E+01 0. -1.
       -5    1    3    3    0  502  0.69524651784E+03  0.77921993979E+03  0.16159484837E+04  0.19240226161E+04  0.46999998093E+01 0.  1.
</event>
<event>
 5   0  0.1828646E-06  0.2299208E+04  0.7818609E-02  0.8478233E-01
        2   -1    0    0  501    0  0.00000000000E+00  0.00000000000E+00  0.23345383140E+04  0.23345383140E+04  0.25500000920E-02 0. -1.
       -2   -1    0    0    0  501  0.00000000000E+00  0.00000000000E+00 -0.56610312460E+03  0.56610312461E+03  0.25500000920E-02 0.  1.
    10030    2    1    2    0    0  0.00000000000E+00  0.00000000000E+00  0.17684351894E+04  0.29006414386E+04  0.22992080672E+04 0.  0.
        3    1    3    3  502    0  0.11194262454E+04  0.10341717113E+03  0.58096710488E+03  0.12654378757E+04  0.10100000352E+00 0. -1.
       -3    1    3    3    0  502 -0.11194262454E+04 -0.10341717113E+03  0.11874680845E+04  0.16352035629E+04  0.10100000352E+00 0.  1.
</event>
<event>
 5   0  0.1828646E-06  0.2300093E+04  0.7818609E-02  0.8477885E-01
       -2   -1    0    0    0  501  0.00000000000E+00  0.00000000000E+00  0.50864259439E+03  0.50864259440E+03  0.25500000920E-02 0.  1.
        2   -1    0    0  501    0  0.00000000000E+00  0.00000000000E+00 -0.26002670300E+04  0.26002670300E+04  0.25500000920E-02 0. -1.
    10030    2    1    2    0    0  0.00000000000E+00  0.00000000000E+00 -0.20916244356E+04  0.31089096244E+04  0.23000926662E+04 0.  0.
        3    1    3    3  502    0  0.61323757949E+03 -0.61056611938E+03 -0.21986351100E+02  0.86564122180E+03  0.10100000352E+00 0.  1.
       -3    1    3    3    0  502 -0.61323757949E+03  0.61056611938E+03 -0.20696380845E+04  0.22432684026E+04  0.10100000352E+00 0. -1.
</event>
<event>
 5   0  0.1689444E-06  0.2300155E+04  0.7818609E-02  0.8477860E-01
       -2   -1    0    0    0  501  0.00000000000E+00  0.00000000000E+00  0.77421599371E+03  0.77421599371E+03  0.25500000920E-02 0. -1.
        2   -1    0    0  501    0  0.00000000000E+00  0.00000000000E+00 -0.17084092829E+04  0.17084092829E+04  0.25500000920E-02 0.  1.
    10030    2    1    2    0    0  0.00000000000E+00  0.00000000000E+00 -0.93419328919E+03  0.24826252766E+04  0.23001545953E+04 0.  0.
        2    1    3    3  502    0 -0.32931405012E+03  0.91252394832E+03  0.19958507114E+03  0.99044530414E+03  0.25500000920E-02 0. -1.
       -2    1    3    3    0  502  0.32931405012E+03 -0.91252394832E+03 -0.11337783603E+04  0.14921799725E+04  0.25500000920E-02 0.  1.
</event>
<event>
 5   0  0.8108242E-07  0.2300469E+04  0.7818609E-02  0.8477736E-01
       -1   -1    0    0    0  501  0.00000000000E+00  0.00000000000E+00  0.26408684694E+04  0.26408684694E+04  0.50400001928E-02 0. -1.
        1   -1    0    0  501    0  0.00000000000E+00  0.00000000000E+00 -0.50098662824E+03  0.50098662827E+03  0.50400001928E-02 0.  1.
    10030    2    1    2    0    0  0.00000000000E+00  0.00000000000E+00  0.21398818412E+04  0.31418550977E+04  0.23004693349E+04 0.  0.
        4    1    3    3  502    0 -0.17763287179E+03  0.22949999738E+03 -0.45016146818E+03  0.53560306783E+03  0.12699999809E+01 0.  1.
       -4    1    3    3    0  502  0.17763287179E+03 -0.22949999738E+03  0.25900433094E+04  0.26062520299E+04  0.12699999809E+01 0. -1.
</event>
<event>
 5   0  0.1744876E-06  0.2300950E+04  0.7818609E-02  0.8477547E-01
        2   -1    0    0  501    0  0.00000000000E+00  0.00000000000E+00  0.13487863801E+04  0.13487863801E+04  0.25500000920E-02 0. -1.
       -2   -1    0    0    0  501  0.00000000000E+00  0.00000000000E+00 -0.98132086036E+03  0.98132086036E+03  0.25500000920E-02 0.  1.
    10030    2    1    2    0    0  0.00000000000E+00  0.00000000000E+00  0.36746551978E+03  0.23301072405E+04  0.23009495527E+04 0.  0.
        1    1    3    3  502    0  0.10954471404E+04 -0.32917831414E+03  0.58761437313E+02  0.11453452346E+04  0.50400001928E-02 0.  1.
       -1    1    3    3    0  502 -0.10954471404E+04  0.32917831414E+03  0.30870408247E+03  0.11847620059E+04  0.50400001928E-02 0. -1.
</event>
<event>
 5   0  0.1689444E-06  0.2299983E+04  0.7818609E-02  0.8477928E-01
        2   -1    0    0  501    0  0.00000000000E+00  0.00000000000E+00  0.12114144905E+04  0.12114144905E+04  0.25500000920E-02 0.  1.
       -2   -1    0    0    0  501  0.00000000000E+00  0.00000000000E+00 -0.10916825136E+04  0.10916825136E+04  0.25500000920E-02 0. -1.
    10030    2    1    2    0    0  0.00000000000E+00  0.00000000000E+00  0.11973197683E+03  0.23030970041E+04  0.22999826225E+04 0.  0.
        2    1    3    3  502    0 -0.14759314663E+03 -0.10972246131E+04  0.37140529818E+03  0.11677446142E+04  0.25500000920E-02 0.  1.
       -2    1    3    3    0  502  0.14759314663E+03  0.10972246131E+04 -0.25167332136E+03  0.11353523899E+04  0.25500000920E-02 0. -1.
</event>
<event>
 5   0  0.1888779E-06  0.2299579E+04  0.7818609E-02  0.8478087E-01
       -2   -1    0    0    0  501  0.00000000000E+00  0.00000000000E+00  0.53509049230E+03  0.53509049230E+03  0.25500000920E-02 0. -1.
        2   -1    0    0  501    0  0.00000000000E+00  0.00000000000E+00 -0.24706404053E+04  0.24706404053E+04  0.25500000920E-02 0.  1.
    10030    2    1    2    0    0  0.00000000000E+00  0.00000000000E+00 -0.19355499130E+04  0.30057308976E+04  0.22995792578E+04 0.  0.
        4    1    3    3  502    0 -0.87173051294E+03  0.39745408108E+03 -0.13684836364E+03  0.96778764266E+03  0.12699999809E+01 0. -1.
       -4    1    3    3    0  502  0.87173051294E+03 -0.39745408108E+03 -0.17987015493E+04  0.20379432549E+04  0.12699999809E+01 0.  1.
</event>
<event>
 5   0  0.1828646E-06  0.2299144E+04  0.7818609E-02  0.8478259E-01
       -2   -1    0    0    0  501  0.00000000000E+00  0.00000000000E+00  0.11211256246E+04  0.11211256246E+04  0.25500000920E-02 0.  1.
        2   -1    0    0  501    0  0.00000000000E+00  0.00000000000E+00 -0.11787404817E+04  0.11787404817E+04  0.25500000920E-02 0. -1.
    10030    2    1    2    0    0  0.00000000000E+00  0.00000000000E+00 -0.57614857172E+02  0.22998661063E+04  0.22991443267E+04 0.  0.
        3    1    3    3  502    0 -0.39433212230E+03  0.73045652383E+03 -0.82432534237E+03  0.11698618876E+04  0.10100000352E+00 0. -1.
       -3    1    3    3    0  502  0.39433212230E+03 -0.73045652383E+03  0.76671048520E+03  0.11300042187E+04  0.10100000352E+00 0.  1.
</event>
<event>
 5   0  0.7607231E-07  0.2300810E+04  0.7818609E-02  0.8477602E-01
       -1   -1    0    0    0  501  0.00000000000E+00  0.00000000000E+00  0.15529926945E+04  0.15529926945E+04  0.50400001928E-02 0.  1.
        1   -1    0    0  501    0  0.00000000000E+00  0.00000000000E+00 -0.85218183560E+03  0.85218183561E+03  0.50400001928E-02 0. -1.
    10030    2    1    2    0    0  0.00000000000E+00  0.00000000000E+00  0.70081085894E+03  0.24051745302E+04  0.23008104356E+04 0.  0.
        2    1    3    3  502    0  0.94484281304E+03  0.58922670995E+03  0.65250553812E+03  0.12906120774E+04  0.25500000920E-02 0.  1.
       -2    1    3    3    0  502 -0.94484281304E+03 -0.58922670995E+03  0.48305320817E+02  0.11145624528E+04  0.25500000920E-02 0. -1.
</event>
<event>
 5   0  0.1744876E-06  0.2299322E+04  0.7818609E-02  0.8478188E-01
        2   -1    0    0  501    0  0.00000000000E+00  0.00000000000E+00  0.16037690534E+04  0.16037690534E+04  0.25500000920E-02 0.  1.
       -2   -1    0    0    0  501  0.00000000000E+00  0.00000000000E+00 -0.82413404440E+03  0.82413404441E+03  0.25500000920E-02 0. -1.
    10030    2    1    2    0    0  0.00000000000E+00  0.00000000000E+00  0.77963500897E+03  0.24279030978E+04  0.22993222273E+04 0.  0.
        1    1    3    3  502    0 -0.11186629959E+04  0.14142281374E+03  0.15296760953E+03  0.11378956016E+04  0.50400001928E-02 0. -1.
       -1    1    3    3    0  502  0.11186629959E+04 -0.14142281374E+03  0.62666739944E+03  0.12900074962E+04  0.50400001928E-02 0.  1.
</event>
<event>
 5   0  0.1888779E-06  0.2301459E+04  0.7818609E-02  0.8477346E-01
        2   -1    0    0  501    0  0.00000000000E+00  0.00000000000E+00  0.10527836236E+04  0.10527836236E+04  0.25500000920E-02 0.  1.
       -2   -1    0    0    0  501  0.00000000000E+00  0.00000000000E+00 -0.12577881430E+04  0.12577881430E+04  0.25500000920E-02 0. -1.
    10030    2    1    2    0    0  0.00000000000E+00  0.00000000000E+00 -0.20500451937E+03  0.23105717667E+04  0.23014593275E+04 0.  0.
        4    1    3    3  502    0  0.46322705796E+03 -0.99498913714E+03 -0.44969583622E+03  0.11860904891E+04  0.12699999809E+01 0. -1.
       -4    1    3    3    0  502 -0.46322705796E+03  0.99498913714E+03  0.24469131684E+03  0.11244812776E+04  0.12699999809E+01 0.  1.
</event>
<event>
 5   0  0.7761069E-07  0.2299540E+04  0.7818609E-02  0.8478103E-01
        1   -1    0    0  501    0  0.00000000000E+00  0.00000000000E+00  0.14620070450E+04  0.14620070450E+04  0.50400001928E-02 0. -1.
       -1   -1    0    0    0  501  0.00000000000E+00  0.00000000000E+00 -0.90421624361E+03  0.90421624363E+03  0.50400001928E-02 0.  1.
    10030    2    1    2    0    0  0.00000000000E+00  0.00000000000E+00  0.55779080138E+03  0.23662232886E+04  0.22995395351E+04 0.  0.
        1    1    3    3  502    0 -0.92027592481E+03  0.39916744101E+02 -0.42914949962E+03  0.10162039251E+04  0.50400001928E-02 0.  1.
       -1    1    3    3    0  502  0.92027592481E+03 -0.39916744101E+02  0.98694030099E+03  0.13500193636E+04  0.50400001928E-02 0. -1.
</event>
<event>
 5   0  0.7607231E-07  0.2300401E+04  0.7818609E-02  0.8477763E-01
       -1   -1    0    0    0  501  0.00000000000E+00  0.00000000000E+00  0.87589731239E+03  0.87589731240E+03  0.50400001928E-02 0.  1.
        1   -1    0    0  501    0  0.00000000000E+00  0.00000000000E+00 -0.15104068275E+04  0.15104068275E+04  0.50400001928E-02 0. -1.
    10030    2    1    2    0    0  0.00000000000E+00  0.00000000000E+00 -0.63450951509E+03  0.23863041399E+04  0.23004010788E+04 0.  0.
        2    1    3    3  502    0 -0.89499148088E+03 -0.14618027379E+02  0.43203259381E+03  0.99391931246E+03  0.25500000920E-02 0.  1.
       -2    1    3    3    0  502  0.89499148088E+03  0.14618027379E+02 -0.10665421089E+04  0.13923848274E+04  0.25500000920E-02 0. -1.
</event>
<event>
 5   0  0.7932912E-07  0.2302422E+04  0.7818609E-02  0.8476967E-01
        1   -1    0    0  501    0  0.00000000000E+00  0.00000000000E+00  0.11586672345E+04  0.11586672345E+04  0.50400001928E-02 0.  1.
       -1   -1    0    0    0  501  0.00000000000E+00  0.00000000000E+00 -0.11438024815E+04  0.11438024815E+04  0.50400001928E-02 0. -1.
    10030    2    1    2    0    0  0.00000000000E+00  0.00000000000E+00  0.14864753006E+02  0.23024697160E+04  0.23024217320E+04 0.  0.
        5    1    3    3  502    0 -0.54811311927E+02  0.47510111037E+03 -0.10397470392E+04  0.11444742638E+04  0.46999998093E+01 0. -1.
       -5    1    3    3    0  502  0.54811311927E+02 -0.47510111037E+03  0.10546117922E+04  0.11579954522E+04  0.46999998093E+01 0.  1.
</event>
<event>
 5   0  0.6319125E-07  0.2301375E+04  0.7818609E-02  0.8477379E-01
        3   -1    0    0  501    0  0.00000000000E+00  0.00000000000E+00  0.81923973024E+03  0.81923973646E+03  0.10100000352E+00 0. -1.
       -3   -1    0    0    0  501  0.00000000000E+00  0.00000000000E+00 -0.16162323559E+04  0.16162323591E+04  0.10100000352E+00 0.  1.
    10030    2    1    2    0    0  0.00000000000E+00  0.00000000000E+00 -0.79699262570E+03  0.24354720956E+04  0.23013750418E+04 0.  0.
        2    1    3    3  502    0  0.85296605170E+03 -0.44650643650E+03 -0.10654258923E+04  0.14359844759E+04  0.25500000920E-02 0.  1.
       -2    1    3    3    0  502 -0.85296605170E+03  0.44650643650E+03  0.26843326656E+03  0.99948761963E+03  0.25500000920E-02 0. -1.
</event>
<event>
 5   0  0.8097672E-07  0.2302848E+04  0.7818609E-02  0.8476799E-01
        1   -1    0    0  501    0  0.00000000000E+00  0.00000000000E+00  0.13257207829E+04  0.13257207829E+04  0.50400001928E-02 0. -1.
       -1   -1    0    0    0  501  0.00000000000E+00  0.00000000000E+00 -0.10000427568E+04  0.10000427569E+04  0.50400001928E-02 0.  1.
    10030    2    1    2    0    0  0.00000000000E+00  0.00000000000E+00  0.32567802610E+03  0.23257635398E+04  0.23028482074E+04 0.  0.
        3    1    3    3  502    0  0.62209539452E+02  0.78496001521E+03 -0.68560700043E+03  0.10440733794E+04  0.10100000352E+00 0.  1.
       -3    1    3    3    0  502 -0.62209539452E+02 -0.78496001521E+03  0.10112850265E+04  0.12816901604E+04  0.10100000352E+00 0. -1.
</event>
<event>
 5   0  0.1888779E-06  0.2299053E+04  0.7818609E-02  0.8478295E-01
       -2   -1    0    0    0  501  0.00000000000E+00  0.00000000000E+00  0.86922500144E+03  0.86922500145E+03  0.25500000920E-02 0.  1.
        2   -1    0    0  501    0  0.00000000000E+00  0.00000000000E+00 -0.15202174105E+04  0.15202174105E+04  0.25500000920E-02 0. -1.
    10030    2    1    2    0    0  0.00000000000E+00  0.00000000000E+00 -0.65099240901E+03  0.23894424119E+04  0.22990528318E+04 0.  0.
        4    1    3    3  502    0  0.65782999606E+02 -0.11242885855E+04 -0.86098743443E+02  0.11294984874E+04  0.12699999809E+01 0.  1.
       -4    1    3    3    0  502 -0.65782999606E+02  0.11242885855E+04 -0.56489366556E+03  0.12599439245E+04  0.12699999809E+01 0. -1.
</event>
<event>
 5   0  0.7761069E-07  0.2299211E+04  0.7818609E-02  0.8478232E-01
       -1   -1    0    0    0  501  0.00000000000E+00  0.00000000000E+00  0.18988736390E+04  0.18988736391E+04  0.50400001928E-02 0. -1.
        1   -1    0    0  501    0  0.00000000000E+00  0.00000000000E+00 -0.69598777586E+03  0.69598777588E+03  0.50400001928E-02 0.  1.
    10030    2    1    2    0    0  0.00000000000E+00  0.00000000000E+00  0.12028858632E+04  0.25948614149E+04  0.22992110305E+04 0.  0.
        1    1    3    3  502    0 -0.69495249387E+03  0.12716485856E+02 -0.43198372152E+03  0.81837070661E+03  0.50400001928E-02 0.  1.
       -1    1    3    3    0  502  0.69495249387E+03 -0.12716485856E+02  0.16348695847E+04  0.17764907083E+04  0.50400001928E-02 0. -1.
</event>
<event>
 5   0  0.1825521E-06  0.2300453E+04  0.7818609E-02  0.8477743E-01
       -2   -1    0    0    0  501  0.00000000000E+00  0.00000000000E+00  0.10514235060E+04  0.10514235060E+04  0.25500000920E-02 0.  1.
        2   -1    0    0  501    0  0.00000000000E+00  0.00000000000E+00 -0.12583139057E+04  0.12583139057E+04  0.25500000920E-02 0. -1.
    10030    2    1    2    0    0  0.00000000000E+00  0.00000000000E+00 -0.20689039974E+03  0.23097374117E+04  0.23004528409E+04 0.  0.
        5    1    3    3  502    0 -0.46655308110E+03 -0.59014909907E+03  0.77015322134E+03  0.10766177646E+04  0.46999998093E+01 0.  1.
       -5    1    3    3    0  502  0.46655308110E+03  0.59014909907E+03 -0.97704362108E+03  0.12331196471E+04  0.46999998093E+01 0. -1.
</event>
<event>
 5   0  0.1825521E-06  0.2298275E+04  0.7818609E-02  0.8478602E-01
       -2   -1    0    0    0  501  0.00000000000E+00  0.00000000000E+00  0.86569306065E+03  0.86569306066E+03  0.25500000920E-02 0.  1.
        2   -1    0    0  501    0  0.00000000000E+00  0.00000000000E+00 -0.15253871343E+04  0.15253871343E+04  0.25500000920E-02 0. -1.
    10030    2    1    2    0    0  0.00000000000E+00  0.00000000000E+00 -0.65969407369E+03  0.23910801950E+04  0.22982750549E+04 0.  0.
        5    1    3    3  502    0  0.36779492717E+03  0.10879379058E+04 -0.28806346883E+03  0.11840120976E+04  0.46999998093E+01 0.  1.
       -5    1    3    3    0  502 -0.36779492717E+03 -0.10879379058E+04 -0.37163060486E+03  0.12070680974E+04  0.46999998093E+01 0. -1.
</event>
<event>
 5   0  0.1825521E-06  0.2298495E+04  0.7818609E-02  0.8478515E-01
        2   -1    0    0  501    0  0.00000000000E+00  0.00000000000E+00  0.18125076203E+04  0.18125076203E+04  0.25500000920E-02 0.  1.
       -2   -1    0    0    0  501  0.00000000000E+00  0.00000000000E+00 -0.72869748037E+03  0.72869748037E+03  0.25500000920E-02 0. -1.
    10030    2    1    2    0    0  0.00000000000E+00  0.00000000000E+00  0.10838101399E+04  0.25412051006E+04  0.22984949302E+04 0.  0.
        5    1    3    3  502    0 -0.53982901406E+03  0.21109592484E+03 -0.55523922149E+03  0.80267648339E+03  0.46999998093E+01 0. -1.
       -5    1    3    3    0  502  0.53982901406E+03 -0.21109592484E+03  0.16390493614E+04  0.17385286172E+04  0.46999998093E+01 0.  1.
</event>
<event>
 5   0  0.1689444E-06  0.2299774E+04  0.7818609E-02  0.8478010E-01
       -2   -1    0    0    0  501  0.00000000000E+00  0.00000000000E+00  0.14480722597E+04  0.14480722597E+04  0.25500000920E-02 0.  1.
        2   -1    0    0  501    0  0.00000000000E+00  0.00000000000E+00 -0.91310406937E+03  0.91310406938E+03  0.25500000920E-02 0. -1.
    10030    2    1    2    0    0  0.00000000000E+00  0.00000000000E+00  0.53496819028E+03  0.23611763290E+04  0.22997744872E+04 0.  0.
        2    1    3    3  502    0  0.37373703356E+03  0.10450501242E+04  0.57623137057E+03  0.12505405731E+04  0.25500000920E-02 0.  1.
       -2    1    3    3    0  502 -0.37373703356E+03 -0.10450501242E+04 -0.41263180282E+02  0.11106357560E+04  0.25500000920E-02 0. -1.
</event>
<event>
 5   0  0.8108242E-07  0.2303594E+04  0.7818609E-02  0.8476506E-01
        1   -1    0    0  501    0  0.00000000000E+00  0.00000000000E+00  0.17691753301E+04  0.17691753301E+04  0.50400001928E-02 0.  1.
       -1   -1    0    0    0  501  0.00000000000E+00  0.00000000000E+00 -0.74986111462E+03  0.74986111464E+03  0.50400001928E-02 0. -1.
    10030    2    1    2    0    0  0.00000000000E+00  0.00000000000E+00  0.10193142155E+04  0.25190364447E+04  0.23035935275E+04 0.  0.
        4    1    3    3  502    0 -0.82914646990E+03 -0.71825776869E+03  0.12574414242E+03  0.11041699566E+04  0.12699999809E+01 0. -1.
       -4    1    3    3    0  502  0.82914646990E+03  0.71825776869E+03  0.89357007304E+03  0.14148664881E+04  0.12699999809E+01 0.  1.
</event>
<event>
 5   0  0.1744876E-06  0.2299140E+04  0.7818609E-02  0.8478260E-01
        2   -1    0    0  501    0  0.00000000000E+00  0.00000000000E+00  0.12328252141E+04  0.12328252141E+04  0.25500000920E-02 0. -1.
       -2   -1    0    0    0  501  0.00000000000E+00  0.00000000000E+00 -0.10719367179E+04  0.10719367179E+04  0.25500000920E-02 0.  1.
    10030    2    1    2    0    0  0.00000000000E+00  0.00000000000E+00  0.16088849624E+03  0.23047619320E+04  0.22991395032E+04 0.  0.
        1    1    3    3  502    0 -0.14012902943E+03 -0.50903306384E+02 -0.10622043221E+04  0.10726161072E+04  0.50400001928E-02 0.  1.
       -1    1    3    3    0  502  0.14012902943E+03  0.50903306384E+02  0.12230928183E+04  0.12321458249E+04  0.50400001928E-02 0. -1.
</event>
<event>
 5   0  0.1825521E-06  0.2296006E+04  0.7818609E-02  0.8479497E-01
        2   -1    0    0  501    0  0.00000000000E+00  0.00000000000E+00  0.24451054770E+04  0.24451054770E+04  0.25500000920E-02 0. -1.
       -2   -1    0    0    0  501  0.00000000000E+00  0.00000000000E+00 -0.53899980828E+03  0.53899980829E+03  0.25500000920E-02 0.  1.
    10030    2    1    2    0    0  0.00000000000E+00  0.00000000000E+00  0.19061056687E+04  0.29841052853E+04  0.22960064315E+04 0.  0.
        5    1    3    3  502    0  0.87166275193E+03  0.43897221879E+03  0.16741322569E+03  0.99022312643E+03  0.46999998093E+01 0.  1.
       -5    1    3    3    0  502 -0.87166275193E+03 -0.43897221879E+03  0.17386924430E+04  0.19938821589E+04  0.46999998093E+01 0. -1.
</event>
<event>
 5   0  0.1888779E-06  0.2299332E+04  0.7818609E-02  0.8478185E-01
       -2   -1    0    0    0  501  0.00000000000E+00  0.00000000000E+00  0.56716525850E+03  0.56716525850E+03  0.25500000920E-02 0. -1.
        2   -1    0    0  501    0  0.00000000000E+00  0.00000000000E+00 -0.23304176519E+04  0.23304176519E+04  0.25500000920E-02 0.  1.
    10030    2    1    2    0    0  0.00000000000E+00  0.00000000000E+00 -0.17632523934E+04  0.28975829104E+04  0.22993320160E+04 0.  0.
        4    1    3    3  502    0  0.49361335728E+03  0.10357435755E+04 -0.78978461466E+03  0.13929035326E+04  0.12699999809E+01 0. -1.
       -4    1    3    3    0  502 -0.49361335728E+03 -0.10357435755E+04 -0.97346777871E+03  0.15046793777E+04  0.12699999809E+01 0.  1.
</event>
<event>
 5   0  0.1828646E-06  0.2299882E+04  0.7818609E-02  0.8477968E-01
        2   -1    0    0  501    0  0.00000000000E+00  0.00000000000E+00  0.13941083232E+04  0.13941083232E+04  0.25500000920E-02 0.  1.
       -2   -1    0    0    0  501  0.00000000000E+00  0.00000000000E+00 -0.94853764143E+03  0.94853764143E+03  0.25500000920E-02 0. -1.
    10030    2    1    2    0    0  0.00000000000E+00  0.00000000000E+00  0.44557068175E+03  0.23426459646E+04  0.22998819281E+04 0.  0.
        3    1    3    3  502    0  0.78976598297E+03  0.21484622801E+02  0.10738889476E+04  0.13332026773E+04  0.10100000352E+00 0.  1.
       -3    1    3    3    0  502 -0.78976598297E+03 -0.21484622801E+02 -0.62831826583E+03  0.10094432873E+04  0.10100000352E+00 0. -1.
</event>
<event>
 5   0  0.1825521E-06  0.2301360E+04  0.7818609E-02  0.8477385E-01
       -2   -1    0    0    0  501  0.00000000000E+00  0.00000000000E+00  0.52404696493E+03  0.52404696493E+03  0.25500000920E-02 0.  1.
        2   -1    0    0  501    0  0.00000000000E+00  0.00000000000E+00 -0.25266150032E+04  0.25266150032E+04  0.25500000920E-02 0. -1.
    10030    2    1    2    0    0  0.00000000000E+00  0.00000000000E+00 -0.20025680383E+04  0.30506619682E+04  0.23013604012E+04 0.  0.
        5    1    3    3  502    0 -0.20806248844E+03  0.26084074084E+03 -0.24610687486E+04  0.24835880025E+04  0.46999998093E+01 0. -1.
       -5    1    3    3    0  502  0.20806248844E+03 -0.26084074084E+03  0.45850071027E+03  0.56707396563E+03  0.46999998093E+01 0.  1.
</event>
<event>
 5   0  0.8108242E-07  0.2302541E+04  0.7818609E-02  0.8476920E-01
       -1   -1    0    0    0  501  0.00000000000E+00  0.00000000000E+00  0.61276682942E+03  0.61276682944E+03  0.50400001928E-02 0.  1.
        1   -1    0    0  501    0  0.00000000000E+00  0.00000000000E+00 -0.21630148526E+04  0.21630148526E+04  0.50400001928E-02 0. -1.
    10030    2    1    2    0    0  0.00000000000E+00  0.00000000000E+00 -0.15502480232E+04  0.27757816821E+04  0.23025409905E+04 0.  0.
        4    1    3    3  502    0  0.51980972757E+03 -0.27842246150E+03  0.41688886563E+03  0.72216283422E+03  0.12699999809E+01 0.  1.
       -4    1    3    3    0  502 -0.51980972757E+03  0.27842246150E+03 -0.19671368888E+04  0.20536188478E+04  0.12699999809E+01 0. -1.
</event>
<event>
 5   0  0.8097672E-07  0.2299414E+04  0.7818609E-02  0.8478152E-01
        1   -1    0    0  501    0  0.00000000000E+00  0.00000000000E+00  0.12263118518E+04  0.12263118518E+04  0.50400001928E-02 0. -1.
       -1   -1    0    0    0  501  0.00000000000E+00  0.00000000000E+00 -0.10778872965E+04  0.10778872965E+04  0.50400001928E-02 0.  1.
    10030    2    1    2    0    0  0.00000000000E+00  0.00000000000E+00  0.14842455527E+03  0.23041991483E+04  0.22994138093E+04 0.  0.
        3    1    3    3  502    0  0.79268843120E+03  0.82980404779E+03  0.40934486770E+01  0.11475828829E+04  0.10100000352E+00 0. -1.
       -3    1    3    3    0  502 -0.79268843120E+03 -0.82980404779E+03  0.14433110659E+03  0.11566162653E+04  0.10100000352E+00 0.  1.
</event>
<event>
 5   0  0.7932912E-07  0.2300225E+04  0.7818609E-02  0.8477832E-01
       -1   -1    0    0    0  501  0.00000000000E+00  0.00000000000E+00  0.67516550150E+03  0.67516550152E+03  0.50400001928E-02 0. -1.
        1   -1    0    0  501    0  0.00000000000E+00  0.00000000000E+00 -0.19591628728E+04  0.19591628728E+04  0.50400001928E-02 0.  1.
    10030    2    1    2    0    0  0.00000000000E+00  0.00000000000E+00 -0.12839973713E+04  0.26343283743E+04  0.23002253660E+04 0.  0.
        5    1    3    3  502    0 -0.91259697663E+03  0.67269764364E+03 -0.42057237125E+03  0.12092388395E+04  0.46999998093E+01 0.  1.
       -5    1    3    3    0  502  0.91259697663E+03 -0.67269764364E+03 -0.86342500000E+03  0.14250895348E+04  0.46999998093E+01 0. -1.
</event>
<event>
 5   0  0.1744876E-06  0.2300212E+04  0.7818609E-02  0.8477837E-01
        2   -1    0    0  501    0  0.00000000000E+00  0.00000000000E+00  0.27500861595E+04  0.27500861595E+04  0.25500000920E-02 0. -1.
       -2   -1    0    0    0  501  0.00000000000E+00  0.00000000000E+00 -0.48098283758E+03  0.48098283758E+03  0.25500000920E-02 0.  1.
    10030    2    1    2    0    0  0.00000000000E+00  0.00000000000E+00  0.22691033219E+04  0.32310689971E+04  0.23002123768E+04 0.  0.
        1    1    3    3  502    0 -0.25817706550E+03 -0.10240857870E+04  0.17741640344E+04  0.20647191376E+04  0.50400001928E-02 0. -1.
       -1    1    3    3    0  502  0.25817706550E+03  0.10240857870E+04  0.49493928754E+03  0.11663498595E+04  0.50400001928E-02 0.  1.
</event>
<event>
 5   0  0.1825521E-06  0.2298988E+04  0.7818609E-02  0.8478320E-01
       -2   -1    0    0    0  501  0.00000000000E+00  0.00000000000E+00  0.13489608216E+04  0.13489608216E+04  0.25500000920E-02 0.  1.
        2   -1    0    0  501    0  0.00000000000E+00  0.00000000000E+00 -0.97952183451E+03  0.97952183452E+03  0.25500000920E-02 0. -1.
    10030    2    1    2    0    0  0.00000000000E+00  0.00000000000E+00  0.36943898709E+03  0.23284826561E+04  0.22989881067E+04 0.  0.
        5    1    3    3  502    0  0.37224522231E+03  0.59181849525E+03  0.11088389297E+04  0.13108628833E+04  0.46999998093E+01 0.  1.
       -5    1    3    3    0  502 -0.37224522231E+03 -0.59181849525E+03 -0.73939994261E+03  0.10176197728E+04  0.46999998093E+01 0. -1.
</event>
<event>
 5   0  0.7932912E-07  0.2301491E+04  0.7818609E-02  0.8477334E-01
       -1   -1    0    0    0  501  0.00000000000E+00  0.00000000000E+00  0.77019760022E+03  0.77019760023E+03  0.50400001928E-02 0. -1.
        1   -1    0    0  501    0  0.00000000000E+00  0.00000000000E+00 -0.17193182442E+04  0.17193182442E+04  0.50400001928E-02 0.  1.
    10030    2    1    2    0    0  0.00000000000E+00  0.00000000000E+00 -0.94912064394E+03  0.24895158444E+04  0.23014906349E+04 0.  0.
        5    1    3    3  502    0 -0.59594677336E+03  0.94926599462E+03 -0.19262470177E+03  0.11372707905E+04  0.46999998093E+01 0. -1.
       -5    1    3    3    0  502  0.59594677336E+03 -0.94926599462E+03 -0.75649594217E+03  0.13522450539E+04  0.46999998093E+01 0.  1.
</event>
<event>
 5   0  0.7761069E-07  0.2299909E+04  0.7818609E-02  0.8477957E-01
       -1   -1    0    0    0  501  0.00000000000E+00  0.00000000000E+00  0.64822679778E+03  0.64822679780E+03  0.50400001928E-02 0. -1.
        1   -1    0    0  501    0  0.00000000000E+00  0.00000000000E+00 -0.20400190421E+04  0.20400190421E+04  0.50400001928E-02 0.  1.
    10030    2    1    2    0    0  0.00000000000E+00  0.00000000000E+00 -0.13917922443E+04  0.26882458399E+04  0.22999087035E+04 0.  0.
        1    1    3    3  502    0  0.36302200508E+03  0.99564490381E+03 -0.17408490789E+03  0.10739642945E+04  0.50400001928E-02 0. -1.
       -1    1    3    3    0  502 -0.36302200508E+03 -0.99564490381E+03 -0.12177073365E+04  0.16142815454E+04  0.50400001928E-02 0.  1.
</event>
<event>
 5   0  0.1689444E-06  0.2301869E+04  0.7818609E-02  0.8477184E-01
       -2   -1    0    0    0  501  0.00000000000E+00  0.00000000000E+00  0.91704228229E+03  0.91704228229E+03  0.25500000920E-02 0.  1.
        2   -1    0    0  501    0  0.00000000000E+00  0.00000000000E+00 -0.14444815579E+04  0.14444815579E+04  0.25500000920E-02 0. -1.
    10030    2    1    2    0    0  0.00000000000E+00  0.00000000000E+00 -0.52743927560E+03  0.23615238402E+04  0.23018693834E+04 0.  0.
        2    1    3    3  502    0 -0.11246823779E+04 -0.16071192757E+03 -0.74795410675E+02  0.11385662599E+04  0.25500000920E-02 0.  1.
       -2    1    3    3    0  502  0.11246823779E+04  0.16071192757E+03 -0.45264386492E+03  0.12229575803E+04  0.25500000920E-02 0. -1.
</event>
<event>
 5   0  0.7761069E-07  0.2300654E+04  0.7818609E-02  0.8477663E-01
       -1   -1    0    0    0  501  0.00000000000E+00  0.00000000000E+00  0.23833023362E+04  0.23833023362E+04  0.50400001928E-02 0. -1.
        1   -1    0    0  501    0  0.00000000000E+00  0.00000000000E+00 -0.55521787328E+03  0.55521787330E+03  0.50400001928E-02 0.  1.
    10030    2    1    2    0    0  0.00000000000E+00  0.00000000000E+00  0.18280844629E+04  0.29385202095E+04  0.23006538675E+04 0.  0.
        1    1    3    3  502    0  0.10265748321E+04 -0.35560894099E+03  0.13969363672E+04  0.17696736476E+04  0.50400001928E-02 0.  1.
       -1    1    3    3    0  502 -0.10265748321E+04  0.35560894099E+03  0.43114809570E+03  0.11688465619E+04  0.50400001928E-02 0. -1.
</event>
<event>
 5   0  0.1888779E-06  0.2299682E+04  0.7818609E-02  0.8478046E-01
       -2   -1    0    0    0  501  0.00000000000E+00  0.00000000000E+00  0.78017528054E+03  0.78017528054E+03  0.25500000920E-02 0. -1.
        2   -1    0    0  501    0  0.00000000000E+00  0.00000000000E+00 -0.16946633793E+04  0.16946633793E+04  0.25500000920E-02 0.  1.
    10030    2    1    2    0    0  0.00000000000E+00  0.00000000000E+00 -0.91448809880E+03  0.24748386599E+04  0.22996821323E+04 0.  0.
        4    1    3    3  502    0  0.83323296429E+03  0.56531425098E+03 -0.10547587279E+04  0.14582095056E+04  0.12699999809E+01 0.  1.
       -4    1    3    3    0  502 -0.83323296429E+03 -0.56531425098E+03  0.14027062909E+03  0.10166291543E+04  0.12699999809E+01 0. -1.
</event>
<event>
 5   0  0.1744876E-06  0.2300321E+04  0.7818609E-02  0.8477795E-01
        2   -1    0    0  501    0  0.00000000000E+00  0.00000000000E+00  0.12388851965E+04  0.12388851965E+04  0.25500000920E-02 0. -1.
       -2   -1    0    0    0  501  0.00000000000E+00  0.00000000000E+00 -0.10677899483E+04  0.10677899483E+04  0.25500000920E-02 0.  1.
    10030    2    1    2    0    0  0.00000000000E+00  0.00000000000E+00  0.17109524812E+03  0.23066751448E+04  0.23003209862E+04 0.  0.
        1    1    3    3  502    0  0.62225678661E+03 -0.94297992948E+03 -0.13058081062E+03  0.11373064688E+04  0.50400001928E-02 0. -1.
       -1    1    3    3    0  502 -0.62225678661E+03  0.94297992948E+03  0.30167605875E+03  0.11693686760E+04  0.50400001928E-02 0.  1.
</event>
<event>
 5   0  0.1825521E-06  0.2299950E+04  0.7818609E-02  0.8477941E-01
        2   -1    0    0  501    0  0.00000000000E+00  0.00000000000E+00  0.19135067288E+04  0.19135067288E+04  0.25500000920E-02 0. -1.
       -2   -1    0    0    0  501  0.00000000000E+00  0.00000000000E+00 -0.69110931395E+03  0.69110931396E+03  0.25500000920E-02 0.  1.
    10030    2    1    2    0    0  0.00000000000E+00  0.00000000000E+00  0.12223974149E+04  0.26046160428E+04  0.22999498452E+04 0.  0.
        5    1    3    3  502    0  0.25287399489E+03  0.90272534571E+03 -0.14302898800E+03  0.94833416498E+03  0.46999998093E+01 0.  1.
       -5    1    3    3    0  502 -0.25287399489E+03 -0.90272534571E+03  0.13654264029E+04  0.16562818778E+04  0.46999998093E+01 0. -1.
</event>
<event>
 5   0  0.7761069E-07  0.2301739E+04  0.7818609E-02  0.8477236E-01
       -1   -1    0    0    0  501  0.00000000000E+00  0.00000000000E+00  0.17556602713E+04  0.17556602713E+04  0.50400001928E-02 0. -1.
        1   -1    0    0  501    0  0.00000000000E+00  0.00000000000E+00 -0.75441744288E+03  0.75441744290E+03  0.50400001928E-02 0.  1.
    10030    2    1    2    0    0  0.00000000000E+00  0.00000000000E+00  0.10012428285E+04  0.25100777142E+04  0.23017391099E+04 0.  0.
        1    1    3    3  502    0  0.36545949104E+03  0.78718303208E+01 -0.68942727435E+03  0.78034131760E+03  0.50400001928E-02 0.  1.
       -1    1    3    3    0  502 -0.36545949104E+03 -0.78718303208E+01  0.16906701028E+04  0.17297363966E+04  0.50400001928E-02 0. -1.
</event>
<event>
 5   0  0.7932912E-07  0.2298530E+04  0.7818609E-02  0.8478501E-01
        1   -1    0    0  501    0  0.00000000000E+00  0.00000000000E+00  0.11444433992E+04  0.11444433992E+04  0.50400001928E-02 0.  1.
       -1   -1    0    0    0  501  0.00000000000E+00  0.00000000000E+00 -0.11541068244E+04  0.11541068244E+04  0.50400001928E-02 0. -1.
    10030    2    1    2    0    0  0.00000000000E+00  0.00000000000E+00 -0.96634252349E+01  0.22985502236E+04  0.22985299103E+04 0.  0.
        5    1    3    3  502    0 -0.26264920949E+03 -0.78657061564E+03 -0.80052078304E+03  0.11526202995E+04  0.46999998093E+01 0. -1.
       -5    1    3    3    0  502  0.26264920949E+03  0.78657061564E+03  0.79085735781E+03  0.11459299241E+04  0.46999998093E+01 0.  1.
</event>
<event>
 5   0  0.1888779E-06  0.2299567E+04  0.7818609E-02  0.8478092E-01
       -2   -1    0    0    0  501  0.00000000000E+00  0.00000000000E+00  0.62136083878E+03  0.62136083879E+03  0.25500000920E-02 0. -1.
        2   -1    0    0  501    0  0.00000000000E+00  0.00000000000E+00 -0.21275914332E+04  0.21275914332E+04  0.25500000920E-02 0.  1.
    10030    2    1    2    0    0  0.00000000000E+00  0.00000000000E+00 -0.15062305944E+04  0.27489522720E+04  0.22995669136E+04 0.  0.
        4    1    3    3  502    0  0.82180977129E+03  0.43977309564E+03 -0.15579002616E+04  0.18154411348E+04  0.12699999809E+01 0.  1.
       -4    1    3    3    0  502 -0.82180977129E+03 -0.43977309564E+03  0.51669667217E+02  0.93351113718E+03  0.12699999809E+01 0. -1.
</event>
<event>
 5   0  0.8108242E-07  0.2299860E+04  0.7818609E-02  0.8477976E-01
       -1   -1    0    0    0  501  0.00000000000E+00  0.00000000000E+00  0.57122022753E+03  0.57122022755E+03  0.50400001928E-02 0. -1.
        1   -1    0    0  501    0  0.00000000000E+00  0.00000000000E+00 -0.23149380413E+04  0.23149380413E+04  0.50400001928E-02 0.  1.
    10030    2    1    2    0    0  0.00000000000E+00  0.00000000000E+00 -0.17437178138E+04  0.28861582689E+04  0.22998603738E+04 0.  0.
        4    1    3    3  502    0  0.19321364969E+03 -0.50983153675E+03  0.39870686767E+03  0.67544688135E+03  0.12699999809E+01 0. -1.
       -4    1    3    3    0  502 -0.19321364969E+03  0.50983153675E+03 -0.21424246815E+04  0.22107113875E+04  0.12699999809E+01 0.  1.
</event>
<event>
 5   0  0.1888779E-06  0.2299060E+04  0.7818609E-02  0.8478292E-01
       -2   -1    0    0    0  501  0.00000000000E+00  0.00000000000E+00  0.99346647477E+03  0.99346647477E+03  0.25500000920E-02 0. -1.
        2   -1    0    0  501    0  0.00000000000E+00  0.00000000000E+00 -0.13301099079E+04  0.13301099079E+04  0.25500000920E-02 0.  1.
    10030    2    1    2    0    0  0.00000000000E+00  0.00000000000E+00 -0.33664343309E+03  0.23235763826E+04  0.22990603308E+04 0.  0.
        4    1    3    3  502    0  0.48284753740E+03 -0.10339056322E+04 -0.27859893488E+02  0.11414378595E+04  0.12699999809E+01 0.  1.
       -4    1    3    3    0  502 -0.48284753740E+03  0.10339056322E+04 -0.30878353960E+03  0.11821385231E+04  0.12699999809E+01 0. -1.
</event>
<event>
 5   0  0.7607231E-07  0.2302838E+04  0.7818609E-02  0.8476803E-01
       -1   -1    0    0    0  501  0.00000000000E+00  0.00000000000E+00  0.68611564748E+03  0.68611564750E+03  0.50400001928E-02 0. -1.
        1   -1    0    0  501    0  0.00000000000E+00  0.00000000000E+00 -0.19322781481E+04  0.19322781481E+04  0.50400001928E-02 0.  1.
    10030    2    1    2    0    0  0.00000000000E+00  0.00000000000E+00 -0.12461625006E+04  0.26183937956E+04  0.23028384856E+04 0.  0.
        2    1    3    3  502    0 -0.12205671168E+03  0.10425157882E+04 -0.11612566718E+04  0.15653287410E+04  0.25500000920E-02 0.  1.
       -2    1    3    3    0  502  0.12205671168E+03 -0.10425157882E+04 -0.84905828734E+02  0.10530650546E+04  0.25500000920E-02 0. -1.
</event>
<event>
 5   0  0.1744876E-06  0.2297894E+04  0.7818609E-02  0.8478752E-01
       -2   -1    0    0    0  501  0.00000000000E+00  0.00000000000E+00  0.99990298614E+03  0.99990298614E+03  0.25500000920E-02 0.  1.
        2   -1    0    0  501    0  0.00000000000E+00  0.00000000000E+00 -0.13202077850E+04  0.13202077850E+04  0.25500000920E-02 0. -1.
    10030    2    1    2    0    0  0.00000000000E+00  0.00000000000E+00 -0.32030479887E+03  0.23201107712E+04  0.22978944332E+04 0.  0.
        1    1    3    3  502    0 -0.82766900874E+03  0.38253854036E+03 -0.86598768288E+03  0.12575000556E+04  0.50400001928E-02 0. -1.
       -1    1    3    3    0  502  0.82766900874E+03 -0.38253854036E+03  0.54568288401E+03  0.10626107156E+04  0.50400001928E-02 0.  1.
</event>
<event>
 5   0  0.7761069E-07  0.2300041E+04  0.7818609E-02  0.8477905E-01
        1   -1    0    0  501    0  0.00000000000E+00  0.00000000000E+00  0.14714811915E+04  0.14714811915E+04  0.50400001928E-02 0.  1.
       -1   -1    0    0    0  501  0.00000000000E+00  0.00000000000E+00 -0.89878662819E+03  0.89878662820E+03  0.50400001928E-02 0. -1.
    10030    2    1    2    0    0  0.00000000000E+00  0.00000000000E+00  0.57269456327E+03  0.23702678197E+04  0.23000414071E+04 0.  0.
        1    1    3    3  502    0 -0.58439951340E+03 -0.55756807189E+03  0.11299644362E+04  0.13889652887E+04  0.50400001928E-02 0.  1.
       -1    1    3    3    0  502  0.58439951340E+03  0.55756807189E+03 -0.55726987292E+03  0.98130253100E+03  0.50400001928E-02 0. -1.
</event>
<event>
 5   0  0.7761069E-07  0.2297875E+04  0.7818609E-02  0.8478759E-01
       -1   -1    0    0    0  501  0.00000000000E+00  0.00000000000E+00  0.17670408614E+04  0.17670408614E+04  0.50400001928E-02 0. -1.
        1   -1    0    0  501    0  0.00000000000E+00  0.00000000000E+00 -0.74704434197E+03  0.74704434199E+03  0.50400001928E-02 0.  1.
    10030    2    1    2    0    0  0.00000000000E+00  0.00000000000E+00  0.10199965194E+04  0.25140852034E+04  0.22978754340E+04 0.  0.
        1    1    3    3  502    0  0.77881590646E+02  0.51187847456E+03 -0.61216425563E+03  0.80176691799E+03  0.50400001928E-02 0.  1.
       -1    1    3    3    0  502 -0.77881590646E+02 -0.51187847456E+03  0.16321607751E+04  0.17123182854E+04  0.50400001928E-02 0. -1.
</event>
<event>
 5   0  0.8097672E-07  0.2299146E+04  0.7818609E-02  0.8478258E-01
       -1   -1    0    0    0  501  0.00000000000E+00  0.00000000000E+00  0.78185315206E+03  0.78185315208E+03  0.50400001928E-02 0.  1.
        1   -1    0    0  501    0  0.00000000000E+00  0.00000000000E+00 -0.16902376097E+04  0.16902376097E+04  0.50400001928E-02 0. -1.
    10030    2    1    2    0    0  0.00000000000E+00  0.00000000000E+00 -0.90838445759E+03  0.24720907617E+04  0.22991455829E+04 0.  0.
        3    1    3    3  502    0  0.62308649772E+03 -0.18221191568E+03 -0.14742820301E+04  0.16108834472E+04  0.10100000352E+00 0. -1.
       -3    1    3    3    0  502 -0.62308649772E+03  0.18221191568E+03  0.56589757253E+03  0.86120731456E+03  0.10100000352E+00 0.  1.
</event>
<event>
 5   0  0.1828646E-06  0.2297051E+04  0.7818609E-02  0.8479085E-01
       -2   -1    0    0    0  501  0.00000000000E+00  0.00000000000E+00  0.10851213977E+04  0.10851213977E+04  0.25500000920E-02 0. -1.
        2   -1    0    0  501    0  0.00000000000E+00  0.00000000000E+00 -0.12156346285E+04  0.12156346285E+04  0.25500000920E-02 0.  1.
    10030    2    1    2    0    0  0.00000000000E+00  0.00000000000E+00 -0.13051323080E+03  0.23007560263E+04  0.22970512813E+04 0.  0.
        3    1    3    3  502    0  0.49293037902E+03  0.18511759883E+02 -0.11041314926E+04  0.12093094753E+04  0.10100000352E+00 0.  1.
       -3    1    3    3    0  502 -0.49293037902E+03 -0.18511759883E+02  0.97361826180E+03  0.10914465510E+04  0.10100000352E+00 0. -1.
</event>
<event>
 5   0  0.1689444E-06  0.2300092E+04  0.7818609E-02  0.8477885E-01
       -2   -1    0    0    0  501  0.00000000000E+00  0.00000000000E+00  0.10606251815E+04  0.10606251815E+04  0.25500000920E-02 0. -1.
        2   -1    0    0  501    0  0.00000000000E+00  0.00000000000E+00 -0.12470058375E+04  0.12470058375E+04  0.25500000920E-02 0.  1.
    10030    2    1    2    0    0  0.00000000000E+00  0.00000000000E+00 -0.18638065597E+03  0.23076310190E+04  0.23000919919E+04 0.  0.
        2    1    3    3  502    0  0.32481672003E+03  0.36893277287E+03 -0.11363041475E+04  0.12380647835E+04  0.25500000920E-02 0.  1.
       -2    1    3    3    0  502 -0.32481672003E+03 -0.36893277287E+03  0.94992349151E+03  0.10695662356E+04  0.25500000920E-02 0. -1.
</event>
<event>
 5   0  0.7607231E-07  0.2299674E+04  0.7818609E-02  0.8478050E-01
        1   -1    0    0  501    0  0.00000000000E+00  0.00000000000E+00  0.13522186083E+04  0.13522186083E+04  0.50400001928E-02 0. -1.
       -1   -1    0    0    0  501  0.00000000000E+00  0.00000000000E+00 -0.97774492569E+03  0.97774492570E+03  0.50400001928E-02 0.  1.
    10030    2    1    2    0    0  0.00000000000E+00  0.00000000000E+00  0.37447368259E+03  0.23299635340E+04  0.22996737879E+04 0.  0.
        2    1    3    3  502    0 -0.20240842629E+02 -0.20645359716E+03 -0.95862906499E+03  0.98081724278E+03  0.25500000920E-02 0.  1.
       -2    1    3    3    0  502  0.20240842629E+02  0.20645359716E+03  0.13331027476E+04  0.13491462912E+04  0.25500000920E-02 0. -1.
</event>
<event>
 5   0  0.1888779E-06  0.2303733E+04  0.7818609E-02  0.8476451E-01
        2   -1    0    0  501    0  0.00000000000E+00  0.00000000000E+00  0.12978853954E+04  0.12978853954E+04  0.25500000920E-02 0.  1.
       -2   -1    0    0    0  501  0.00000000000E+00  0.00000000000E+00 -0.10222757495E+04  0.10222757495E+04  0.25500000920E-02 0. -1.
    10030    2    1    2    0    0  0.00000000000E+00  0.00000000000E+00  0.27560964596E+03  0.23201611449E+04  0.23037332878E+04 0.  0.
        4    1    3    3  502    0 -0.33207657886E+03 -0.90131163456E+03 -0.50246251239E+03  0.10840238494E+04  0.12699999809E+01 0. -1.
       -4    1    3    3    0  502  0.33207657886E+03  0.90131163456E+03  0.77807215836E+03  0.12361372955E+04  0.12699999809E+01 0.  1.
</event>
<event>
 5   0  0.1825521E-06  0.2301146E+04  0.7818609E-02  0.8477469E-01
        2   -1    0    0  501    0  0.00000000000E+00  0.00000000000E+00  0.94308549068E+03  0.94308549068E+03  0.25500000920E-02 0. -1.
       -2   -1    0    0    0  501  0.00000000000E+00  0.00000000000E+00 -0.14037100995E+04  0.14037100995E+04  0.25500000920E-02 0.  1.
    10030    2    1    2    0    0  0.00000000000E+00  0.00000000000E+00 -0.46062460886E+03  0.23467955902E+04  0.23011463474E+04 0.  0.
        5    1    3    3  502    0 -0.44458405199E+03  0.12346391289E+03 -0.13052125435E+04  0.13843771852E+04  0.46999998093E+01 0.  1.
       -5    1    3    3    0  502  0.44458405199E+03 -0.12346391289E+03  0.84458793464E+03  0.96241840507E+03  0.46999998093E+01 0. -1.
</event>
<event>
 5   0  0.8108242E-07  0.2300293E+04  0.7818609E-02  0.8477805E-01
        1   -1    0    0  501    0  0.00000000000E+00  0.00000000000E+00  0.12164660913E+04  0.12164660913E+04  0.50400001928E-02 0. -1.
       -1   -1    0    0    0  501  0.00000000000E+00  0.00000000000E+00 -0.10874428767E+04  0.10874428767E+04  0.50400001928E-02 0.  1.
    10030    2    1    2    0    0  0.00000000000E+00  0.00000000000E+00  0.12902321456E+03  0.23039089680E+04  0.23002933602E+04 0.  0.
        4    1    3    3  502    0  0.85855060823E+03  0.33708656874E+03 -0.62366317540E+03  0.11134154081E+04  0.12699999809E+01 0.  1.
       -4    1    3    3    0  502 -0.85855060823E+03 -0.33708656874E+03  0.75268638995E+03  0.11904935599E+04  0.12699999809E+01 0. -1.
</event>
<event>
 5   0  0.1744876E-06  0.2298430E+04  0.7818609E-02  0.8478540E-01
        2   -1    0    0  501    0  0.00000000000E+00  0.00000000000E+00  0.27307460794E+04  0.27307460794E+04  0.25500000920E-02 0.  1.
       -2   -1    0    0    0  501  0.00000000000E+00  0.00000000000E+00 -0.48363908605E+03  0.48363908606E+03  0.25500000920E-02 0. -1.
    10030    2    1    2    0    0  0.00000000000E+00  0.00000000000E+00  0.22471069933E+04  0.32143851654E+04  0.22984303671E+04 0.  0.
        1    1    3    3  502    0 -0.76723263069E+03 -0.35376148093E+03  0.34056576202E+02  0.84554890183E+03  0.50400001928E-02 0. -1.
       -1    1    3    3    0  502  0.76723263069E+03  0.35376148093E+03  0.22130504171E+04  0.23688362636E+04  0.50400001928E-02 0.  1.
</event>
<event>
 5   0  0.7761069E-07  0.2300317E+04  0.7818609E-02  0.8477796E-01
        1   -1    0    0  501    0  0.00000000000E+00  0.00000000000E+00  0.11042371937E+04  0.11042371937E+04  0.50400001928E-02 0. -1.
       -1   -1    0    0    0  501  0.00000000000E+00  0.00000000000E+00 -0.11979898969E+04  0.11979898969E+04  0.50400001928E-02 0.  1.
    10030    2    1    2    0    0  0.00000000000E+00  0.00000000000E+00 -0.93752703245E+02  0.23022270906E+04  0.23003173710E+04 0.  0.
        1    1    3    3  502    0  0.68271291892E+03  0.92057144209E+03  0.49724721298E+02  0.11471796972E+04  0.50400001928E-02 0.  1.
       -1    1    3    3    0  502 -0.68271291892E+03 -0.92057144209E+03 -0.14347742454E+03  0.11550473934E+04  0.50400001928E-02 0. -1.
</event>
<event>
 5   0  0.1744876E-06  0.2299771E+04  0.7818609E-02  0.8478011E-01
        2   -1    0    0  501    0  0.00000000000E+00  0.00000000000E+00  0.18392241100E+04  0.18392241100E+04  0.25500000920E-02 0.  1.
       -2   -1    0    0    0  501  0.00000000000E+00  0.00000000000E+00 -0.71891016114E+03  0.71891016115E+03  0.25500000920E-02 0. -1.
    10030    2    1    2    0    0  0.00000000000E+00  0.00000000000E+00  0.11203139489E+04  0.25581342711E+04  0.22997712071E+04 0.  0.
        1    1    3    3  502    0 -0.11004241362E+04 -0.15399739411E+03  0.23095528125E+03  0.11348959507E+04  0.50400001928E-02 0. -1.
       -1    1    3    3    0  502  0.11004241362E+04  0.15399739411E+03  0.88935866760E+03  0.14232383204E+04  0.50400001928E-02 0.  1.
</event>
<event>
 5   0  0.8108242E-07  0.2299460E+04  0.7818609E-02  0.8478134E-01
       -1   -1    0    0    0  501  0.00000000000E+00  0.00000000000E+00  0.91701482433E+03  0.91701482434E+03  0.50400001928E-02 0. -1.
        1   -1    0    0  501    0  0.00000000000E+00  0.00000000000E+00 -0.14415029494E+04  0.14415029494E+04  0.50400001928E-02 0.  1.
    10030    2    1    2    0    0  0.00000000000E+00  0.00000000000E+00 -0.52448812511E+03  0.23585177738E+04  0.22994604358E+04 0.  0.
        4    1    3    3  502    0  0.10715259034E+04  0.38572245119E+03 -0.10030175347E+03  0.11432460915E+04  0.12699999809E+01 0. -1.
       -4    1    3    3    0  502 -0.10715259034E+04 -0.38572245119E+03 -0.42418637164E+03  0.12152716823E+04  0.12699999809E+01 0.  1.
</event>
<event>
 5   0  0.1689444E-06  0.2299829E+04  0.7818609E-02  0.8477989E-01
        2   -1    0    0  501    0  0.00000000000E+00  0.00000000000E+00  0.17968378386E+04  0.17968378386E+04  0.25500000920E-02 0.  1.
       -2   -1    0    0    0  501  0.00000000000E+00  0.00000000000E+00 -0.73590573751E+03  0.73590573751E+03  0.25500000920E-02 0. -1.
    10030    2    1    2    0    0  0.00000000000E+00  0.00000000000E+00  0.10609321011E+04  0.25327435761E+04  0.22998289282E+04 0.  0.
        2    1    3    3  502    0  0.25266942556E+03 -0.55776515238E+02  0.17643609688E+04  0.17832337162E+04  0.25500000920E-02 0.  1.
       -2    1    3    3    0  502 -0.25266942556E+03  0.55776515238E+02 -0.70342886769E+03  0.74950985996E+03  0.25500000920E-02 0. -1.
</event>
<event>
 5   0  0.1689444E-06  0.2300241E+04  0.7818609E-02  0.8477826E-01
        2   -1    0    0  501    0  0.00000000000E+00  0.00000000000E+00  0.25777562776E+04  0.25777562776E+04  0.25500000920E-02 0. -1.
       -2   -1    0    0    0  501  0.00000000000E+00  0.00000000000E+00 -0.51315059265E+03  0.51315059266E+03  0.25500000920E-02 0.  1.
    10030    2    1    2    0    0  0.00000000000E+00  0.00000000000E+00  0.20646056850E+04  0.30909068703E+04  0.23002409974E+04 0.  0.
        2    1    3    3  502    0 -0.44754808125E+03  0.69497897091E+03  0.21068532140E+04  0.22632113292E+04  0.25500000920E-02 0. -1.
       -2    1    3    3    0  502  0.44754808125E+03 -0.69497897091E+03 -0.42247529069E+02  0.82769554110E+03  0.25500000920E-02 0.  1.
</event>
<event>
 5   0  0.8108242E-07  0.2303031E+04  0.7818609E-02  0.8476727E-01
        1   -1    0    0  501    0  0.00000000000E+00  0.00000000000E+00  0.15423562866E+04  0.15423562866E+04  0.50400001928E-02 0.  1.
       -1   -1    0    0    0  501  0.00000000000E+00  0.00000000000E+00 -0.85971544890E+03  0.85971544892E+03  0.50400001928E-02 0. -1.
    10030    2    1    2    0    0  0.00000000000E+00  0.00000000000E+00  0.68264083769E+03  0.24020717355E+04  0.23030306358E+04 0.  0.
        4    1    3    3  502    0 -0.31560012742E+03 -0.68071476033E+03  0.12523895691E+04  0.14599511194E+04  0.12699999809E+01 0.  1.
       -4    1    3    3    0  502  0.31560012742E+03  0.68071476033E+03 -0.56974873144E+03  0.94212061608E+03  0.12699999809E+01 0. -1.
</event>
<event>
 5   0  0.7932912E-07  0.2299882E+04  0.7818609E-02  0.8477968E-01
        1   -1    0    0  501    0  0.00000000000E+00  0.00000000000E+00  0.85624522788E+03  0.85624522789E+03  0.50400001928E-02 0.  1.
       -1   -1    0    0    0  501  0.00000000000E+00  0.00000000000E+00 -0.15443755870E+04  0.15443755870E+04  0.50400001928E-02 0. -1.
    10030    2    1    2    0    0  0.00000000000E+00  0.00000000000E+00 -0.68813035912E+03  0.24006208149E+04  0.22998819330E+04 0.  0.
        5    1    3    3  502    0  0.55435804367E+03  0.78352925089E+03 -0.10051397096E+04  0.13898053293E+04  0.46999998093E+01 0. -1.
       -5    1    3    3    0  502 -0.55435804367E+03 -0.78352925089E+03  0.31700935048E+03  0.10108154856E+04  0.46999998093E+01 0.  1.
</event>
<event>
 5   0  0.7607231E-07  0.2300142E+04  0.7818609E-02  0.8477865E-01
        1   -1    0    0  501    0  0.00000000000E+00  0.00000000000E+00  0.24061551124E+04  0.24061551124E+04  0.50400001928E-02 0. -1.
       -1   -1    0    0    0  501  0.00000000000E+00  0.00000000000E+00 -0.54969993866E+03  0.54969993868E+03  0.50400001928E-02 0.  1.
    10030    2    1    2    0    0  0.00000000000E+00  0.00000000000E+00  0.18564551737E+04  0.29558550510E+04  0.23001420110E+04 0.  0.
        2    1    3    3  502    0  0.91920436975E+03  0.63259741905E+03  0.57036903258E+03  0.12531707790E+04  0.25500000920E-02 0. -1.
       -2    1    3    3    0  502 -0.91920436975E+03 -0.63259741905E+03  0.12860861411E+04  0.17026842721E+04  0.25500000920E-02 0.  1.
</event>
<event>
 5   0  0.1828646E-06  0.2299467E+04  0.7818609E-02  0.8478131E-01
        2   -1    0    0  501    0  0.00000000000E+00  0.00000000000E+00  0.12658520446E+04  0.12658520446E+04  0.25500000920E-02 0. -1.
       -2   -1    0    0    0  501  0.00000000000E+00  0.00000000000E+00 -0.10442667068E+04  0.10442667068E+04  0.25500000920E-02 0.  1.
    10030    2    1    2    0    0  0.00000000000E+00  0.00000000000E+00  0.22158533779E+03  0.23101187515E+04  0.22994670217E+04 0.  0.
        3    1    3    3  502    0  0.77365982659E+03 -0.19993523786E+03  0.94128000051E+03  0.12347192702E+04  0.10100000352E+00 0. -1.
       -3    1    3    3    0  502 -0.77365982659E+03  0.19993523786E+03 -0.71969466272E+03  0.10753994813E+04  0.10100000352E+00 0.  1.
</event>
<event>
 5   0  0.7607231E-07  0.2301041E+04  0.7818609E-02  0.8477511E-01
       -1   -1    0    0    0  501  0.00000000000E+00  0.00000000000E+00  0.15409060277E+04  0.15409060277E+04  0.50400001928E-02 0.  1.
        1   -1    0    0  501    0  0.00000000000E+00  0.00000000000E+00 -0.85903822434E+03  0.85903822435E+03  0.50400001928E-02 0. -1.
    10030    2    1    2    0    0  0.00000000000E+00  0.00000000000E+00  0.68186780339E+03  0.23999442521E+04  0.23010407888E+04 0.  0.
        2    1    3    3  502    0  0.28827046963E+03  0.11119967591E+04  0.27447276368E+03  0.11810893082E+04  0.25500000920E-02 0. -1.
       -2    1    3    3    0  502 -0.28827046963E+03 -0.11119967591E+04  0.40739503971E+03  0.12188549439E+04  0.25500000920E-02 0.  1.
</event>
<event>
 5   0  0.7761069E-07  0.2299869E+04  0.7818609E-02  0.8477973E-01
       -1   -1    0    0    0  501  0.00000000000E+00  0.00000000000E+00  0.88871384212E+03  0.88871384214E+03  0.50400001928E-02 0. -1.
        1   -1    0    0  501    0  0.00000000000E+00  0.00000000000E+00 -0.14879363588E+04  0.14879363588E+04  0.50400001928E-02 0.  1.
    10030    2    1    2    0    0  0.00000000000E+00  0.00000000000E+00 -0.59922251663E+03  0.23766502009E+04  0.22998692469E+04 0.  0.
        1    1    3    3  502    0 -0.17157248829E+03 -0.51146230674E+03  0.74983110966E+03  0.92373021116E+03  0.50400001928E-02 0. -1.
       -1    1    3    3    0  502  0.17157248829E+03  0.51146230674E+03 -0.13490536263E+04  0.14529199897E+04  0.50400001928E-02 0.  1.
</event>
<event>
 5   0  0.1744876E-06  0.2300746E+04  0.7818609E-02  0.8477627E-01
       -2   -1    0    0    0  501  0.00000000000E+00  0.00000000000E+00  0.11287156258E+04  0.11287156258E+04  0.25500000920E-02 0. -1.
        2   -1    0    0  501    0  0.00000000000E+00  0.00000000000E+00 -0.11724454971E+04  0.11724454971E+04  0.25500000920E-02 0.  1.
    10030    2    1    2    0    0  0.00000000000E+00  0.00000000000E+00 -0.43729871288E+02  0.23011611230E+04  0.23007455775E+04 0.  0.
        1    1    3    3  502    0  0.18861538040E+03  0.68654638992E+03 -0.92559652796E+03  0.11677545289E+04  0.50400001928E-02 0.  1.
       -1    1    3    3    0  502 -0.18861538040E+03 -0.68654638992E+03  0.88186665667E+03  0.11334065940E+04  0.50400001928E-02 0. -1.
</event>
<event>
 5   0  0.7932912E-07  0.2302645E+04  0.7818609E-02  0.8476879E-01
        1   -1    0    0  501    0  0.00000000000E+00  0.00000000000E+00  0.11057037019E+04  0.11057037019E+04  0.50400001928E-02 0.  1.
       -1   -1    0    0    0  501  0.00000000000E+00  0.00000000000E+00 -0.11988229115E+04  0.11988229115E+04  0.50400001928E-02 0. -1.
    10030    2    1    2    0    0  0.00000000000E+00  0.00000000000E+00 -0.93119209621E+02  0.23045266134E+04  0.23026445068E+04 0.  0.
        5    1    3    3  502    0  0.17228804896E+03 -0.10241681246E+03  0.10880991670E+04  0.11064150499E+04  0.46999998093E+01 0.  1.
       -5    1    3    3    0  502 -0.17228804896E+03  0.10241681246E+03 -0.11812183767E+04  0.11981115635E+04  0.46999998093E+01 0. -1.
</event>
<event>
 5   0  0.7932912E-07  0.2300503E+04  0.7818609E-02  0.8477723E-01
       -1   -1    0    0    0  501  0.00000000000E+00  0.00000000000E+00  0.70021027444E+03  0.70021027446E+03  0.50400001928E-02 0.  1.
        1   -1    0    0  501    0  0.00000000000E+00  0.00000000000E+00 -0.18895452861E+04  0.18895452861E+04  0.50400001928E-02 0. -1.
    10030    2    1    2    0    0  0.00000000000E+00  0.00000000000E+00 -0.11893350116E+04  0.25897555605E+04  0.23005034435E+04 0.  0.
        5    1    3    3  502    0 -0.19943784613E+03  0.70106210858E+03 -0.15963770805E+04  0.17549089457E+04  0.46999998093E+01 0. -1.
       -5    1    3    3    0  502  0.19943784613E+03 -0.70106210858E+03  0.40704206884E+03  0.83484661487E+03  0.46999998093E+01 0.  1.
</event>
<event>
 5   0  0.1689444E-06  0.2298979E+04  0.7818609E-02  0.8478324E-01
       -2   -1    0    0    0  501  0.00000000000E+00  0.00000000000E+00  0.95658158331E+03  0.95658158332E+03  0.25500000920E-02 0. -1.
        2   -1    0    0  501    0  0.00000000000E+00  0.00000000000E+00 -0.13812997397E+04  0.13812997397E+04  0.25500000920E-02 0.  1.
    10030    2    1    2    0    0  0.00000000000E+00  0.00000000000E+00 -0.42471815643E+03  0.23378813231E+04  0.22989788099E+04 0.  0.
        2    1    3    3  502    0  0.73185381460E+02  0.80145340261E+03 -0.10470047533E+04  0.13205690478E+04  0.25500000920E-02 0.  1.
       -2    1    3    3    0  502 -0.73185381460E+02 -0.80145340261E+03  0.62228659691E+03  0.10173122752E+04  0.25500000920E-02 0. -1.
</event>
<event>
 5   0  0.1689444E-06  0.2299955E+04  0.7818609E-02  0.8477939E-01
       -2   -1    0    0    0  501  0.00000000000E+00  0.00000000000E+00  0.10287468031E+04  0.10287468031E+04  0.25500000920E-02 0. -1.
        2   -1    0    0  501    0  0.00000000000E+00  0.00000000000E+00 -0.12854947521E+04  0.12854947521E+04  0.25500000920E-02 0.  1.
    10030    2    1    2    0    0  0.00000000000E+00  0.00000000000E+00 -0.25674794900E+03  0.23142415553E+04  0.22999553185E+04 0.  0.
        2    1    3    3  502    0  0.68076971955E+03 -0.49846178236E+03  0.65784822667E+03  0.10698952514E+04  0.25500000920E-02 0. -1.
       -2    1    3    3    0  502 -0.68076971955E+03  0.49846178236E+03 -0.91459617568E+03  0.12443463039E+04  0.25500000920E-02 0.  1.
</event>
<event>
 5   0  0.8097672E-07  0.2300098E+04  0.7818609E-02  0.8477882E-01
        1   -1    0    0  501    0  0.00000000000E+00  0.00000000000E+00  0.21227781154E+04  0.21227781154E+04  0.50400001928E-02 0.  1.
       -1   -1    0    0    0  501  0.00000000000E+00  0.00000000000E+00 -0.62305753796E+03  0.62305753798E+03  0.50400001928E-02 0. -1.
    10030    2    1    2    0    0  0.00000000000E+00  0.00000000000E+00  0.14997205774E+04  0.27458356534E+04  0.23000981773E+04 0.  0.
        3    1    3    3  502    0 -0.15550839980E+03 -0.93958479899E+03  0.15194715073E+04  0.17932640989E+04  0.10100000352E+00 0.  1.
       -3    1    3    3    0  502  0.15550839980E+03  0.93958479899E+03 -0.19750929858E+02  0.95257155444E+03  0.10100000352E+00 0. -1.
</event>
<event>
 5   0  0.1825521E-06  0.2299393E+04  0.7818609E-02  0.8478161E-01
       -2   -1    0    0    0  501  0.00000000000E+00  0.00000000000E+00  0.15995134310E+04  0.15995134310E+04  0.25500000920E-02 0. -1.
        2   -1    0    0  501    0  0.00000000000E+00  0.00000000000E+00 -0.82637737178E+03  0.82637737179E+03  0.25500000920E-02 0.  1.
    10030    2    1    2    0    0  0.00000000000E+00  0.00000000000E+00  0.77313605926E+03  0.24258908028E+04  0.22993927070E+04 0.  0.
        5    1    3    3  502    0 -0.39623483766E+03  0.10149375829E+04 -0.60801417293E+00  0.10895516524E+04  0.46999998093E+01 0. -1.
       -5    1    3    3    0  502  0.39623483766E+03 -0.10149375829E+04  0.77374407344E+03  0.13363391504E+04  0.46999998093E+01 0.  1.
</event>
<event>
 5   0  0.8108242E-07  0.2298338E+04  0.7818609E-02  0.8478577E-01
       -1   -1    0    0    0  501  0.00000000000E+00  0.00000000000E+00  0.58305481330E+03  0.58305481332E+03  0.50400001928E-02 0.  1.
        1   -1    0    0  501    0  0.00000000000E+00  0.00000000000E+00 -0.22649481826E+04  0.22649481826E+04  0.50400001928E-02 0. -1.
    10030    2    1    2    0    0  0.00000000000E+00  0.00000000000E+00 -0.16818933693E+04  0.28480029959E+04  0.22983376077E+04 0.  0.
        4    1    3    3  502    0 -0.10048890717E+03 -0.20217855789E+03 -0.22371939069E+04  0.22485578444E+04  0.12699999809E+01 0. -1.
       -4    1    3    3    0  502  0.10048890717E+03  0.20217855789E+03  0.55530053759E+03  0.59944515152E+03  0.12699999809E+01 0.  1.
</event>
<event>
 5   0  0.1689444E-06  0.2300159E+04  0.7818609E-02  0.8477858E-01
        2   -1    0    0  501    0  0.00000000000E+00  0.00000000000E+00  0.12708194044E+04  0.12708194044E+04  0.25500000920E-02 0.  1.
       -2   -1    0    0    0  501  0.00000000000E+00  0.00000000000E+00 -0.10408112060E+04  0.10408112060E+04  0.25500000920E-02 0. -1.
    10030    2    1    2    0    0  0.00000000000E+00  0.00000000000E+00  0.23000819835E+03  0.23116306104E+04  0.23001591918E+04 0.  0.
        2    1    3    3  502    0  0.11276255050E+04  0.12583927069E+03  0.30384618783E+03  0.11746051709E+04  0.25500000920E-02 0.  1.
       -2    1    3    3    0  502 -0.11276255050E+04 -0.12583927069E+03 -0.73837989478E+02  0.11370254396E+04  0.25500000920E-02 0. -1.
</event>
<event>
 5   0  0.8097672E-07  0.2298958E+04  0.7818609E-02  0.8478332E-01
       -1   -1    0    0    0  501  0.00000000000E+00  0.00000000000E+00  0.82604773402E+03  0.82604773404E+03  0.50400001928E-02 0. -1.
        1   -1    0    0  501    0  0.00000000000E+00  0.00000000000E+00 -0.15995468785E+04  0.15995468785E+04  0.50400001928E-02 0.  1.
    10030    2    1    2    0    0  0.00000000000E+00  0.00000000000E+00 -0.77349914444E+03  0.24255946125E+04  0.22989580896E+04 0.  0.
        3    1    3    3  502    0 -0.68096599435E+03 -0.49883924223E+03  0.43645070317E+03  0.95028653655E+03  0.10100000352E+00 0. -1.
       -3    1    3    3    0  502  0.68096599435E+03  0.49883924223E+03 -0.12099498476E+04  0.14753080760E+04  0.10100000352E+00 0.  1.
</event>
<event>
 5   0  0.7932912E-07  0.2297871E+04  0.7818609E-02  0.8478761E-01
        1   -1    0    0  501    0  0.00000000000E+00  0.00000000000E+00  0.12543451320E+04  0.12543451320E+04  0.50400001928E-02 0. -1.
       -1   -1    0    0    0  501  0.00000000000E+00  0.00000000000E+00 -0.10523835781E+04  0.10523835781E+04  0.50400001928E-02 0.  1.
    10030    2    1    2    0    0  0.00000000000E+00  0.00000000000E+00  0.20196155397E+03  0.23067287101E+04  0.22978705082E+04 0.  0.
        5    1    3    3  502    0  0.29620689419E+03 -0.82274891218E+03  0.84908905087E+03  0.12188636523E+04  0.46999998093E+01 0. -1.
       -5    1    3    3    0  502 -0.29620689419E+03  0.82274891218E+03 -0.64712749690E+03  0.10878650578E+04  0.46999998093E+01 0.  1.
</event>
<event>
 5   0  0.7607231E-07  0.2296180E+04  0.7818609E-02  0.8479429E-01
        1   -1    0    0  501    0  0.00000000000E+00  0.00000000000E+00  0.15676776888E+04  0.15676776888E+04  0.50400001928E-02 0. -1.
       -1   -1    0    0    0  501  0.00000000000E+00  0.00000000000E+00 -0.84080474998E+03  0.84080474999E+03  0.50400001928E-02 0.  1.
    10030    2    1    2    0    0  0.00000000000E+00  0.00000000000E+00  0.72687293885E+03  0.24084824388E+04  0.22961801734E+04 0.  0.
        2    1    3    3  502    0 -0.83926032983E+03  0.22413002200E+03  0.11508297052E+04  0.14418741895E+04  0.25500000920E-02 0. -1.
       -2    1    3    3    0  502  0.83926032983E+03 -0.22413002200E+03 -0.42395676632E+03  0.96660824935E+03  0.25500000920E-02 0.  1.
</event>
<event>
 5   0  0.7932912E-07  0.2301500E+04  0.7818609E-02  0.8477330E-01
       -1   -1    0    0    0  501  0.00000000000E+00  0.00000000000E+00  0.75149600186E+03  0.75149600188E+03  0.50400001928E-02 0.  1.
        1   -1    0    0  501    0  0.00000000000E+00  0.00000000000E+00 -0.17621186958E+04  0.17621186959E+04  0.50400001928E-02 0. -1.
    10030    2    1    2    0    0  0.00000000000E+00  0.00000000000E+00 -0.10106226940E+04  0.25136146977E+04  0.23014996457E+04 0.  0.
        5    1    3    3  502    0  0.89341976294E+00  0.11170639158E+04 -0.80713310164E+03  0.13781576557E+04  0.46999998093E+01 0. -1.
       -5    1    3    3    0  502 -0.89341976294E+00 -0.11170639158E+04 -0.20348959234E+03  0.11354570421E+04  0.46999998093E+01 0.  1.
</event>
<event>
 5   0  0.1689444E-06  0.2300003E+04  0.7818609E-02  0.8477920E-01
        2   -1    0    0  501    0  0.00000000000E+00  0.00000000000E+00  0.18541283288E+04  0.18541283288E+04  0.25500000920E-02 0.  1.
       -2   -1    0    0    0  501  0.00000000000E+00  0.00000000000E+00 -0.71327512650E+03  0.71327512651E+03  0.25500000920E-02 0. -1.
    10030    2    1    2    0    0  0.00000000000E+00  0.00000000000E+00  0.11408532023E+04  0.25674034553E+04  0.23000031464E+04 0.  0.
        2    1    3    3  502    0  0.11407450111E+04  0.14491119322E+03  0.58641619270E+03  0.12908068738E+04  0.25500000920E-02 0.  1.
       -2    1    3    3    0  502 -0.11407450111E+04 -0.14491119322E+03  0.55443700964E+03  0.12765965816E+04  0.25500000920E-02 0. -1.
</event>
<event>
 5   0  0.1689444E-06  0.2300397E+04  0.7818609E-02  0.8477765E-01
        2   -1    0    0  501    0  0.00000000000E+00  0.00000000000E+00  0.12187716886E+04  0.12187716886E+04  0.25500000920E-02 0.  1.
       -2   -1    0    0    0  501  0.00000000000E+00  0.00000000000E+00 -0.10854834175E+04  0.10854834175E+04  0.25500000920E-02 0. -1.
    10030    2    1    2    0    0  0.00000000000E+00  0.00000000000E+00  0.13328827113E+03  0.23042551061E+04  0.23003968854E+04 0.  0.
        2    1    3    3  502    0  0.10960098787E+04 -0.24503353144E+03  0.31540996065E+03  0.11665172648E+04  0.25500000920E-02 0.  1.
       -2    1    3    3    0  502 -0.10960098787E+04  0.24503353144E+03 -0.18212168952E+03  0.11377378413E+04  0.25500000920E-02 0. -1.
</event>
<event>
 5   0  0.7607231E-07  0.2299991E+04  0.7818609E-02  0.8477925E-01
        1   -1    0    0  501    0  0.00000000000E+00  0.00000000000E+00  0.11488970533E+04  0.11488970533E+04  0.50400001928E-02 0.  1.
       -1   -1    0    0    0  501  0.00000000000E+00  0.00000000000E+00 -0.11510951140E+04  0.11510951140E+04  0.50400001928E-02 0. -1.
    10030    2    1    2    0    0  0.00000000000E+00  0.00000000000E+00 -0.21980607099E+01  0.22999921674E+04  0.22999911170E+04 0.  0.
        2    1    3    3  502    0 -0.26036365173E+03  0.72885743710E+03  0.84947022056E+03  0.11491832101E+04  0.25500000920E-02 0.  1.
       -2    1    3    3    0  502  0.26036365173E+03 -0.72885743710E+03 -0.85166828127E+03  0.11508089572E+04  0.25500000920E-02 0. -1.
</event>
<event>
 5   0  0.1888779E-06  0.2301290E+04  0.7818609E-02  0.8477413E-01
        2   -1    0    0  501    0  0.00000000000E+00  0.00000000000E+00  0.12626576495E+04  0.12626576495E+04  0.25500000920E-02 0. -1.
       -2   -1    0    0    0  501  0.00000000000E+00  0.00000000000E+00 -0.10485691540E+04  0.10485691540E+04  0.25500000920E-02 0.  1.
    10030    2    1    2    0    0  0.00000000000E+00  0.00000000000E+00  0.21408849554E+03  0.23112268035E+04  0.23012899542E+04 0.  0.
        4    1    3    3  502    0  0.41588916162E+03 -0.54140748650E+03  0.10372706114E+04  0.12417800914E+04  0.12699999809E+01 0. -1.
       -4    1    3    3    0  502 -0.41588916162E+03  0.54140748650E+03 -0.82318211588E+03  0.10694467121E+04  0.12699999809E+01 0.  1.
</event>
<event>
 5   0  0.6319125E-07  0.2299735E+04  0.7818609E-02  0.8478025E-01
        3   -1    0    0  501    0  0.00000000000E+00  0.00000000000E+00  0.13142132684E+04  0.13142132722E+04  0.10100000352E+00 0. -1.
       -3   -1    0    0    0  501  0.00000000000E+00  0.00000000000E+00 -0.10060739210E+04  0.10060739260E+04  0.10100000352E+00 0.  1.
    10030    2    1    2    0    0  0.00000000000E+00  0.00000000000E+00  0.30813934740E+03  0.23202871983E+04  0.22997353815E+04 0.  0.
        2    1    3    3  502    0  0.10591793652E+04 -0.26681213640E+03 -0.20851084164E+03  0.11119920930E+04  0.25500000920E-02 0.  1.
       -2    1    3    3    0  502 -0.10591793652E+04  0.26681213640E+03  0.51665018904E+03  0.12082951053E+04  0.25500000920E-02 0. -1.
</event>
<event>
 5   0  0.7932912E-07  0.2300394E+04  0.7818609E-02  0.8477766E-01
       -1   -1    0    0    0  501  0.00000000000E+00  0.00000000000E+00  0.11842983700E+04  0.11842983700E+04  0.50400001928E-02 0.  1.
        1   -1    0    0  501    0  0.00000000000E+00  0.00000000000E+00 -0.11170779139E+04  0.11170779139E+04  0.50400001928E-02 0. -1.
    10030    2    1    2    0    0  0.00000000000E+00  0.00000000000E+00  0.67220456121E+02  0.23013762839E+04  0.23003943598E+04 0.  0.
        5    1    3    3  502    0  0.39756262892E+03 -0.39556627418E+02 -0.10454189759E+04  0.11191709860E+04  0.46999998093E+01 0. -1.
       -5    1    3    3    0  502 -0.39756262892E+03  0.39556627418E+02  0.11126394320E+04  0.11822052979E+04  0.46999998093E+01 0.  1.
</event>
<event>
 5   0  0.8097672E-07  0.2299301E+04  0.7818609E-02  0.8478197E-01
       -1   -1    0    0    0  501  0.00000000000E+00  0.00000000000E+00  0.50783973250E+03  0.50783973253E+03  0.50400001928E-02 0. -1.
        1   -1    0    0  501    0  0.00000000000E+00  0.00000000000E+00 -0.26025849266E+04  0.26025849266E+04  0.50400001928E-02 0.  1.
    10030    2    1    2    0    0  0.00000000000E+00  0.00000000000E+00 -0.20947451941E+04  0.31104246591E+04  0.22993007919E+04 0.  0.
        3    1    3    3  502    0 -0.10237261253E+04  0.19629340397E+03 -0.17033609842E+04  0.19969939742E+04  0.10100000352E+00 0.  1.
       -3    1    3    3    0  502  0.10237261253E+04 -0.19629340397E+03 -0.39138420981E+03  0.11134306849E+04  0.10100000352E+00 0. -1.
</event>
<event>
 5   0  0.1689444E-06  0.2298328E+04  0.7818609E-02  0.8478581E-01
        2   -1    0    0  501    0  0.00000000000E+00  0.00000000000E+00  0.18006074899E+04  0.18006074899E+04  0.25500000920E-02 0. -1.
       -2   -1    0    0    0  501  0.00000000000E+00  0.00000000000E+00 -0.73340671699E+03  0.73340671700E+03  0.25500000920E-02 0.  1.
    10030    2    1    2    0    0  0.00000000000E+00  0.00000000000E+00  0.10672007730E+04  0.25340142069E+04  0.22983277641E+04 0.  0.
        2    1    3    3  502    0 -0.77773826844E+03 -0.50503319997E+03 -0.21470518855E+03  0.95185800688E+03  0.25500000920E-02 0.  1.
       -2    1    3    3    0  502  0.77773826844E+03  0.50503319997E+03  0.12819059615E+04  0.15821562001E+04  0.25500000920E-02 0. -1.
</event>
<event>
 5   0  0.7761069E-07  0.2300813E+04  0.7818609E-02  0.8477601E-01
       -1   -1    0    0    0  501  0.00000000000E+00  0.00000000000E+00  0.11518270024E+04  0.11518270024E+04  0.50400001928E-02 0.  1.
        1   -1    0    0  501    0  0.00000000000E+00  0.00000000000E+00 -0.11489875918E+04  0.11489875918E+04  0.50400001928E-02 0. -1.
    10030    2    1    2    0    0  0.00000000000E+00  0.00000000000E+00  0.28394105998E+01  0.23008145942E+04  0.23008128422E+04 0.  0.
        1    1    3    3  502    0 -0.10624001073E+03 -0.81355826367E+02  0.11440181525E+04  0.11518173656E+04  0.50400001928E-02 0.  1.
       -1    1    3    3    0  502  0.10624001073E+03  0.81355826367E+02 -0.11411787419E+04  0.11489972286E+04  0.50400001928E-02 0. -1.
</event>
<event>
 5   0  0.1689444E-06  0.2299813E+04  0.7818609E-02  0.8477995E-01
       -2   -1    0    0    0  501  0.00000000000E+00  0.00000000000E+00  0.97159915349E+03  0.97159915350E+03  0.25500000920E-02 0. -1.
        2   -1    0    0  501    0  0.00000000000E+00  0.00000000000E+00 -0.13609367500E+04  0.13609367500E+04  0.25500000920E-02 0.  1.
    10030    2    1    2    0    0  0.00000000000E+00  0.00000000000E+00 -0.38933759652E+03  0.23325359035E+04  0.22998130309E+04 0.  0.
        2    1    3    3  502    0 -0.41331721783E+03  0.10653964348E+04 -0.64846328874E+02  0.11445985026E+04  0.25500000920E-02 0.  1.
       -2    1    3    3    0  502  0.41331721783E+03 -0.10653964348E+04 -0.32449126765E+03  0.11879374009E+04  0.25500000920E-02 0. -1.
</event>
<event>
 5   0  0.1689444E-06  0.2301396E+04  0.7818609E-02  0.8477371E-01
       -2   -1    0    0    0  501  0.00000000000E+00  0.00000000000E+00  0.10942464790E+04  0.10942464791E+04  0.25500000920E-02 0. -1.
        2   -1    0    0  501    0  0.00000000000E+00  0.00000000000E+00 -0.12100616132E+04  0.12100616132E+04  0.25500000920E-02 0.  1.
    10030    2    1    2    0    0  0.00000000000E+00  0.00000000000E+00 -0.11581513413E+03  0.23043080922E+04  0.23013958023E+04 0.  0.
        2    1    3    3  502    0  0.83711820661E+03  0.19049185524E+03 -0.82507008189E+03  0.11907118370E+04  0.25500000920E-02 0.  1.
       -2    1    3    3    0  502 -0.83711820661E+03 -0.19049185524E+03  0.70925494775E+03  0.11135962552E+04  0.25500000920E-02 0. -1.
</event>
<event>
 5   0  0.8097672E-07  0.2301340E+04  0.7818609E-02  0.8477393E-01
        1   -1    0    0  501    0  0.00000000000E+00  0.00000000000E+00  0.14879817066E+04  0.14879817066E+04  0.50400001928E-02 0. -1.
       -1   -1    0    0    0  501  0.00000000000E+00  0.00000000000E+00 -0.88982336575E+03  0.88982336576E+03  0.50400001928E-02 0.  1.
    10030    2    1    2    0    0  0.00000000000E+00  0.00000000000E+00  0.59815834082E+03  0.23778050723E+04  0.23013395146E+04 0.  0.
        3    1    3    3  502    0  0.64068778595E+03  0.69199763753E+03 -0.38214497139E+03  0.10175344509E+04  0.10100000352E+00 0.  1.
       -3    1    3    3    0  502 -0.64068778595E+03 -0.69199763753E+03  0.98030331221E+03  0.13602706214E+04  0.10100000352E+00 0. -1.
</event>
<event>
 5   0  0.7761069E-07  0.2299831E+04  0.7818609E-02  0.8477988E-01
       -1   -1    0    0    0  501  0.00000000000E+00  0.00000000000E+00  0.71954353337E+03  0.71954353339E+03  0.50400001928E-02 0. -1.
        1   -1    0    0  501    0  0.00000000000E+00  0.00000000000E+00 -0.18376999386E+04  0.18376999386E+04  0.50400001928E-02 0.  1.
    10030    2    1    2    0    0  0.00000000000E+00  0.00000000000E+00 -0.11181564053E+04  0.25572434720E+04  0.22998305217E+04 0.  0.
        1    1    3    3  502    0  0.30470428926E+03 -0.87349782357E+03  0.20034587013E+03  0.94656305621E+03  0.50400001928E-02 0.  1.
       -1    1    3    3    0  502 -0.30470428926E+03  0.87349782357E+03 -0.13185022754E+04  0.16106804158E+04  0.50400001928E-02 0. -1.
</event>
<event>
 5   0  0.8097672E-07  0.2299893E+04  0.7818609E-02  0.8477963E-01
       -1   -1    0    0    0  501  0.00000000000E+00  0.00000000000E+00  0.86913501192E+03  0.86913501194E+03  0.50400001928E-02 0. -1.
        1   -1    0    0  501    0  0.00000000000E+00  0.00000000000E+00 -0.15214856060E+04  0.15214856060E+04  0.50400001928E-02 0.  1.
    10030    2    1    2    0    0  0.00000000000E+00  0.00000000000E+00 -0.65235059410E+03  0.23906206180E+04  0.22998925282E+04 0.  0.
        3    1    3    3  502    0 -0.53067478329E+03  0.32268450604E+02  0.73371568421E+03  0.90608812705E+03  0.10100000352E+00 0. -1.
       -3    1    3    3    0  502  0.53067478329E+03 -0.32268450604E+02 -0.13860662783E+04  0.14845324909E+04  0.10100000352E+00 0.  1.
</event>
<event>
 5   0  0.7932912E-07  0.2314860E+04  0.7818609E-02  0.8472085E-01
        1   -1    0    0  501    0  0.00000000000E+00  0.00000000000E+00  0.10240263524E+04  0.10240263524E+04  0.50400001928E-02 0.  1.
       -1   -1    0    0    0  501  0.00000000000E+00  0.00000000000E+00 -0.13082128334E+04  0.13082128334E+04  0.50400001928E-02 0. -1.
    10030    2    1    2    0    0  0.00000000000E+00  0.00000000000E+00 -0.28418648097E+03  0.23322391858E+04  0.23148601823E+04 0.  0.
        5    1    3    3  502    0  0.36453094552E+03  0.10607484979E+04 -0.42981055865E+03  0.12011783350E+04  0.46999998093E+01 0. -1.
       -5    1    3    3    0  502 -0.36453094552E+03 -0.10607484979E+04  0.14562407768E+03  0.11310608508E+04  0.46999998093E+01 0.  1.
</event>
<event>
 5   0  0.8108242E-07  0.2299299E+04  0.7818609E-02  0.8478198E-01
        1   -1    0    0  501    0  0.00000000000E+00  0.00000000000E+00  0.93257724116E+03  0.93257724117E+03  0.50400001928E-02 0.  1.
       -1   -1    0    0    0  501  0.00000000000E+00  0.00000000000E+00 -0.14172484168E+04  0.14172484168E+04  0.50400001928E-02 0. -1.
    10030    2    1    2    0    0  0.00000000000E+00  0.00000000000E+00 -0.48467117564E+03  0.23498256580E+04  0.22992986919E+04 0.  0.
        4    1    3    3  502    0  0.14209578657E+03  0.19172080964E+03 -0.13916571388E+04  0.14119700019E+04  0.12699999809E+01 0. -1.
       -4    1    3    3    0  502 -0.14209578657E+03 -0.19172080964E+03  0.90698596314E+03  0.93785565609E+03  0.12699999809E+01 0.  1.
</event>
<event>
 5   0  0.8108242E-07  0.2299058E+04  0.7818609E-02  0.8478293E-01
        1   -1    0    0  501    0  0.00000000000E+00  0.00000000000E+00  0.11597585403E+04  0.11597585403E+04  0.50400001928E-02 0. -1.
       -1   -1    0    0    0  501  0.00000000000E+00  0.00000000000E+00 -0.11393892865E+04  0.11393892865E+04  0.50400001928E-02 0.  1.
    10030    2    1    2    0    0  0.00000000000E+00  0.00000000000E+00  0.20369253805E+02  0.22991478268E+04  0.22990575945E+04 0.  0.
        4    1    3    3  502    0  0.45635356493E+03  0.81690422090E+03 -0.65754193100E+03  0.11436582034E+04  0.12699999809E+01 0.  1.
       -4    1    3    3    0  502 -0.45635356493E+03 -0.81690422090E+03  0.67791118480E+03  0.11554896234E+04  0.12699999809E+01 0. -1.
</event>
<event>
 5   0  0.1744876E-06  0.2299585E+04  0.7818609E-02  0.8478085E-01
       -2   -1    0    0    0  501  0.00000000000E+00  0.00000000000E+00  0.11640913213E+04  0.11640913213E+04  0.25500000920E-02 0. -1.
        2   -1    0    0  501    0  0.00000000000E+00  0.00000000000E+00 -0.11356693174E+04  0.11356693174E+04  0.25500000920E-02 0.  1.
    10030    2    1    2    0    0  0.00000000000E+00  0.00000000000E+00  0.28422003908E+02  0.22997606387E+04  0.22995850028E+04 0.  0.
        1    1    3    3  502    0 -0.73691321254E+03  0.24265507827E+03  0.86286300904E+03  0.11603685372E+04  0.50400001928E-02 0. -1.
       -1    1    3    3    0  502  0.73691321254E+03 -0.24265507827E+03 -0.83444100513E+03  0.11393921015E+04  0.50400001928E-02 0.  1.
</event>
<event>
 5   0  0.1828646E-06  0.2298334E+04  0.7818609E-02  0.8478578E-01
       -2   -1    0    0    0  501  0.00000000000E+00  0.00000000000E+00  0.12472318349E+04  0.12472318349E+04  0.25500000920E-02 0. -1.
        2   -1    0    0  501    0  0.00000000000E+00  0.00000000000E+00 -0.10588128371E+04  0.10588128371E+04  0.25500000920E-02 0.  1.
    10030    2    1    2    0    0  0.00000000000E+00  0.00000000000E+00  0.18841899784E+03  0.23060446720E+04  0.22983342469E+04 0.  0.
        3    1    3    3  502    0 -0.58718539352E+03  0.90289205103E+03  0.49628360337E+03  0.11858744315E+04  0.10100000352E+00 0. -1.
       -3    1    3    3    0  502  0.58718539352E+03 -0.90289205103E+03 -0.30786460553E+03  0.11201702405E+04  0.10100000352E+00 0.  1.
</event>
<event>
 5   0  0.7932912E-07  0.2300306E+04  0.7818609E-02  0.8477800E-01
        1   -1    0    0  501    0  0.00000000000E+00  0.00000000000E+00  0.83501504255E+03  0.83501504257E+03  0.50400001928E-02 0.  1.
       -1   -1    0    0    0  501  0.00000000000E+00  0.00000000000E+00 -0.15842257627E+04  0.15842257627E+04  0.50400001928E-02 0. -1.
    10030    2    1    2    0    0  0.00000000000E+00  0.00000000000E+00 -0.74921072015E+03  0.24192408053E+04  0.23003063645E+04 0.  0.
        5    1    3    3  502    0 -0.46657939997E+03 -0.96941971422E+03 -0.80227436402E+03  0.13420645156E+04  0.46999998093E+01 0. -1.
       -5    1    3    3    0  502  0.46657939997E+03  0.96941971422E+03  0.53063643879E+02  0.10771762897E+04  0.46999998093E+01 0.  1.
</event>
<event>
 5   0  0.1689444E-06  0.2299206E+04  0.7818609E-02  0.8478234E-01
        2   -1    0    0  501    0  0.00000000000E+00  0.00000000000E+00  0.10735386195E+04  0.10735386195E+04  0.25500000920E-02 0.  1.
       -2   -1    0    0    0  501  0.00000000000E+00  0.00000000000E+00 -0.12310573123E+04  0.12310573123E+04  0.25500000920E-02 0. -1.
    10030    2    1    2    0    0  0.00000000000E+00  0.00000000000E+00 -0.15751869282E+03  0.23045959317E+04  0.22992064435E+04 0.  0.
        2    1    3    3  502    0 -0.91980352237E+03 -0.65256610143E+03  0.14471287726E+03  0.11370236820E+04  0.25500000920E-02 0.  1.
       -2    1    3    3    0  502  0.91980352237E+03  0.65256610143E+03 -0.30223157008E+03  0.11675722498E+04  0.25500000920E-02 0. -1.
</event>
<event>
 5   0  0.1888779E-06  0.2300205E+04  0.7818609E-02  0.8477840E-01
       -2   -1    0    0    0  501  0.00000000000E+00  0.00000000000E+00  0.91436912028E+03  0.91436912028E+03  0.25500000920E-02 0. -1.
        2   -1    0    0  501    0  0.00000000000E+00  0.00000000000E+00 -0.14466104465E+04  0.14466104466E+04  0.25500000920E-02 0.  1.
    10030    2    1    2    0    0  0.00000000000E+00  0.00000000000E+00 -0.53224132627E+03  0.23609795668E+04  0.23002051399E+04 0.  0.
        4    1    3    3  502    0  0.52956987369E+03 -0.30283329091E+03 -0.12668588327E+04  0.14060886061E+04  0.12699999809E+01 0.  1.
       -4    1    3    3    0  502 -0.52956987369E+03  0.30283329091E+03  0.73461750646E+03  0.95489096074E+03  0.12699999809E+01 0. -1.
</event>
<event>
 5   0  0.8108242E-07  0.2299822E+04  0.7818609E-02  0.8477991E-01
        1   -1    0    0  501    0  0.00000000000E+00  0.00000000000E+00  0.16479716360E+04  0.16479716360E+04  0.50400001928E-02 0.  1.
       -1   -1    0    0    0  501  0.00000000000E+00  0.00000000000E+00 -0.80237777612E+03  0.80237777613E+03  0.50400001928E-02 0. -1.
    10030    2    1    2    0    0  0.00000000000E+00  0.00000000000E+00  0.84559385986E+03  0.24503494121E+04  0.22998224422E+04 0.  0.
        4    1    3    3  502    0  0.52421020980E+03  0.99448903046E+03  0.16512186371E+03  0.11362533250E+04  0.12699999809E+01 0. -1.
       -4    1    3    3    0  502 -0.52421020980E+03 -0.99448903046E+03  0.68047199615E+03  0.13140960871E+04  0.12699999809E+01 0.  1.
</event>
<event>
 5   0  0.1825521E-06  0.2300579E+04  0.7818609E-02  0.8477693E-01
        2   -1    0    0  501    0  0.00000000000E+00  0.00000000000E+00  0.12825628738E+04  0.12825628738E+04  0.25500000920E-02 0.  1.
       -2   -1    0    0    0  501  0.00000000000E+00  0.00000000000E+00 -0.10316575189E+04  0.10316575189E+04  0.25500000920E-02 0. -1.
    10030    2    1    2    0    0  0.00000000000E+00  0.00000000000E+00  0.25090535487E+03  0.23142203927E+04  0.23005787378E+04 0.  0.
        5    1    3    3  502    0 -0.19237374010E+03 -0.10118477157E+04 -0.38973661897E+03  0.11012539116E+04  0.46999998093E+01 0.  1.
       -5    1    3    3    0  502  0.19237374010E+03  0.10118477157E+04  0.64064197384E+03  0.12129664811E+04  0.46999998093E+01 0. -1.
</event>
<event>
 5   0  0.1744876E-06  0.2298073E+04  0.7818609E-02  0.8478681E-01
       -2   -1    0    0    0  501  0.00000000000E+00  0.00000000000E+00  0.12589386416E+04  0.12589386416E+04  0.25500000920E-02 0. -1.
        2   -1    0    0  501    0  0.00000000000E+00  0.00000000000E+00 -0.10487287130E+04  0.10487287130E+04  0.25500000920E-02 0.  1.
    10030    2    1    2    0    0  0.00000000000E+00  0.00000000000E+00  0.21020992860E+03  0.23076673545E+04  0.22980731940E+04 0.  0.
        1    1    3    3  502    0  0.97434048482E+03 -0.41287439058E+03 -0.34451477853E+03  0.11128769363E+04  0.50400001928E-02 0.  1.
       -1    1    3    3    0  502 -0.97434048482E+03  0.41287439058E+03  0.55472470714E+03  0.11947904182E+04  0.50400001928E-02 0. -1.
</event>
<event>
 5   0  0.8108242E-07  0.2300026E+04  0.7818609E-02  0.8477911E-01
        1   -1    0    0  501    0  0.00000000000E+00  0.00000000000E+00  0.14086707512E+04  0.14086707513E+04  0.50400001928E-02 0. -1.
       -1   -1    0    0    0  501  0.00000000000E+00  0.00000000000E+00 -0.93884976208E+03  0.93884976210E+03  0.50400001928E-02 0.  1.
    10030    2    1    2    0    0  0.00000000000E+00  0.00000000000E+00  0.46982098916E+03  0.23475205134E+04  0.23000262604E+04 0.  0.
        4    1    3    3  502    0 -0.43289421438E+03 -0.10650702326E+04  0.26298458229E+03  0.11793788639E+04  0.12699999809E+01 0. -1.
       -4    1    3    3    0  502  0.43289421438E+03  0.10650702326E+04  0.20683640687E+03  0.11681416495E+04  0.12699999809E+01 0.  1.
</event>
<event>
 5   0  0.7761069E-07  0.2300275E+04  0.7818609E-02  0.8477813E-01
        1   -1    0    0  501    0  0.00000000000E+00  0.00000000000E+00  0.22588176742E+04  0.22588176742E+04  0.50400001928E-02 0.  1.
       -1   -1    0    0    0  501  0.00000000000E+00  0.00000000000E+00 -0.58562350575E+03  0.58562350577E+03  0.50400001928E-02 0. -1.
    10030    2    1    2    0    0  0.00000000000E+00  0.00000000000E+00  0.16731941684E+04  0.28444411800E+04  0.23002753968E+04 0.  0.
        1    1    3    3  502    0  0.80388726015E+03  0.39979892283E+03  0.17255000360E+04  0.19451026399E+04  0.50400001928E-02 0.  1.
       -1    1    3    3    0  502 -0.80388726015E+03 -0.39979892283E+03 -0.52305867565E+02  0.89933854000E+03  0.50400001928E-02 0. -1.
</event>
<event>
 5   0  0.1888779E-06  0.2298179E+04  0.7818609E-02  0.8478639E-01
        2   -1    0    0  501    0  0.00000000000E+00  0.00000000000E+00  0.10577485124E+04  0.10577485124E+04  0.25500000920E-02 0.  1.
       -2   -1    0    0    0  501  0.00000000000E+00  0.00000000000E+00 -0.12483182191E+04  0.12483182191E+04  0.25500000920E-02 0. -1.
    10030    2    1    2    0    0  0.00000000000E+00  0.00000000000E+00 -0.19056970674E+03  0.23060667314E+04  0.22981790524E+04 0.  0.
        4    1    3    3  502    0 -0.42205664160E+03 -0.90852824223E+03 -0.66011087108E+03  0.11997096943E+04  0.12699999809E+01 0. -1.
       -4    1    3    3    0  502  0.42205664160E+03  0.90852824223E+03  0.46954116434E+03  0.11063570371E+04  0.12699999809E+01 0.  1.
</event>
<event>
 5   0  0.1828646E-06  0.2302336E+04  0.7818609E-02  0.8477001E-01
       -2   -1    0    0    0  501  0.00000000000E+00  0.00000000000E+00  0.12662426250E+04  0.12662426250E+04  0.25500000920E-02 0.  1.
        2   -1    0    0  501    0  0.00000000000E+00  0.00000000000E+00 -0.10465513385E+04  0.10465513385E+04  0.25500000920E-02 0. -1.
    10030    2    1    2    0    0  0.00000000000E+00  0.00000000000E+00  0.21969128648E+03  0.23127939635E+04  0.23023361301E+04 0.  0.
        3    1    3    3  502    0 -0.63172407235E+03  0.67424242471E+03 -0.57993905569E+03  0.10908746350E+04  0.10100000352E+00 0. -1.
       -3    1    3    3    0  502  0.63172407235E+03 -0.67424242471E+03  0.79963034218E+03  0.12219193284E+04  0.10100000352E+00 0.  1.
</event>
<event>
 5   0  0.1689444E-06  0.2299941E+04  0.7818609E-02  0.8477944E-01
       -2   -1    0    0    0  501  0.00000000000E+00  0.00000000000E+00  0.11530396967E+04  0.11530396967E+04  0.25500000920E-02 0. -1.
        2   -1    0    0  501    0  0.00000000000E+00  0.00000000000E+00 -0.11469097035E+04  0.11469097035E+04  0.25500000920E-02 0.  1.
    10030    2    1    2    0    0  0.00000000000E+00  0.00000000000E+00  0.61299931984E+01  0.22999494002E+04  0.22999412311E+04 0.  0.
        2    1    3    3  502    0 -0.24569625666E+03 -0.55341871041E+03  0.98071538747E+03  0.11525804054E+04  0.25500000920E-02 0. -1.
       -2    1    3    3    0  502  0.24569625666E+03  0.55341871041E+03 -0.97458539427E+03  0.11473689948E+04  0.25500000920E-02 0.  1.
</event>
<event>
 5   0  0.1689444E-06  0.2299855E+04  0.7818609E-02  0.8477978E-01
        2   -1    0    0  501    0  0.00000000000E+00  0.00000000000E+00  0.20651296098E+04  0.20651296098E+04  0.25500000920E-02 0. -1.
       -2   -1    0    0    0  501  0.00000000000E+00  0.00000000000E+00 -0.64031494968E+03  0.64031494968E+03  0.25500000920E-02 0.  1.
    10030    2    1    2    0    0  0.00000000000E+00  0.00000000000E+00  0.14248146601E+04  0.27054445595E+04  0.22998550930E+04 0.  0.
        2    1    3    3  502    0  0.62960189809E+03  0.56660982957E+03  0.16273116759E+04  0.18345540438E+04  0.25500000920E-02 0. -1.
       -2    1    3    3    0  502 -0.62960189809E+03 -0.56660982957E+03 -0.20249701573E+03  0.87089051575E+03  0.25500000920E-02 0.  1.
</event>
<event>
 5   0  0.1888779E-06  0.2299871E+04  0.7818609E-02  0.8477972E-01
       -2   -1    0    0    0  501  0.00000000000E+00  0.00000000000E+00  0.63303696486E+03  0.63303696487E+03  0.25500000920E-02 0.  1.
        2   -1    0    0  501    0  0.00000000000E+00  0.00000000000E+00 -0.20889009193E+04  0.20889009193E+04  0.25500000920E-02 0. -1.
    10030    2    1    2    0    0  0.00000000000E+00  0.00000000000E+00 -0.14558639544E+04  0.27219378842E+04  0.22998708641E+04 0.  0.
        4    1    3    3  502    0 -0.14813031807E+03  0.39444431722E+03 -0.19942522148E+04  0.20382768261E+04  0.12699999809E+01 0. -1.
       -4    1    3    3    0  502  0.14813031807E+03 -0.39444431722E+03  0.53838826039E+03  0.68366105808E+03  0.12699999809E+01 0.  1.
</event>
<event>
 5   0  0.1825521E-06  0.2302299E+04  0.7818609E-02  0.8477015E-01
       -2   -1    0    0    0  501  0.00000000000E+00  0.00000000000E+00  0.92885101330E+03  0.92885101330E+03  0.25500000920E-02 0. -1.
        2   -1    0    0  501    0  0.00000000000E+00  0.00000000000E+00 -0.14266493116E+04  0.14266493116E+04  0.25500000920E-02 0.  1.
    10030    2    1    2    0    0  0.00000000000E+00  0.00000000000E+00 -0.49779829834E+03  0.23555003249E+04  0.23022985547E+04 0.  0.
        5    1    3    3  502    0 -0.15216835683E+03 -0.48995602375E+03 -0.13032022307E+04  0.14005606942E+04  0.46999998093E+01 0.  1.
       -5    1    3    3    0  502  0.15216835683E+03  0.48995602375E+03  0.80540393238E+03  0.95493963072E+03  0.46999998093E+01 0. -1.
</event>
<event>
 5   0  0.1825521E-06  0.2299970E+04  0.7818609E-02  0.8477933E-01
       -2   -1    0    0    0  501  0.00000000000E+00  0.00000000000E+00  0.68301357295E+03  0.68301357295E+03  0.25500000920E-02 0.  1.
        2   -1    0    0  501    0  0.00000000000E+00  0.00000000000E+00 -0.19362215710E+04  0.19362215710E+04  0.25500000920E-02 0. -1.
    10030    2    1    2    0    0  0.00000000000E+00  0.00000000000E+00 -0.12532079980E+04  0.26192351439E+04  0.22999700983E+04 0.  0.
        5    1    3    3  502    0 -0.80874111230E+03  0.81522343420E+03 -0.55647598322E+03  0.12760638872E+04  0.46999998093E+01 0. -1.
       -5    1    3    3    0  502  0.80874111230E+03 -0.81522343420E+03 -0.69673201481E+03  0.13431712567E+04  0.46999998093E+01 0.  1.
</event>
<event>
 5   0  0.1828646E-06  0.2300983E+04  0.7818609E-02  0.8477533E-01
        2   -1    0    0  501    0  0.00000000000E+00  0.00000000000E+00  0.13121256664E+04  0.13121256664E+04  0.25500000920E-02 0.  1.
       -2   -1    0    0    0  501  0.00000000000E+00  0.00000000000E+00 -0.10087686364E+04  0.10087686364E+04  0.25500000920E-02 0. -1.
    10030    2    1    2    0    0  0.00000000000E+00  0.00000000000E+00  0.30335703004E+03  0.23208943028E+04  0.23009834587E+04 0.  0.
        3    1    3    3  502    0  0.47750401190E+03  0.10407108566E+04  0.26463884931E+03  0.11752118529E+04  0.10100000352E+00 0.  1.
       -3    1    3    3    0  502 -0.47750401190E+03 -0.10407108566E+04  0.38718180723E+02  0.11456824499E+04  0.10100000352E+00 0. -1.
</event>
<event>
 5   0  0.7761069E-07  0.2301343E+04  0.7818609E-02  0.8477392E-01
       -1   -1    0    0    0  501  0.00000000000E+00  0.00000000000E+00  0.58896084907E+03  0.58896084909E+03  0.50400001928E-02 0. -1.
        1   -1    0    0  501    0  0.00000000000E+00  0.00000000000E+00 -0.22481035227E+04  0.22481035227E+04  0.50400001928E-02 0.  1.
    10030    2    1    2    0    0  0.00000000000E+00  0.00000000000E+00 -0.16591426736E+04  0.28370643718E+04  0.23013430510E+04 0.  0.
        1    1    3    3  502    0 -0.86508357892E+03  0.74301181180E+03 -0.64015175950E+03  0.13077577858E+04  0.50400001928E-02 0.  1.
       -1    1    3    3    0  502  0.86508357892E+03 -0.74301181180E+03 -0.10189909141E+04  0.15293065860E+04  0.50400001928E-02 0. -1.
</event>
<event>
 5   0  0.7761069E-07  0.2299913E+04  0.7818609E-02  0.8477955E-01
       -1   -1    0    0    0  501  0.00000000000E+00  0.00000000000E+00  0.10588501279E+04  0.10588501279E+04  0.50400001928E-02 0. -1.
        1   -1    0    0  501    0  0.00000000000E+00  0.00000000000E+00 -0.12489016939E+04  0.12489016939E+04  0.50400001928E-02 0.  1.
    10030    2    1    2    0    0  0.00000000000E+00  0.00000000000E+00 -0.19005156593E+03  0.23077518218E+04  0.22999127969E+04 0.  0.
        1    1    3    3  502    0  0.53502633956E+02 -0.51249740808E+03 -0.11265782233E+04  0.12388279212E+04  0.50400001928E-02 0.  1.
       -1    1    3    3    0  502 -0.53502633956E+02  0.51249740808E+03  0.93652665740E+03  0.10689239006E+04  0.50400001928E-02 0. -1.
</event>
<event>
 5   0  0.1689444E-06  0.2299700E+04  0.7818609E-02  0.8478039E-01
        2   -1    0    0  501    0  0.00000000000E+00  0.00000000000E+00  0.10463958737E+04  0.10463958737E+04  0.25500000920E-02 0.  1.
       -2   -1    0    0    0  501  0.00000000000E+00  0.00000000000E+00 -0.12635327359E+04  0.12635327359E+04  0.25500000920E-02 0. -1.
    10030    2    1    2    0    0  0.00000000000E+00  0.00000000000E+00 -0.21713686227E+03  0.23099286096E+04  0.22997003641E+04 0.  0.
        2    1    3    3  502    0 -0.57531530230E+00  0.67160126908E+03 -0.10460506023E+04  0.12430890790E+04  0.25500000920E-02 0. -1.
       -2    1    3    3    0  502  0.57531530230E+00 -0.67160126908E+03  0.82891374006E+03  0.10668395306E+04  0.25500000920E-02 0.  1.
</event>
<event>
 5   0  0.1888779E-06  0.2298500E+04  0.7818609E-02  0.8478513E-01
        2   -1    0    0  501    0  0.00000000000E+00  0.00000000000E+00  0.18644276551E+04  0.18644276551E+04  0.25500000920E-02 0.  1.
       -2   -1    0    0    0  501  0.00000000000E+00  0.00000000000E+00 -0.70840784660E+03  0.70840784660E+03  0.25500000920E-02 0. -1.
    10030    2    1    2    0    0  0.00000000000E+00  0.00000000000E+00  0.11560198085E+04  0.25728355017E+04  0.22984996674E+04 0.  0.
        4    1    3    3  502    0  0.76983233926E+03 -0.15467286381E+03  0.15173396271E+04  0.17084749580E+04  0.12699999809E+01 0.  1.
       -4    1    3    3    0  502 -0.76983233926E+03  0.15467286381E+03 -0.36131981854E+03  0.86436054372E+03  0.12699999809E+01 0. -1.
</event>
<event>
 5   0  0.7932912E-07  0.2301944E+04  0.7818609E-02  0.8477155E-01
        1   -1    0    0  501    0  0.00000000000E+00  0.00000000000E+00  0.14397356948E+04  0.14397356948E+04  0.50400001928E-02 0. -1.
       -1   -1    0    0    0  501  0.00000000000E+00  0.00000000000E+00 -0.92012478250E+03  0.92012478252E+03  0.50400001928E-02 0.  1.
    10030    2    1    2    0    0  0.00000000000E+00  0.00000000000E+00  0.51961091227E+03  0.23598604773E+04  0.23019439550E+04 0.  0.
        5    1    3    3  502    0  0.56475264069E+03  0.55158722652E+03  0.11184466696E+04  0.13689919855E+04  0.46999998093E+01 0. -1.
       -5    1    3    3    0  502 -0.56475264069E+03 -0.55158722652E+03 -0.59883575738E+03  0.99086849175E+03  0.46999998093E+01 0.  1.
</event>
<event>
 5   0  0.6319125E-07  0.2301389E+04  0.7818609E-02  0.8477374E-01
        3   -1    0    0  501    0  0.00000000000E+00  0.00000000000E+00  0.23050886335E+04  0.23050886357E+04  0.10100000352E+00 0.  1.
       -3   -1    0    0    0  501  0.00000000000E+00  0.00000000000E+00 -0.57442393417E+03  0.57442394305E+03  0.10100000352E+00 0. -1.
    10030    2    1    2    0    0  0.00000000000E+00  0.00000000000E+00  0.17306646993E+04  0.28795125787E+04  0.23013892304E+04 0.  0.
        3    1    3    3  502    0 -0.85644178816E+03  0.62217891788E+02  0.18237387618E+04  0.20157843843E+04  0.10100000352E+00 0.  1.
       -3    1    3    3    0  502  0.85644178816E+03 -0.62217891788E+02 -0.93074062460E+02  0.86372819444E+03  0.10100000352E+00 0. -1.
</event>
<event>
 5   0  0.1888779E-06  0.2301368E+04  0.7818609E-02  0.8477382E-01
       -2   -1    0    0    0  501  0.00000000000E+00  0.00000000000E+00  0.54296074042E+03  0.54296074043E+03  0.25500000920E-02 0. -1.
        2   -1    0    0  501    0  0.00000000000E+00  0.00000000000E+00 -0.24386177988E+04  0.24386177988E+04  0.25500000920E-02 0.  1.
    10030    2    1    2    0    0  0.00000000000E+00  0.00000000000E+00 -0.18956570584E+04  0.29815785392E+04  0.23013680502E+04 0.  0.
        4    1    3    3  502    0 -0.22256227617E+03  0.65389337579E+03  0.24448928935E+03  0.73272582811E+03  0.12699999809E+01 0. -1.
       -4    1    3    3    0  502  0.22256227617E+03 -0.65389337579E+03 -0.21401463478E+04  0.22488527111E+04  0.12699999809E+01 0.  1.
</event>
<event>
 5   0  0.7932912E-07  0.2302011E+04  0.7818609E-02  0.8477129E-01
        1   -1    0    0  501    0  0.00000000000E+00  0.00000000000E+00  0.50943330169E+03  0.50943330172E+03  0.50400001928E-02 0.  1.
       -1   -1    0    0    0  501  0.00000000000E+00  0.00000000000E+00 -0.26005625742E+04  0.26005625742E+04  0.50400001928E-02 0. -1.
    10030    2    1    2    0    0  0.00000000000E+00  0.00000000000E+00 -0.20911292725E+04  0.31099958759E+04  0.23020105808E+04 0.  0.
        5    1    3    3  502    0  0.14810671930E+03 -0.71620547449E+03 -0.22462797738E+04  0.23623464594E+04  0.46999998093E+01 0. -1.
       -5    1    3    3    0  502 -0.14810671930E+03  0.71620547449E+03  0.15515050130E+03  0.74764941653E+03  0.46999998093E+01 0.  1.
</event>
<event>
 5   0  0.8108242E-07  0.2299943E+04  0.7818609E-02  0.8477944E-01
        1   -1    0    0  501    0  0.00000000000E+00  0.00000000000E+00  0.12133645158E+04  0.12133645158E+04  0.50400001928E-02 0.  1.
       -1   -1    0    0    0  501  0.00000000000E+00  0.00000000000E+00 -0.10898905886E+04  0.10898905886E+04  0.50400001928E-02 0. -1.
    10030    2    1    2    0    0  0.00000000000E+00  0.00000000000E+00  0.12347392722E+03  0.23032551045E+04  0.22999431005E+04 0.  0.
        4    1    3    3  502    0 -0.94695533061E+03  0.58108457294E+03 -0.23542131993E+03  0.11356973584E+04  0.12699999809E+01 0. -1.
       -4    1    3    3    0  502  0.94695533061E+03 -0.58108457294E+03  0.35889524715E+03  0.11675577461E+04  0.12699999809E+01 0.  1.
</event>
<event>
 5   0  0.7761069E-07  0.2299335E+04  0.7818609E-02  0.8478183E-01
        1   -1    0    0  501    0  0.00000000000E+00  0.00000000000E+00  0.11617639092E+04  0.11617639092E+04  0.50400001928E-02 0.  1.
       -1   -1    0    0    0  501  0.00000000000E+00  0.00000000000E+00 -0.11376966817E+04  0.11376966817E+04  0.50400001928E-02 0. -1.
    10030    2    1    2    0    0  0.00000000000E+00  0.00000000000E+00  0.24067227501E+02  0.22994605909E+04  0.22993346380E+04 0.  0.
        1    1    3    3  502    0  0.10210719918E+04  0.22036880311E+03  0.49225209012E+03  0.11547564861E+04  0.50400001928E-02 0.  1.
       -1    1    3    3    0  502 -0.10210719918E+04 -0.22036880311E+03 -0.46818486261E+03  0.11447041048E+04  0.50400001928E-02 0. -1.
</event>
<event>
 5   0  0.7761069E-07  0.2299856E+04  0.7818609E-02  0.8477978E-01
       -1   -1    0    0    0  501  0.00000000000E+00  0.00000000000E+00  0.10449285261E+04  0.10449285261E+04  0.50400001928E-02 0. -1.
        1   -1    0    0  501    0  0.00000000000E+00  0.00000000000E+00 -0.12654783474E+04  0.12654783474E+04  0.50400001928E-02 0.  1.
    10030    2    1    2    0    0  0.00000000000E+00  0.00000000000E+00 -0.22054982127E+03  0.23104068735E+04  0.22998560167E+04 0.  0.
        1    1    3    3  502    0  0.35052312796E+03  0.81931624609E+03 -0.84037505574E+03  0.12248982850E+04  0.50400001928E-02 0.  1.
       -1    1    3    3    0  502 -0.35052312796E+03 -0.81931624609E+03  0.61982523448E+03  0.10855085885E+04  0.50400001928E-02 0. -1.
</event>
<event>
 5   0  0.7761069E-07  0.2290109E+04  0.7818609E-02  0.8481831E-01
        1   -1    0    0  501    0  0.00000000000E+00  0.00000000000E+00  0.65286245501E+03  0.65286245503E+03  0.50400001928E-02 0. -1.
       -1   -1    0    0    0  501  0.00000000000E+00  0.00000000000E+00 -0.20083095723E+04  0.20083095723E+04  0.50400001928E-02 0.  1.
    10030    2    1    2    0    0  0.00000000000E+00  0.00000000000E+00 -0.13554471173E+04  0.26611720273E+04  0.22901090959E+04 0.  0.
        1    1    3    3  502    0 -0.71286493616E+03  0.79559222818E+03 -0.19859776650E+03  0.10865470462E+04  0.50400001928E-02 0. -1.
       -1    1    3    3    0  502  0.71286493616E+03 -0.79559222818E+03 -0.11568493508E+04  0.15746249811E+04  0.50400001928E-02 0.  1.
</event>
<event>
 5   0  0.7607231E-07  0.2299898E+04  0.7818609E-02  0.8477961E-01
       -1   -1    0    0    0  501  0.00000000000E+00  0.00000000000E+00  0.96180695798E+03  0.96180695799E+03  0.50400001928E-02 0. -1.
        1   -1    0    0  501    0  0.00000000000E+00  0.00000000000E+00 -0.13748939870E+04  0.13748939870E+04  0.50400001928E-02 0.  1.
    10030    2    1    2    0    0  0.00000000000E+00  0.00000000000E+00 -0.41308702904E+03  0.23367009450E+04  0.22998979136E+04 0.  0.
        2    1    3    3  502    0  0.20991021158E+03 -0.15801072616E+03  0.93090372998E+03  0.96727009724E+03  0.25500000920E-02 0. -1.
       -2    1    3    3    0  502 -0.20991021158E+03  0.15801072616E+03 -0.13439907590E+04  0.13694308478E+04  0.25500000920E-02 0.  1.
</event>
<event>
 5   0  0.7932912E-07  0.2300168E+04  0.7818609E-02  0.8477855E-01
        1   -1    0    0  501    0  0.00000000000E+00  0.00000000000E+00  0.14047588579E+04  0.14047588579E+04  0.50400001928E-02 0.  1.
       -1   -1    0    0    0  501  0.00000000000E+00  0.00000000000E+00 -0.94158052163E+03  0.94158052164E+03  0.50400001928E-02 0. -1.
    10030    2    1    2    0    0  0.00000000000E+00  0.00000000000E+00  0.46317833630E+03  0.23463393796E+04  0.23001683227E+04 0.  0.
        5    1    3    3  502    0  0.21970673869E+03  0.79146664918E+03 -0.58954162856E+03  0.10110746410E+04  0.46999998093E+01 0. -1.
       -5    1    3    3    0  502 -0.21970673869E+03 -0.79146664918E+03  0.10527199649E+04  0.13352647386E+04  0.46999998093E+01 0.  1.
</event>
<event>
 5   0  0.1828646E-06  0.2300215E+04  0.7818609E-02  0.8477836E-01
       -2   -1    0    0    0  501  0.00000000000E+00  0.00000000000E+00  0.13537526614E+04  0.13537526614E+04  0.25500000920E-02 0.  1.
        2   -1    0    0  501    0  0.00000000000E+00  0.00000000000E+00 -0.97709645390E+03  0.97709645391E+03  0.25500000920E-02 0. -1.
    10030    2    1    2    0    0  0.00000000000E+00  0.00000000000E+00  0.37665620747E+03  0.23308491153E+04  0.23002147073E+04 0.  0.
        3    1    3    3  502    0 -0.12970238680E+03 -0.16473217200E+01 -0.96966059128E+03  0.97829806056E+03  0.10100000352E+00 0. -1.
       -3    1    3    3    0  502  0.12970238680E+03  0.16473217200E+01  0.13463167988E+04  0.13525510547E+04  0.10100000352E+00 0.  1.
</event>
<event>
 5   0  0.8097672E-07  0.2300110E+04  0.7818609E-02  0.8477878E-01
       -1   -1    0    0    0  501  0.00000000000E+00  0.00000000000E+00  0.76769642866E+03  0.76769642868E+03  0.50400001928E-02 0.  1.
        1   -1    0    0  501    0  0.00000000000E+00  0.00000000000E+00 -0.17228504521E+04  0.17228504521E+04  0.50400001928E-02 0. -1.
    10030    2    1    2    0    0  0.00000000000E+00  0.00000000000E+00 -0.95515402341E+03  0.24905468808E+04  0.23001096836E+04 0.  0.
        3    1    3    3  502    0  0.86116904289E+03 -0.26837066795E+03  0.29492800542E+03  0.94900867985E+03  0.10100000352E+00 0.  1.
       -3    1    3    3    0  502 -0.86116904289E+03  0.26837066795E+03 -0.12500820288E+04  0.15415382009E+04  0.10100000352E+00 0. -1.
</event>
<event>
 5   0  0.7607231E-07  0.2299857E+04  0.7818609E-02  0.8477978E-01
       -1   -1    0    0    0  501  0.00000000000E+00  0.00000000000E+00  0.12403046418E+04  0.12403046418E+04  0.50400001928E-02 0. -1.
        1   -1    0    0  501    0  0.00000000000E+00  0.00000000000E+00 -0.10661373694E+04  0.10661373695E+04  0.50400001928E-02 0.  1.
    10030    2    1    2    0    0  0.00000000000E+00  0.00000000000E+00  0.17416727237E+03  0.23064420113E+04  0.22998566287E+04 0.  0.
        2    1    3    3  502    0  0.32980665813E+03 -0.38778253327E+02 -0.10170042552E+04  0.10698475778E+04  0.25500000920E-02 0.  1.
       -2    1    3    3    0  502 -0.32980665813E+03  0.38778253327E+02  0.11911715276E+04  0.12365944334E+04  0.25500000920E-02 0. -1.
</event>
<event>
 5   0  0.1825521E-06  0.2299068E+04  0.7818609E-02  0.8478288E-01
        2   -1    0    0  501    0  0.00000000000E+00  0.00000000000E+00  0.25745337752E+04  0.25745337752E+04  0.25500000920E-02 0.  1.
       -2   -1    0    0    0  501  0.00000000000E+00  0.00000000000E+00 -0.51326922324E+03  0.51326922325E+03  0.25500000920E-02 0. -1.
    10030    2    1    2    0    0  0.00000000000E+00  0.00000000000E+00  0.20612645520E+04  0.30878029985E+04  0.22990684644E+04 0.  0.
        5    1    3    3  502    0 -0.29384187294E+03  0.20848380843E+03  0.24967289910E+04  0.25225951497E+04  0.46999998093E+01 0.  1.
       -5    1    3    3    0  502  0.29384187294E+03 -0.20848380843E+03 -0.43546443903E+03  0.56520784879E+03  0.46999998093E+01 0. -1.
</event>
<event>
 5   0  0.1828646E-06  0.2299437E+04  0.7818609E-02  0.8478143E-01
        2   -1    0    0  501    0  0.00000000000E+00  0.00000000000E+00  0.14408499719E+04  0.14408499719E+04  0.25500000920E-02 0. -1.
       -2   -1    0    0    0  501  0.00000000000E+00  0.00000000000E+00 -0.91741194893E+03  0.91741194894E+03  0.25500000920E-02 0.  1.
    10030    2    1    2    0    0  0.00000000000E+00  0.00000000000E+00  0.52343802297E+03  0.23582619208E+04  0.22994373058E+04 0.  0.
        3    1    3    3  502    0  0.18763749369E+02  0.10376613074E+04 -0.24566946800E+03  0.10665113993E+04  0.10100000352E+00 0.  1.
       -3    1    3    3    0  502 -0.18763749369E+02 -0.10376613074E+04  0.76910749097E+03  0.12917505216E+04  0.10100000352E+00 0. -1.
</event>
<event>
 5   0  0.7761069E-07  0.2300225E+04  0.7818609E-02  0.8477832E-01
       -1   -1    0    0    0  501  0.00000000000E+00  0.00000000000E+00  0.98418882291E+03  0.98418882292E+03  0.50400001928E-02 0.  1.
        1   -1    0    0  501    0  0.00000000000E+00  0.00000000000E+00 -0.13440093843E+04  0.13440093843E+04  0.50400001928E-02 0. -1.
    10030    2    1    2    0    0  0.00000000000E+00  0.00000000000E+00 -0.35982056138E+03  0.23281982072E+04  0.23002252185E+04 0.  0.
        1    1    3    3  502    0  0.38834223076E+03  0.32423387065E+03  0.86552105894E+03  0.10025287999E+04  0.50400001928E-02 0.  1.
       -1    1    3    3    0  502 -0.38834223076E+03 -0.32423387065E+03 -0.12253416203E+04  0.13256694073E+04  0.50400001928E-02 0. -1.
</event>
<event>
 5   0  0.1888779E-06  0.2299313E+04  0.7818609E-02  0.8478192E-01
        2   -1    0    0  501    0  0.00000000000E+00  0.00000000000E+00  0.24566618912E+04  0.24566618912E+04  0.25500000920E-02 0.  1.
       -2   -1    0    0    0  501  0.00000000000E+00  0.00000000000E+00 -0.53801075891E+03  0.53801075891E+03  0.25500000920E-02 0. -1.
    10030    2    1    2    0    0  0.00000000000E+00  0.00000000000E+00  0.19186511323E+04  0.29946726501E+04  0.22993134005E+04 0.  0.
        4    1    3    3  502    0  0.13415201886E+03 -0.18514754148E+03 -0.50809972210E+03  0.55717440427E+03  0.12699999809E+01 0. -1.
       -4    1    3    3    0  502 -0.13415201886E+03  0.18514754148E+03  0.24267508544E+04  0.24374982458E+04  0.12699999809E+01 0.  1.
</event>
<event>
 5   0  0.1744876E-06  0.2299903E+04  0.7818609E-02  0.8477959E-01
        2   -1    0    0  501    0  0.00000000000E+00  0.00000000000E+00  0.27068032184E+04  0.27068032184E+04  0.25500000920E-02 0. -1.
       -2   -1    0    0    0  501  0.00000000000E+00  0.00000000000E+00 -0.48854237163E+03  0.48854237164E+03  0.25500000920E-02 0.  1.
    10030    2    1    2    0    0  0.00000000000E+00  0.00000000000E+00  0.22182608467E+04  0.31953455900E+04  0.22999026622E+04 0.  0.
        1    1    3    3  502    0 -0.30733550366E+03 -0.20213688128E+02 -0.43017017906E+03  0.52906529652E+03  0.50400001928E-02 0.  1.
       -1    1    3    3    0  502  0.30733550366E+03  0.20213688128E+02  0.26484310258E+04  0.26662802935E+04  0.50400001928E-02 0. -1.
</event>
<event>
 5   0  0.1828646E-06  0.2305979E+04  0.7818609E-02  0.8475567E-01
        2   -1    0    0  501    0  0.00000000000E+00  0.00000000000E+00  0.14849608276E+04  0.14849608276E+04  0.25500000920E-02 0. -1.
       -2   -1    0    0    0  501  0.00000000000E+00  0.00000000000E+00 -0.89523243631E+03  0.89523243631E+03  0.25500000920E-02 0.  1.
    10030    2    1    2    0    0  0.00000000000E+00  0.00000000000E+00  0.58972839129E+03  0.23801932639E+04  0.23059792710E+04 0.  0.
        3    1    3    3  502    0  0.10940815339E+04 -0.79265913492E+02 -0.71651868750E+02  0.10992868089E+04  0.10100000352E+00 0. -1.
       -3    1    3    3    0  502 -0.10940815339E+04  0.79265913492E+02  0.66138026004E+03  0.12809064550E+04  0.10100000352E+00 0.  1.
</event>
<event>
 5   0  0.7932912E-07  0.2299801E+04  0.7818609E-02  0.8478000E-01
        1   -1    0    0  501    0  0.00000000000E+00  0.00000000000E+00  0.89280352169E+03  0.89280352171E+03  0.50400001928E-02 0.  1.
       -1   -1    0    0    0  501  0.00000000000E+00  0.00000000000E+00 -0.14810322226E+04  0.14810322226E+04  0.50400001928E-02 0. -1.
    10030    2    1    2    0    0  0.00000000000E+00  0.00000000000E+00 -0.58822870091E+03  0.23738357443E+04  0.22998006732E+04 0.  0.
        5    1    3    3  502    0  0.74053736192E+03  0.12105244574E+03  0.60525565741E+03  0.96405693807E+03  0.46999998093E+01 0.  1.
       -5    1    3    3    0  502 -0.74053736192E+03 -0.12105244574E+03 -0.11934843583E+04  0.14097788063E+04  0.46999998093E+01 0. -1.
</event>
<event>
 5   0  0.7607231E-07  0.2300167E+04  0.7818609E-02  0.8477855E-01
        1   -1    0    0  501    0  0.00000000000E+00  0.00000000000E+00  0.11086431731E+04  0.11086431731E+04  0.50400001928E-02 0. -1.
       -1   -1    0    0    0  501  0.00000000000E+00  0.00000000000E+00 -0.11930730817E+04  0.11930730817E+04  0.50400001928E-02 0.  1.
    10030    2    1    2    0    0  0.00000000000E+00  0.00000000000E+00 -0.84429908604E+02  0.23017162549E+04  0.23001672349E+04 0.  0.
        2    1    3    3  502    0  0.72292834609E+03 -0.43268741655E+03  0.74115867432E+03  0.11221229766E+04  0.25500000920E-02 0. -1.
       -2    1    3    3    0  502 -0.72292834609E+03  0.43268741655E+03 -0.82558858292E+03  0.11795932783E+04  0.25500000920E-02 0.  1.
</event>
<event>
 5   0  0.7761069E-07  0.2294142E+04  0.7818609E-02  0.8480234E-01
        1   -1    0    0  501    0  0.00000000000E+00  0.00000000000E+00  0.16512498850E+04  0.16512498850E+04  0.50400001928E-02 0. -1.
       -1   -1    0    0    0  501  0.00000000000E+00  0.00000000000E+00 -0.79683408923E+03  0.79683408925E+03  0.50400001928E-02 0.  1.
    10030    2    1    2    0    0  0.00000000000E+00  0.00000000000E+00  0.85441579576E+03  0.24480839743E+04  0.22941422783E+04 0.  0.
        1    1    3    3  502    0  0.18010191833E+03 -0.57300045933E+03 -0.61561127138E+03  0.86008340575E+03  0.50400001928E-02 0.  1.
       -1    1    3    3    0  502 -0.18010191833E+03  0.57300045933E+03  0.14700270671E+04  0.15880005685E+04  0.50400001928E-02 0. -1.
</event>
<event>
 5   0  0.1689444E-06  0.2300588E+04  0.7818609E-02  0.8477689E-01
        2   -1    0    0  501    0  0.00000000000E+00  0.00000000000E+00  0.18752250381E+04  0.18752250381E+04  0.25500000920E-02 0. -1.
       -2   -1    0    0    0  501  0.00000000000E+00  0.00000000000E+00 -0.70560918678E+03  0.70560918679E+03  0.25500000920E-02 0.  1.
    10030    2    1    2    0    0  0.00000000000E+00  0.00000000000E+00  0.11696158514E+04  0.25808342249E+04  0.23005877633E+04 0.  0.
        2    1    3    3  502    0  0.94728706465E+03  0.63128187972E+03  0.77018400142E+03  0.13744282413E+04  0.25500000920E-02 0.  1.
       -2    1    3    3    0  502 -0.94728706465E+03 -0.63128187972E+03  0.39943184995E+03  0.12064059836E+04  0.25500000920E-02 0. -1.
</event>
<event>
 5   0  0.1888779E-06  0.2299767E+04  0.7818609E-02  0.8478013E-01
       -2   -1    0    0    0  501  0.00000000000E+00  0.00000000000E+00  0.10585638866E+04  0.10585638866E+04  0.25500000920E-02 0.  1.
        2   -1    0    0  501    0  0.00000000000E+00  0.00000000000E+00 -0.12490806056E+04  0.12490806056E+04  0.25500000920E-02 0. -1.
    10030    2    1    2    0    0  0.00000000000E+00  0.00000000000E+00 -0.19051671903E+03  0.23076444922E+04  0.22997666148E+04 0.  0.
        4    1    3    3  502    0  0.83200498003E+03 -0.54359676429E+03 -0.67559952906E+03  0.12017346069E+04  0.12699999809E+01 0. -1.
       -4    1    3    3    0  502 -0.83200498003E+03  0.54359676429E+03  0.48508281003E+03  0.11059098853E+04  0.12699999809E+01 0.  1.
</event>
<event>
 5   0  0.7607231E-07  0.2299236E+04  0.7818609E-02  0.8478222E-01
       -1   -1    0    0    0  501  0.00000000000E+00  0.00000000000E+00  0.85649196127E+03  0.85649196129E+03  0.50400001928E-02 0.  1.
        1   -1    0    0  501    0  0.00000000000E+00  0.00000000000E+00 -0.15430639916E+04  0.15430639916E+04  0.50400001928E-02 0. -1.
    10030    2    1    2    0    0  0.00000000000E+00  0.00000000000E+00 -0.68657203028E+03  0.23995559529E+04  0.22992363119E+04 0.  0.
        2    1    3    3  502    0 -0.18581346629E+03 -0.58152974656E+02  0.83916000647E+03  0.86145106023E+03  0.25500000920E-02 0.  1.
       -2    1    3    3    0  502  0.18581346629E+03  0.58152974656E+02 -0.15257320367E+04  0.15381048926E+04  0.25500000920E-02 0. -1.
</event>
<event>
 5   0  0.7932912E-07  0.2300111E+04  0.7818609E-02  0.8477877E-01
        1   -1    0    0  501    0  0.00000000000E+00  0.00000000000E+00  0.14771800588E+04  0.14771800588E+04  0.50400001928E-02 0. -1.
       -1   -1    0    0    0  501  0.00000000000E+00  0.00000000000E+00 -0.89537340664E+03  0.89537340665E+03  0.50400001928E-02 0.  1.
    10030    2    1    2    0    0  0.00000000000E+00  0.00000000000E+00  0.58180665218E+03  0.23725534655E+04  0.23001110769E+04 0.  0.
        5    1    3    3  502    0 -0.77600169983E+03  0.39922848151E+03 -0.48171591166E+03  0.99681208266E+03  0.46999998093E+01 0.  1.
       -5    1    3    3    0  502  0.77600169983E+03 -0.39922848151E+03  0.10635225638E+04  0.13757413828E+04  0.46999998093E+01 0. -1.
</event>
<event>
 5   0  0.7607231E-07  0.2299929E+04  0.7818609E-02  0.8477949E-01
       -1   -1    0    0    0  501  0.00000000000E+00  0.00000000000E+00  0.12829563696E+04  0.12829563696E+04  0.50400001928E-02 0. -1.
        1   -1    0    0  501    0  0.00000000000E+00  0.00000000000E+00 -0.10307588073E+04  0.10307588074E+04  0.50400001928E-02 0.  1.
    10030    2    1    2    0    0  0.00000000000E+00  0.00000000000E+00  0.25219756224E+03  0.23137151770E+04  0.22999291967E+04 0.  0.
        2    1    3    3  502    0  0.82579048220E+03 -0.79213141295E+03  0.11325120684E+02  0.11443471301E+04  0.25500000920E-02 0.  1.
       -2    1    3    3    0  502 -0.82579048220E+03  0.79213141295E+03  0.24087244156E+03  0.11693680468E+04  0.25500000920E-02 0. -1.
</event>
<event>
 5   0  0.6319125E-07  0.2300704E+04  0.7818609E-02  0.8477644E-01
       -3   -1    0    0    0  501  0.00000000000E+00  0.00000000000E+00  0.14052233693E+04  0.14052233729E+04  0.10100000352E+00 0. -1.
        3   -1    0    0  501    0  0.00000000000E+00  0.00000000000E+00 -0.94170765560E+03  0.94170766102E+03  0.10100000352E+00 0.  1.
    10030    2    1    2    0    0  0.00000000000E+00  0.00000000000E+00  0.46351571367E+03  0.23469310339E+04  0.23007039056E+04 0.  0.
        1    1    3    3  502    0  0.66841643149E+02  0.13199439980E+03 -0.93196139108E+03  0.94363253511E+03  0.50400001928E-02 0.  1.
       -1    1    3    3    0  502 -0.66841643149E+02 -0.13199439980E+03  0.13954771047E+04  0.14032984988E+04  0.50400001928E-02 0. -1.
</event>
<event>
 5   0  0.1689444E-06  0.2300047E+04  0.7818609E-02  0.8477902E-01
       -2   -1    0    0    0  501  0.00000000000E+00  0.00000000000E+00  0.15716005532E+04  0.15716005532E+04  0.25500000920E-02 0.  1.
        2   -1    0    0  501    0  0.00000000000E+00  0.00000000000E+00 -0.84153354815E+03  0.84153354815E+03  0.25500000920E-02 0. -1.
    10030    2    1    2    0    0  0.00000000000E+00  0.00000000000E+00  0.73006700506E+03  0.24131341014E+04  0.23000474689E+04 0.  0.
        2    1    3    3  502    0  0.35609581793E+03 -0.52372969104E+03  0.13721560722E+04  0.15112608337E+04  0.25500000920E-02 0.  1.
       -2    1    3    3    0  502 -0.35609581793E+03  0.52372969104E+03 -0.64208906716E+03  0.90187326770E+03  0.25500000920E-02 0. -1.
</event>
<event>
 5   0  0.1828646E-06  0.2299922E+04  0.7818609E-02  0.8477952E-01
        2   -1    0    0  501    0  0.00000000000E+00  0.00000000000E+00  0.98994074532E+03  0.98994074532E+03  0.25500000920E-02 0.  1.
       -2   -1    0    0    0  501  0.00000000000E+00  0.00000000000E+00 -0.13358483424E+04  0.13358483424E+04  0.25500000920E-02 0. -1.
    10030    2    1    2    0    0  0.00000000000E+00  0.00000000000E+00 -0.34590759708E+03  0.23257890877E+04  0.22999223498E+04 0.  0.
        3    1    3    3  502    0  0.46679968507E+03 -0.68650644444E+03  0.63174557007E+03  0.10432140335E+04  0.10100000352E+00 0.  1.
       -3    1    3    3    0  502 -0.46679968507E+03  0.68650644444E+03 -0.97765316715E+03  0.12825750542E+04  0.10100000352E+00 0. -1.
</event>
<event>
 5   0  0.1689444E-06  0.2299852E+04  0.7818609E-02  0.8477979E-01
        2   -1    0    0  501    0  0.00000000000E+00  0.00000000000E+00  0.12218181634E+04  0.12218181634E+04  0.25500000920E-02 0.  1.
       -2   -1    0    0    0  501  0.00000000000E+00  0.00000000000E+00 -0.10822641621E+04  0.10822641621E+04  0.25500000920E-02 0. -1.
    10030    2    1    2    0    0  0.00000000000E+00  0.00000000000E+00  0.13955400135E+03  0.23040823255E+04  0.22998521786E+04 0.  0.
        2    1    3    3  502    0  0.10495162481E+04 -0.56887868955E+02 -0.39756726830E+03  0.11237349855E+04  0.25500000920E-02 0. -1.
       -2    1    3    3    0  502 -0.10495162481E+04  0.56887868955E+02  0.53712126964E+03  0.11803473400E+04  0.25500000920E-02 0.  1.
</event>
<event>
 5   0  0.8097672E-07  0.2300402E+04  0.7818609E-02  0.8477763E-01
        1   -1    0    0  501    0  0.00000000000E+00  0.00000000000E+00  0.14516607547E+04  0.14516607548E+04  0.50400001928E-02 0.  1.
       -1   -1    0    0    0  501  0.00000000000E+00  0.00000000000E+00 -0.91134406208E+03  0.91134406210E+03  0.50400001928E-02 0. -1.
    10030    2    1    2    0    0  0.00000000000E+00  0.00000000000E+00  0.54031669266E+03  0.23630048168E+04  0.23004020597E+04 0.  0.
        3    1    3    3  502    0 -0.68505746124E+03  0.35661116175E+02 -0.67821481990E+03  0.96465060646E+03  0.10100000352E+00 0. -1.
       -3    1    3    3    0  502  0.68505746124E+03 -0.35661116175E+02  0.12185315126E+04  0.13983542104E+04  0.10100000352E+00 0.  1.
</event>
<event>
 5   0  0.7932912E-07  0.2299827E+04  0.7818609E-02  0.8477989E-01
        1   -1    0    0  501    0  0.00000000000E+00  0.00000000000E+00  0.23182558366E+04  0.23182558366E+04  0.50400001928E-02 0.  1.
       -1   -1    0    0    0  501  0.00000000000E+00  0.00000000000E+00 -0.57038631874E+03  0.57038631877E+03  0.50400001928E-02 0. -1.
    10030    2    1    2    0    0  0.00000000000E+00  0.00000000000E+00  0.17478695179E+04  0.28886421554E+04  0.22998273088E+04 0.  0.
        5    1    3    3  502    0  0.10389622975E+01  0.10629701900E+04  0.32303809011E+03  0.11109826290E+04  0.46999998093E+01 0. -1.
       -5    1    3    3    0  502 -0.10389622975E+01 -0.10629701900E+04  0.14248314278E+04  0.17776595264E+04  0.46999998093E+01 0.  1.
</event>
<event>
 5   0  0.1828646E-06  0.2297410E+04  0.7818609E-02  0.8478943E-01
       -2   -1    0    0    0  501  0.00000000000E+00  0.00000000000E+00  0.11388190023E+04  0.11388190023E+04  0.25500000920E-02 0. -1.
        2   -1    0    0  501    0  0.00000000000E+00  0.00000000000E+00 -0.11586769716E+04  0.11586769716E+04  0.25500000920E-02 0.  1.
    10030    2    1    2    0    0  0.00000000000E+00  0.00000000000E+00 -0.19857969231E+02  0.22974959739E+04  0.22974101530E+04 0.  0.
        3    1    3    3  502    0 -0.68098670773E+03 -0.21371700993E+03 -0.91002120828E+03  0.11565277628E+04  0.10100000352E+00 0.  1.
       -3    1    3    3    0  502  0.68098670773E+03  0.21371700993E+03  0.89016323905E+03  0.11409682111E+04  0.10100000352E+00 0. -1.
</event>
<event>
 5   0  0.7932912E-07  0.2300386E+04  0.7818609E-02  0.8477769E-01
       -1   -1    0    0    0  501  0.00000000000E+00  0.00000000000E+00  0.88252560565E+03  0.88252560567E+03  0.50400001928E-02 0.  1.
        1   -1    0    0  501    0  0.00000000000E+00  0.00000000000E+00 -0.14990428889E+04  0.14990428890E+04  0.50400001928E-02 0. -1.
    10030    2    1    2    0    0  0.00000000000E+00  0.00000000000E+00 -0.61651728329E+03  0.23815684946E+04  0.23003858229E+04 0.  0.
        5    1    3    3  502    0 -0.11179597158E+04  0.26388292040E+03 -0.36909924114E+03  0.12065340698E+04  0.46999998093E+01 0. -1.
       -5    1    3    3    0  502  0.11179597158E+04 -0.26388292040E+03 -0.24741804215E+03  0.11750344248E+04  0.46999998093E+01 0.  1.
</event>
<event>
 5   0  0.7607231E-07  0.2300141E+04  0.7818609E-02  0.8477865E-01
       -1   -1    0    0    0  501  0.00000000000E+00  0.00000000000E+00  0.93752611819E+03  0.93752611820E+03  0.50400001928E-02 0.  1.
        1   -1    0    0  501    0  0.00000000000E+00  0.00000000000E+00 -0.14108004370E+04  0.14108004370E+04  0.50400001928E-02 0. -1.
    10030    2    1    2    0    0  0.00000000000E+00  0.00000000000E+00 -0.47327431884E+03  0.23483265552E+04  0.23001410890E+04 0.  0.
        2    1    3    3  502    0  0.68171596990E+03  0.40766173614E+03 -0.10857681154E+04  0.13452944493E+04  0.25500000920E-02 0. -1.
       -2    1    3    3    0  502 -0.68171596990E+03 -0.40766173614E+03  0.61249379659E+03  0.10030321060E+04  0.25500000920E-02 0.  1.
</event>
<event>
 5   0  0.1825521E-06  0.2300072E+04  0.7818609E-02  0.8477893E-01
        2   -1    0    0  501    0  0.00000000000E+00  0.00000000000E+00  0.10144077617E+04  0.10144077617E+04  0.25500000920E-02 0.  1.
       -2   -1    0    0    0  501  0.00000000000E+00  0.00000000000E+00 -0.13037976166E+04  0.13037976166E+04  0.25500000920E-02 0. -1.
    10030    2    1    2    0    0  0.00000000000E+00  0.00000000000E+00 -0.28938985487E+03  0.23182053783E+04  0.23000716701E+04 0.  0.
        5    1    3    3  502    0  0.53950608027E+03  0.93091282196E+03  0.26457899340E+03  0.11080115642E+04  0.46999998093E+01 0.  1.
       -5    1    3    3    0  502 -0.53950608027E+03 -0.93091282196E+03 -0.55396884826E+03  0.12101938141E+04  0.46999998093E+01 0. -1.
</event>
<event>
 5   0  0.7761069E-07  0.2300058E+04  0.7818609E-02  0.8477898E-01
       -1   -1    0    0    0  501  0.00000000000E+00  0.00000000000E+00  0.49065931328E+03  0.49065931330E+03  0.50400001928E-02 0.  1.
        1   -1    0    0  501    0  0.00000000000E+00  0.00000000000E+00 -0.26954887135E+04  0.26954887135E+04  0.50400001928E-02 0. -1.
    10030    2    1    2    0    0  0.00000000000E+00  0.00000000000E+00 -0.22048294002E+04  0.31861480268E+04  0.23000579481E+04 0.  0.
        1    1    3    3  502    0 -0.50383941864E+03 -0.21236566554E+03  0.29909185183E+03  0.62322489644E+03  0.50400001928E-02 0.  1.
       -1    1    3    3    0  502  0.50383941864E+03  0.21236566554E+03 -0.25039212520E+04  0.25629231304E+04  0.50400001928E-02 0. -1.
</event>
<event>
 5   0  0.1828646E-06  0.2300313E+04  0.7818609E-02  0.8477798E-01
        2   -1    0    0  501    0  0.00000000000E+00  0.00000000000E+00  0.10874139774E+04  0.10874139774E+04  0.25500000920E-02 0.  1.
       -2   -1    0    0    0  501  0.00000000000E+00  0.00000000000E+00 -0.12165193738E+04  0.12165193738E+04  0.25500000920E-02 0. -1.
    10030    2    1    2    0    0  0.00000000000E+00  0.00000000000E+00 -0.12910539645E+03  0.23039333512E+04  0.23003131707E+04 0.  0.
        3    1    3    3  502    0  0.74447928593E+03 -0.82320949824E+03 -0.36658469887E+03  0.11688916275E+04  0.10100000352E+00 0.  1.
       -3    1    3    3    0  502 -0.74447928593E+03  0.82320949824E+03  0.23747930242E+03  0.11350417237E+04  0.10100000352E+00 0. -1.
</event>
<event>
 5   0  0.1744876E-06  0.2302296E+04  0.7818609E-02  0.8477017E-01
       -2   -1    0    0    0  501  0.00000000000E+00  0.00000000000E+00  0.15076323325E+04  0.15076323325E+04  0.25500000920E-02 0. -1.
        2   -1    0    0  501    0  0.00000000000E+00  0.00000000000E+00 -0.87895519458E+03  0.87895519459E+03  0.25500000920E-02 0.  1.
    10030    2    1    2    0    0  0.00000000000E+00  0.00000000000E+00  0.62867713790E+03  0.23865875271E+04  0.23022956111E+04 0.  0.
        1    1    3    3  502    0 -0.14877501857E+03 -0.98720638009E+03 -0.27973227440E+03  0.10368030615E+04  0.50400001928E-02 0. -1.
       -1    1    3    3    0  502  0.14877501857E+03  0.98720638009E+03  0.90840941230E+03  0.13497844655E+04  0.50400001928E-02 0.  1.
</event>
<event>
 5   0  0.1828646E-06  0.2304063E+04  0.7818609E-02  0.8476321E-01
       -2   -1    0    0    0  501  0.00000000000E+00  0.00000000000E+00  0.13303116604E+04  0.13303116604E+04  0.25500000920E-02 0.  1.
        2   -1    0    0  501    0  0.00000000000E+00  0.00000000000E+00 -0.99764370670E+03  0.99764370670E+03  0.25500000920E-02 0. -1.
    10030    2    1    2    0    0  0.00000000000E+00  0.00000000000E+00  0.33266795366E+03  0.23279553671E+04  0.23040634157E+04 0.  0.
        3    1    3    3  502    0 -0.12400924117E+03  0.64589697205E+03  0.11219832125E+04  0.13005412449E+04  0.10100000352E+00 0.  1.
       -3    1    3    3    0  502  0.12400924117E+03 -0.64589697205E+03 -0.78931525882E+03  0.10274141222E+04  0.10100000352E+00 0. -1.
</event>
<event>
 5   0  0.7607231E-07  0.2298954E+04  0.7818609E-02  0.8478334E-01
        1   -1    0    0  501    0  0.00000000000E+00  0.00000000000E+00  0.10677775749E+04  0.10677775749E+04  0.50400001928E-02 0.  1.
       -1   -1    0    0    0  501  0.00000000000E+00  0.00000000000E+00 -0.12374271531E+04  0.12374271531E+04  0.50400001928E-02 0. -1.
    10030    2    1    2    0    0  0.00000000000E+00  0.00000000000E+00 -0.16964957814E+03  0.23052047280E+04  0.22989536443E+04 0.  0.
        2    1    3    3  502    0  0.97781293009E+03  0.32582095567E+03 -0.59514827290E+03  0.11901591861E+04  0.25500000920E-02 0. -1.
       -2    1    3    3    0  502 -0.97781293009E+03 -0.32582095567E+03  0.42549869476E+03  0.11150455420E+04  0.25500000920E-02 0.  1.
</event>
<event>
 5   0  0.1888779E-06  0.2298930E+04  0.7818609E-02  0.8478343E-01
       -2   -1    0    0    0  501  0.00000000000E+00  0.00000000000E+00  0.75205220447E+03  0.75205220448E+03  0.25500000920E-02 0.  1.
        2   -1    0    0  501    0  0.00000000000E+00  0.00000000000E+00 -0.17568860294E+04  0.17568860294E+04  0.25500000920E-02 0. -1.
    10030    2    1    2    0    0  0.00000000000E+00  0.00000000000E+00 -0.10048338250E+04  0.25089382339E+04  0.22989301959E+04 0.  0.
        4    1    3    3  502    0  0.31785084473E+03  0.94443864980E+03  0.12287528283E+03  0.10040385803E+04  0.12699999809E+01 0.  1.
       -4    1    3    3    0  502 -0.31785084473E+03 -0.94443864980E+03 -0.11277091078E+04  0.15048996536E+04  0.12699999809E+01 0. -1.
</event>
<event>
 5   0  0.7932912E-07  0.2300362E+04  0.7818609E-02  0.8477778E-01
        1   -1    0    0  501    0  0.00000000000E+00  0.00000000000E+00  0.19486773922E+04  0.19486773922E+04  0.50400001928E-02 0.  1.
       -1   -1    0    0    0  501  0.00000000000E+00  0.00000000000E+00 -0.67887928194E+03  0.67887928196E+03  0.50400001928E-02 0. -1.
    10030    2    1    2    0    0  0.00000000000E+00  0.00000000000E+00  0.12697981102E+04  0.26275566741E+04  0.23003623269E+04 0.  0.
        5    1    3    3  502    0 -0.78168084610E+03  0.79007509176E+03  0.29672962920E+03  0.11503539275E+04  0.46999998093E+01 0. -1.
       -5    1    3    3    0  502  0.78168084610E+03 -0.79007509176E+03  0.97306848102E+03  0.14772027466E+04  0.46999998093E+01 0.  1.
</event>
<event>
 5   0  0.6319125E-07  0.2300781E+04  0.7818609E-02  0.8477613E-01
        4   -1    0    0  501    0  0.00000000000E+00  0.00000000000E+00  0.13068898873E+04  0.13068905044E+04  0.12699999809E+01 0.  1.
       -4   -1    0    0    0  501  0.00000000000E+00  0.00000000000E+00 -0.10126308093E+04  0.10126316056E+04  0.12699999809E+01 0. -1.
    10030    2    1    2    0    0  0.00000000000E+00  0.00000000000E+00  0.29425907805E+03  0.23195221100E+04  0.23007812616E+04 0.  0.
        4    1    3    3  502    0 -0.57858030958E+03  0.68018408450E+03 -0.58403061876E+03  0.10670046579E+04  0.12699999809E+01 0. -1.
       -4    1    3    3    0  502  0.57858030958E+03 -0.68018408450E+03  0.87828969680E+03  0.12525174521E+04  0.12699999809E+01 0.  1.
</event>
<event>
 5   0  0.6319125E-07  0.2300089E+04  0.7818609E-02  0.8477886E-01
       -3   -1    0    0    0  501  0.00000000000E+00  0.00000000000E+00  0.12156963982E+04  0.12156964024E+04  0.10100000352E+00 0. -1.
        3   -1    0    0  501    0  0.00000000000E+00  0.00000000000E+00 -0.10879382037E+04  0.10879382084E+04  0.10100000352E+00 0.  1.
    10030    2    1    2    0    0  0.00000000000E+00  0.00000000000E+00  0.12775819455E+03  0.23036346108E+04  0.23000891861E+04 0.  0.
        4    1    3    3  502    0  0.10658597785E+03 -0.39403010616E+02 -0.10823008533E+04  0.10882508524E+04  0.12699999809E+01 0.  1.
       -4    1    3    3    0  502 -0.10658597785E+03  0.39403010616E+02  0.12100590478E+04  0.12153837584E+04  0.12699999809E+01 0. -1.
</event>
<event>
 5   0  0.7607231E-07  0.2300359E+04  0.7818609E-02  0.8477780E-01
       -1   -1    0    0    0  501  0.00000000000E+00  0.00000000000E+00  0.98921566679E+03  0.98921566680E+03  0.50400001928E-02 0. -1.
        1   -1    0    0  501    0  0.00000000000E+00  0.00000000000E+00 -0.13373348994E+04  0.13373348994E+04  0.50400001928E-02 0.  1.
    10030    2    1    2    0    0  0.00000000000E+00  0.00000000000E+00 -0.34811923257E+03  0.23265505662E+04  0.23003587844E+04 0.  0.
        2    1    3    3  502    0 -0.90361813737E+03  0.50746842729E+03  0.33048179205E+03  0.10877813005E+04  0.25500000920E-02 0. -1.
       -2    1    3    3    0  502  0.90361813737E+03 -0.50746842729E+03 -0.67860102462E+03  0.12387692656E+04  0.25500000920E-02 0.  1.
</event>
<event>
 5   0  0.8097672E-07  0.2296631E+04  0.7818609E-02  0.8479251E-01
        1   -1    0    0  501    0  0.00000000000E+00  0.00000000000E+00  0.19963650554E+04  0.19963650554E+04  0.50400001928E-02 0.  1.
       -1   -1    0    0    0  501  0.00000000000E+00  0.00000000000E+00 -0.66051485310E+03  0.66051485312E+03  0.50400001928E-02 0. -1.
    10030    2    1    2    0    0  0.00000000000E+00  0.00000000000E+00  0.13358502023E+04  0.26568799085E+04  0.22966312471E+04 0.  0.
        3    1    3    3  502    0 -0.52252647762E+03  0.25726341696E+03  0.18128131068E+04  0.19040771402E+04  0.10100000352E+00 0.  1.
       -3    1    3    3    0  502  0.52252647762E+03 -0.25726341696E+03 -0.47696290449E+03  0.75280276832E+03  0.10100000352E+00 0. -1.
</event>
<event>
 5   0  0.7932912E-07  0.2299969E+04  0.7818609E-02  0.8477933E-01
       -1   -1    0    0    0  501  0.00000000000E+00  0.00000000000E+00  0.13198328186E+04  0.13198328186E+04  0.50400001928E-02 0. -1.
        1   -1    0    0  501    0  0.00000000000E+00  0.00000000000E+00 -0.10019936393E+04  0.10019936393E+04  0.50400001928E-02 0.  1.
    10030    2    1    2    0    0  0.00000000000E+00  0.00000000000E+00  0.31783917930E+03  0.23218264579E+04  0.22999687729E+04 0.  0.
        5    1    3    3  502    0 -0.87424598465E+03  0.72698804044E+03 -0.14833367927E+02  0.11371278606E+04  0.46999998093E+01 0.  1.
       -5    1    3    3    0  502  0.87424598465E+03 -0.72698804044E+03  0.33267254722E+03  0.11846985972E+04  0.46999998093E+01 0. -1.
</event>
<event>
 5   0  0.1825521E-06  0.2300239E+04  0.7818609E-02  0.8477827E-01
        2   -1    0    0  501    0  0.00000000000E+00  0.00000000000E+00  0.70979476753E+03  0.70979476753E+03  0.25500000920E-02 0. -1.
       -2   -1    0    0    0  501  0.00000000000E+00  0.00000000000E+00 -0.18636018450E+04  0.18636018450E+04  0.25500000920E-02 0.  1.
    10030    2    1    2    0    0  0.00000000000E+00  0.00000000000E+00 -0.11538070775E+04  0.25733966126E+04  0.23002389775E+04 0.  0.
        5    1    3    3  502    0 -0.49103067630E+03  0.59168017748E+03 -0.15337838346E+04  0.17157247736E+04  0.46999998093E+01 0.  1.
       -5    1    3    3    0  502  0.49103067630E+03 -0.59168017748E+03  0.37997675706E+03  0.85767183899E+03  0.46999998093E+01 0. -1.
</event>
<event>
 5   0  0.7761069E-07  0.2300482E+04  0.7818609E-02  0.8477731E-01
       -1   -1    0    0    0  501  0.00000000000E+00  0.00000000000E+00  0.12106277620E+04  0.12106277620E+04  0.50400001928E-02 0.  1.
        1   -1    0    0  501    0  0.00000000000E+00  0.00000000000E+00 -0.10928662616E+04  0.10928662616E+04  0.50400001928E-02 0. -1.
    10030    2    1    2    0    0  0.00000000000E+00  0.00000000000E+00  0.11776150044E+03  0.23034940237E+04  0.23004818943E+04 0.  0.
        1    1    3    3  502    0  0.39854199654E+03 -0.50004819422E+03  0.10162551894E+04  0.12006908551E+04  0.50400001928E-02 0.  1.
       -1    1    3    3    0  502 -0.39854199654E+03  0.50004819422E+03 -0.89849368892E+03  0.11028031686E+04  0.50400001928E-02 0. -1.
</event>
<event>
 5   0  0.7932912E-07  0.2300328E+04  0.7818609E-02  0.8477792E-01
       -1   -1    0    0    0  501  0.00000000000E+00  0.00000000000E+00  0.74424396065E+03  0.74424396067E+03  0.50400001928E-02 0.  1.
        1   -1    0    0  501    0  0.00000000000E+00  0.00000000000E+00 -0.17774771908E+04  0.17774771908E+04  0.50400001928E-02 0. -1.
    10030    2    1    2    0    0  0.00000000000E+00  0.00000000000E+00 -0.10332332301E+04  0.25217211515E+04  0.23003275110E+04 0.  0.
        5    1    3    3  502    0 -0.97745133939E+03 -0.22076750083E+03 -0.11354901882E+04  0.15144337120E+04  0.46999998093E+01 0. -1.
       -5    1    3    3    0  502  0.97745133939E+03  0.22076750083E+03  0.10225695812E+03  0.10072874395E+04  0.46999998093E+01 0.  1.
</event>
<event>
 5   0  0.8108242E-07  0.2300195E+04  0.7818609E-02  0.8477844E-01
        1   -1    0    0  501    0  0.00000000000E+00  0.00000000000E+00  0.22015655684E+04  0.22015655684E+04  0.50400001928E-02 0. -1.
       -1   -1    0    0    0  501  0.00000000000E+00  0.00000000000E+00 -0.60081082011E+03  0.60081082013E+03  0.50400001928E-02 0.  1.
    10030    2    1    2    0    0  0.00000000000E+00  0.00000000000E+00  0.16007547483E+04  0.28023763886E+04  0.23001951350E+04 0.  0.
        4    1    3    3  502    0  0.57472497691E+03  0.36340129549E+03  0.19304341139E+04  0.20466916675E+04  0.12699999809E+01 0. -1.
       -4    1    3    3    0  502 -0.57472497691E+03 -0.36340129549E+03 -0.32967936561E+03  0.75568472107E+03  0.12699999809E+01 0.  1.
</event>
<event>
 5   0  0.7607231E-07  0.2300011E+04  0.7818609E-02  0.8477917E-01
        1   -1    0    0  501    0  0.00000000000E+00  0.00000000000E+00  0.14898885887E+04  0.14898885887E+04  0.50400001928E-02 0.  1.
       -1   -1    0    0    0  501  0.00000000000E+00  0.00000000000E+00 -0.88765899406E+03  0.88765899408E+03  0.50400001928E-02 0. -1.
    10030    2    1    2    0    0  0.00000000000E+00  0.00000000000E+00  0.60222959460E+03  0.23775475827E+04  0.23000113094E+04 0.  0.
        2    1    3    3  502    0 -0.23858167211E+03 -0.78685215069E+03  0.11322440307E+04  0.13992977047E+04  0.25500000920E-02 0.  1.
       -2    1    3    3    0  502  0.23858167211E+03  0.78685215069E+03 -0.53001443614E+03  0.97824987801E+03  0.25500000920E-02 0. -1.
</event>
<event>
 5   0  0.1689444E-06  0.2300372E+04  0.7818609E-02  0.8477774E-01
        2   -1    0    0  501    0  0.00000000000E+00  0.00000000000E+00  0.10026997155E+04  0.10026997155E+04  0.25500000920E-02 0.  1.
       -2   -1    0    0    0  501  0.00000000000E+00  0.00000000000E+00 -0.13193657908E+04  0.13193657908E+04  0.25500000920E-02 0. -1.
    10030    2    1    2    0    0  0.00000000000E+00  0.00000000000E+00 -0.31666607531E+03  0.23220655062E+04  0.23003718856E+04 0.  0.
        2    1    3    3  502    0  0.74768988242E+03  0.40368930253E+03 -0.94083537774E+03  0.12677446199E+04  0.25500000920E-02 0. -1.
       -2    1    3    3    0  502 -0.74768988242E+03 -0.40368930253E+03  0.62416930243E+03  0.10543208863E+04  0.25500000920E-02 0.  1.
</event>
<event>
 5   0  0.1828646E-06  0.2301578E+04  0.7818609E-02  0.8477299E-01
       -2   -1    0    0    0  501  0.00000000000E+00  0.00000000000E+00  0.71829941158E+03  0.71829941159E+03  0.25500000920E-02 0. -1.
        2   -1    0    0  501    0  0.00000000000E+00  0.00000000000E+00 -0.18436818467E+04  0.18436818467E+04  0.25500000920E-02 0.  1.
    10030    2    1    2    0    0  0.00000000000E+00  0.00000000000E+00 -0.11253824351E+04  0.25619812582E+04  0.23015782286E+04 0.  0.
        3    1    3    3  502    0  0.22058962326E+03  0.11033429837E+04 -0.83144057558E+03  0.13990421590E+04  0.10100000352E+00 0.  1.
       -3    1    3    3    0  502 -0.22058962326E+03 -0.11033429837E+04 -0.29394185950E+03  0.11629390993E+04  0.10100000352E+00 0. -1.
</event>
<event>
 5   0  0.1888779E-06  0.2300534E+04  0.7818609E-02  0.8477711E-01
        2   -1    0    0  501    0  0.00000000000E+00  0.00000000000E+00  0.17835811139E+04  0.17835811139E+04  0.25500000920E-02 0.  1.
       -2   -1    0    0    0  501  0.00000000000E+00  0.00000000000E+00 -0.74182987559E+03  0.74182987559E+03  0.25500000920E-02 0. -1.
    10030    2    1    2    0    0  0.00000000000E+00  0.00000000000E+00  0.10417512383E+04  0.25254109895E+04  0.23005336388E+04 0.  0.
        4    1    3    3  502    0  0.11937613269E+03  0.59302276625E+03 -0.55311757468E+03  0.81967513483E+03  0.12699999809E+01 0. -1.
       -4    1    3    3    0  502 -0.11937613269E+03 -0.59302276625E+03  0.15948688130E+04  0.17057358547E+04  0.12699999809E+01 0.  1.
</event>
<event>
 5   0  0.7932912E-07  0.2299729E+04  0.7818609E-02  0.8478028E-01
       -1   -1    0    0    0  501  0.00000000000E+00  0.00000000000E+00  0.87897831990E+03  0.87897831992E+03  0.50400001928E-02 0.  1.
        1   -1    0    0  501    0  0.00000000000E+00  0.00000000000E+00 -0.15042334336E+04  0.15042334336E+04  0.50400001928E-02 0. -1.
    10030    2    1    2    0    0  0.00000000000E+00  0.00000000000E+00 -0.62525511370E+03  0.23832117535E+04  0.22997291808E+04 0.  0.
        5    1    3    3  502    0 -0.32987326188E+03  0.10771693372E+04 -0.55132873618E+03  0.12542310853E+04  0.46999998093E+01 0. -1.
       -5    1    3    3    0  502  0.32987326188E+03 -0.10771693372E+04 -0.73926377523E+02  0.11289806682E+04  0.46999998093E+01 0.  1.
</event>
<event>
 5   0  0.1744876E-06  0.2299723E+04  0.7818609E-02  0.8478030E-01
       -2   -1    0    0    0  501  0.00000000000E+00  0.00000000000E+00  0.91601976126E+03  0.91601976127E+03  0.25500000920E-02 0.  1.
        2   -1    0    0  501    0  0.00000000000E+00  0.00000000000E+00 -0.14433980980E+04  0.14433980980E+04  0.25500000920E-02 0. -1.
    10030    2    1    2    0    0  0.00000000000E+00  0.00000000000E+00 -0.52737833672E+03  0.23594178593E+04  0.22997227495E+04 0.  0.
        1    1    3    3  502    0  0.95473305599E+03 -0.63237127643E+03 -0.37017417735E+03  0.12035105156E+04  0.50400001928E-02 0.  1.
       -1    1    3    3    0  502 -0.95473305599E+03  0.63237127643E+03 -0.15720415937E+03  0.11559073437E+04  0.50400001928E-02 0. -1.
</event>
<event>
 5   0  0.1825521E-06  0.2299847E+04  0.7818609E-02  0.8477982E-01
        2   -1    0    0  501    0  0.00000000000E+00  0.00000000000E+00  0.13606757565E+04  0.13606757565E+04  0.25500000920E-02 0. -1.
       -2   -1    0    0    0  501  0.00000000000E+00  0.00000000000E+00 -0.97181403484E+03  0.97181403485E+03  0.25500000920E-02 0.  1.
    10030    2    1    2    0    0  0.00000000000E+00  0.00000000000E+00  0.38886172170E+03  0.23324897914E+04  0.22998467750E+04 0.  0.
        5    1    3    3  502    0 -0.10539192653E+03 -0.68176442002E+03 -0.73862254401E+03  0.10106906228E+04  0.46999998093E+01 0.  1.
       -5    1    3    3    0  502  0.10539192653E+03  0.68176442002E+03  0.11274842657E+04  0.13217991686E+04  0.46999998093E+01 0. -1.
</event>
<event>
 5   0  0.8108242E-07  0.2299318E+04  0.7818609E-02  0.8478190E-01
       -1   -1    0    0    0  501  0.00000000000E+00  0.00000000000E+00  0.11047404402E+04  0.11047404402E+04  0.50400001928E-02 0.  1.
        1   -1    0    0  501    0  0.00000000000E+00  0.00000000000E+00 -0.11964043259E+04  0.11964043259E+04  0.50400001928E-02 0. -1.
    10030    2    1    2    0    0  0.00000000000E+00  0.00000000000E+00 -0.91663885637E+02  0.23011447661E+04  0.22993183700E+04 0.  0.
        4    1    3    3  502    0  0.76858716919E+03 -0.71416662476E+03  0.42459932843E+03  0.11318332064E+04  0.12699999809E+01 0.  1.
       -4    1    3    3    0  502 -0.76858716919E+03  0.71416662476E+03 -0.51626321407E+03  0.11693115597E+04  0.12699999809E+01 0. -1.
</event>
<event>
 5   0  0.7607231E-07  0.2300470E+04  0.7818609E-02  0.8477736E-01
       -1   -1    0    0    0  501  0.00000000000E+00  0.00000000000E+00  0.14961490644E+04  0.14961490644E+04  0.50400001928E-02 0. -1.
        1   -1    0    0  501    0  0.00000000000E+00  0.00000000000E+00 -0.88429718782E+03  0.88429718783E+03  0.50400001928E-02 0.  1.
    10030    2    1    2    0    0  0.00000000000E+00  0.00000000000E+00  0.61185187657E+03  0.23804462522E+04  0.23004698739E+04 0.  0.
        2    1    3    3  502    0  0.10022319782E+04 -0.16114738320E+03 -0.25380744783E+03  0.10463534956E+04  0.25500000920E-02 0.  1.
       -2    1    3    3    0  502 -0.10022319782E+04  0.16114738320E+03  0.86565932441E+03  0.13340927566E+04  0.25500000920E-02 0. -1.
</event>
<event>
 5   0  0.7607231E-07  0.2299976E+04  0.7818609E-02  0.8477931E-01
       -1   -1    0    0    0  501  0.00000000000E+00  0.00000000000E+00  0.94136140691E+03  0.94136140693E+03  0.50400001928E-02 0. -1.
        1   -1    0    0  501    0  0.00000000000E+00  0.00000000000E+00 -0.14048505022E+04  0.14048505022E+04  0.50400001928E-02 0.  1.
    10030    2    1    2    0    0  0.00000000000E+00  0.00000000000E+00 -0.46348909526E+03  0.23462119091E+04  0.22999756914E+04 0.  0.
        2    1    3    3  502    0 -0.63469435327E+03  0.95860368087E+03 -0.25900451878E+03  0.11784911030E+04  0.25500000920E-02 0. -1.
       -2    1    3    3    0  502  0.63469435327E+03 -0.95860368087E+03 -0.20448457648E+03  0.11677208061E+04  0.25500000920E-02 0.  1.
</event>
<event>
 5   0  0.8097672E-07  0.2301327E+04  0.7818609E-02  0.8477398E-01
        1   -1    0    0  501    0  0.00000000000E+00  0.00000000000E+00  0.70330384451E+03  0.70330384453E+03  0.50400001928E-02 0. -1.
       -1   -1    0    0    0  501  0.00000000000E+00  0.00000000000E+00 -0.18825804423E+04  0.18825804423E+04  0.50400001928E-02 0.  1.
    10030    2    1    2    0    0  0.00000000000E+00  0.00000000000E+00 -0.11792765978E+04  0.25858842869E+04  0.23013266285E+04 0.  0.
        3    1    3    3  502    0  0.34132395013E+03 -0.14724684958E+03  0.63397533644E+03  0.73492068351E+03  0.10100000352E+00 0. -1.
       -3    1    3    3    0  502 -0.34132395013E+03  0.14724684958E+03 -0.18132519342E+04  0.18509636033E+04  0.10100000352E+00 0.  1.
</event>
<event>
 5   0  0.7607231E-07  0.2298986E+04  0.7818609E-02  0.8478321E-01
       -1   -1    0    0    0  501  0.00000000000E+00  0.00000000000E+00  0.89352440391E+03  0.89352440392E+03  0.50400001928E-02 0. -1.
        1   -1    0    0  501    0  0.00000000000E+00  0.00000000000E+00 -0.14787896154E+04  0.14787896154E+04  0.50400001928E-02 0.  1.
    10030    2    1    2    0    0  0.00000000000E+00  0.00000000000E+00 -0.58526521151E+03  0.23723140193E+04  0.22989863937E+04 0.  0.
        2    1    3    3  502    0  0.84206212264E+03  0.11489348797E+03 -0.10913128113E+04  0.13831965818E+04  0.25500000920E-02 0.  1.
       -2    1    3    3    0  502 -0.84206212264E+03 -0.11489348797E+03  0.50604759976E+03  0.98911743751E+03  0.25500000920E-02 0. -1.
</event>
<event>
 5   0  0.1689444E-06  0.2297981E+04  0.7818609E-02  0.8478717E-01
       -2   -1    0    0    0  501  0.00000000000E+00  0.00000000000E+00  0.12517930773E+04  0.12517930773E+04  0.25500000920E-02 0. -1.
        2   -1    0    0  501    0  0.00000000000E+00  0.00000000000E+00 -0.10546308163E+04  0.10546308163E+04  0.25500000920E-02 0.  1.
    10030    2    1    2    0    0  0.00000000000E+00  0.00000000000E+00  0.19716226095E+03  0.23064238936E+04  0.22979813358E+04 0.  0.
        2    1    3    3  502    0  0.11151392756E+04  0.70323390759E+02 -0.17016850454E+03  0.11302381622E+04  0.25500000920E-02 0.  1.
       -2    1    3    3    0  502 -0.11151392756E+04 -0.70323390759E+02  0.36733076549E+03  0.11761857314E+04  0.25500000920E-02 0. -1.
</event>
<event>
 5   0  0.1689444E-06  0.2299643E+04  0.7818609E-02  0.8478062E-01
       -2   -1    0    0    0  501  0.00000000000E+00  0.00000000000E+00  0.10676848861E+04  0.10676848861E+04  0.25500000920E-02 0. -1.
        2   -1    0    0  501    0  0.00000000000E+00  0.00000000000E+00 -0.12382773047E+04  0.12382773047E+04  0.25500000920E-02 0.  1.
    10030    2    1    2    0    0  0.00000000000E+00  0.00000000000E+00 -0.17059241861E+03  0.23059621908E+04  0.22996434185E+04 0.  0.
        2    1    3    3  502    0 -0.80088356978E+03  0.64235836820E+03 -0.60445541382E+03  0.11913878935E+04  0.25500000920E-02 0.  1.
       -2    1    3    3    0  502  0.80088356978E+03 -0.64235836820E+03  0.43386299521E+03  0.11145742973E+04  0.25500000920E-02 0. -1.
</event>
<event>
 5   0  0.1828646E-06  0.2299989E+04  0.7818609E-02  0.8477925E-01
        2   -1    0    0  501    0  0.00000000000E+00  0.00000000000E+00  0.19062124047E+04  0.19062124047E+04  0.25500000920E-02 0.  1.
       -2   -1    0    0    0  501  0.00000000000E+00  0.00000000000E+00 -0.69377764690E+03  0.69377764690E+03  0.25500000920E-02 0. -1.
    10030    2    1    2    0    0  0.00000000000E+00  0.00000000000E+00  0.12124347578E+04  0.25999900516E+04  0.22999891797E+04 0.  0.
        3    1    3    3  502    0 -0.10279213261E+04 -0.46551605707E+03  0.85685845546E+03  0.14168746857E+04  0.10100000352E+00 0.  1.
       -3    1    3    3    0  502  0.10279213261E+04  0.46551605707E+03  0.35557630237E+03  0.11831153659E+04  0.10100000352E+00 0. -1.
</event>
<event>
 5   0  0.7761069E-07  0.2300238E+04  0.7818609E-02  0.8477827E-01
        1   -1    0    0  501    0  0.00000000000E+00  0.00000000000E+00  0.10709495648E+04  0.10709495649E+04  0.50400001928E-02 0.  1.
       -1   -1    0    0    0  501  0.00000000000E+00  0.00000000000E+00 -0.12351411112E+04  0.12351411112E+04  0.50400001928E-02 0. -1.
    10030    2    1    2    0    0  0.00000000000E+00  0.00000000000E+00 -0.16419154638E+03  0.23060906761E+04  0.23002381056E+04 0.  0.
        1    1    3    3  502    0  0.40961352644E+03  0.14311222982E+03  0.98574783298E+03  0.10770158502E+04  0.50400001928E-02 0.  1.
       -1    1    3    3    0  502 -0.40961352644E+03 -0.14311222982E+03 -0.11499393794E+04  0.12290748259E+04  0.50400001928E-02 0. -1.
</event>
<event>
 5   0  0.7607231E-07  0.2299848E+04  0.7818609E-02  0.8477981E-01
        1   -1    0    0  501    0  0.00000000000E+00  0.00000000000E+00  0.11082724937E+04  0.11082724937E+04  0.50400001928E-02 0.  1.
       -1   -1    0    0    0  501  0.00000000000E+00  0.00000000000E+00 -0.11931403880E+04  0.11931403880E+04  0.50400001928E-02 0. -1.
    10030    2    1    2    0    0  0.00000000000E+00  0.00000000000E+00 -0.84867894285E+02  0.23014128817E+04  0.22998475368E+04 0.  0.
        2    1    3    3  502    0  0.24016174643E+03 -0.43891207197E+03  0.99364663523E+03  0.11124994863E+04  0.25500000920E-02 0.  1.
       -2    1    3    3    0  502 -0.24016174643E+03  0.43891207197E+03 -0.10785145295E+04  0.11889133954E+04  0.25500000920E-02 0. -1.
</event>
<event>
 5   0  0.7607231E-07  0.2297242E+04  0.7818609E-02  0.8479009E-01
       -1   -1    0    0    0  501  0.00000000000E+00  0.00000000000E+00  0.60084477334E+03  0.60084477336E+03  0.50400001928E-02 0. -1.
        1   -1    0    0  501    0  0.00000000000E+00  0.00000000000E+00 -0.21957921960E+04  0.21957921960E+04  0.50400001928E-02 0.  1.
    10030    2    1    2    0    0  0.00000000000E+00  0.00000000000E+00 -0.15949474226E+04  0.27966369693E+04  0.22972420546E+04 0.  0.
        2    1    3    3  502    0 -0.45458965636E+03 -0.63987796764E+02 -0.20792541903E+04  0.21293295146E+04  0.25500000920E-02 0.  1.
       -2    1    3    3    0  502  0.45458965636E+03  0.63987796764E+02  0.48430676773E+03  0.66730745469E+03  0.25500000920E-02 0. -1.
</event>
<event>
 5   0  0.1828646E-06  0.2300300E+04  0.7818609E-02  0.8477803E-01
       -2   -1    0    0    0  501  0.00000000000E+00  0.00000000000E+00  0.10903457655E+04  0.10903457655E+04  0.25500000920E-02 0.  1.
        2   -1    0    0  501    0  0.00000000000E+00  0.00000000000E+00 -0.12132340248E+04  0.12132340248E+04  0.25500000920E-02 0. -1.
    10030    2    1    2    0    0  0.00000000000E+00  0.00000000000E+00 -0.12288825924E+03  0.23035797903E+04  0.23002996166E+04 0.  0.
        3    1    3    3  502    0  0.73722427294E+03  0.23232303448E+01  0.82261682421E+03  0.11046282070E+04  0.10100000352E+00 0.  1.
       -3    1    3    3    0  502 -0.73722427294E+03 -0.23232303448E+01 -0.94550508345E+03  0.11989515833E+04  0.10100000352E+00 0. -1.
</event>
<event>
 5   0  0.1689444E-06  0.2298689E+04  0.7818609E-02  0.8478438E-01
       -2   -1    0    0    0  501  0.00000000000E+00  0.00000000000E+00  0.10067897143E+04  0.10067897143E+04  0.25500000920E-02 0. -1.
        2   -1    0    0  501    0  0.00000000000E+00  0.00000000000E+00 -0.13120846333E+04  0.13120846333E+04  0.25500000920E-02 0.  1.
    10030    2    1    2    0    0  0.00000000000E+00  0.00000000000E+00 -0.30529491897E+03  0.23188743475E+04  0.22986894641E+04 0.  0.
        2    1    3    3  502    0  0.68452063435E+03 -0.92251971656E+03 -0.19015169105E+03  0.11643748503E+04  0.25500000920E-02 0. -1.
       -2    1    3    3    0  502 -0.68452063435E+03  0.92251971656E+03 -0.11514322792E+03  0.11544994973E+04  0.25500000920E-02 0.  1.
</event>
<event>
 5   0  0.1689444E-06  0.2300122E+04  0.7818609E-02  0.8477873E-01
        2   -1    0    0  501    0  0.00000000000E+00  0.00000000000E+00  0.10729988190E+04  0.10729988190E+04  0.25500000920E-02 0.  1.
       -2   -1    0    0    0  501  0.00000000000E+00  0.00000000000E+00 -0.12326582528E+04  0.12326582528E+04  0.25500000920E-02 0. -1.
    10030    2    1    2    0    0  0.00000000000E+00  0.00000000000E+00 -0.15965943382E+03  0.23056570718E+04  0.23001224746E+04 0.  0.
        2    1    3    3  502    0  0.29536094288E+03  0.10154864564E+04  0.37313148865E+03  0.11214624102E+04  0.25500000920E-02 0.  1.
       -2    1    3    3    0  502 -0.29536094288E+03 -0.10154864564E+04 -0.53279092247E+03  0.11841946617E+04  0.25500000920E-02 0. -1.
</event>
<event>
 5   0  0.8108242E-07  0.2300037E+04  0.7818609E-02  0.8477906E-01
       -1   -1    0    0    0  501  0.00000000000E+00  0.00000000000E+00  0.63123677343E+03  0.63123677345E+03  0.50400001928E-02 0.  1.
        1   -1    0    0  501    0  0.00000000000E+00  0.00000000000E+00 -0.20951609786E+04  0.20951609786E+04  0.50400001928E-02 0. -1.
    10030    2    1    2    0    0  0.00000000000E+00  0.00000000000E+00 -0.14639242052E+04  0.27263977521E+04  0.23000370919E+04 0.  0.
        4    1    3    3  502    0 -0.47164611431E+03  0.28954058133E+03 -0.19269298978E+04  0.20048302295E+04  0.12699999809E+01 0. -1.
       -4    1    3    3    0  502  0.47164611431E+03 -0.28954058133E+03  0.46300569256E+03  0.72156752257E+03  0.12699999809E+01 0.  1.
</event>
<event>
 5   0  0.7932912E-07  0.2302077E+04  0.7818609E-02  0.8477102E-01
       -1   -1    0    0    0  501  0.00000000000E+00  0.00000000000E+00  0.14180717250E+04  0.14180717251E+04  0.50400001928E-02 0.  1.
        1   -1    0    0  501    0  0.00000000000E+00  0.00000000000E+00 -0.93428990039E+03  0.93428990040E+03  0.50400001928E-02 0. -1.
    10030    2    1    2    0    0  0.00000000000E+00  0.00000000000E+00  0.48378182466E+03  0.23523616255E+04  0.23020774016E+04 0.  0.
        5    1    3    3  502    0 -0.93493412514E+02 -0.10395332505E+04  0.73777184633E+03  0.12781626596E+04  0.46999998093E+01 0.  1.
       -5    1    3    3    0  502  0.93493412514E+02  0.10395332505E+04 -0.25399002167E+03  0.10741989659E+04  0.46999998093E+01 0. -1.
</event>
<event>
 5   0  0.1744876E-06  0.2302202E+04  0.7818609E-02  0.8477053E-01
        2   -1    0    0  501    0  0.00000000000E+00  0.00000000000E+00  0.15001231023E+04  0.15001231023E+04  0.25500000920E-02 0.  1.
       -2   -1    0    0    0  501  0.00000000000E+00  0.00000000000E+00 -0.88328334919E+03  0.88328334919E+03  0.25500000920E-02 0. -1.
    10030    2    1    2    0    0  0.00000000000E+00  0.00000000000E+00  0.61683975308E+03  0.23834064515E+04  0.23022022135E+04 0.  0.
        1    1    3    3  502    0  0.85159743104E+03  0.11784705991E+03  0.11008785764E+04  0.13967962465E+04  0.50400001928E-02 0. -1.
       -1    1    3    3    0  502 -0.85159743104E+03 -0.11784705991E+03 -0.48403882334E+03  0.98661020500E+03  0.50400001928E-02 0.  1.
</event>
<event>
 5   0  0.1828646E-06  0.2299837E+04  0.7818609E-02  0.8477985E-01
       -2   -1    0    0    0  501  0.00000000000E+00  0.00000000000E+00  0.10771392190E+04  0.10771392190E+04  0.25500000920E-02 0.  1.
        2   -1    0    0  501    0  0.00000000000E+00  0.00000000000E+00 -0.12276149918E+04  0.12276149918E+04  0.25500000920E-02 0. -1.
    10030    2    1    2    0    0  0.00000000000E+00  0.00000000000E+00 -0.15047577279E+03  0.23047542107E+04  0.22998367363E+04 0.  0.
        3    1    3    3  502    0  0.21115432270E+03 -0.40523563487E+03 -0.11327240782E+04  0.12214196311E+04  0.10100000352E+00 0. -1.
       -3    1    3    3    0  502 -0.21115432270E+03  0.40523563487E+03  0.98224830540E+03  0.10833345796E+04  0.10100000352E+00 0.  1.
</event>
<event>
 5   0  0.6319125E-07  0.2300100E+04  0.7818609E-02  0.8477882E-01
       -4   -1    0    0    0  501  0.00000000000E+00  0.00000000000E+00  0.70484861394E+03  0.70484975809E+03  0.12699999809E+01 0.  1.
        4   -1    0    0  501    0  0.00000000000E+00  0.00000000000E+00 -0.18764496177E+04  0.18764500474E+04  0.12699999809E+01 0. -1.
    10030    2    1    2    0    0  0.00000000000E+00  0.00000000000E+00 -0.11716010037E+04  0.25812998055E+04  0.23000999487E+04 0.  0.
        5    1    3    3  502    0  0.64703398058E+03 -0.80527264071E+03 -0.18560732777E+02  0.10331909740E+04  0.46999998093E+01 0. -1.
       -5    1    3    3    0  502 -0.64703398058E+03  0.80527264071E+03 -0.11530402709E+04  0.15481088315E+04  0.46999998093E+01 0.  1.
</event>
<event>
 5   0  0.1828646E-06  0.2298732E+04  0.7818609E-02  0.8478421E-01
       -2   -1    0    0    0  501  0.00000000000E+00  0.00000000000E+00  0.84044142768E+03  0.84044142769E+03  0.25500000920E-02 0. -1.
        2   -1    0    0  501    0  0.00000000000E+00  0.00000000000E+00 -0.15718434773E+04  0.15718434773E+04  0.25500000920E-02 0.  1.
    10030    2    1    2    0    0  0.00000000000E+00  0.00000000000E+00 -0.73140204960E+03  0.24122849050E+04  0.22987321516E+04 0.  0.
        3    1    3    3  502    0  0.60273754550E+03  0.62357806980E+03  0.42581238183E+03  0.96615648453E+03  0.10100000352E+00 0. -1.
       -3    1    3    3    0  502 -0.60273754550E+03 -0.62357806980E+03 -0.11572144314E+04  0.14461284204E+04  0.10100000352E+00 0.  1.
</event>
<event>
 5   0  0.1689444E-06  0.2300903E+04  0.7818609E-02  0.8477565E-01
       -2   -1    0    0    0  501  0.00000000000E+00  0.00000000000E+00  0.15000053955E+04  0.15000053955E+04  0.25500000920E-02 0. -1.
        2   -1    0    0  501    0  0.00000000000E+00  0.00000000000E+00 -0.88235567950E+03  0.88235567950E+03  0.25500000920E-02 0.  1.
    10030    2    1    2    0    0  0.00000000000E+00  0.00000000000E+00  0.61764971599E+03  0.23823610750E+04  0.23009026750E+04 0.  0.
        2    1    3    3  502    0 -0.93244599352E+03  0.65210553137E+03  0.13298576503E+03  0.11455925840E+04  0.25500000920E-02 0.  1.
       -2    1    3    3    0  502  0.93244599352E+03 -0.65210553137E+03  0.48466395095E+03  0.12367684910E+04  0.25500000920E-02 0. -1.
</event>
<event>
 5   0  0.1828646E-06  0.2300619E+04  0.7818609E-02  0.8477677E-01
        2   -1    0    0  501    0  0.00000000000E+00  0.00000000000E+00  0.93414193371E+03  0.93414193372E+03  0.25500000920E-02 0. -1.
       -2   -1    0    0    0  501  0.00000000000E+00  0.00000000000E+00 -0.14165004719E+04  0.14165004719E+04  0.25500000920E-02 0.  1.
    10030    2    1    2    0    0  0.00000000000E+00  0.00000000000E+00 -0.48235853814E+03  0.23506424056E+04  0.23006194730E+04 0.  0.
        3    1    3    3  502    0 -0.57667978410E+03  0.98582860034E+03 -0.10110398247E+03  0.11465773537E+04  0.10100000352E+00 0.  1.
       -3    1    3    3    0  502  0.57667978410E+03 -0.98582860034E+03 -0.38125455568E+03  0.12040650518E+04  0.10100000352E+00 0. -1.
</event>
<event>
 5   0  0.8097672E-07  0.2302261E+04  0.7818609E-02  0.8477030E-01
       -1   -1    0    0    0  501  0.00000000000E+00  0.00000000000E+00  0.10152540535E+04  0.10152540535E+04  0.50400001928E-02 0. -1.
        1   -1    0    0  501    0  0.00000000000E+00  0.00000000000E+00 -0.13051916954E+04  0.13051916954E+04  0.50400001928E-02 0.  1.
    10030    2    1    2    0    0  0.00000000000E+00  0.00000000000E+00 -0.28993764190E+03  0.23204457490E+04  0.23022607667E+04 0.  0.
        3    1    3    3  502    0 -0.37715999069E+03 -0.90250121335E+03 -0.75667539353E+03  0.12366550691E+04  0.10100000352E+00 0.  1.
       -3    1    3    3    0  502  0.37715999069E+03  0.90250121335E+03  0.46673775163E+03  0.10837906798E+04  0.10100000352E+00 0. -1.
</event>
<event>
 5   0  0.7932912E-07  0.2300940E+04  0.7818609E-02  0.8477551E-01
        1   -1    0    0  501    0  0.00000000000E+00  0.00000000000E+00  0.12573951511E+04  0.12573951512E+04  0.50400001928E-02 0. -1.
       -1   -1    0    0    0  501  0.00000000000E+00  0.00000000000E+00 -0.10526370280E+04  0.10526370281E+04  0.50400001928E-02 0.  1.
    10030    2    1    2    0    0  0.00000000000E+00  0.00000000000E+00  0.20475812310E+03  0.23100321792E+04  0.23009395429E+04 0.  0.
        5    1    3    3  502    0 -0.10307598164E+04  0.37826355226E+03 -0.24250354367E+03  0.11244461627E+04  0.46999998093E+01 0.  1.
       -5    1    3    3    0  502  0.10307598164E+04 -0.37826355226E+03  0.44726166677E+03  0.11855860165E+04  0.46999998093E+01 0. -1.
</event>
<event>
 5   0  0.1744876E-06  0.2299556E+04  0.7818609E-02  0.8478096E-01
       -2   -1    0    0    0  501  0.00000000000E+00  0.00000000000E+00  0.81292722830E+03  0.81292722830E+03  0.25500000920E-02 0. -1.
        2   -1    0    0  501    0  0.00000000000E+00  0.00000000000E+00 -0.16262085732E+04  0.16262085732E+04  0.25500000920E-02 0.  1.
    10030    2    1    2    0    0  0.00000000000E+00  0.00000000000E+00 -0.81328134495E+03  0.24391358016E+04  0.22995558076E+04 0.  0.
        1    1    3    3  502    0 -0.48963100075E+03  0.10330836869E+04 -0.53650072133E+03  0.12628671526E+04  0.50400001928E-02 0.  1.
       -1    1    3    3    0  502  0.48963100075E+03 -0.10330836869E+04 -0.27678062362E+03  0.11762686490E+04  0.50400001928E-02 0. -1.
</event>
<event>
 5   0  0.7607231E-07  0.2300392E+04  0.7818609E-02  0.8477766E-01
       -1   -1    0    0    0  501  0.00000000000E+00  0.00000000000E+00  0.23013189532E+04  0.23013189532E+04  0.50400001928E-02 0.  1.
        1   -1    0    0  501    0  0.00000000000E+00  0.00000000000E+00 -0.57486649119E+03  0.57486649122E+03  0.50400001928E-02 0. -1.
    10030    2    1    2    0    0  0.00000000000E+00  0.00000000000E+00  0.17264524620E+04  0.28761854444E+04  0.23003922724E+04 0.  0.
        2    1    3    3  502    0 -0.62666748586E+03 -0.96185305186E+03  0.95232042071E+03  0.14915721957E+04  0.25500000920E-02 0.  1.
       -2    1    3    3    0  502  0.62666748586E+03  0.96185305186E+03  0.77413204128E+03  0.13846132487E+04  0.25500000920E-02 0. -1.
</event>
<event>
 5   0  0.1689444E-06  0.2299356E+04  0.7818609E-02  0.8478175E-01
       -2   -1    0    0    0  501  0.00000000000E+00  0.00000000000E+00  0.80533532259E+03  0.80533532259E+03  0.25500000920E-02 0. -1.
        2   -1    0    0  501    0  0.00000000000E+00  0.00000000000E+00 -0.16412529011E+04  0.16412529011E+04  0.25500000920E-02 0.  1.
    10030    2    1    2    0    0  0.00000000000E+00  0.00000000000E+00 -0.83591757851E+03  0.24465882237E+04  0.22993555050E+04 0.  0.
        2    1    3    3  502    0  0.10391926379E+04  0.37677178036E+03 -0.75423440447E+03  0.13381882715E+04  0.25500000920E-02 0.  1.
       -2    1    3    3    0  502 -0.10391926379E+04 -0.37677178036E+03 -0.81683174047E+02  0.11083999522E+04  0.25500000920E-02 0. -1.
</event>
<event>
 5   0  0.7761069E-07  0.2299799E+04  0.7818609E-02  0.8478000E-01
        1   -1    0    0  501    0  0.00000000000E+00  0.00000000000E+00  0.11782349909E+04  0.11782349909E+04  0.50400001928E-02 0.  1.
       -1   -1    0    0    0  501  0.00000000000E+00  0.00000000000E+00 -0.11222452210E+04  0.11222452211E+04  0.50400001928E-02 0. -1.
    10030    2    1    2    0    0  0.00000000000E+00  0.00000000000E+00  0.55989769816E+02  0.23004802119E+04  0.22997987632E+04 0.  0.
        1    1    3    3  502    0  0.59219538785E+03 -0.42401066019E+03 -0.86209357489E+03  0.11285768690E+04  0.50400001928E-02 0. -1.
       -1    1    3    3    0  502 -0.59219538785E+03  0.42401066019E+03  0.91808334470E+03  0.11719033429E+04  0.50400001928E-02 0.  1.
</event>
<event>
 5   0  0.1888779E-06  0.2301153E+04  0.7818609E-02  0.8477467E-01
       -2   -1    0    0    0  501  0.00000000000E+00  0.00000000000E+00  0.10379875249E+04  0.10379875249E+04  0.25500000920E-02 0. -1.
        2   -1    0    0  501    0  0.00000000000E+00  0.00000000000E+00 -0.12753775098E+04  0.12753775098E+04  0.25500000920E-02 0.  1.
    10030    2    1    2    0    0  0.00000000000E+00  0.00000000000E+00 -0.23738998484E+03  0.23133650347E+04  0.23011527065E+04 0.  0.
        4    1    3    3  502    0 -0.97299902067E+03  0.41741344504E+03  0.33409875441E+03  0.11102182979E+04  0.12699999809E+01 0. -1.
       -4    1    3    3    0  502  0.97299902067E+03 -0.41741344504E+03 -0.57148873925E+03  0.12031467368E+04  0.12699999809E+01 0.  1.
</event>
<event>
 5   0  0.8108242E-07  0.2300524E+04  0.7818609E-02  0.8477715E-01
       -1   -1    0    0    0  501  0.00000000000E+00  0.00000000000E+00  0.98540386419E+03  0.98540386420E+03  0.50400001928E-02 0. -1.
        1   -1    0    0  501    0  0.00000000000E+00  0.00000000000E+00 -0.13427004525E+04  0.13427004525E+04  0.50400001928E-02 0.  1.
    10030    2    1    2    0    0  0.00000000000E+00  0.00000000000E+00 -0.35729658834E+03  0.23281043167E+04  0.23005236051E+04 0.  0.
        4    1    3    3  502    0 -0.38107075043E+03  0.83947829244E+03 -0.87476269322E+03  0.12708855584E+04  0.12699999809E+01 0.  1.
       -4    1    3    3    0  502  0.38107075043E+03 -0.83947829244E+03  0.51746610488E+03  0.10572187583E+04  0.12699999809E+01 0. -1.
</event>
<event>
 5   0  0.1825521E-06  0.2299823E+04  0.7818609E-02  0.8477991E-01
       -2   -1    0    0    0  501  0.00000000000E+00  0.00000000000E+00  0.15235054529E+04  0.15235054529E+04  0.25500000920E-02 0.  1.
        2   -1    0    0  501    0  0.00000000000E+00  0.00000000000E+00 -0.86793005944E+03  0.86793005945E+03  0.25500000920E-02 0. -1.
    10030    2    1    2    0    0  0.00000000000E+00  0.00000000000E+00  0.65557539343E+03  0.23914355123E+04  0.22998227569E+04 0.  0.
        5    1    3    3  502    0 -0.86740710815E+02  0.11181983970E+04  0.63943123835E+02  0.11233888103E+04  0.46999998093E+01 0. -1.
       -5    1    3    3    0  502  0.86740710815E+02 -0.11181983970E+04  0.59163226959E+03  0.12680467020E+04  0.46999998093E+01 0.  1.
</event>
<event>
 5   0  0.7607231E-07  0.2299781E+04  0.7818609E-02  0.8478007E-01
        1   -1    0    0  501    0  0.00000000000E+00  0.00000000000E+00  0.23819624584E+04  0.23819624584E+04  0.50400001928E-02 0. -1.
       -1   -1    0    0    0  501  0.00000000000E+00  0.00000000000E+00 -0.55510894114E+03  0.55510894116E+03  0.50400001928E-02 0.  1.
    10030    2    1    2    0    0  0.00000000000E+00  0.00000000000E+00  0.18268535173E+04  0.29370713996E+04  0.22997814315E+04 0.  0.
        2    1    3    3  502    0  0.74817740304E+03  0.21529205466E+03 -0.16731874937E+03  0.79631379437E+03  0.25500000920E-02 0. -1.
       -2    1    3    3    0  502 -0.74817740304E+03 -0.21529205466E+03  0.19941722666E+04  0.21407576052E+04  0.25500000920E-02 0.  1.
</event>
<event>
 5   0  0.8097672E-07  0.2300491E+04  0.7818609E-02  0.8477728E-01
        1   -1    0    0  501    0  0.00000000000E+00  0.00000000000E+00  0.16223218769E+04  0.16223218769E+04  0.50400001928E-02 0. -1.
       -1   -1    0    0    0  501  0.00000000000E+00  0.00000000000E+00 -0.81553773605E+03  0.81553773606E+03  0.50400001928E-02 0.  1.
    10030    2    1    2    0    0  0.00000000000E+00  0.00000000000E+00  0.80678414081E+03  0.24378596129E+04  0.23004910003E+04 0.  0.
        3    1    3    3  502    0 -0.52073591642E+03 -0.93268553406E+03 -0.48692487082E+02  0.10693171506E+04  0.10100000352E+00 0.  1.
       -3    1    3    3    0  502  0.52073591642E+03  0.93268553406E+03  0.85547662790E+03  0.13685424623E+04  0.10100000352E+00 0. -1.
</event>
<event>
 5   0  0.1744876E-06  0.2296768E+04  0.7818609E-02  0.8479196E-01
        2   -1    0    0  501    0  0.00000000000E+00  0.00000000000E+00  0.68018631666E+03  0.68018631666E+03  0.25500000920E-02 0. -1.
       -2   -1    0    0    0  501  0.00000000000E+00  0.00000000000E+00 -0.19388601117E+04  0.19388601117E+04  0.25500000920E-02 0.  1.
    10030    2    1    2    0    0  0.00000000000E+00  0.00000000000E+00 -0.12586737951E+04  0.26190464284E+04  0.22967682669E+04 0.  0.
        1    1    3    3  502    0 -0.11747125889E+03  0.80455164205E+03  0.29543456113E+03  0.86509214614E+03  0.50400001928E-02 0. -1.
       -1    1    3    3    0  502  0.11747125889E+03 -0.80455164205E+03 -0.15541083562E+04  0.17539542823E+04  0.50400001928E-02 0.  1.
</event>
<event>
 5   0  0.8097672E-07  0.2299770E+04  0.7818609E-02  0.8478012E-01
       -1   -1    0    0    0  501  0.00000000000E+00  0.00000000000E+00  0.95073096117E+03  0.95073096118E+03  0.50400001928E-02 0. -1.
        1   -1    0    0  501    0  0.00000000000E+00  0.00000000000E+00 -0.13907562948E+04  0.13907562948E+04  0.50400001928E-02 0.  1.
    10030    2    1    2    0    0  0.00000000000E+00  0.00000000000E+00 -0.44002533361E+03  0.23414872560E+04  0.22997696136E+04 0.  0.
        3    1    3    3  502    0  0.29950485916E+03  0.41745972722E+03 -0.12673908143E+04  0.13675727662E+04  0.10100000352E+00 0.  1.
       -3    1    3    3    0  502 -0.29950485916E+03 -0.41745972722E+03  0.82736548070E+03  0.97391448976E+03  0.10100000352E+00 0. -1.
</event>
<event>
 5   0  0.1744876E-06  0.2298768E+04  0.7818609E-02  0.8478407E-01
       -2   -1    0    0    0  501  0.00000000000E+00  0.00000000000E+00  0.11715873311E+04  0.11715873311E+04  0.25500000920E-02 0.  1.
        2   -1    0    0  501    0  0.00000000000E+00  0.00000000000E+00 -0.11276011610E+04  0.11276011610E+04  0.25500000920E-02 0. -1.
    10030    2    1    2    0    0  0.00000000000E+00  0.00000000000E+00  0.43986170095E+02  0.22991884920E+04  0.22987677000E+04 0.  0.
        1    1    3    3  502    0  0.47001625725E+03 -0.63779048935E+03 -0.81086051529E+03  0.11336607807E+04  0.50400001928E-02 0. -1.
       -1    1    3    3    0  502 -0.47001625725E+03  0.63779048935E+03  0.85484668539E+03  0.11655277114E+04  0.50400001928E-02 0.  1.
</event>
<event>
 5   0  0.8097672E-07  0.2296147E+04  0.7818609E-02  0.8479442E-01
        1   -1    0    0  501    0  0.00000000000E+00  0.00000000000E+00  0.23468302095E+04  0.23468302096E+04  0.50400001928E-02 0. -1.
       -1   -1    0    0    0  501  0.00000000000E+00  0.00000000000E+00 -0.56163951745E+03  0.56163951747E+03  0.50400001928E-02 0.  1.
    10030    2    1    2    0    0  0.00000000000E+00  0.00000000000E+00  0.17851906921E+04  0.29084697270E+04  0.22961468476E+04 0.  0.
        3    1    3    3  502    0  0.60284506111E+03  0.78782943051E+03  0.16057694933E+03  0.10049290254E+04  0.10100000352E+00 0.  1.
       -3    1    3    3    0  502 -0.60284506111E+03 -0.78782943051E+03  0.16246137428E+04  0.19035407016E+04  0.10100000352E+00 0. -1.
</event>
<event>
 5   0  0.7932912E-07  0.2302643E+04  0.7818609E-02  0.8476880E-01
       -1   -1    0    0    0  501  0.00000000000E+00  0.00000000000E+00  0.12231627455E+04  0.12231627455E+04  0.50400001928E-02 0. -1.
        1   -1    0    0  501    0  0.00000000000E+00  0.00000000000E+00 -0.10836995211E+04  0.10836995211E+04  0.50400001928E-02 0.  1.
    10030    2    1    2    0    0  0.00000000000E+00  0.00000000000E+00  0.13946322438E+03  0.23068622666E+04  0.23026427265E+04 0.  0.
        5    1    3    3  502    0 -0.98244595192E+03  0.19102939675E+03  0.63983196249E+03  0.11878970111E+04  0.46999998093E+01 0. -1.
       -5    1    3    3    0  502  0.98244595192E+03 -0.19102939675E+03 -0.50036873811E+03  0.11189652555E+04  0.46999998093E+01 0.  1.
</event>
<event>
 5   0  0.1888779E-06  0.2300415E+04  0.7818609E-02  0.8477758E-01
       -2   -1    0    0    0  501  0.00000000000E+00  0.00000000000E+00  0.28635335438E+04  0.28635335438E+04  0.25500000920E-02 0. -1.
        2   -1    0    0  501    0  0.00000000000E+00  0.00000000000E+00 -0.46200851657E+03  0.46200851658E+03  0.25500000920E-02 0.  1.
    10030    2    1    2    0    0  0.00000000000E+00  0.00000000000E+00  0.24015250272E+04  0.33255420604E+04  0.23004146450E+04 0.  0.
        4    1    3    3  502    0  0.77543231171E+03  0.61795362528E+03  0.35805567229E+03  0.10542141293E+04  0.12699999809E+01 0.  1.
       -4    1    3    3    0  502 -0.77543231171E+03 -0.61795362528E+03  0.20434693549E+04  0.22713279311E+04  0.12699999809E+01 0. -1.
</event>
<event>
 5   0  0.1689444E-06  0.2299872E+04  0.7818609E-02  0.8477971E-01
        2   -1    0    0  501    0  0.00000000000E+00  0.00000000000E+00  0.11455327661E+04  0.11455327662E+04  0.25500000920E-02 0.  1.
       -2   -1    0    0    0  501  0.00000000000E+00  0.00000000000E+00 -0.11543565865E+04  0.11543565865E+04  0.25500000920E-02 0. -1.
    10030    2    1    2    0    0  0.00000000000E+00  0.00000000000E+00 -0.88238203174E+01  0.22998893526E+04  0.22998724257E+04 0.  0.
        2    1    3    3  502    0 -0.77067409808E+03  0.82870203854E+03  0.19971616932E+03  0.11491615128E+04  0.25500000920E-02 0.  1.
       -2    1    3    3    0  502  0.77067409808E+03 -0.82870203854E+03 -0.20853998964E+03  0.11507278399E+04  0.25500000920E-02 0. -1.
</event>
<event>
 5   0  0.8108242E-07  0.2300547E+04  0.7818609E-02  0.8477706E-01
        1   -1    0    0  501    0  0.00000000000E+00  0.00000000000E+00  0.21434903004E+04  0.21434903004E+04  0.50400001928E-02 0. -1.
       -1   -1    0    0    0  501  0.00000000000E+00  0.00000000000E+00 -0.61727764450E+03  0.61727764452E+03  0.50400001928E-02 0.  1.
    10030    2    1    2    0    0  0.00000000000E+00  0.00000000000E+00  0.15262126559E+04  0.27607679450E+04  0.23005465818E+04 0.  0.
        4    1    3    3  502    0 -0.26686252877E+03 -0.79766321916E+03  0.17047009815E+04  0.19009180071E+04  0.12699999809E+01 0. -1.
       -4    1    3    3    0  502  0.26686252877E+03  0.79766321916E+03 -0.17848832553E+03  0.85984993790E+03  0.12699999809E+01 0.  1.
</event>
<event>
 5   0  0.1825521E-06  0.2300606E+04  0.7818609E-02  0.8477682E-01
        2   -1    0    0  501    0  0.00000000000E+00  0.00000000000E+00  0.77069570750E+03  0.77069570750E+03  0.25500000920E-02 0.  1.
       -2   -1    0    0    0  501  0.00000000000E+00  0.00000000000E+00 -0.17168862882E+04  0.17168862882E+04  0.25500000920E-02 0. -1.
    10030    2    1    2    0    0  0.00000000000E+00  0.00000000000E+00 -0.94619058073E+03  0.24875819957E+04  0.23006059138E+04 0.  0.
        5    1    3    3  502    0 -0.26416903876E+03  0.57858098327E+03  0.56325441536E+03  0.84959923591E+03  0.46999998093E+01 0.  1.
       -5    1    3    3    0  502  0.26416903876E+03 -0.57858098327E+03 -0.15094449961E+04  0.16379827598E+04  0.46999998093E+01 0. -1.
</event>
<event>
 5   0  0.7761069E-07  0.2300742E+04  0.7818609E-02  0.8477629E-01
        1   -1    0    0  501    0  0.00000000000E+00  0.00000000000E+00  0.91262331486E+03  0.91262331488E+03  0.50400001928E-02 0.  1.
       -1   -1    0    0    0  501  0.00000000000E+00  0.00000000000E+00 -0.14500544599E+04  0.14500544599E+04  0.50400001928E-02 0. -1.
    10030    2    1    2    0    0  0.00000000000E+00  0.00000000000E+00 -0.53743114507E+03  0.23626777748E+04  0.23007420611E+04 0.  0.
        1    1    3    3  502    0 -0.86209373789E+03 -0.52493724756E+03  0.29803701996E+03  0.10524213947E+04  0.50400001928E-02 0.  1.
       -1    1    3    3    0  502  0.86209373789E+03  0.52493724756E+03 -0.83546816503E+03  0.13102563801E+04  0.50400001928E-02 0. -1.
</event>
<event>
 5   0  0.1888779E-06  0.2300107E+04  0.7818609E-02  0.8477879E-01
        2   -1    0    0  501    0  0.00000000000E+00  0.00000000000E+00  0.10273152169E+04  0.10273152169E+04  0.25500000920E-02 0.  1.
       -2   -1    0    0    0  501  0.00000000000E+00  0.00000000000E+00 -0.12874559774E+04  0.12874559774E+04  0.25500000920E-02 0. -1.
    10030    2    1    2    0    0  0.00000000000E+00  0.00000000000E+00 -0.26014076042E+03  0.23147711943E+04  0.23001070555E+04 0.  0.
        4    1    3    3  502    0 -0.28708147157E+03 -0.66944988793E+03 -0.10257120356E+04  0.12580404273E+04  0.12699999809E+01 0. -1.
       -4    1    3    3    0  502  0.28708147157E+03  0.66944988793E+03  0.76557127517E+03  0.10567307671E+04  0.12699999809E+01 0.  1.
</event>
<event>
 5   0  0.7607231E-07  0.2299087E+04  0.7818609E-02  0.8478281E-01
       -1   -1    0    0    0  501  0.00000000000E+00  0.00000000000E+00  0.57584528707E+03  0.57584528709E+03  0.50400001928E-02 0.  1.
        1   -1    0    0  501    0  0.00000000000E+00  0.00000000000E+00 -0.22948011568E+04  0.22948011568E+04  0.50400001928E-02 0. -1.
    10030    2    1    2    0    0  0.00000000000E+00  0.00000000000E+00 -0.17189558698E+04  0.28706464439E+04  0.22990871501E+04 0.  0.
        2    1    3    3  502    0  0.71078981950E+03  0.77192827801E+03 -0.14455968332E+04  0.17862938275E+04  0.25500000920E-02 0. -1.
       -2    1    3    3    0  502 -0.71078981950E+03 -0.77192827801E+03 -0.27335903654E+03  0.10843526164E+04  0.25500000920E-02 0.  1.
</event>
<event>
 5   0  0.7607231E-07  0.2292326E+04  0.7818609E-02  0.8480953E-01
        1   -1    0    0  501    0  0.00000000000E+00  0.00000000000E+00  0.89365243585E+03  0.89365243586E+03  0.50400001928E-02 0.  1.
       -1   -1    0    0    0  501  0.00000000000E+00  0.00000000000E+00 -0.14700232323E+04  0.14700232323E+04  0.50400001928E-02 0. -1.
    10030    2    1    2    0    0  0.00000000000E+00  0.00000000000E+00 -0.57637079642E+03  0.23636756681E+04  0.22923261917E+04 0.  0.
        2    1    3    3  502    0 -0.22628474013E+03 -0.17547302401E+03 -0.14325460848E+04  0.14608846124E+04  0.25500000920E-02 0. -1.
       -2    1    3    3    0  502  0.22628474013E+03  0.17547302401E+03  0.85617528839E+03  0.90279105569E+03  0.25500000920E-02 0.  1.
</event>
<event>
 5   0  0.1689444E-06  0.2298693E+04  0.7818609E-02  0.8478437E-01
        2   -1    0    0  501    0  0.00000000000E+00  0.00000000000E+00  0.12031799791E+04  0.12031799791E+04  0.25500000920E-02 0. -1.
       -2   -1    0    0    0  501  0.00000000000E+00  0.00000000000E+00 -0.10979216784E+04  0.10979216784E+04  0.25500000920E-02 0.  1.
    10030    2    1    2    0    0  0.00000000000E+00  0.00000000000E+00  0.10525830068E+03  0.23011016575E+04  0.22986930044E+04 0.  0.
        2    1    3    3  502    0 -0.85613332255E+02  0.14199035803E+03 -0.10858868412E+04  0.10984721828E+04  0.25500000920E-02 0.  1.
       -2    1    3    3    0  502  0.85613332255E+02 -0.14199035803E+03  0.11911451419E+04  0.12026294747E+04  0.25500000920E-02 0. -1.
</event>
<event>
 5   0  0.7932912E-07  0.2301183E+04  0.7818609E-02  0.8477455E-01
        1   -1    0    0  501    0  0.00000000000E+00  0.00000000000E+00  0.80757200216E+03  0.80757200217E+03  0.50400001928E-02 0. -1.
       -1   -1    0    0    0  501  0.00000000000E+00  0.00000000000E+00 -0.16393105586E+04  0.16393105586E+04  0.50400001928E-02 0.  1.
    10030    2    1    2    0    0  0.00000000000E+00  0.00000000000E+00 -0.83173855647E+03  0.24468825608E+04  0.23011834434E+04 0.  0.
        5    1    3    3  502    0  0.77583049515E+03  0.34522544162E+03  0.40965325096E+03  0.94283160679E+03  0.46999998093E+01 0. -1.
       -5    1    3    3    0  502 -0.77583049515E+03 -0.34522544162E+03 -0.12413918074E+04  0.15040509540E+04  0.46999998093E+01 0.  1.
</event>
<event>
 5   0  0.8108242E-07  0.2300884E+04  0.7818609E-02  0.8477573E-01
        1   -1    0    0  501    0  0.00000000000E+00  0.00000000000E+00  0.96399045501E+03  0.96399045502E+03  0.50400001928E-02 0. -1.
       -1   -1    0    0    0  501  0.00000000000E+00  0.00000000000E+00 -0.13729567363E+04  0.13729567363E+04  0.50400001928E-02 0.  1.
    10030    2    1    2    0    0  0.00000000000E+00  0.00000000000E+00 -0.40896628129E+03  0.23369471913E+04  0.23008843421E+04 0.  0.
        4    1    3    3  502    0 -0.11348205067E+04  0.12684710756E+02 -0.39595063397E+03  0.12019804498E+04  0.12699999809E+01 0.  1.
       -4    1    3    3    0  502  0.11348205067E+04 -0.12684710756E+02 -0.13015647325E+02  0.11349667415E+04  0.12699999809E+01 0. -1.
</event>
<event>
 5   0  0.7932912E-07  0.2299492E+04  0.7818609E-02  0.8478122E-01
       -1   -1    0    0    0  501  0.00000000000E+00  0.00000000000E+00  0.70266660274E+03  0.70266660276E+03  0.50400001928E-02 0. -1.
        1   -1    0    0  501    0  0.00000000000E+00  0.00000000000E+00 -0.18812839360E+04  0.18812839360E+04  0.50400001928E-02 0.  1.
    10030    2    1    2    0    0  0.00000000000E+00  0.00000000000E+00 -0.11786173332E+04  0.25839505387E+04  0.22994915891E+04 0.  0.
        5    1    3    3  502    0  0.28803732751E+03 -0.36676423023E+03 -0.17702216294E+04  0.18306250872E+04  0.46999998093E+01 0.  1.
       -5    1    3    3    0  502 -0.28803732751E+03  0.36676423023E+03  0.59160429621E+03  0.75332545152E+03  0.46999998093E+01 0. -1.
</event>
<event>
 5   0  0.1689444E-06  0.2300674E+04  0.7818609E-02  0.8477655E-01
       -2   -1    0    0    0  501  0.00000000000E+00  0.00000000000E+00  0.67142461807E+03  0.67142461808E+03  0.25500000920E-02 0.  1.
        2   -1    0    0  501    0  0.00000000000E+00  0.00000000000E+00 -0.19708470120E+04  0.19708470120E+04  0.25500000920E-02 0. -1.
    10030    2    1    2    0    0  0.00000000000E+00  0.00000000000E+00 -0.12994223939E+04  0.26422716301E+04  0.23006739902E+04 0.  0.
        2    1    3    3  502    0  0.91860332731E+03  0.26003554658E+03  0.87307567100E+02  0.95868303923E+03  0.25500000920E-02 0.  1.
       -2    1    3    3    0  502 -0.91860332731E+03 -0.26003554658E+03 -0.13867299610E+04  0.16835885909E+04  0.25500000920E-02 0. -1.
</event>
<event>
 5   0  0.1689444E-06  0.2298123E+04  0.7818609E-02  0.8478662E-01
        2   -1    0    0  501    0  0.00000000000E+00  0.00000000000E+00  0.12411635999E+04  0.12411635999E+04  0.25500000920E-02 0. -1.
       -2   -1    0    0    0  501  0.00000000000E+00  0.00000000000E+00 -0.10637940259E+04  0.10637940259E+04  0.25500000920E-02 0.  1.
    10030    2    1    2    0    0  0.00000000000E+00  0.00000000000E+00  0.17736957398E+03  0.23049576258E+04  0.22981230800E+04 0.  0.
        2    1    3    3  502    0  0.37631021823E+03  0.32748068698E+03 -0.94952139226E+03  0.10725874580E+04  0.25500000920E-02 0.  1.
       -2    1    3    3    0  502 -0.37631021823E+03 -0.32748068698E+03  0.11268909662E+04  0.12323701678E+04  0.25500000920E-02 0. -1.
</event>
<event>
 5   0  0.7761069E-07  0.2300820E+04  0.7818609E-02  0.8477598E-01
        1   -1    0    0  501    0  0.00000000000E+00  0.00000000000E+00  0.89444524031E+03  0.89444524032E+03  0.50400001928E-02 0.  1.
       -1   -1    0    0    0  501  0.00000000000E+00  0.00000000000E+00 -0.14796246772E+04  0.14796246772E+04  0.50400001928E-02 0. -1.
    10030    2    1    2    0    0  0.00000000000E+00  0.00000000000E+00 -0.58517943690E+03  0.23740699175E+04  0.23008200712E+04 0.  0.
        1    1    3    3  502    0  0.81735583816E+03  0.44348934116E+03  0.40623849587E+03  0.10147822808E+04  0.50400001928E-02 0.  1.
       -1    1    3    3    0  502 -0.81735583816E+03 -0.44348934116E+03 -0.99141793277E+03  0.13592876367E+04  0.50400001928E-02 0. -1.
</event>
<event>
 5   0  0.1828646E-06  0.2301207E+04  0.7818609E-02  0.8477445E-01
       -2   -1    0    0    0  501  0.00000000000E+00  0.00000000000E+00  0.10486144986E+04  0.10486144987E+04  0.25500000920E-02 0. -1.
        2   -1    0    0  501    0  0.00000000000E+00  0.00000000000E+00 -0.12625118229E+04  0.12625118229E+04  0.25500000920E-02 0.  1.
    10030    2    1    2    0    0  0.00000000000E+00  0.00000000000E+00 -0.21389732425E+03  0.23111263215E+04  0.23012068157E+04 0.  0.
        3    1    3    3  502    0 -0.76614725394E+03 -0.32919832325E+03 -0.90316810718E+03  0.12292541604E+04  0.10100000352E+00 0.  1.
       -3    1    3    3    0  502  0.76614725394E+03  0.32919832325E+03  0.68927078293E+03  0.10818721612E+04  0.10100000352E+00 0. -1.
</event>
<event>
 5   0  0.1828646E-06  0.2299107E+04  0.7818609E-02  0.8478273E-01
        2   -1    0    0  501    0  0.00000000000E+00  0.00000000000E+00  0.23031017401E+04  0.23031017401E+04  0.25500000920E-02 0. -1.
       -2   -1    0    0    0  501  0.00000000000E+00  0.00000000000E+00 -0.57377991292E+03  0.57377991293E+03  0.25500000920E-02 0.  1.
    10030    2    1    2    0    0  0.00000000000E+00  0.00000000000E+00  0.17293218272E+04  0.28768816530E+04  0.22991072319E+04 0.  0.
        3    1    3    3  502    0 -0.11058585634E+04  0.25875871169E+03  0.64224444103E+03  0.13047440996E+04  0.10100000352E+00 0. -1.
       -3    1    3    3    0  502  0.11058585634E+04 -0.25875871169E+03  0.10870773861E+04  0.15721375534E+04  0.10100000352E+00 0.  1.
</event>
<event>
 5   0  0.1888779E-06  0.2299969E+04  0.7818609E-02  0.8477933E-01
       -2   -1    0    0    0  501  0.00000000000E+00  0.00000000000E+00  0.58788577441E+03  0.58788577442E+03  0.25500000920E-02 0. -1.
        2   -1    0    0  501    0  0.00000000000E+00  0.00000000000E+00 -0.22495254031E+04  0.22495254031E+04  0.25500000920E-02 0.  1.
    10030    2    1    2    0    0  0.00000000000E+00  0.00000000000E+00 -0.16616396287E+04  0.28374111776E+04  0.22999686813E+04 0.  0.
        4    1    3    3  502    0  0.10426911177E+04  0.16011665196E+03 -0.13956488089E+04  0.17494797283E+04  0.12699999809E+01 0.  1.
       -4    1    3    3    0  502 -0.10426911177E+04 -0.16011665196E+03 -0.26599081981E+03  0.10879314492E+04  0.12699999809E+01 0. -1.
</event>
<event>
 5   0  0.8108242E-07  0.2299212E+04  0.7818609E-02  0.8478232E-01
       -1   -1    0    0    0  501  0.00000000000E+00  0.00000000000E+00  0.11146362652E+04  0.11146362652E+04  0.50400001928E-02 0. -1.
        1   -1    0    0  501    0  0.00000000000E+00  0.00000000000E+00 -0.11856732860E+04  0.11856732860E+04  0.50400001928E-02 0.  1.
    10030    2    1    2    0    0  0.00000000000E+00  0.00000000000E+00 -0.71037020850E+02  0.23003095512E+04  0.22992124245E+04 0.  0.
        4    1    3    3  502    0 -0.11742984876E+03  0.45080673822E+03  0.10159712659E+04  0.11176831888E+04  0.12699999809E+01 0. -1.
       -4    1    3    3    0  502  0.11742984876E+03 -0.45080673822E+03 -0.10870082867E+04  0.11826263624E+04  0.12699999809E+01 0.  1.
</event>
<event>
 5   0  0.8108242E-07  0.2299840E+04  0.7818609E-02  0.8477984E-01
        1   -1    0    0  501    0  0.00000000000E+00  0.00000000000E+00  0.13898074966E+04  0.13898074966E+04  0.50400001928E-02 0.  1.
       -1   -1    0    0    0  501  0.00000000000E+00  0.00000000000E+00 -0.95143806582E+03  0.95143806583E+03  0.50400001928E-02 0. -1.
    10030    2    1    2    0    0  0.00000000000E+00  0.00000000000E+00  0.43836943075E+03  0.23412455624E+04  0.22998397826E+04 0.  0.
        4    1    3    3  502    0  0.69195635650E+03  0.92732160233E+02 -0.71100075647E+03  0.99645699427E+03  0.12699999809E+01 0. -1.
       -4    1    3    3    0  502 -0.69195635650E+03 -0.92732160233E+02  0.11493701872E+04  0.13447885681E+04  0.12699999809E+01 0.  1.
</event>
<event>
 5   0  0.1825521E-06  0.2296042E+04  0.7818609E-02  0.8479483E-01
        2   -1    0    0  501    0  0.00000000000E+00  0.00000000000E+00  0.93541827532E+03  0.93541827532E+03  0.25500000920E-02 0.  1.
       -2   -1    0    0    0  501  0.00000000000E+00  0.00000000000E+00 -0.14089445649E+04  0.14089445649E+04  0.25500000920E-02 0. -1.
    10030    2    1    2    0    0  0.00000000000E+00  0.00000000000E+00 -0.47352628956E+03  0.23443628402E+04  0.22960422426E+04 0.  0.
        5    1    3    3  502    0 -0.56495161440E+03  0.39178667076E+03 -0.11754937062E+04  0.13617909771E+04  0.46999998093E+01 0. -1.
       -5    1    3    3    0  502  0.56495161440E+03 -0.39178667076E+03  0.70196741668E+03  0.98257186306E+03  0.46999998093E+01 0.  1.
</event>
<event>
 5   0  0.8108242E-07  0.2301396E+04  0.7818609E-02  0.8477371E-01
        1   -1    0    0  501    0  0.00000000000E+00  0.00000000000E+00  0.20919321783E+04  0.20919321783E+04  0.50400001928E-02 0. -1.
       -1   -1    0    0    0  501  0.00000000000E+00  0.00000000000E+00 -0.63295808951E+03  0.63295808953E+03  0.50400001928E-02 0.  1.
    10030    2    1    2    0    0  0.00000000000E+00  0.00000000000E+00  0.14589740888E+04  0.27248902678E+04  0.23013955723E+04 0.  0.
        4    1    3    3  502    0 -0.38699238783E+03  0.10018531952E+04  0.24039959252E+03  0.11005755358E+04  0.12699999809E+01 0.  1.
       -4    1    3    3    0  502  0.38699238783E+03 -0.10018531952E+04  0.12185744962E+04  0.16243147321E+04  0.12699999809E+01 0. -1.
</event>
<event>
 5   0  0.1828646E-06  0.2303117E+04  0.7818609E-02  0.8476693E-01
       -2   -1    0    0    0  501  0.00000000000E+00  0.00000000000E+00  0.92172578851E+03  0.92172578852E+03  0.25500000920E-02 0. -1.
        2   -1    0    0  501    0  0.00000000000E+00  0.00000000000E+00 -0.14386996693E+04  0.14386996694E+04  0.25500000920E-02 0.  1.
    10030    2    1    2    0    0  0.00000000000E+00  0.00000000000E+00 -0.51697388084E+03  0.23604254579E+04  0.23031166598E+04 0.  0.
        3    1    3    3  502    0  0.29053743074E+03 -0.11099329426E+04 -0.15742576355E+03  0.11580785884E+04  0.10100000352E+00 0.  1.
       -3    1    3    3    0  502 -0.29053743074E+03  0.11099329426E+04 -0.35954811728E+03  0.12023468695E+04  0.10100000352E+00 0. -1.
</event>
<event>
 5   0  0.1828646E-06  0.2299858E+04  0.7818609E-02  0.8477977E-01
        2   -1    0    0  501    0  0.00000000000E+00  0.00000000000E+00  0.13221797481E+04  0.13221797481E+04  0.25500000920E-02 0. -1.
       -2   -1    0    0    0  501  0.00000000000E+00  0.00000000000E+00 -0.10001183129E+04  0.10001183129E+04  0.25500000920E-02 0.  1.
    10030    2    1    2    0    0  0.00000000000E+00  0.00000000000E+00  0.32206143526E+03  0.23222980610E+04  0.22998575425E+04 0.  0.
        3    1    3    3  502    0  0.45863444210E+03 -0.94560691993E+03  0.63229451293E+03  0.12265049367E+04  0.10100000352E+00 0. -1.
       -3    1    3    3    0  502 -0.45863444210E+03  0.94560691993E+03 -0.31023307767E+03  0.10957931243E+04  0.10100000352E+00 0.  1.
</event>
<event>
 5   0  0.8108242E-07  0.2299677E+04  0.7818609E-02  0.8478049E-01
        1   -1    0    0  501    0  0.00000000000E+00  0.00000000000E+00  0.13663324020E+04  0.13663324020E+04  0.50400001928E-02 0.  1.
       -1   -1    0    0    0  501  0.00000000000E+00  0.00000000000E+00 -0.96764740851E+03  0.96764740853E+03  0.50400001928E-02 0. -1.
    10030    2    1    2    0    0  0.00000000000E+00  0.00000000000E+00  0.39868499353E+03  0.23339798106E+04  0.22996765060E+04 0.  0.
        4    1    3    3  502    0  0.56353507585E+03 -0.94879790406E+03  0.52717335665E+03  0.12229892090E+04  0.12699999809E+01 0. -1.
       -4    1    3    3    0  502 -0.56353507585E+03  0.94879790406E+03 -0.12848836312E+03  0.11109906016E+04  0.12699999809E+01 0.  1.
</event>
<event>
 5   0  0.8097672E-07  0.2300829E+04  0.7818609E-02  0.8477594E-01
       -1   -1    0    0    0  501  0.00000000000E+00  0.00000000000E+00  0.10219173420E+04  0.10219173420E+04  0.50400001928E-02 0. -1.
        1   -1    0    0  501    0  0.00000000000E+00  0.00000000000E+00 -0.12950685902E+04  0.12950685902E+04  0.50400001928E-02 0.  1.
    10030    2    1    2    0    0  0.00000000000E+00  0.00000000000E+00 -0.27315124823E+03  0.23169859322E+04  0.23008285911E+04 0.  0.
        3    1    3    3  502    0  0.38648926528E+02  0.20446937552E+03 -0.12759588701E+04  0.12928157307E+04  0.10100000352E+00 0.  1.
       -3    1    3    3    0  502 -0.38648926528E+02 -0.20446937552E+03  0.10028076219E+04  0.10241702016E+04  0.10100000352E+00 0. -1.
</event>
<event>
 5   0  0.8108242E-07  0.2296765E+04  0.7818609E-02  0.8479198E-01
       -1   -1    0    0    0  501  0.00000000000E+00  0.00000000000E+00  0.11877010838E+04  0.11877010838E+04  0.50400001928E-02 0.  1.
        1   -1    0    0  501    0  0.00000000000E+00  0.00000000000E+00 -0.11103650825E+04  0.11103650825E+04  0.50400001928E-02 0. -1.
    10030    2    1    2    0    0  0.00000000000E+00  0.00000000000E+00  0.77336001315E+02  0.22980661663E+04  0.22967645172E+04 0.  0.
        4    1    3    3  502    0 -0.23337423304E+03 -0.78372062456E+03  0.84541190100E+03  0.11761821480E+04  0.12699999809E+01 0. -1.
       -4    1    3    3    0  502  0.23337423304E+03  0.78372062456E+03 -0.76807589969E+03  0.11218840183E+04  0.12699999809E+01 0.  1.
</event>
<event>
 5   0  0.1825521E-06  0.2299146E+04  0.7818609E-02  0.8478258E-01
        2   -1    0    0  501    0  0.00000000000E+00  0.00000000000E+00  0.14199153700E+04  0.14199153700E+04  0.25500000920E-02 0.  1.
       -2   -1    0    0    0  501  0.00000000000E+00  0.00000000000E+00 -0.93070166763E+03  0.93070166764E+03  0.25500000920E-02 0. -1.
    10030    2    1    2    0    0  0.00000000000E+00  0.00000000000E+00  0.48921370240E+03  0.23506170377E+04  0.22991455829E+04 0.  0.
        5    1    3    3  502    0  0.60157262234E+03  0.80277266893E+03 -0.32935402096E+03  0.10558549801E+04  0.46999998093E+01 0. -1.
       -5    1    3    3    0  502 -0.60157262234E+03 -0.80277266893E+03  0.81856772336E+03  0.12947620575E+04  0.46999998093E+01 0.  1.
</event>
<event>
 5   0  0.8108242E-07  0.2301394E+04  0.7818609E-02  0.8477371E-01
        1   -1    0    0  501    0  0.00000000000E+00  0.00000000000E+00  0.97988860738E+03  0.97988860739E+03  0.50400001928E-02 0. -1.
       -1   -1    0    0    0  501  0.00000000000E+00  0.00000000000E+00 -0.13512802541E+04  0.13512802541E+04  0.50400001928E-02 0.  1.
    10030    2    1    2    0    0  0.00000000000E+00  0.00000000000E+00 -0.37139164670E+03  0.23311688615E+04  0.23013944698E+04 0.  0.
        4    1    3    3  502    0 -0.58933772139E+03  0.88589875149E+03  0.25811298594E+03  0.10948787486E+04  0.12699999809E+01 0.  1.
       -4    1    3    3    0  502  0.58933772139E+03 -0.88589875149E+03 -0.62950463264E+03  0.12362901129E+04  0.12699999809E+01 0. -1.
</event>
<event>
 5   0  0.6319125E-07  0.2300759E+04  0.7818609E-02  0.8477622E-01
        3   -1    0    0  501    0  0.00000000000E+00  0.00000000000E+00  0.43771017429E+03  0.43771018594E+03  0.10100000352E+00 0.  1.
       -3   -1    0    0    0  501  0.00000000000E+00  0.00000000000E+00 -0.30234006197E+04  0.30234006214E+04  0.10100000352E+00 0. -1.
    10030    2    1    2    0    0  0.00000000000E+00  0.00000000000E+00 -0.25856904454E+04  0.34611108073E+04  0.23007592097E+04 0.  0.
        3    1    3    3  502    0 -0.92464234992E+03 -0.65689816078E+03 -0.15817970729E+04  0.19464225283E+04  0.10100000352E+00 0.  1.
       -3    1    3    3    0  502  0.92464234992E+03  0.65689816078E+03 -0.10038933726E+04  0.15146882790E+04  0.10100000352E+00 0. -1.
</event>
<event>
 5   0  0.7607231E-07  0.2300403E+04  0.7818609E-02  0.8477762E-01
        1   -1    0    0  501    0  0.00000000000E+00  0.00000000000E+00  0.24965952971E+04  0.24965952971E+04  0.50400001928E-02 0. -1.
       -1   -1    0    0    0  501  0.00000000000E+00  0.00000000000E+00 -0.52990707405E+03  0.52990707407E+03  0.50400001928E-02 0.  1.
    10030    2    1    2    0    0  0.00000000000E+00  0.00000000000E+00  0.19666882230E+04  0.30265023711E+04  0.23004030160E+04 0.  0.
        2    1    3    3  502    0 -0.11084267251E+04  0.26275445983E+03  0.77402169314E+03  0.13772288454E+04  0.25500000920E-02 0.  1.
       -2    1    3    3    0  502  0.11084267251E+04 -0.26275445983E+03  0.11926665299E+04  0.16492735257E+04  0.25500000920E-02 0. -1.
</event>
<event>
 5   0  0.7932912E-07  0.2302244E+04  0.7818609E-02  0.8477037E-01
        1   -1    0    0  501    0  0.00000000000E+00  0.00000000000E+00  0.12908769318E+04  0.12908769318E+04  0.50400001928E-02 0.  1.
       -1   -1    0    0    0  501  0.00000000000E+00  0.00000000000E+00 -0.10264971094E+04  0.10264971095E+04  0.50400001928E-02 0. -1.
    10030    2    1    2    0    0  0.00000000000E+00  0.00000000000E+00  0.26437982236E+03  0.23173740413E+04  0.23022436354E+04 0.  0.
        5    1    3    3  502    0  0.66331279785E+03 -0.90990346995E+03  0.37282412120E+03  0.11861400034E+04  0.46999998093E+01 0.  1.
       -5    1    3    3    0  502 -0.66331279785E+03  0.90990346995E+03 -0.10844429883E+03  0.11312340378E+04  0.46999998093E+01 0. -1.
</event>
<event>
 5   0  0.1689444E-06  0.2298795E+04  0.7818609E-02  0.8478396E-01
       -2   -1    0    0    0  501  0.00000000000E+00  0.00000000000E+00  0.69014442627E+03  0.69014442627E+03  0.25500000920E-02 0.  1.
        2   -1    0    0  501    0  0.00000000000E+00  0.00000000000E+00 -0.19142583175E+04  0.19142583175E+04  0.25500000920E-02 0. -1.
    10030    2    1    2    0    0  0.00000000000E+00  0.00000000000E+00 -0.12241138913E+04  0.26044027438E+04  0.22987950829E+04 0.  0.
        2    1    3    3  502    0  0.50125334114E+03 -0.36010847287E+03  0.48647774957E+03  0.78587125222E+03  0.25500000920E-02 0.  1.
       -2    1    3    3    0  502 -0.50125334114E+03  0.36010847287E+03 -0.17105916408E+04  0.18185314916E+04  0.25500000920E-02 0. -1.
</event>
<event>
 5   0  0.1888779E-06  0.2300396E+04  0.7818609E-02  0.8477765E-01
       -2   -1    0    0    0  501  0.00000000000E+00  0.00000000000E+00  0.74969503481E+03  0.74969503481E+03  0.25500000920E-02 0.  1.
        2   -1    0    0  501    0  0.00000000000E+00  0.00000000000E+00 -0.17646586867E+04  0.17646586867E+04  0.25500000920E-02 0. -1.
    10030    2    1    2    0    0  0.00000000000E+00  0.00000000000E+00 -0.10149636518E+04  0.25143537215E+04  0.23003963620E+04 0.  0.
        4    1    3    3  502    0 -0.51150132596E+02 -0.85888355487E+03  0.32683339442E+03  0.92039066570E+03  0.12699999809E+01 0.  1.
       -4    1    3    3    0  502  0.51150132596E+02  0.85888355487E+03 -0.13417970463E+04  0.15939630558E+04  0.12699999809E+01 0. -1.
</event>
<event>
 5   0  0.1828646E-06  0.2300474E+04  0.7818609E-02  0.8477734E-01
       -2   -1    0    0    0  501  0.00000000000E+00  0.00000000000E+00  0.13586681340E+04  0.13586681340E+04  0.25500000920E-02 0. -1.
        2   -1    0    0  501    0  0.00000000000E+00  0.00000000000E+00 -0.97378127594E+03  0.97378127594E+03  0.25500000920E-02 0.  1.
    10030    2    1    2    0    0  0.00000000000E+00  0.00000000000E+00  0.38488685807E+03  0.23324494100E+04  0.23004743764E+04 0.  0.
        3    1    3    3  502    0  0.43045705064E+03  0.53611454266E+03 -0.74250892187E+03  0.10119444572E+04  0.10100000352E+00 0.  1.
       -3    1    3    3    0  502 -0.43045705064E+03 -0.53611454266E+03  0.11273957799E+04  0.13205049527E+04  0.10100000352E+00 0. -1.
</event>
<event>
 5   0  0.8108242E-07  0.2300263E+04  0.7818609E-02  0.8477818E-01
        1   -1    0    0  501    0  0.00000000000E+00  0.00000000000E+00  0.10581227028E+04  0.10581227028E+04  0.50400001928E-02 0.  1.
       -1   -1    0    0    0  501  0.00000000000E+00  0.00000000000E+00 -0.12501404407E+04  0.12501404408E+04  0.50400001928E-02 0. -1.
    10030    2    1    2    0    0  0.00000000000E+00  0.00000000000E+00 -0.19201773797E+03  0.23082631435E+04  0.23002625781E+04 0.  0.
        4    1    3    3  502    0  0.67257926518E+03  0.76667667324E+03 -0.62950107642E+03  0.11985112462E+04  0.12699999809E+01 0. -1.
       -4    1    3    3    0  502 -0.67257926518E+03 -0.76667667324E+03  0.43748333845E+03  0.11097518973E+04  0.12699999809E+01 0.  1.
</event>
<event>
 5   0  0.8097672E-07  0.2302352E+04  0.7818609E-02  0.8476994E-01
       -1   -1    0    0    0  501  0.00000000000E+00  0.00000000000E+00  0.12076381218E+04  0.12076381219E+04  0.50400001928E-02 0.  1.
        1   -1    0    0  501    0  0.00000000000E+00  0.00000000000E+00 -0.10973534931E+04  0.10973534931E+04  0.50400001928E-02 0. -1.
    10030    2    1    2    0    0  0.00000000000E+00  0.00000000000E+00  0.11028462874E+03  0.23049916150E+04  0.23023517641E+04 0.  0.
        3    1    3    3  502    0 -0.57227024309E+03 -0.38156667826E+03 -0.86901931757E+03  0.11082783701E+04  0.10100000352E+00 0. -1.
       -3    1    3    3    0  502  0.57227024309E+03  0.38156667826E+03  0.97930394630E+03  0.11967132449E+04  0.10100000352E+00 0.  1.
</event>
<event>
 5   0  0.7932912E-07  0.2299814E+04  0.7818609E-02  0.8477994E-01
       -1   -1    0    0    0  501  0.00000000000E+00  0.00000000000E+00  0.13195563618E+04  0.13195563618E+04  0.50400001928E-02 0. -1.
        1   -1    0    0  501    0  0.00000000000E+00  0.00000000000E+00 -0.10020689735E+04  0.10020689735E+04  0.50400001928E-02 0.  1.
    10030    2    1    2    0    0  0.00000000000E+00  0.00000000000E+00  0.31748738829E+03  0.23216253353E+04  0.22998143307E+04 0.  0.
        5    1    3    3  502    0 -0.67458759722E+03 -0.17629746622E+03  0.10818089655E+04  0.12870438806E+04  0.46999998093E+01 0. -1.
       -5    1    3    3    0  502  0.67458759722E+03  0.17629746622E+03 -0.76432157719E+03  0.10345814546E+04  0.46999998093E+01 0.  1.
</event>
<event>
 5   0  0.7932912E-07  0.2289105E+04  0.7818609E-02  0.8482229E-01
       -1   -1    0    0    0  501  0.00000000000E+00  0.00000000000E+00  0.10735549105E+04  0.10735549106E+04  0.50400001928E-02 0. -1.
        1   -1    0    0  501    0  0.00000000000E+00  0.00000000000E+00 -0.12202459083E+04  0.12202459083E+04  0.50400001928E-02 0.  1.
    10030    2    1    2    0    0  0.00000000000E+00  0.00000000000E+00 -0.14669099779E+03  0.22938008189E+04  0.22891054908E+04 0.  0.
        5    1    3    3  502    0  0.58739023792E+03  0.76028742199E+03  0.54995500574E+03  0.11070396804E+04  0.46999998093E+01 0. -1.
       -5    1    3    3    0  502 -0.58739023792E+03 -0.76028742199E+03 -0.69664600352E+03  0.11867611385E+04  0.46999998093E+01 0.  1.
</event>
<event>
 5   0  0.1689444E-06  0.2300151E+04  0.7818609E-02  0.8477862E-01
        2   -1    0    0  501    0  0.00000000000E+00  0.00000000000E+00  0.99105184135E+03  0.99105184135E+03  0.25500000920E-02 0. -1.
       -2   -1    0    0    0  501  0.00000000000E+00  0.00000000000E+00 -0.13346155981E+04  0.13346155981E+04  0.25500000920E-02 0.  1.
    10030    2    1    2    0    0  0.00000000000E+00  0.00000000000E+00 -0.34356375674E+03  0.23256674394E+04  0.23001506437E+04 0.  0.
        2    1    3    3  502    0 -0.93598479484E+00 -0.18103051085E+03 -0.13201190107E+04  0.13324740615E+04  0.25500000920E-02 0.  1.
       -2    1    3    3    0  502  0.93598479484E+00  0.18103051085E+03  0.97655525400E+03  0.99319337798E+03  0.25500000920E-02 0. -1.
</event>
<event>
 5   0  0.1689444E-06  0.2302241E+04  0.7818609E-02  0.8477038E-01
       -2   -1    0    0    0  501  0.00000000000E+00  0.00000000000E+00  0.88607366119E+03  0.88607366119E+03  0.25500000920E-02 0. -1.
        2   -1    0    0  501    0  0.00000000000E+00  0.00000000000E+00 -0.14954500648E+04  0.14954500648E+04  0.25500000920E-02 0.  1.
    10030    2    1    2    0    0  0.00000000000E+00  0.00000000000E+00 -0.60937640357E+03  0.23815237260E+04  0.23022414417E+04 0.  0.
        2    1    3    3  502    0  0.12832710758E+03 -0.11359754659E+04 -0.44412942015E+03  0.12264416201E+04  0.25500000920E-02 0.  1.
       -2    1    3    3    0  502 -0.12832710758E+03  0.11359754659E+04 -0.16524698342E+03  0.11550821058E+04  0.25500000920E-02 0. -1.
</event>
<event>
 5   0  0.8097672E-07  0.2300496E+04  0.7818609E-02  0.8477726E-01
        1   -1    0    0  501    0  0.00000000000E+00  0.00000000000E+00  0.22470249898E+04  0.22470249898E+04  0.50400001928E-02 0. -1.
       -1   -1    0    0    0  501  0.00000000000E+00  0.00000000000E+00 -0.58880965741E+03  0.58880965743E+03  0.50400001928E-02 0.  1.
    10030    2    1    2    0    0  0.00000000000E+00  0.00000000000E+00  0.16582153324E+04  0.28358346473E+04  0.23004956114E+04 0.  0.
        3    1    3    3  502    0 -0.80578020709E+03 -0.67494572550E+02  0.18375430747E+04  0.20075860682E+04  0.10100000352E+00 0. -1.
       -3    1    3    3    0  502  0.80578020709E+03  0.67494572550E+02 -0.17932774227E+03  0.82824857912E+03  0.10100000352E+00 0.  1.
</event>
<event>
 5   0  0.7761069E-07  0.2300041E+04  0.7818609E-02  0.8477905E-01
        1   -1    0    0  501    0  0.00000000000E+00  0.00000000000E+00  0.79906576031E+03  0.79906576032E+03  0.50400001928E-02 0. -1.
       -1   -1    0    0    0  501  0.00000000000E+00  0.00000000000E+00 -0.16551171351E+04  0.16551171351E+04  0.50400001928E-02 0.  1.
    10030    2    1    2    0    0  0.00000000000E+00  0.00000000000E+00 -0.85605137476E+03  0.24541828954E+04  0.23000412448E+04 0.  0.
        1    1    3    3  502    0  0.82015480317E+03  0.21013317848E+01  0.43215746577E+03  0.92704821450E+03  0.50400001928E-02 0. -1.
       -1    1    3    3    0  502 -0.82015480317E+03 -0.21013317848E+01 -0.12882088405E+04  0.15271346809E+04  0.50400001928E-02 0.  1.
</event>
<event>
 5   0  0.1744876E-06  0.2300226E+04  0.7818609E-02  0.8477832E-01
       -2   -1    0    0    0  501  0.00000000000E+00  0.00000000000E+00  0.65666213141E+03  0.65666213141E+03  0.25500000920E-02 0.  1.
        2   -1    0    0  501    0  0.00000000000E+00  0.00000000000E+00 -0.20143689481E+04  0.20143689481E+04  0.25500000920E-02 0. -1.
    10030    2    1    2    0    0  0.00000000000E+00  0.00000000000E+00 -0.13577068167E+04  0.26710310795E+04  0.23002259080E+04 0.  0.
        1    1    3    3  502    0  0.21938984293E+03 -0.83568021731E+03  0.20264215183E+03  0.88744417881E+03  0.50400001928E-02 0.  1.
       -1    1    3    3    0  502 -0.21938984293E+03  0.83568021731E+03 -0.15603489685E+04  0.17835869007E+04  0.50400001928E-02 0. -1.
</event>
<event>
 5   0  0.1825521E-06  0.2300269E+04  0.7818609E-02  0.8477815E-01
        2   -1    0    0  501    0  0.00000000000E+00  0.00000000000E+00  0.16623540492E+04  0.16623540492E+04  0.25500000920E-02 0. -1.
       -2   -1    0    0    0  501  0.00000000000E+00  0.00000000000E+00 -0.79574443150E+03  0.79574443150E+03  0.25500000920E-02 0.  1.
    10030    2    1    2    0    0  0.00000000000E+00  0.00000000000E+00  0.86660961772E+03  0.24580984807E+04  0.23002686607E+04 0.  0.
        5    1    3    3  502    0  0.62304281197E+03 -0.91528701909E+03  0.76587244120E+03  0.13462969060E+04  0.46999998093E+01 0. -1.
       -5    1    3    3    0  502 -0.62304281197E+03  0.91528701909E+03  0.10073717652E+03  0.11118015747E+04  0.46999998093E+01 0.  1.
</event>
<event>
 5   0  0.7607231E-07  0.2299954E+04  0.7818609E-02  0.8477939E-01
       -1   -1    0    0    0  501  0.00000000000E+00  0.00000000000E+00  0.91770092118E+03  0.91770092119E+03  0.50400001928E-02 0.  1.
        1   -1    0    0  501    0  0.00000000000E+00  0.00000000000E+00 -0.14410442683E+04  0.14410442683E+04  0.50400001928E-02 0. -1.
    10030    2    1    2    0    0  0.00000000000E+00  0.00000000000E+00 -0.52334334711E+03  0.23587451895E+04  0.22999544800E+04 0.  0.
        2    1    3    3  502    0 -0.10316101241E+04 -0.31089622665E+03  0.15056297204E+03  0.10879085993E+04  0.25500000920E-02 0.  1.
       -2    1    3    3    0  502  0.10316101241E+04  0.31089622665E+03 -0.67390631916E+03  0.12708365902E+04  0.25500000920E-02 0. -1.
</event>
<event>
 5   0  0.7607231E-07  0.2299910E+04  0.7818609E-02  0.8477957E-01
       -1   -1    0    0    0  501  0.00000000000E+00  0.00000000000E+00  0.86658231571E+03  0.86658231572E+03  0.50400001928E-02 0.  1.
        1   -1    0    0  501    0  0.00000000000E+00  0.00000000000E+00 -0.15259905546E+04  0.15259905546E+04  0.50400001928E-02 0. -1.
    10030    2    1    2    0    0  0.00000000000E+00  0.00000000000E+00 -0.65940823885E+03  0.23925728703E+04  0.22999099361E+04 0.  0.
        2    1    3    3  502    0  0.35606436181E+03 -0.91897152661E+03 -0.94611944524E+03  0.13661744036E+04  0.25500000920E-02 0. -1.
       -2    1    3    3    0  502 -0.35606436181E+03  0.91897152661E+03  0.28671120640E+03  0.10263984667E+04  0.25500000920E-02 0.  1.
</event>
<event>
 5   0  0.8097672E-07  0.2300001E+04  0.7818609E-02  0.8477921E-01
        1   -1    0    0  501    0  0.00000000000E+00  0.00000000000E+00  0.21505089204E+04  0.21505089204E+04  0.50400001928E-02 0. -1.
       -1   -1    0    0    0  501  0.00000000000E+00  0.00000000000E+00 -0.61497139555E+03  0.61497139557E+03  0.50400001928E-02 0.  1.
    10030    2    1    2    0    0  0.00000000000E+00  0.00000000000E+00  0.15355375248E+04  0.27654803160E+04  0.23000012800E+04 0.  0.
        3    1    3    3  502    0  0.10726565730E+03  0.10674962151E+04  0.26990798937E+03  0.11063021393E+04  0.10100000352E+00 0. -1.
       -3    1    3    3    0  502 -0.10726565730E+03 -0.10674962151E+04  0.12656295355E+04  0.16591781766E+04  0.10100000352E+00 0.  1.
</event>
<event>
 5   0  0.1828646E-06  0.2300430E+04  0.7818609E-02  0.8477752E-01
        2   -1    0    0  501    0  0.00000000000E+00  0.00000000000E+00  0.16251908068E+04  0.16251908068E+04  0.25500000920E-02 0. -1.
       -2   -1    0    0    0  501  0.00000000000E+00  0.00000000000E+00 -0.81405475578E+03  0.81405475579E+03  0.25500000920E-02 0.  1.
    10030    2    1    2    0    0  0.00000000000E+00  0.00000000000E+00  0.81113605102E+03  0.24392455626E+04  0.23004297906E+04 0.  0.
        3    1    3    3  502    0  0.71263251490E+03 -0.85948113706E+03  0.11240393797E+03  0.11221352778E+04  0.10100000352E+00 0. -1.
       -3    1    3    3    0  502 -0.71263251490E+03  0.85948113706E+03  0.69873211305E+03  0.13171102848E+04  0.10100000352E+00 0.  1.
</event>
<event>
 5   0  0.7932912E-07  0.2294232E+04  0.7818609E-02  0.8480199E-01
       -1   -1    0    0    0  501  0.00000000000E+00  0.00000000000E+00  0.10252986842E+04  0.10252986842E+04  0.50400001928E-02 0. -1.
        1   -1    0    0  501    0  0.00000000000E+00  0.00000000000E+00 -0.12834064584E+04  0.12834064584E+04  0.50400001928E-02 0.  1.
    10030    2    1    2    0    0  0.00000000000E+00  0.00000000000E+00 -0.25810777418E+03  0.23087051427E+04  0.22942318568E+04 0.  0.
        5    1    3    3  502    0 -0.97541764077E+03  0.14783442937E+02  0.47823872581E+03  0.10864586936E+04  0.46999998093E+01 0. -1.
       -5    1    3    3    0  502  0.97541764077E+03 -0.14783442937E+02 -0.73634649999E+03  0.12222464490E+04  0.46999998093E+01 0.  1.
</event>
<event>
 5   0  0.7607231E-07  0.2299239E+04  0.7818609E-02  0.8478221E-01
       -1   -1    0    0    0  501  0.00000000000E+00  0.00000000000E+00  0.66464621523E+03  0.66464621525E+03  0.50400001928E-02 0.  1.
        1   -1    0    0  501    0  0.00000000000E+00  0.00000000000E+00 -0.19884636671E+04  0.19884636671E+04  0.50400001928E-02 0. -1.
    10030    2    1    2    0    0  0.00000000000E+00  0.00000000000E+00 -0.13238174518E+04  0.26531098823E+04  0.22992388745E+04 0.  0.
        2    1    3    3  502    0 -0.28099882422E+03  0.68935923683E+03 -0.16727796919E+04  0.18309474035E+04  0.25500000920E-02 0. -1.
       -2    1    3    3    0  502  0.28099882422E+03 -0.68935923683E+03  0.34896224008E+03  0.82216247885E+03  0.25500000920E-02 0.  1.
</event>
<event>
 5   0  0.1744876E-06  0.2299121E+04  0.7818609E-02  0.8478268E-01
       -2   -1    0    0    0  501  0.00000000000E+00  0.00000000000E+00  0.84203853054E+03  0.84203853054E+03  0.25500000920E-02 0.  1.
        2   -1    0    0  501    0  0.00000000000E+00  0.00000000000E+00 -0.15693934956E+04  0.15693934956E+04  0.25500000920E-02 0. -1.
    10030    2    1    2    0    0  0.00000000000E+00  0.00000000000E+00 -0.72735496510E+03  0.24114320262E+04  0.22991213912E+04 0.  0.
        1    1    3    3  502    0 -0.88282275646E+03 -0.64261033706E+03 -0.74063010650E+03  0.13194154082E+04  0.50400001928E-02 0. -1.
       -1    1    3    3    0  502  0.88282275646E+03  0.64261033706E+03  0.13275141400E+02  0.10920166180E+04  0.50400001928E-02 0.  1.
</event>
<event>
 5   0  0.1825521E-06  0.2299918E+04  0.7818609E-02  0.8477954E-01
        2   -1    0    0  501    0  0.00000000000E+00  0.00000000000E+00  0.15759535512E+04  0.15759535512E+04  0.25500000920E-02 0. -1.
       -2   -1    0    0    0  501  0.00000000000E+00  0.00000000000E+00 -0.83911449574E+03  0.83911449574E+03  0.25500000920E-02 0.  1.
    10030    2    1    2    0    0  0.00000000000E+00  0.00000000000E+00  0.73683905550E+03  0.24150680470E+04  0.22999177981E+04 0.  0.
        5    1    3    3  502    0  0.53031828920E+02 -0.83499910784E+03  0.11968070156E+04  0.14602756615E+04  0.46999998093E+01 0. -1.
       -5    1    3    3    0  502 -0.53031828920E+02  0.83499910784E+03 -0.45996796014E+03  0.95479238545E+03  0.46999998093E+01 0.  1.
</event>
<event>
 5   0  0.1825521E-06  0.2311996E+04  0.7818609E-02  0.8473206E-01
       -2   -1    0    0    0  501  0.00000000000E+00  0.00000000000E+00  0.65849463461E+03  0.65849463462E+03  0.25500000920E-02 0.  1.
        2   -1    0    0  501    0  0.00000000000E+00  0.00000000000E+00 -0.20293730648E+04  0.20293730648E+04  0.25500000920E-02 0. -1.
    10030    2    1    2    0    0  0.00000000000E+00  0.00000000000E+00 -0.13708784302E+04  0.26878676994E+04  0.23119959125E+04 0.  0.
        5    1    3    3  502    0 -0.67526593324E+03 -0.59265030335E+03  0.16020152849E+03  0.91263633632E+03  0.46999998093E+01 0.  1.
       -5    1    3    3    0  502  0.67526593324E+03  0.59265030335E+03 -0.15310799587E+04  0.17752313631E+04  0.46999998093E+01 0. -1.
</event>
<event>
 5   0  0.1825521E-06  0.2298970E+04  0.7818609E-02  0.8478327E-01
       -2   -1    0    0    0  501  0.00000000000E+00  0.00000000000E+00  0.10690925944E+04  0.10690925944E+04  0.25500000920E-02 0. -1.
        2   -1    0    0  501    0  0.00000000000E+00  0.00000000000E+00 -0.12359228950E+04  0.12359228950E+04  0.25500000920E-02 0.  1.
    10030    2    1    2    0    0  0.00000000000E+00  0.00000000000E+00 -0.16683030052E+03  0.23050154894E+04  0.22989702167E+04 0.  0.
        5    1    3    3  502    0  0.97058829778E+03 -0.20278005092E+03  0.49960555853E+03  0.11103104057E+04  0.46999998093E+01 0. -1.
       -5    1    3    3    0  502 -0.97058829778E+03  0.20278005092E+03 -0.66643585905E+03  0.11947050837E+04  0.46999998093E+01 0.  1.
</event>
<event>
 5   0  0.1689444E-06  0.2298491E+04  0.7818609E-02  0.8478516E-01
        2   -1    0    0  501    0  0.00000000000E+00  0.00000000000E+00  0.18359014919E+04  0.18359014919E+04  0.25500000920E-02 0.  1.
       -2   -1    0    0    0  501  0.00000000000E+00  0.00000000000E+00 -0.71940948486E+03  0.71940948486E+03  0.25500000920E-02 0. -1.
    10030    2    1    2    0    0  0.00000000000E+00  0.00000000000E+00  0.11164920070E+04  0.25553109768E+04  0.22984907627E+04 0.  0.
        2    1    3    3  502    0 -0.82803140163E+03 -0.56269745215E+03  0.11856627003E+04  0.15517926613E+04  0.25500000920E-02 0.  1.
       -2    1    3    3    0  502  0.82803140163E+03  0.56269745215E+03 -0.69170693224E+02  0.10035183155E+04  0.25500000920E-02 0. -1.
</event>
<event>
 5   0  0.1888779E-06  0.2299336E+04  0.7818609E-02  0.8478183E-01
        2   -1    0    0  501    0  0.00000000000E+00  0.00000000000E+00  0.13038618360E+04  0.13038618360E+04  0.25500000920E-02 0.  1.
       -2   -1    0    0    0  501  0.00000000000E+00  0.00000000000E+00 -0.10137088446E+04  0.10137088446E+04  0.25500000920E-02 0. -1.
    10030    2    1    2    0    0  0.00000000000E+00  0.00000000000E+00  0.29015299141E+03  0.23175706807E+04  0.22993357957E+04 0.  0.
        4    1    3    3  502    0  0.35246002520E+03 -0.92398125472E+03  0.73604122857E+03  0.12327723762E+04  0.12699999809E+01 0.  1.
       -4    1    3    3    0  502 -0.35246002520E+03  0.92398125472E+03 -0.44588823716E+03  0.10847983045E+04  0.12699999809E+01 0. -1.
</event>
<event>
 5   0  0.1828646E-06  0.2300625E+04  0.7818609E-02  0.8477675E-01
       -2   -1    0    0    0  501  0.00000000000E+00  0.00000000000E+00  0.90979474791E+03  0.90979474791E+03  0.25500000920E-02 0.  1.
        2   -1    0    0  501    0  0.00000000000E+00  0.00000000000E+00 -0.14544144045E+04  0.14544144045E+04  0.25500000920E-02 0. -1.
    10030    2    1    2    0    0  0.00000000000E+00  0.00000000000E+00 -0.54461965655E+03  0.23642091524E+04  0.23006247729E+04 0.  0.
        3    1    3    3  502    0  0.48250643207E+03  0.77050641196E+03  0.45195691469E+03  0.10152623556E+04  0.10100000352E+00 0.  1.
       -3    1    3    3    0  502 -0.48250643207E+03 -0.77050641196E+03 -0.99657657124E+03  0.13489467967E+04  0.10100000352E+00 0. -1.
</event>
<event>
 5   0  0.1825521E-06  0.2298504E+04  0.7818609E-02  0.8478511E-01
        2   -1    0    0  501    0  0.00000000000E+00  0.00000000000E+00  0.27184710834E+04  0.27184710834E+04  0.25500000920E-02 0.  1.
       -2   -1    0    0    0  501  0.00000000000E+00  0.00000000000E+00 -0.48585383197E+03  0.48585383197E+03  0.25500000920E-02 0. -1.
    10030    2    1    2    0    0  0.00000000000E+00  0.00000000000E+00  0.22326172515E+04  0.32043249154E+04  0.22985035070E+04 0.  0.
        5    1    3    3  502    0 -0.25871311131E+03  0.87379173957E+03  0.14013270432E+03  0.92201070651E+03  0.46999998093E+01 0. -1.
       -5    1    3    3    0  502  0.25871311131E+03 -0.87379173957E+03  0.20924845471E+04  0.22823142089E+04  0.46999998093E+01 0.  1.
</event>
<event>
 5   0  0.1888779E-06  0.2302632E+04  0.7818609E-02  0.8476884E-01
        2   -1    0    0  501    0  0.00000000000E+00  0.00000000000E+00  0.14206522665E+04  0.14206522665E+04  0.25500000920E-02 0. -1.
       -2   -1    0    0    0  501  0.00000000000E+00  0.00000000000E+00 -0.93304186812E+03  0.93304186813E+03  0.25500000920E-02 0.  1.
    10030    2    1    2    0    0  0.00000000000E+00  0.00000000000E+00  0.48761039836E+03  0.23536941346E+04  0.23026315769E+04 0.  0.
        4    1    3    3  502    0 -0.29003445112E+03  0.82437086396E+03  0.10099728824E+04  0.13355725889E+04  0.12699999809E+01 0. -1.
       -4    1    3    3    0  502  0.29003445112E+03 -0.82437086396E+03 -0.52236248404E+03  0.10181215457E+04  0.12699999809E+01 0.  1.
</event>
<event>
 5   0  0.6319125E-07  0.2293441E+04  0.7818609E-02  0.8480512E-01
        3   -1    0    0  501    0  0.00000000000E+00  0.00000000000E+00  0.12751250008E+04  0.12751250048E+04  0.10100000352E+00 0.  1.
       -3   -1    0    0    0  501  0.00000000000E+00  0.00000000000E+00 -0.10312464864E+04  0.10312464914E+04  0.10100000352E+00 0. -1.
    10030    2    1    2    0    0  0.00000000000E+00  0.00000000000E+00  0.24387851433E+03  0.23063714961E+04  0.22934412459E+04 0.  0.
        4    1    3    3  502    0  0.15664107104E+03 -0.11301216835E+04  0.61592339722E+01  0.11409430282E+04  0.12699999809E+01 0.  1.
       -4    1    3    3    0  502 -0.15664107104E+03  0.11301216835E+04  0.23771928036E+03  0.11654284679E+04  0.12699999809E+01 0. -1.
</event>
<event>
 5   0  0.1744876E-06  0.2301456E+04  0.7818609E-02  0.8477347E-01
       -2   -1    0    0    0  501  0.00000000000E+00  0.00000000000E+00  0.70964940014E+03  0.70964940014E+03  0.25500000920E-02 0. -1.
        2   -1    0    0  501    0  0.00000000000E+00  0.00000000000E+00 -0.18659563145E+04  0.18659563145E+04  0.25500000920E-02 0.  1.
    10030    2    1    2    0    0  0.00000000000E+00  0.00000000000E+00 -0.11563069144E+04  0.25756057147E+04  0.23014558691E+04 0.  0.
        1    1    3    3  502    0 -0.59580358647E+03 -0.17669907728E+03 -0.16620086741E+04  0.17743949139E+04  0.50400001928E-02 0.  1.
       -1    1    3    3    0  502  0.59580358647E+03  0.17669907728E+03  0.50570175970E+03  0.80121080082E+03  0.50400001928E-02 0. -1.
</event>
<event>
 5   0  0.7607231E-07  0.2299295E+04  0.7818609E-02  0.8478199E-01
       -1   -1    0    0    0  501  0.00000000000E+00  0.00000000000E+00  0.10440824613E+04  0.10440824613E+04  0.50400001928E-02 0.  1.
        1   -1    0    0  501    0  0.00000000000E+00  0.00000000000E+00 -0.12658861485E+04  0.12658861485E+04  0.50400001928E-02 0. -1.
    10030    2    1    2    0    0  0.00000000000E+00  0.00000000000E+00 -0.22180368722E+03  0.23099686099E+04  0.22992951317E+04 0.  0.
        2    1    3    3  502    0 -0.11852836160E+03 -0.31133599357E+01 -0.12597270060E+04  0.12652947463E+04  0.25500000920E-02 0. -1.
       -2    1    3    3    0  502  0.11852836160E+03  0.31133599357E+01  0.10379233188E+04  0.10446738635E+04  0.25500000920E-02 0.  1.
</event>
<event>
 5   0  0.1828646E-06  0.2299869E+04  0.7818609E-02  0.8477973E-01
       -2   -1    0    0    0  501  0.00000000000E+00  0.00000000000E+00  0.45361692393E+03  0.45361692394E+03  0.25500000920E-02 0. -1.
        2   -1    0    0  501    0  0.00000000000E+00  0.00000000000E+00 -0.29151243132E+04  0.29151243132E+04  0.25500000920E-02 0.  1.
    10030    2    1    2    0    0  0.00000000000E+00  0.00000000000E+00 -0.24615073893E+04  0.33687412371E+04  0.22998693214E+04 0.  0.
        3    1    3    3  502    0  0.11435326461E+04 -0.12048227555E+03 -0.12118349831E+04  0.16705468948E+04  0.10100000352E+00 0.  1.
       -3    1    3    3    0  502 -0.11435326461E+04  0.12048227555E+03 -0.12496724062E+04  0.16981943423E+04  0.10100000352E+00 0. -1.
</event>
<event>
 5   0  0.8108242E-07  0.2300486E+04  0.7818609E-02  0.8477730E-01
       -1   -1    0    0    0  501  0.00000000000E+00  0.00000000000E+00  0.81673857195E+03  0.81673857196E+03  0.50400001928E-02 0. -1.
        1   -1    0    0  501    0  0.00000000000E+00  0.00000000000E+00 -0.16199289263E+04  0.16199289263E+04  0.50400001928E-02 0.  1.
    10030    2    1    2    0    0  0.00000000000E+00  0.00000000000E+00 -0.80319035435E+03  0.24366674983E+04  0.23004855470E+04 0.  0.
        4    1    3    3  502    0 -0.10260311911E+03 -0.65444420050E+03 -0.13975965285E+04  0.15466422602E+04  0.12699999809E+01 0.  1.
       -4    1    3    3    0  502  0.10260311911E+03  0.65444420050E+03  0.59440617416E+03  0.89002523807E+03  0.12699999809E+01 0. -1.
</event>
<event>
 5   0  0.7761069E-07  0.2299335E+04  0.7818609E-02  0.8478183E-01
       -1   -1    0    0    0  501  0.00000000000E+00  0.00000000000E+00  0.14003694353E+04  0.14003694353E+04  0.50400001928E-02 0. -1.
        1   -1    0    0  501    0  0.00000000000E+00  0.00000000000E+00 -0.94384769796E+03  0.94384769797E+03  0.50400001928E-02 0.  1.
    10030    2    1    2    0    0  0.00000000000E+00  0.00000000000E+00  0.45652173737E+03  0.23442171333E+04  0.22993350933E+04 0.  0.
        1    1    3    3  502    0 -0.44335758383E+03 -0.40898111602E+02  0.13089020172E+04  0.13825567233E+04  0.50400001928E-02 0. -1.
       -1    1    3    3    0  502  0.44335758383E+03  0.40898111602E+02 -0.85238027980E+03  0.96166040996E+03  0.50400001928E-02 0.  1.
</event>
<event>
 5   0  0.7932912E-07  0.2300144E+04  0.7818609E-02  0.8477864E-01
        1   -1    0    0  501    0  0.00000000000E+00  0.00000000000E+00  0.10668291793E+04  0.10668291793E+04  0.50400001928E-02 0. -1.
       -1   -1    0    0    0  501  0.00000000000E+00  0.00000000000E+00 -0.12398105964E+04  0.12398105964E+04  0.50400001928E-02 0.  1.
    10030    2    1    2    0    0  0.00000000000E+00  0.00000000000E+00 -0.17298141709E+03  0.23066397758E+04  0.23001444486E+04 0.  0.
        5    1    3    3  502    0  0.12013013206E+03  0.68607714388E+02 -0.12314265324E+04  0.12391818518E+04  0.46999998093E+01 0.  1.
       -5    1    3    3    0  502 -0.12013013206E+03 -0.68607714388E+02  0.10584451154E+04  0.10674579239E+04  0.46999998093E+01 0. -1.
</event>
<event>
 5   0  0.1888779E-06  0.2298872E+04  0.7818609E-02  0.8478366E-01
        2   -1    0    0  501    0  0.00000000000E+00  0.00000000000E+00  0.10075686025E+04  0.10075686025E+04  0.25500000920E-02 0.  1.
       -2   -1    0    0    0  501  0.00000000000E+00  0.00000000000E+00 -0.13112784919E+04  0.13112784919E+04  0.25500000920E-02 0. -1.
    10030    2    1    2    0    0  0.00000000000E+00  0.00000000000E+00 -0.30370988942E+03  0.23188470944E+04  0.22988719299E+04 0.  0.
        4    1    3    3  502    0  0.17896785816E+03  0.68925664853E+03  0.75825836556E+03  0.10402218915E+04  0.12699999809E+01 0.  1.
       -4    1    3    3    0  502 -0.17896785816E+03 -0.68925664853E+03 -0.10619682550E+04  0.12786252028E+04  0.12699999809E+01 0. -1.
</event>
<event>
 5   0  0.7607231E-07  0.2294920E+04  0.7818609E-02  0.8479927E-01
        1   -1    0    0  501    0  0.00000000000E+00  0.00000000000E+00  0.99999614676E+03  0.99999614677E+03  0.50400001928E-02 0.  1.
       -1   -1    0    0    0  501  0.00000000000E+00  0.00000000000E+00 -0.13166693557E+04  0.13166693557E+04  0.50400001928E-02 0. -1.
    10030    2    1    2    0    0  0.00000000000E+00  0.00000000000E+00 -0.31667320896E+03  0.23166655025E+04  0.22949198525E+04 0.  0.
        2    1    3    3  502    0 -0.89075847592E+03 -0.10609513068E+03  0.56395528698E+03  0.10596001156E+04  0.25500000920E-02 0.  1.
       -2    1    3    3    0  502  0.89075847592E+03  0.10609513068E+03 -0.88062849594E+03  0.12570653869E+04  0.25500000920E-02 0. -1.
</event>
<event>
 5   0  0.1689444E-06  0.2299456E+04  0.7818609E-02  0.8478136E-01
       -2   -1    0    0    0  501  0.00000000000E+00  0.00000000000E+00  0.11712568512E+04  0.11712568512E+04  0.25500000920E-02 0. -1.
        2   -1    0    0  501    0  0.00000000000E+00  0.00000000000E+00 -0.11285951942E+04  0.11285951942E+04  0.25500000920E-02 0.  1.
    10030    2    1    2    0    0  0.00000000000E+00  0.00000000000E+00  0.42661656945E+02  0.22998520454E+04  0.22994563300E+04 0.  0.
        2    1    3    3  502    0  0.59956108734E+03  0.97313718893E+03  0.14547054893E+03  0.11522287822E+04  0.25500000920E-02 0.  1.
       -2    1    3    3    0  502 -0.59956108734E+03 -0.97313718893E+03 -0.10280889199E+03  0.11476232632E+04  0.25500000920E-02 0. -1.
</event>
<event>
 5   0  0.1744876E-06  0.2299757E+04  0.7818609E-02  0.8478017E-01
        2   -1    0    0  501    0  0.00000000000E+00  0.00000000000E+00  0.87912111908E+03  0.87912111909E+03  0.25500000920E-02 0. -1.
       -2   -1    0    0    0  501  0.00000000000E+00  0.00000000000E+00 -0.15040259505E+04  0.15040259505E+04  0.25500000920E-02 0.  1.
    10030    2    1    2    0    0  0.00000000000E+00  0.00000000000E+00 -0.62490483143E+03  0.23831470696E+04  0.22997573583E+04 0.  0.
        1    1    3    3  502    0 -0.71604449873E+03  0.10084837762E+02 -0.12447408711E+04  0.14360366514E+04  0.50400001928E-02 0.  1.
       -1    1    3    3    0  502  0.71604449873E+03 -0.10084837762E+02  0.61983603965E+03  0.94711041816E+03  0.50400001928E-02 0. -1.
</event>
<event>
 5   0  0.1825521E-06  0.2301311E+04  0.7818609E-02  0.8477405E-01
        2   -1    0    0  501    0  0.00000000000E+00  0.00000000000E+00  0.19336517165E+04  0.19336517165E+04  0.25500000920E-02 0. -1.
       -2   -1    0    0    0  501  0.00000000000E+00  0.00000000000E+00 -0.68471874399E+03  0.68471874400E+03  0.25500000920E-02 0.  1.
    10030    2    1    2    0    0  0.00000000000E+00  0.00000000000E+00  0.12489329725E+04  0.26183704605E+04  0.23013105611E+04 0.  0.
        5    1    3    3  502    0  0.78138381269E+03 -0.43054207442E+03  0.14512595356E+04  0.17035561248E+04  0.46999998093E+01 0.  1.
       -5    1    3    3    0  502 -0.78138381269E+03  0.43054207442E+03 -0.20232656316E+03  0.91481433567E+03  0.46999998093E+01 0. -1.
</event>
<event>
 5   0  0.7607231E-07  0.2300048E+04  0.7818609E-02  0.8477902E-01
        1   -1    0    0  501    0  0.00000000000E+00  0.00000000000E+00  0.19136608269E+04  0.19136608269E+04  0.50400001928E-02 0. -1.
       -1   -1    0    0    0  501  0.00000000000E+00  0.00000000000E+00 -0.69111286562E+03  0.69111286564E+03  0.50400001928E-02 0.  1.
    10030    2    1    2    0    0  0.00000000000E+00  0.00000000000E+00  0.12225479613E+04  0.26047736926E+04  0.23000483629E+04 0.  0.
        2    1    3    3  502    0 -0.46240402500E+03  0.10214490799E+04  0.32170289288E+03  0.11664769421E+04  0.25500000920E-02 0. -1.
       -2    1    3    3    0  502  0.46240402500E+03 -0.10214490799E+04  0.90084506842E+03  0.14382967505E+04  0.25500000920E-02 0.  1.
</event>
<event>
 5   0  0.8108242E-07  0.2299334E+04  0.7818609E-02  0.8478184E-01
       -1   -1    0    0    0  501  0.00000000000E+00  0.00000000000E+00  0.72912241794E+03  0.72912241796E+03  0.50400001928E-02 0. -1.
        1   -1    0    0  501    0  0.00000000000E+00  0.00000000000E+00 -0.18127740169E+04  0.18127740169E+04  0.50400001928E-02 0.  1.
    10030    2    1    2    0    0  0.00000000000E+00  0.00000000000E+00 -0.10836515990E+04  0.25418964349E+04  0.22993339683E+04 0.  0.
        4    1    3    3  502    0  0.36856994228E+03 -0.64709468198E+02  0.65991188424E+03  0.75862798887E+03  0.12699999809E+01 0. -1.
       -4    1    3    3    0  502 -0.36856994228E+03  0.64709468198E+02 -0.17435634832E+04  0.17832684460E+04  0.12699999809E+01 0.  1.
</event>
<event>
 5   0  0.1888779E-06  0.2300910E+04  0.7818609E-02  0.8477563E-01
       -2   -1    0    0    0  501  0.00000000000E+00  0.00000000000E+00  0.11865156146E+04  0.11865156146E+04  0.25500000920E-02 0. -1.
        2   -1    0    0  501    0  0.00000000000E+00  0.00000000000E+00 -0.11154900706E+04  0.11154900706E+04  0.25500000920E-02 0.  1.
    10030    2    1    2    0    0  0.00000000000E+00  0.00000000000E+00  0.71025543976E+02  0.23020056852E+04  0.23009097216E+04 0.  0.
        4    1    3    3  502    0  0.39351899046E+03 -0.31527667413E+03  0.10700692377E+04  0.11829228054E+04  0.12699999809E+01 0. -1.
       -4    1    3    3    0  502 -0.39351899046E+03  0.31527667413E+03 -0.99904369373E+03  0.11190828799E+04  0.12699999809E+01 0.  1.
</event>
<event>
 5   0  0.1828646E-06  0.2300533E+04  0.7818609E-02  0.8477711E-01
        2   -1    0    0  501    0  0.00000000000E+00  0.00000000000E+00  0.12130271119E+04  0.12130271119E+04  0.25500000920E-02 0. -1.
       -2   -1    0    0    0  501  0.00000000000E+00  0.00000000000E+00 -0.10907526326E+04  0.10907526326E+04  0.25500000920E-02 0.  1.
    10030    2    1    2    0    0  0.00000000000E+00  0.00000000000E+00  0.12227447927E+03  0.23037797445E+04  0.23005325607E+04 0.  0.
        3    1    3    3  502    0 -0.96318055120E+03  0.61302440445E+03 -0.79048963090E+02  0.11444494062E+04  0.10100000352E+00 0.  1.
       -3    1    3    3    0  502  0.96318055120E+03 -0.61302440445E+03  0.20132344236E+03  0.11593303383E+04  0.10100000352E+00 0. -1.
</event>
<event>
 5   0  0.7761069E-07  0.2298972E+04  0.7818609E-02  0.8478327E-01
       -1   -1    0    0    0  501  0.00000000000E+00  0.00000000000E+00  0.65345929945E+03  0.65345929947E+03  0.50400001928E-02 0. -1.
        1   -1    0    0  501    0  0.00000000000E+00  0.00000000000E+00 -0.20220350686E+04  0.20220350686E+04  0.50400001928E-02 0.  1.
    10030    2    1    2    0    0  0.00000000000E+00  0.00000000000E+00 -0.13685757691E+04  0.26754943680E+04  0.22989716131E+04 0.  0.
        1    1    3    3  502    0  0.58994585283E+03  0.90596892850E+03 -0.22981504641E+03  0.11052740675E+04  0.50400001928E-02 0. -1.
       -1    1    3    3    0  502 -0.58994585283E+03 -0.90596892850E+03 -0.11387607227E+04  0.15702203006E+04  0.50400001928E-02 0.  1.
</event>
<event>
 5   0  0.7761069E-07  0.2300605E+04  0.7818609E-02  0.8477683E-01
       -1   -1    0    0    0  501  0.00000000000E+00  0.00000000000E+00  0.10941788145E+04  0.10941788145E+04  0.50400001928E-02 0.  1.
        1   -1    0    0  501    0  0.00000000000E+00  0.00000000000E+00 -0.12093051963E+04  0.12093051963E+04  0.50400001928E-02 0. -1.
    10030    2    1    2    0    0  0.00000000000E+00  0.00000000000E+00 -0.11512638182E+03  0.23034840108E+04  0.23006052474E+04 0.  0.
        1    1    3    3  502    0 -0.43327928794E+03  0.83562658256E+03  0.60447019952E+03  0.11186540792E+04  0.50400001928E-02 0.  1.
       -1    1    3    3    0  502  0.43327928794E+03 -0.83562658256E+03 -0.71959658133E+03  0.11848299316E+04  0.50400001928E-02 0. -1.
</event>
<event>
 5   0  0.7607231E-07  0.2299552E+04  0.7818609E-02  0.8478098E-01
       -1   -1    0    0    0  501  0.00000000000E+00  0.00000000000E+00  0.13851027508E+04  0.13851027508E+04  0.50400001928E-02 0. -1.
        1   -1    0    0  501    0  0.00000000000E+00  0.00000000000E+00 -0.95443110000E+03  0.95443110001E+03  0.50400001928E-02 0.  1.
    10030    2    1    2    0    0  0.00000000000E+00  0.00000000000E+00  0.43067165079E+03  0.23395338508E+04  0.22995522539E+04 0.  0.
        2    1    3    3  502    0 -0.48144064556E+03 -0.47380258740E+03 -0.73127737749E+03  0.99551021585E+03  0.25500000920E-02 0.  1.
       -2    1    3    3    0  502  0.48144064556E+03  0.47380258740E+03  0.11619490283E+04  0.13440236350E+04  0.25500000920E-02 0. -1.
</event>
<event>
 5   0  0.7607231E-07  0.2299480E+04  0.7818609E-02  0.8478126E-01
        1   -1    0    0  501    0  0.00000000000E+00  0.00000000000E+00  0.91190914635E+03  0.91190914636E+03  0.50400001928E-02 0.  1.
       -1   -1    0    0    0  501  0.00000000000E+00  0.00000000000E+00 -0.14495980262E+04  0.14495980262E+04  0.50400001928E-02 0. -1.
    10030    2    1    2    0    0  0.00000000000E+00  0.00000000000E+00 -0.53768887984E+03  0.23615071726E+04  0.22994796791E+04 0.  0.
        2    1    3    3  502    0  0.59640214424E+03 -0.78843275261E+03 -0.87168811806E+03  0.13180143771E+04  0.25500000920E-02 0. -1.
       -2    1    3    3    0  502 -0.59640214424E+03  0.78843275261E+03  0.33399923822E+03  0.10434927955E+04  0.25500000920E-02 0.  1.
</event>
<event>
 5   0  0.1825521E-06  0.2299385E+04  0.7818609E-02  0.8478164E-01
        2   -1    0    0  501    0  0.00000000000E+00  0.00000000000E+00  0.17610846773E+04  0.17610846773E+04  0.25500000920E-02 0.  1.
       -2   -1    0    0    0  501  0.00000000000E+00  0.00000000000E+00 -0.75055581952E+03  0.75055581953E+03  0.25500000920E-02 0. -1.
    10030    2    1    2    0    0  0.00000000000E+00  0.00000000000E+00  0.10105288578E+04  0.25116404969E+04  0.22993845727E+04 0.  0.
        5    1    3    3  502    0 -0.51263075179E+03  0.41023538656E+03 -0.52561624252E+03  0.84105759878E+03  0.46999998093E+01 0. -1.
       -5    1    3    3    0  502  0.51263075179E+03 -0.41023538656E+03  0.15361451003E+04  0.16705828981E+04  0.46999998093E+01 0.  1.
</event>
<event>
 5   0  0.7932912E-07  0.2294043E+04  0.7818609E-02  0.8480273E-01
       -1   -1    0    0    0  501  0.00000000000E+00  0.00000000000E+00  0.23636218292E+04  0.23636218292E+04  0.50400001928E-02 0. -1.
        1   -1    0    0  501    0  0.00000000000E+00  0.00000000000E+00 -0.55662822377E+03  0.55662822379E+03  0.50400001928E-02 0.  1.
    10030    2    1    2    0    0  0.00000000000E+00  0.00000000000E+00  0.18069936054E+04  0.29202500530E+04  0.22940432607E+04 0.  0.
        5    1    3    3  502    0  0.36590950466E+03  0.86724116377E+02  0.22829095223E+04  0.23136786326E+04  0.46999998093E+01 0. -1.
       -5    1    3    3    0  502 -0.36590950466E+03 -0.86724116377E+02 -0.47591591693E+03  0.60657142032E+03  0.46999998093E+01 0.  1.
</event>
<event>
 5   0  0.8097672E-07  0.2298382E+04  0.7818609E-02  0.8478559E-01
       -1   -1    0    0    0  501  0.00000000000E+00  0.00000000000E+00  0.87368645597E+03  0.87368645598E+03  0.50400001928E-02 0.  1.
        1   -1    0    0  501    0  0.00000000000E+00  0.00000000000E+00 -0.15115721776E+04  0.15115721776E+04  0.50400001928E-02 0. -1.
    10030    2    1    2    0    0  0.00000000000E+00  0.00000000000E+00 -0.63788572160E+03  0.23852586336E+04  0.22983821604E+04 0.  0.
        3    1    3    3  502    0 -0.80687507972E+03  0.55975674395E+03  0.30049805462E+03  0.10269732702E+04  0.10100000352E+00 0. -1.
       -3    1    3    3    0  502  0.80687507972E+03 -0.55975674395E+03 -0.93838377622E+03  0.13582853634E+04  0.10100000352E+00 0.  1.
</event>
<event>
 5   0  0.7932912E-07  0.2300321E+04  0.7818609E-02  0.8477795E-01
       -1   -1    0    0    0  501  0.00000000000E+00  0.00000000000E+00  0.81764213948E+03  0.81764213950E+03  0.50400001928E-02 0. -1.
        1   -1    0    0  501    0  0.00000000000E+00  0.00000000000E+00 -0.16179073708E+04  0.16179073708E+04  0.50400001928E-02 0.  1.
    10030    2    1    2    0    0  0.00000000000E+00  0.00000000000E+00 -0.80026523127E+03  0.24355495103E+04  0.23003210595E+04 0.  0.
        5    1    3    3  502    0 -0.47396475212E+03  0.31979130471E+03  0.65650162015E+03  0.87058918674E+03  0.46999998093E+01 0. -1.
       -5    1    3    3    0  502  0.47396475212E+03 -0.31979130471E+03 -0.14567668514E+04  0.15649603235E+04  0.46999998093E+01 0.  1.
</event>
<event>
 5   0  0.8108242E-07  0.2301499E+04  0.7818609E-02  0.8477330E-01
       -1   -1    0    0    0  501  0.00000000000E+00  0.00000000000E+00  0.13618079090E+04  0.13618079090E+04  0.50400001928E-02 0.  1.
        1   -1    0    0  501    0  0.00000000000E+00  0.00000000000E+00 -0.97240186138E+03  0.97240186140E+03  0.50400001928E-02 0. -1.
    10030    2    1    2    0    0  0.00000000000E+00  0.00000000000E+00  0.38940604763E+03  0.23342097704E+04  0.23014991163E+04 0.  0.
        4    1    3    3  502    0 -0.98821273308E+03  0.19950926429E+03  0.75743537063E+03  0.12609830712E+04  0.12699999809E+01 0.  1.
       -4    1    3    3    0  502  0.98821273308E+03 -0.19950926429E+03 -0.36802932301E+03  0.10732266992E+04  0.12699999809E+01 0. -1.
</event>
<event>
 5   0  0.1689444E-06  0.2296978E+04  0.7818609E-02  0.8479113E-01
        2   -1    0    0  501    0  0.00000000000E+00  0.00000000000E+00  0.11660314273E+04  0.11660314273E+04  0.25500000920E-02 0. -1.
       -2   -1    0    0    0  501  0.00000000000E+00  0.00000000000E+00 -0.11312107666E+04  0.11312107666E+04  0.25500000920E-02 0.  1.
    10030    2    1    2    0    0  0.00000000000E+00  0.00000000000E+00  0.34820660702E+02  0.22972421939E+04  0.22969782801E+04 0.  0.
        2    1    3    3  502    0  0.11257902507E+04  0.22711677594E+03  0.10960842959E+02  0.11485233383E+04  0.25500000920E-02 0. -1.
       -2    1    3    3    0  502 -0.11257902507E+04 -0.22711677594E+03  0.23859817743E+02  0.11487188557E+04  0.25500000920E-02 0.  1.
</event>
<event>
 5   0  0.1744876E-06  0.2299359E+04  0.7818609E-02  0.8478174E-01
        2   -1    0    0  501    0  0.00000000000E+00  0.00000000000E+00  0.20837984116E+04  0.20837984116E+04  0.25500000920E-02 0. -1.
       -2   -1    0    0    0  501  0.00000000000E+00  0.00000000000E+00 -0.63430480974E+03  0.63430480974E+03  0.25500000920E-02 0.  1.
    10030    2    1    2    0    0  0.00000000000E+00  0.00000000000E+00  0.14494936018E+04  0.27181032213E+04  0.22993593499E+04 0.  0.
        1    1    3    3  502    0 -0.55394537692E+03 -0.88116768368E+03  0.13019902633E+04  0.16668805036E+04  0.50400001928E-02 0. -1.
       -1    1    3    3    0  502  0.55394537692E+03  0.88116768368E+03  0.14750333850E+03  0.10512227177E+04  0.50400001928E-02 0.  1.
</event>
<event>
 5   0  0.7932912E-07  0.2300788E+04  0.7818609E-02  0.8477610E-01
        1   -1    0    0  501    0  0.00000000000E+00  0.00000000000E+00  0.13800386250E+04  0.13800386250E+04  0.50400001928E-02 0.  1.
       -1   -1    0    0    0  501  0.00000000000E+00  0.00000000000E+00 -0.95896362000E+03  0.95896362002E+03  0.50400001928E-02 0. -1.
    10030    2    1    2    0    0  0.00000000000E+00  0.00000000000E+00  0.42107500502E+03  0.23390022450E+04  0.23007884176E+04 0.  0.
        5    1    3    3  502    0 -0.26701177933E+03 -0.33206145678E+03 -0.87577220963E+03  0.97394001588E+03  0.46999998093E+01 0. -1.
       -5    1    3    3    0  502  0.26701177933E+03  0.33206145678E+03  0.12968472146E+04  0.13650622292E+04  0.46999998093E+01 0.  1.
</event>
<event>
 5   0  0.7607231E-07  0.2317114E+04  0.7818609E-02  0.8471204E-01
       -1   -1    0    0    0  501  0.00000000000E+00  0.00000000000E+00  0.60036742440E+03  0.60036742442E+03  0.50400001928E-02 0. -1.
        1   -1    0    0  501    0  0.00000000000E+00  0.00000000000E+00 -0.22357205923E+04  0.22357205923E+04  0.50400001928E-02 0.  1.
    10030    2    1    2    0    0  0.00000000000E+00  0.00000000000E+00 -0.16353531679E+04  0.28360880167E+04  0.23171135610E+04 0.  0.
        2    1    3    3  502    0 -0.34937390826E+03 -0.42720747815E+03 -0.20645008639E+04  0.21369913837E+04  0.25500000920E-02 0.  1.
       -2    1    3    3    0  502  0.34937390826E+03  0.42720747815E+03  0.42914769605E+03  0.69909663294E+03  0.25500000920E-02 0. -1.
</event>
<event>
 5   0  0.8097672E-07  0.2303168E+04  0.7818609E-02  0.8476673E-01
       -1   -1    0    0    0  501  0.00000000000E+00  0.00000000000E+00  0.11835584580E+04  0.11835584580E+04  0.50400001928E-02 0. -1.
        1   -1    0    0  501    0  0.00000000000E+00  0.00000000000E+00 -0.11204731072E+04  0.11204731072E+04  0.50400001928E-02 0.  1.
    10030    2    1    2    0    0  0.00000000000E+00  0.00000000000E+00  0.63085350748E+02  0.23040315652E+04  0.23031677516E+04 0.  0.
        3    1    3    3  502    0 -0.34596075039E+03  0.67249945655E+03 -0.83723053563E+03  0.11282284077E+04  0.10100000352E+00 0.  1.
       -3    1    3    3    0  502  0.34596075039E+03 -0.67249945655E+03  0.90031588637E+03  0.11758031576E+04  0.10100000352E+00 0. -1.
</event>
<event>
 5   0  0.1689444E-06  0.2300636E+04  0.7818609E-02  0.8477670E-01
        2   -1    0    0  501    0  0.00000000000E+00  0.00000000000E+00  0.10718222662E+04  0.10718222662E+04  0.25500000920E-02 0. -1.
       -2   -1    0    0    0  501  0.00000000000E+00  0.00000000000E+00 -0.12345627729E+04  0.12345627729E+04  0.25500000920E-02 0.  1.
    10030    2    1    2    0    0  0.00000000000E+00  0.00000000000E+00 -0.16274050671E+03  0.23063850391E+04  0.23006363198E+04 0.  0.
        2    1    3    3  502    0  0.92244186719E+03 -0.37107022071E+03 -0.66129629587E+03  0.11941125985E+04  0.25500000920E-02 0.  1.
       -2    1    3    3    0  502 -0.92244186719E+03  0.37107022071E+03  0.49855578916E+03  0.11122724405E+04  0.25500000920E-02 0. -1.
</event>
<event>
 5   0  0.1744876E-06  0.2300200E+04  0.7818609E-02  0.8477842E-01
        2   -1    0    0  501    0  0.00000000000E+00  0.00000000000E+00  0.18436103606E+04  0.18436103606E+04  0.25500000920E-02 0. -1.
       -2   -1    0    0    0  501  0.00000000000E+00  0.00000000000E+00 -0.71746695843E+03  0.71746695844E+03  0.25500000920E-02 0.  1.
    10030    2    1    2    0    0  0.00000000000E+00  0.00000000000E+00  0.11261434022E+04  0.25610773191E+04  0.23001995722E+04 0.  0.
        1    1    3    3  502    0 -0.61455916740E+02 -0.10525761500E+04  0.51583540337E+02  0.10556297850E+04  0.50400001928E-02 0. -1.
       -1    1    3    3    0  502  0.61455916740E+02  0.10525761500E+04  0.10745598619E+04  0.15054475341E+04  0.50400001928E-02 0.  1.
</event>
<event>
 5   0  0.7761069E-07  0.2299322E+04  0.7818609E-02  0.8478189E-01
       -1   -1    0    0    0  501  0.00000000000E+00  0.00000000000E+00  0.11240573579E+04  0.11240573580E+04  0.50400001928E-02 0. -1.
        1   -1    0    0  501    0  0.00000000000E+00  0.00000000000E+00 -0.11758477382E+04  0.11758477382E+04  0.50400001928E-02 0.  1.
    10030    2    1    2    0    0  0.00000000000E+00  0.00000000000E+00 -0.51790380261E+02  0.22999050962E+04  0.22993219018E+04 0.  0.
        1    1    3    3  502    0  0.18995279993E+03  0.80332498918E+02 -0.11571926339E+04  0.11754276535E+04  0.50400001928E-02 0.  1.
       -1    1    3    3    0  502 -0.18995279993E+03 -0.80332498918E+02  0.11054022537E+04  0.11244774427E+04  0.50400001928E-02 0. -1.
</event>
<event>
 5   0  0.1689444E-06  0.2307351E+04  0.7818609E-02  0.8475029E-01
        2   -1    0    0  501    0  0.00000000000E+00  0.00000000000E+00  0.10345922354E+04  0.10345922354E+04  0.25500000920E-02 0. -1.
       -2   -1    0    0    0  501  0.00000000000E+00  0.00000000000E+00 -0.12864649154E+04  0.12864649154E+04  0.25500000920E-02 0.  1.
    10030    2    1    2    0    0  0.00000000000E+00  0.00000000000E+00 -0.25187268002E+03  0.23210571509E+04  0.23073505262E+04 0.  0.
        2    1    3    3  502    0 -0.23936861282E+02  0.45516187694E+03  0.94018079625E+03  0.10448374214E+04  0.25500000920E-02 0. -1.
       -2    1    3    3    0  502  0.23936861282E+02 -0.45516187694E+03 -0.11920534763E+04  0.12762197294E+04  0.25500000920E-02 0.  1.
</event>
<event>
 5   0  0.8108242E-07  0.2300045E+04  0.7818609E-02  0.8477903E-01
        1   -1    0    0  501    0  0.00000000000E+00  0.00000000000E+00  0.16533816653E+04  0.16533816653E+04  0.50400001928E-02 0.  1.
       -1   -1    0    0    0  501  0.00000000000E+00  0.00000000000E+00 -0.79990711683E+03  0.79990711685E+03  0.50400001928E-02 0. -1.
    10030    2    1    2    0    0  0.00000000000E+00  0.00000000000E+00  0.85347454849E+03  0.24532887822E+04  0.23000450091E+04 0.  0.
        4    1    3    3  502    0 -0.85839101781E+03 -0.61488634094E+03 -0.59286123542E+02  0.10575617283E+04  0.12699999809E+01 0. -1.
       -4    1    3    3    0  502  0.85839101781E+03  0.61488634094E+03  0.91276067204E+03  0.13957270539E+04  0.12699999809E+01 0.  1.
</event>
<event>
 5   0  0.6319125E-07  0.2300282E+04  0.7818609E-02  0.8477810E-01
        3   -1    0    0  501    0  0.00000000000E+00  0.00000000000E+00  0.96510423760E+03  0.96510424288E+03  0.10100000352E+00 0.  1.
       -3   -1    0    0    0  501  0.00000000000E+00  0.00000000000E+00 -0.13706549135E+04  0.13706549172E+04  0.10100000352E+00 0. -1.
    10030    2    1    2    0    0  0.00000000000E+00  0.00000000000E+00 -0.40555067589E+03  0.23357591601E+04  0.23002824834E+04 0.  0.
        5    1    3    3  502    0 -0.69837274728E+03 -0.29828395055E+03  0.67432010940E+03  0.10155921963E+04  0.46999998093E+01 0.  1.
       -5    1    3    3    0  502  0.69837274728E+03  0.29828395055E+03 -0.10798707853E+04  0.13201669638E+04  0.46999998093E+01 0. -1.
</event>
<event>
 5   0  0.8097672E-07  0.2299603E+04  0.7818609E-02  0.8478078E-01
        1   -1    0    0  501    0  0.00000000000E+00  0.00000000000E+00  0.68063256177E+03  0.68063256179E+03  0.50400001928E-02 0. -1.
       -1   -1    0    0    0  501  0.00000000000E+00  0.00000000000E+00 -0.19423750020E+04  0.19423750020E+04  0.50400001928E-02 0.  1.
    10030    2    1    2    0    0  0.00000000000E+00  0.00000000000E+00 -0.12617424403E+04  0.26230075638E+04  0.22996031602E+04 0.  0.
        3    1    3    3  502    0  0.53734097695E+03  0.88220608909E+03 -0.12068870372E+04  0.15885840362E+04  0.10100000352E+00 0.  1.
       -3    1    3    3    0  502 -0.53734097695E+03 -0.88220608909E+03 -0.54855403029E+02  0.10344235277E+04  0.10100000352E+00 0. -1.
</event>
<event>
 5   0  0.1825521E-06  0.2300133E+04  0.7818609E-02  0.8477869E-01
       -2   -1    0    0    0  501  0.00000000000E+00  0.00000000000E+00  0.12797490722E+04  0.12797490722E+04  0.25500000920E-02 0.  1.
        2   -1    0    0  501    0  0.00000000000E+00  0.00000000000E+00 -0.10335254381E+04  0.10335254381E+04  0.25500000920E-02 0. -1.
    10030    2    1    2    0    0  0.00000000000E+00  0.00000000000E+00  0.24622363415E+03  0.23132745103E+04  0.23001332314E+04 0.  0.
        5    1    3    3  502    0 -0.37830183471E+03 -0.10835458258E+04  0.48884347366E+02  0.11487365252E+04  0.46999998093E+01 0.  1.
       -5    1    3    3    0  502  0.37830183471E+03  0.10835458258E+04  0.19733928678E+03  0.11645379852E+04  0.46999998093E+01 0. -1.
</event>
<event>
 5   0  0.1689444E-06  0.2298583E+04  0.7818609E-02  0.8478480E-01
       -2   -1    0    0    0  501  0.00000000000E+00  0.00000000000E+00  0.97815224854E+03  0.97815224854E+03  0.25500000920E-02 0.  1.
        2   -1    0    0  501    0  0.00000000000E+00  0.00000000000E+00 -0.13503734747E+04  0.13503734747E+04  0.25500000920E-02 0. -1.
    10030    2    1    2    0    0  0.00000000000E+00  0.00000000000E+00 -0.37222122614E+03  0.23285257232E+04  0.22985829118E+04 0.  0.
        2    1    3    3  502    0 -0.55875594121E+03  0.77899637350E+03  0.45604544675E+03  0.10616124534E+04  0.25500000920E-02 0.  1.
       -2    1    3    3    0  502  0.55875594121E+03 -0.77899637350E+03 -0.82826667289E+03  0.12669132698E+04  0.25500000920E-02 0. -1.
</event>
<event>
 5   0  0.7932912E-07  0.2300438E+04  0.7818609E-02  0.8477748E-01
       -1   -1    0    0    0  501  0.00000000000E+00  0.00000000000E+00  0.12387645340E+04  0.12387645340E+04  0.50400001928E-02 0.  1.
        1   -1    0    0  501    0  0.00000000000E+00  0.00000000000E+00 -0.10680029840E+04  0.10680029840E+04  0.50400001928E-02 0. -1.
    10030    2    1    2    0    0  0.00000000000E+00  0.00000000000E+00  0.17076155003E+03  0.23067675180E+04  0.23004384093E+04 0.  0.
        5    1    3    3  502    0  0.99483172706E+03 -0.57689489519E+03  0.63314698479E+02  0.11517502882E+04  0.46999998093E+01 0.  1.
       -5    1    3    3    0  502 -0.99483172706E+03  0.57689489519E+03  0.10744685155E+03  0.11550172298E+04  0.46999998093E+01 0. -1.
</event>
<event>
 5   0  0.7932912E-07  0.2300321E+04  0.7818609E-02  0.8477794E-01
       -1   -1    0    0    0  501  0.00000000000E+00  0.00000000000E+00  0.66233578916E+03  0.66233578918E+03  0.50400001928E-02 0.  1.
        1   -1    0    0  501    0  0.00000000000E+00  0.00000000000E+00 -0.19972793989E+04  0.19972793989E+04  0.50400001928E-02 0. -1.
    10030    2    1    2    0    0  0.00000000000E+00  0.00000000000E+00 -0.13349436097E+04  0.26596151880E+04  0.23003213922E+04 0.  0.
        5    1    3    3  502    0 -0.48468601550E+03  0.36594250322E+03 -0.17967669274E+04  0.18966359511E+04  0.46999998093E+01 0. -1.
       -5    1    3    3    0  502  0.48468601550E+03 -0.36594250322E+03  0.46182331773E+03  0.76297923699E+03  0.46999998093E+01 0.  1.
</event>
<event>
 5   0  0.7607231E-07  0.2300882E+04  0.7818609E-02  0.8477573E-01
       -1   -1    0    0    0  501  0.00000000000E+00  0.00000000000E+00  0.74318497390E+03  0.74318497392E+03  0.50400001928E-02 0.  1.
        1   -1    0    0  501    0  0.00000000000E+00  0.00000000000E+00 -0.17808687746E+04  0.17808687746E+04  0.50400001928E-02 0. -1.
    10030    2    1    2    0    0  0.00000000000E+00  0.00000000000E+00 -0.10376838007E+04  0.25240537485E+04  0.23008823645E+04 0.  0.
        2    1    3    3  502    0 -0.49625925472E+03 -0.23102074523E+03  0.59116792176E+03  0.80568191263E+03  0.25500000920E-02 0.  1.
       -2    1    3    3    0  502  0.49625925472E+03  0.23102074523E+03 -0.16288517225E+04  0.17183718359E+04  0.25500000920E-02 0. -1.
</event>
<event>
 5   0  0.7761069E-07  0.2301077E+04  0.7818609E-02  0.8477497E-01
        1   -1    0    0  501    0  0.00000000000E+00  0.00000000000E+00  0.96724713484E+03  0.96724713485E+03  0.50400001928E-02 0.  1.
       -1   -1    0    0    0  501  0.00000000000E+00  0.00000000000E+00 -0.13685629036E+04  0.13685629036E+04  0.50400001928E-02 0. -1.
    10030    2    1    2    0    0  0.00000000000E+00  0.00000000000E+00 -0.40131576877E+03  0.23358100385E+04  0.23010767457E+04 0.  0.
        1    1    3    3  502    0  0.77695212314E+03 -0.59136283190E+03 -0.81842762460E+03  0.12740441034E+04  0.50400001928E-02 0. -1.
       -1    1    3    3    0  502 -0.77695212314E+03  0.59136283190E+03  0.41711185583E+03  0.10617659351E+04  0.50400001928E-02 0.  1.
</event>
<event>
 5   0  0.1689444E-06  0.2299278E+04  0.7818609E-02  0.8478206E-01
        2   -1    0    0  501    0  0.00000000000E+00  0.00000000000E+00  0.16550140441E+04  0.16550140441E+04  0.25500000920E-02 0.  1.
       -2   -1    0    0    0  501  0.00000000000E+00  0.00000000000E+00 -0.79858515343E+03  0.79858515343E+03  0.25500000920E-02 0. -1.
    10030    2    1    2    0    0  0.00000000000E+00  0.00000000000E+00  0.85642889064E+03  0.24535991975E+04  0.22992778382E+04 0.  0.
        2    1    3    3  502    0 -0.47259788951E+03 -0.66114048585E+03  0.12959416885E+04  0.15296798251E+04  0.25500000920E-02 0.  1.
       -2    1    3    3    0  502  0.47259788951E+03  0.66114048585E+03 -0.43951279790E+03  0.92391937241E+03  0.25500000920E-02 0. -1.
</event>
<event>
 5   0  0.7761069E-07  0.2298416E+04  0.7818609E-02  0.8478546E-01
        1   -1    0    0  501    0  0.00000000000E+00  0.00000000000E+00  0.23224647734E+04  0.23224647734E+04  0.50400001928E-02 0.  1.
       -1   -1    0    0    0  501  0.00000000000E+00  0.00000000000E+00 -0.56865393733E+03  0.56865393735E+03  0.50400001928E-02 0. -1.
    10030    2    1    2    0    0  0.00000000000E+00  0.00000000000E+00  0.17538108361E+04  0.28911187108E+04  0.22984157481E+04 0.  0.
        1    1    3    3  502    0 -0.63141425685E+03 -0.29137595910E+03  0.20277711642E+04  0.21436976951E+04  0.50400001928E-02 0.  1.
       -1    1    3    3    0  502  0.63141425685E+03  0.29137595910E+03 -0.27396032814E+03  0.74742101571E+03  0.50400001928E-02 0. -1.
</event>
<event>
 5   0  0.1825521E-06  0.2300282E+04  0.7818609E-02  0.8477810E-01
        2   -1    0    0  501    0  0.00000000000E+00  0.00000000000E+00  0.11999725725E+04  0.11999725725E+04  0.25500000920E-02 0.  1.
       -2   -1    0    0    0  501  0.00000000000E+00  0.00000000000E+00 -0.11023792469E+04  0.11023792469E+04  0.25500000920E-02 0. -1.
    10030    2    1    2    0    0  0.00000000000E+00  0.00000000000E+00  0.97593325600E+02  0.23023518194E+04  0.23002824703E+04 0.  0.
        5    1    3    3  502    0  0.88783200826E+03 -0.41816404288E+03 -0.55148942716E+03  0.11257306605E+04  0.46999998093E+01 0. -1.
       -5    1    3    3    0  502 -0.88783200826E+03  0.41816404288E+03  0.64908275276E+03  0.11766211589E+04  0.46999998093E+01 0.  1.
</event>
<event>
 5   0  0.8097672E-07  0.2296921E+04  0.7818609E-02  0.8479136E-01
       -1   -1    0    0    0  501  0.00000000000E+00  0.00000000000E+00  0.11905956667E+04  0.11905956667E+04  0.50400001928E-02 0.  1.
        1   -1    0    0  501    0  0.00000000000E+00  0.00000000000E+00 -0.11078166954E+04  0.11078166954E+04  0.50400001928E-02 0. -1.
    10030    2    1    2    0    0  0.00000000000E+00  0.00000000000E+00  0.82778971294E+02  0.22984123622E+04  0.22969212064E+04 0.  0.
        3    1    3    3  502    0 -0.29142098147E+03  0.10889117063E+04  0.26132037520E+03  0.11571271500E+04  0.10100000352E+00 0. -1.
       -3    1    3    3    0  502  0.29142098147E+03 -0.10889117063E+04 -0.17854140391E+03  0.11412852122E+04  0.10100000352E+00 0.  1.
</event>
<event>
 5   0  0.7932912E-07  0.2298281E+04  0.7818609E-02  0.8478599E-01
       -1   -1    0    0    0  501  0.00000000000E+00  0.00000000000E+00  0.98368243572E+03  0.98368243573E+03  0.50400001928E-02 0.  1.
        1   -1    0    0  501    0  0.00000000000E+00  0.00000000000E+00 -0.13424292023E+04  0.13424292023E+04  0.50400001928E-02 0. -1.
    10030    2    1    2    0    0  0.00000000000E+00  0.00000000000E+00 -0.35874676661E+03  0.23261116381E+04  0.22982811208E+04 0.  0.
        5    1    3    3  502    0  0.25908959386E+03 -0.41842195827E+03 -0.12303588749E+04  0.13251450501E+04  0.46999998093E+01 0. -1.
       -5    1    3    3    0  502 -0.25908959386E+03  0.41842195827E+03  0.87161210831E+03  0.10009665879E+04  0.46999998093E+01 0.  1.
</event>
<event>
 5   0  0.7932912E-07  0.2300642E+04  0.7818609E-02  0.8477668E-01
        1   -1    0    0  501    0  0.00000000000E+00  0.00000000000E+00  0.97429900526E+03  0.97429900527E+03  0.50400001928E-02 0.  1.
       -1   -1    0    0    0  501  0.00000000000E+00  0.00000000000E+00 -0.13581435346E+04  0.13581435346E+04  0.50400001928E-02 0. -1.
    10030    2    1    2    0    0  0.00000000000E+00  0.00000000000E+00 -0.38384452935E+03  0.23324425399E+04  0.23006415582E+04 0.  0.
        5    1    3    3  502    0  0.46644541206E+03  0.83386152226E+02  0.87075116632E+03  0.99133962720E+03  0.46999998093E+01 0.  1.
       -5    1    3    3    0  502 -0.46644541206E+03 -0.83386152226E+02 -0.12545956957E+04  0.13411029127E+04  0.46999998093E+01 0. -1.
</event>
<event>
 5   0  0.1689444E-06  0.2298496E+04  0.7818609E-02  0.8478515E-01
        2   -1    0    0  501    0  0.00000000000E+00  0.00000000000E+00  0.14061167674E+04  0.14061167674E+04  0.25500000920E-02 0.  1.
       -2   -1    0    0    0  501  0.00000000000E+00  0.00000000000E+00 -0.93930356883E+03  0.93930356883E+03  0.25500000920E-02 0. -1.
    10030    2    1    2    0    0  0.00000000000E+00  0.00000000000E+00  0.46681319853E+03  0.23454203362E+04  0.22984955930E+04 0.  0.
        2    1    3    3  502    0 -0.10812850186E+04 -0.16187807559E+03 -0.12792521556E+03  0.11007936516E+04  0.25500000920E-02 0.  1.
       -2    1    3    3    0  502  0.10812850186E+04  0.16187807559E+03  0.59473841409E+03  0.12446266846E+04  0.25500000920E-02 0. -1.
</event>
<event>
 5   0  0.7932912E-07  0.2300635E+04  0.7818609E-02  0.8477671E-01
        1   -1    0    0  501    0  0.00000000000E+00  0.00000000000E+00  0.18901275418E+04  0.18901275418E+04  0.50400001928E-02 0. -1.
       -1   -1    0    0    0  501  0.00000000000E+00  0.00000000000E+00 -0.70007492791E+03  0.70007492793E+03  0.50400001928E-02 0.  1.
    10030    2    1    2    0    0  0.00000000000E+00  0.00000000000E+00  0.11900526139E+04  0.25902024697E+04  0.23006354797E+04 0.  0.
        5    1    3    3  502    0  0.11768153856E+03  0.52262327350E+03  0.17411009064E+04  0.18216581696E+04  0.46999998093E+01 0. -1.
       -5    1    3    3    0  502 -0.11768153856E+03 -0.52262327350E+03 -0.55104829256E+03  0.76854430012E+03  0.46999998093E+01 0.  1.
</event>
<event>
 5   0  0.7761069E-07  0.2300402E+04  0.7818609E-02  0.8477763E-01
       -1   -1    0    0    0  501  0.00000000000E+00  0.00000000000E+00  0.69604748278E+03  0.69604748280E+03  0.50400001928E-02 0.  1.
        1   -1    0    0  501    0  0.00000000000E+00  0.00000000000E+00 -0.19006779900E+04  0.19006779900E+04  0.50400001928E-02 0. -1.
    10030    2    1    2    0    0  0.00000000000E+00  0.00000000000E+00 -0.12046305072E+04  0.25967254728E+04  0.23004018175E+04 0.  0.
        1    1    3    3  502    0 -0.84510342541E+02  0.48111197800E+03 -0.17777739080E+04  0.18436623338E+04  0.50400001928E-02 0. -1.
       -1    1    3    3    0  502  0.84510342541E+02 -0.48111197800E+03  0.57314340076E+03  0.75306313894E+03  0.50400001928E-02 0.  1.
</event>
<event>
 5   0  0.1689444E-06  0.2300426E+04  0.7818609E-02  0.8477753E-01
        2   -1    0    0  501    0  0.00000000000E+00  0.00000000000E+00  0.96091087310E+03  0.96091087310E+03  0.25500000920E-02 0.  1.
       -2   -1    0    0    0  501  0.00000000000E+00  0.00000000000E+00 -0.13768084450E+04  0.13768084450E+04  0.25500000920E-02 0. -1.
    10030    2    1    2    0    0  0.00000000000E+00  0.00000000000E+00 -0.41589757194E+03  0.23377193181E+04  0.23004262257E+04 0.  0.
        2    1    3    3  502    0 -0.61990069803E+03 -0.83500120381E+03 -0.70732783919E+03  0.12577028894E+04  0.25500000920E-02 0. -1.
       -2    1    3    3    0  502  0.61990069803E+03  0.83500120381E+03  0.29143026725E+03  0.10800164288E+04  0.25500000920E-02 0.  1.
</event>
<event>
 5   0  0.7607231E-07  0.2299997E+04  0.7818609E-02  0.8477922E-01
       -1   -1    0    0    0  501  0.00000000000E+00  0.00000000000E+00  0.70196008641E+03  0.70196008643E+03  0.50400001928E-02 0. -1.
        1   -1    0    0  501    0  0.00000000000E+00  0.00000000000E+00 -0.18840051180E+04  0.18840051180E+04  0.50400001928E-02 0.  1.
    10030    2    1    2    0    0  0.00000000000E+00  0.00000000000E+00 -0.11820450316E+04  0.25859652044E+04  0.22999968656E+04 0.  0.
        2    1    3    3  502    0  0.11473266613E+04 -0.34539969061E+02 -0.67008582581E+03  0.13291224515E+04  0.25500000920E-02 0.  1.
       -2    1    3    3    0  502 -0.11473266613E+04  0.34539969061E+02 -0.51195920575E+03  0.12568427529E+04  0.25500000920E-02 0. -1.
</event>
<event>
 5   0  0.7607231E-07  0.2299834E+04  0.7818609E-02  0.8477986E-01
        1   -1    0    0  501    0  0.00000000000E+00  0.00000000000E+00  0.15278307915E+04  0.15278307915E+04  0.50400001928E-02 0. -1.
       -1   -1    0    0    0  501  0.00000000000E+00  0.00000000000E+00 -0.86548159191E+03  0.86548159192E+03  0.50400001928E-02 0.  1.
    10030    2    1    2    0    0  0.00000000000E+00  0.00000000000E+00  0.66234919959E+03  0.23933123834E+04  0.22998342772E+04 0.  0.
        2    1    3    3  502    0  0.91118006754E+03 -0.60565301941E+03 -0.37109166804E+02  0.10947336597E+04  0.25500000920E-02 0.  1.
       -2    1    3    3    0  502 -0.91118006754E+03  0.60565301941E+03  0.69945836639E+03  0.12985787237E+04  0.25500000920E-02 0. -1.
</event>
<event>
 5   0  0.8108242E-07  0.2300418E+04  0.7818609E-02  0.8477756E-01
       -1   -1    0    0    0  501  0.00000000000E+00  0.00000000000E+00  0.77282451482E+03  0.77282451484E+03  0.50400001928E-02 0. -1.
        1   -1    0    0  501    0  0.00000000000E+00  0.00000000000E+00 -0.17118773270E+04  0.17118773270E+04  0.50400001928E-02 0.  1.
    10030    2    1    2    0    0  0.00000000000E+00  0.00000000000E+00 -0.93905281220E+03  0.24847018419E+04  0.23004180183E+04 0.  0.
        4    1    3    3  502    0  0.34838400486E+03 -0.96632700735E+02  0.70985643156E+03  0.79662228190E+03  0.12699999809E+01 0. -1.
       -4    1    3    3    0  502 -0.34838400486E+03  0.96632700735E+02 -0.16489092438E+04  0.16880795600E+04  0.12699999809E+01 0.  1.
</event>
<event>
 5   0  0.8108242E-07  0.2300412E+04  0.7818609E-02  0.8477759E-01
       -1   -1    0    0    0  501  0.00000000000E+00  0.00000000000E+00  0.64104002013E+03  0.64104002015E+03  0.50400001928E-02 0. -1.
        1   -1    0    0  501    0  0.00000000000E+00  0.00000000000E+00 -0.20637928410E+04  0.20637928410E+04  0.50400001928E-02 0.  1.
    10030    2    1    2    0    0  0.00000000000E+00  0.00000000000E+00 -0.14227528208E+04  0.27048328611E+04  0.23004119669E+04 0.  0.
        4    1    3    3  502    0  0.38536683705E+03  0.29195836378E+03 -0.19385149550E+04  0.19978961757E+04  0.12699999809E+01 0.  1.
       -4    1    3    3    0  502 -0.38536683705E+03 -0.29195836378E+03  0.51576213414E+03  0.70693668542E+03  0.12699999809E+01 0. -1.
</event>
<event>
 5   0  0.7932912E-07  0.2302383E+04  0.7818609E-02  0.8476982E-01
        1   -1    0    0  501    0  0.00000000000E+00  0.00000000000E+00  0.12935967906E+04  0.12935967906E+04  0.50400001928E-02 0. -1.
       -1   -1    0    0    0  501  0.00000000000E+00  0.00000000000E+00 -0.10244627917E+04  0.10244627917E+04  0.50400001928E-02 0.  1.
    10030    2    1    2    0    0  0.00000000000E+00  0.00000000000E+00  0.26913399890E+03  0.23180595824E+04  0.23023829217E+04 0.  0.
        5    1    3    3  502    0  0.10671494204E+04  0.43166461132E+03  0.14342848157E+03  0.11600586371E+04  0.46999998093E+01 0.  1.
       -5    1    3    3    0  502 -0.10671494204E+04 -0.43166461132E+03  0.12570551734E+03  0.11580009453E+04  0.46999998093E+01 0. -1.
</event>
<event>
 5   0  0.8097672E-07  0.2303583E+04  0.7818609E-02  0.8476510E-01
        1   -1    0    0  501    0  0.00000000000E+00  0.00000000000E+00  0.12752237317E+04  0.12752237317E+04  0.50400001928E-02 0.  1.
       -1   -1    0    0    0  501  0.00000000000E+00  0.00000000000E+00 -0.10403063388E+04  0.10403063388E+04  0.50400001928E-02 0. -1.
    10030    2    1    2    0    0  0.00000000000E+00  0.00000000000E+00  0.23491739289E+03  0.23155300705E+04  0.23035827152E+04 0.  0.
        3    1    3    3  502    0  0.36273714717E+03  0.10058713448E+04  0.54777702142E+03  0.12014221055E+04  0.10100000352E+00 0.  1.
       -3    1    3    3    0  502 -0.36273714717E+03 -0.10058713448E+04 -0.31285962853E+03  0.11141079649E+04  0.10100000352E+00 0. -1.
</event>
<event>
 5   0  0.1825521E-06  0.2296144E+04  0.7818609E-02  0.8479443E-01
        2   -1    0    0  501    0  0.00000000000E+00  0.00000000000E+00  0.17437510749E+04  0.17437510749E+04  0.25500000920E-02 0.  1.
       -2   -1    0    0    0  501  0.00000000000E+00  0.00000000000E+00 -0.75588139490E+03  0.75588139490E+03  0.25500000920E-02 0. -1.
    10030    2    1    2    0    0  0.00000000000E+00  0.00000000000E+00  0.98786968003E+03  0.24996324698E+04  0.22961437193E+04 0.  0.
        5    1    3    3  502    0 -0.33757435505E+03  0.72830410768E+03 -0.39957353220E+03  0.89669639014E+03  0.46999998093E+01 0. -1.
       -5    1    3    3    0  502  0.33757435505E+03 -0.72830410768E+03  0.13874432122E+04  0.16029360797E+04  0.46999998093E+01 0.  1.
</event>
<event>
 5   0  0.7932912E-07  0.2302188E+04  0.7818609E-02  0.8477059E-01
       -1   -1    0    0    0  501  0.00000000000E+00  0.00000000000E+00  0.73926082944E+03  0.73926082946E+03  0.50400001928E-02 0.  1.
        1   -1    0    0  501    0  0.00000000000E+00  0.00000000000E+00 -0.17923538601E+04  0.17923538601E+04  0.50400001928E-02 0. -1.
    10030    2    1    2    0    0  0.00000000000E+00  0.00000000000E+00 -0.10530930306E+04  0.25316146895E+04  0.23021876564E+04 0.  0.
        5    1    3    3  502    0 -0.47671339780E+03  0.10477236447E+04 -0.52237189582E+03  0.12640707998E+04  0.46999998093E+01 0. -1.
       -5    1    3    3    0  502  0.47671339780E+03 -0.10477236447E+04 -0.53072113480E+03  0.12675438897E+04  0.46999998093E+01 0.  1.
</event>
<event>
 5   0  0.1744876E-06  0.2299403E+04  0.7818609E-02  0.8478156E-01
       -2   -1    0    0    0  501  0.00000000000E+00  0.00000000000E+00  0.20878534403E+04  0.20878534403E+04  0.25500000920E-02 0.  1.
        2   -1    0    0  501    0  0.00000000000E+00  0.00000000000E+00 -0.63309715528E+03  0.63309715528E+03  0.25500000920E-02 0. -1.
    10030    2    1    2    0    0  0.00000000000E+00  0.00000000000E+00  0.14547562850E+04  0.27209505956E+04  0.22994034650E+04 0.  0.
        1    1    3    3  502    0  0.33349684868E+03  0.79761327174E+03  0.16242188955E+04  0.18399712226E+04  0.50400001928E-02 0.  1.
       -1    1    3    3    0  502 -0.33349684868E+03 -0.79761327174E+03 -0.16946261047E+03  0.88097937303E+03  0.50400001928E-02 0. -1.
</event>
<event>
 5   0  0.8097672E-07  0.2300586E+04  0.7818609E-02  0.8477690E-01
        1   -1    0    0  501    0  0.00000000000E+00  0.00000000000E+00  0.99069844510E+03  0.99069844511E+03  0.50400001928E-02 0. -1.
       -1   -1    0    0    0  501  0.00000000000E+00  0.00000000000E+00 -0.13355975645E+04  0.13355975645E+04  0.50400001928E-02 0.  1.
    10030    2    1    2    0    0  0.00000000000E+00  0.00000000000E+00 -0.34489911938E+03  0.23262960096E+04  0.23005863865E+04 0.  0.
        3    1    3    3  502    0 -0.48272726148E+03 -0.85752337885E+03 -0.77475910377E+03  0.12524470581E+04  0.10100000352E+00 0.  1.
       -3    1    3    3    0  502  0.48272726148E+03  0.85752337885E+03  0.42985998439E+03  0.10738489515E+04  0.10100000352E+00 0. -1.
</event>
<event>
 5   0  0.7607231E-07  0.2298849E+04  0.7818609E-02  0.8478375E-01
        1   -1    0    0  501    0  0.00000000000E+00  0.00000000000E+00  0.11601575692E+04  0.11601575692E+04  0.50400001928E-02 0.  1.
       -1   -1    0    0    0  501  0.00000000000E+00  0.00000000000E+00 -0.11387903787E+04  0.11387903787E+04  0.50400001928E-02 0. -1.
    10030    2    1    2    0    0  0.00000000000E+00  0.00000000000E+00  0.21367190539E+02  0.22989479479E+04  0.22988486488E+04 0.  0.
        2    1    3    3  502    0 -0.26199280898E+03 -0.10966501231E+04  0.23406413063E+03  0.11515501473E+04  0.25500000920E-02 0. -1.
       -2    1    3    3    0  502  0.26199280898E+03  0.10966501231E+04 -0.21269694009E+03  0.11473978006E+04  0.25500000920E-02 0.  1.
</event>
<event>
 5   0  0.1744876E-06  0.2300363E+04  0.7818609E-02  0.8477778E-01
       -2   -1    0    0    0  501  0.00000000000E+00  0.00000000000E+00  0.13830631633E+04  0.13830631633E+04  0.25500000920E-02 0.  1.
        2   -1    0    0  501    0  0.00000000000E+00  0.00000000000E+00 -0.95651237238E+03  0.95651237239E+03  0.25500000920E-02 0. -1.
    10030    2    1    2    0    0  0.00000000000E+00  0.00000000000E+00  0.42655079093E+03  0.23395755357E+04  0.23003626040E+04 0.  0.
        1    1    3    3  502    0 -0.15813943106E+02 -0.81371645156E+03 -0.61331025661E+03  0.10190848911E+04  0.50400001928E-02 0. -1.
       -1    1    3    3    0  502  0.15813943106E+02  0.81371645156E+03  0.10398610475E+04  0.13204906446E+04  0.50400001928E-02 0.  1.
</event>
<event>
 5   0  0.1828646E-06  0.2300003E+04  0.7818609E-02  0.8477920E-01
       -2   -1    0    0    0  501  0.00000000000E+00  0.00000000000E+00  0.15352062232E+04  0.15352062232E+04  0.25500000920E-02 0. -1.
        2   -1    0    0  501    0  0.00000000000E+00  0.00000000000E+00 -0.86145006508E+03  0.86145006508E+03  0.25500000920E-02 0.  1.
    10030    2    1    2    0    0  0.00000000000E+00  0.00000000000E+00  0.67375615810E+03  0.23966562883E+04  0.23000030442E+04 0.  0.
        3    1    3    3  502    0  0.20489294530E+03  0.11066736809E+04  0.58301561485E+03  0.12675231644E+04  0.10100000352E+00 0. -1.
       -3    1    3    3    0  502 -0.20489294530E+03 -0.11066736809E+04  0.90740543244E+02  0.11291331238E+04  0.10100000352E+00 0.  1.
</event>
<event>
 5   0  0.1744876E-06  0.2299972E+04  0.7818609E-02  0.8477932E-01
       -2   -1    0    0    0  501  0.00000000000E+00  0.00000000000E+00  0.54631961115E+03  0.54631961115E+03  0.25500000920E-02 0.  1.
        2   -1    0    0  501    0  0.00000000000E+00  0.00000000000E+00 -0.24206850935E+04  0.24206850935E+04  0.25500000920E-02 0. -1.
    10030    2    1    2    0    0  0.00000000000E+00  0.00000000000E+00 -0.18743654824E+04  0.29670047047E+04  0.22999719468E+04 0.  0.
        1    1    3    3  502    0 -0.28158686008E+03 -0.17550789531E+03 -0.23575934044E+04  0.23808277640E+04  0.50400001928E-02 0. -1.
       -1    1    3    3    0  502  0.28158686008E+03  0.17550789531E+03  0.48322792207E+03  0.58617694068E+03  0.50400001928E-02 0.  1.
</event>
<event>
 5   0  0.1828646E-06  0.2301975E+04  0.7818609E-02  0.8477143E-01
        2   -1    0    0  501    0  0.00000000000E+00  0.00000000000E+00  0.13347630967E+04  0.13347630967E+04  0.25500000920E-02 0.  1.
       -2   -1    0    0    0  501  0.00000000000E+00  0.00000000000E+00 -0.99251510187E+03  0.99251510187E+03  0.25500000920E-02 0. -1.
    10030    2    1    2    0    0  0.00000000000E+00  0.00000000000E+00  0.34224799487E+03  0.23272781986E+04  0.23019752657E+04 0.  0.
        3    1    3    3  502    0 -0.41447465501E+03 -0.10717017370E+04  0.10376835554E+03  0.11537338231E+04  0.10100000352E+00 0. -1.
       -3    1    3    3    0  502  0.41447465501E+03  0.10717017370E+04  0.23847963933E+03  0.11735443755E+04  0.10100000352E+00 0.  1.
</event>
<event>
 5   0  0.1689444E-06  0.2299001E+04  0.7818609E-02  0.8478315E-01
       -2   -1    0    0    0  501  0.00000000000E+00  0.00000000000E+00  0.80672417206E+03  0.80672417206E+03  0.25500000920E-02 0. -1.
        2   -1    0    0  501    0  0.00000000000E+00  0.00000000000E+00 -0.16379216075E+04  0.16379216075E+04  0.25500000920E-02 0.  1.
    10030    2    1    2    0    0  0.00000000000E+00  0.00000000000E+00 -0.83119743547E+03  0.24446457796E+04  0.22990006113E+04 0.  0.
        2    1    3    3  502    0  0.74864444647E+03 -0.54645621223E+03 -0.11385745738E+04  0.14681399658E+04  0.25500000920E-02 0.  1.
       -2    1    3    3    0  502 -0.74864444647E+03  0.54645621223E+03  0.30737713835E+03  0.97650581376E+03  0.25500000920E-02 0. -1.
</event>
<event>
 5   0  0.1744876E-06  0.2299971E+04  0.7818609E-02  0.8477933E-01
        2   -1    0    0  501    0  0.00000000000E+00  0.00000000000E+00  0.10102695408E+04  0.10102695408E+04  0.25500000920E-02 0.  1.
       -2   -1    0    0    0  501  0.00000000000E+00  0.00000000000E+00 -0.13090231664E+04  0.13090231664E+04  0.25500000920E-02 0. -1.
    10030    2    1    2    0    0  0.00000000000E+00  0.00000000000E+00 -0.29875362554E+03  0.23192927072E+04  0.22999706374E+04 0.  0.
        1    1    3    3  502    0  0.67758093188E+03  0.70309107407E+03  0.46319111438E+03  0.10807400178E+04  0.50400001928E-02 0.  1.
       -1    1    3    3    0  502 -0.67758093188E+03 -0.70309107407E+03 -0.76194473992E+03  0.12385526894E+04  0.50400001928E-02 0. -1.
</event>
<event>
 5   0  0.7932912E-07  0.2301536E+04  0.7818609E-02  0.8477316E-01
        1   -1    0    0  501    0  0.00000000000E+00  0.00000000000E+00  0.23663825661E+04  0.23663825661E+04  0.50400001928E-02 0.  1.
       -1   -1    0    0    0  501  0.00000000000E+00  0.00000000000E+00 -0.55961670070E+03  0.55961670073E+03  0.50400001928E-02 0. -1.
    10030    2    1    2    0    0  0.00000000000E+00  0.00000000000E+00  0.18067658654E+04  0.29259992669E+04  0.23015361864E+04 0.  0.
        5    1    3    3  502    0  0.10804336782E+04  0.60226545755E+02  0.40564528680E+03  0.11556532172E+04  0.46999998093E+01 0. -1.
       -5    1    3    3    0  502 -0.10804336782E+04 -0.60226545755E+02  0.14011205786E+04  0.17703460497E+04  0.46999998093E+01 0.  1.
</event>
<event>
 5   0  0.7932912E-07  0.2300939E+04  0.7818609E-02  0.8477551E-01
        1   -1    0    0  501    0  0.00000000000E+00  0.00000000000E+00  0.18274929400E+04  0.18274929400E+04  0.50400001928E-02 0. -1.
       -1   -1    0    0    0  501  0.00000000000E+00  0.00000000000E+00 -0.72426025850E+03  0.72426025852E+03  0.50400001928E-02 0.  1.
    10030    2    1    2    0    0  0.00000000000E+00  0.00000000000E+00  0.11032326815E+04  0.25517531986E+04  0.23009393814E+04 0.  0.
        5    1    3    3  502    0  0.36462616602E+03 -0.74868759704E+03  0.14319127819E+04  0.16564666202E+04  0.46999998093E+01 0. -1.
       -5    1    3    3    0  502 -0.36462616602E+03  0.74868759704E+03 -0.32868010041E+03  0.89528657831E+03  0.46999998093E+01 0.  1.
</event>
<event>
 5   0  0.1689444E-06  0.2300841E+04  0.7818609E-02  0.8477590E-01
       -2   -1    0    0    0  501  0.00000000000E+00  0.00000000000E+00  0.18426357382E+04  0.18426357382E+04  0.25500000920E-02 0. -1.
        2   -1    0    0  501    0  0.00000000000E+00  0.00000000000E+00 -0.71824680075E+03  0.71824680075E+03  0.25500000920E-02 0.  1.
    10030    2    1    2    0    0  0.00000000000E+00  0.00000000000E+00  0.11243889375E+04  0.25608825390E+04  0.23008409106E+04 0.  0.
        2    1    3    3  502    0  0.11055842226E+04 -0.97896438414E+02  0.22539402822E+03  0.11325646357E+04  0.25500000920E-02 0.  1.
       -2    1    3    3    0  502 -0.11055842226E+04  0.97896438414E+02  0.89899490925E+03  0.14283179033E+04  0.25500000920E-02 0. -1.
</event>
<event>
 5   0  0.8097672E-07  0.2299180E+04  0.7818609E-02  0.8478244E-01
        1   -1    0    0  501    0  0.00000000000E+00  0.00000000000E+00  0.14721656158E+04  0.14721656158E+04  0.50400001928E-02 0.  1.
       -1   -1    0    0    0  501  0.00000000000E+00  0.00000000000E+00 -0.89769611932E+03  0.89769611933E+03  0.50400001928E-02 0. -1.
    10030    2    1    2    0    0  0.00000000000E+00  0.00000000000E+00  0.57446949646E+03  0.23698617351E+04  0.22991801672E+04 0.  0.
        3    1    3    3  502    0  0.64269997143E+03  0.95314422379E+03  0.28394516629E+03  0.11841334521E+04  0.10100000352E+00 0. -1.
       -3    1    3    3    0  502 -0.64269997143E+03 -0.95314422379E+03  0.29052433017E+03  0.11857282831E+04  0.10100000352E+00 0.  1.
</event>
<event>
 5   0  0.7932912E-07  0.2300549E+04  0.7818609E-02  0.8477705E-01
        1   -1    0    0  501    0  0.00000000000E+00  0.00000000000E+00  0.18393255632E+04  0.18393255632E+04  0.50400001928E-02 0.  1.
       -1   -1    0    0    0  501  0.00000000000E+00  0.00000000000E+00 -0.71935661165E+03  0.71935661166E+03  0.50400001928E-02 0. -1.
    10030    2    1    2    0    0  0.00000000000E+00  0.00000000000E+00  0.11199689516E+04  0.25586821749E+04  0.23005486345E+04 0.  0.
        5    1    3    3  502    0 -0.51817296620E+03 -0.71069953523E+03 -0.26448287269E+03  0.91846084959E+03  0.46999998093E+01 0. -1.
       -5    1    3    3    0  502  0.51817296620E+03  0.71069953523E+03  0.13844518243E+04  0.16402213253E+04  0.46999998093E+01 0.  1.
</event>
<event>
 5   0  0.1825521E-06  0.2299360E+04  0.7818609E-02  0.8478173E-01
        2   -1    0    0  501    0  0.00000000000E+00  0.00000000000E+00  0.17826124410E+04  0.17826124410E+04  0.25500000920E-02 0.  1.
       -2   -1    0    0    0  501  0.00000000000E+00  0.00000000000E+00 -0.74147597727E+03  0.74147597727E+03  0.25500000920E-02 0. -1.
    10030    2    1    2    0    0  0.00000000000E+00  0.00000000000E+00  0.10411364637E+04  0.25240884183E+04  0.22993601734E+04 0.  0.
        5    1    3    3  502    0  0.82808613653E+03 -0.41356927148E+03  0.12691044819E+04  0.15708005818E+04  0.46999998093E+01 0.  1.
       -5    1    3    3    0  502 -0.82808613653E+03  0.41356927148E+03 -0.22796801817E+03  0.95328783646E+03  0.46999998093E+01 0. -1.
</event>
<event>
 5   0  0.1828646E-06  0.2300375E+04  0.7818609E-02  0.8477773E-01
        2   -1    0    0  501    0  0.00000000000E+00  0.00000000000E+00  0.18951044080E+04  0.18951044080E+04  0.25500000920E-02 0. -1.
       -2   -1    0    0    0  501  0.00000000000E+00  0.00000000000E+00 -0.69807822681E+03  0.69807822682E+03  0.25500000920E-02 0.  1.
    10030    2    1    2    0    0  0.00000000000E+00  0.00000000000E+00  0.11970261812E+04  0.25931826348E+04  0.23003748606E+04 0.  0.
        3    1    3    3  502    0  0.98223237179E+03  0.21278606102E+03  0.12290614190E+04  0.15876556056E+04  0.10100000352E+00 0. -1.
       -3    1    3    3    0  502 -0.98223237179E+03 -0.21278606102E+03 -0.32035237791E+02  0.10055270293E+04  0.10100000352E+00 0.  1.
</event>
<event>
 5   0  0.7932912E-07  0.2300022E+04  0.7818609E-02  0.8477912E-01
        1   -1    0    0  501    0  0.00000000000E+00  0.00000000000E+00  0.16342172031E+04  0.16342172031E+04  0.50400001928E-02 0. -1.
       -1   -1    0    0    0  501  0.00000000000E+00  0.00000000000E+00 -0.80927160242E+03  0.80927160243E+03  0.50400001928E-02 0.  1.
    10030    2    1    2    0    0  0.00000000000E+00  0.00000000000E+00  0.82494560065E+03  0.24434888055E+04  0.23000222387E+04 0.  0.
        5    1    3    3  502    0  0.11305863447E+03 -0.10013312327E+04  0.10011643670E+04  0.14204924048E+04  0.46999998093E+01 0.  1.
       -5    1    3    3    0  502 -0.11305863447E+03  0.10013312327E+04 -0.17621876632E+03  0.10229964007E+04  0.46999998093E+01 0. -1.
</event>
<event>
 5   0  0.1689444E-06  0.2301133E+04  0.7818609E-02  0.8477475E-01
        2   -1    0    0  501    0  0.00000000000E+00  0.00000000000E+00  0.10529877804E+04  0.10529877804E+04  0.25500000920E-02 0. -1.
       -2   -1    0    0    0  501  0.00000000000E+00  0.00000000000E+00 -0.12571874946E+04  0.12571874946E+04  0.25500000920E-02 0.  1.
    10030    2    1    2    0    0  0.00000000000E+00  0.00000000000E+00 -0.20419971418E+03  0.23101752750E+04  0.23011328249E+04 0.  0.
        2    1    3    3  502    0  0.80475485334E+03  0.81339503022E+03  0.19044204485E+02  0.11443795397E+04  0.25500000920E-02 0. -1.
       -2    1    3    3    0  502 -0.80475485334E+03 -0.81339503022E+03 -0.22324391866E+03  0.11657957353E+04  0.25500000920E-02 0.  1.
</event>
<event>
 5   0  0.7761069E-07  0.2300115E+04  0.7818609E-02  0.8477876E-01
        1   -1    0    0  501    0  0.00000000000E+00  0.00000000000E+00  0.16227966626E+04  0.16227966626E+04  0.50400001928E-02 0. -1.
       -1   -1    0    0    0  501  0.00000000000E+00  0.00000000000E+00 -0.81503297504E+03  0.81503297506E+03  0.50400001928E-02 0.  1.
    10030    2    1    2    0    0  0.00000000000E+00  0.00000000000E+00  0.80776368752E+03  0.24378296376E+04  0.23001154682E+04 0.  0.
        1    1    3    3  502    0  0.59295814832E+03  0.96555916336E+03  0.61246126257E+03  0.12880266541E+04  0.50400001928E-02 0. -1.
       -1    1    3    3    0  502 -0.59295814832E+03 -0.96555916336E+03  0.19530242494E+03  0.11498029835E+04  0.50400001928E-02 0.  1.
</event>
<event>
 5   0  0.6319125E-07  0.2287399E+04  0.7818609E-02  0.8482906E-01
        3   -1    0    0  501    0  0.00000000000E+00  0.00000000000E+00  0.65220344841E+03  0.65220345623E+03  0.10100000352E+00 0.  1.
       -3   -1    0    0    0  501  0.00000000000E+00  0.00000000000E+00 -0.20055832870E+04  0.20055832895E+04  0.10100000352E+00 0. -1.
    10030    2    1    2    0    0  0.00000000000E+00  0.00000000000E+00 -0.13533798386E+04  0.26577867458E+04  0.22873988280E+04 0.  0.
        3    1    3    3  502    0  0.67418905813E+03  0.72494352073E+03 -0.11266358759E+02  0.99005097615E+03  0.10100000352E+00 0.  1.
       -3    1    3    3    0  502 -0.67418905813E+03 -0.72494352073E+03 -0.13421134798E+04  0.16677357696E+04  0.10100000352E+00 0. -1.
</event>
<event>
 5   0  0.1744876E-06  0.2294065E+04  0.7818609E-02  0.8480265E-01
       -2   -1    0    0    0  501  0.00000000000E+00  0.00000000000E+00  0.77998988429E+03  0.77998988430E+03  0.25500000920E-02 0.  1.
        2   -1    0    0  501    0  0.00000000000E+00  0.00000000000E+00 -0.16867952033E+04  0.16867952033E+04  0.25500000920E-02 0. -1.
    10030    2    1    2    0    0  0.00000000000E+00  0.00000000000E+00 -0.90680531899E+03  0.24667850876E+04  0.22940646856E+04 0.  0.
        1    1    3    3  502    0 -0.92130168395E+03  0.12289558413E+03 -0.11761568773E+04  0.14990814246E+04  0.50400001928E-02 0. -1.
       -1    1    3    3    0  502  0.92130168395E+03 -0.12289558413E+03  0.26935155830E+03  0.96770366302E+03  0.50400001928E-02 0.  1.
</event>
<event>
 5   0  0.7607231E-07  0.2299526E+04  0.7818609E-02  0.8478108E-01
       -1   -1    0    0    0  501  0.00000000000E+00  0.00000000000E+00  0.13671921748E+04  0.13671921748E+04  0.50400001928E-02 0.  1.
        1   -1    0    0  501    0  0.00000000000E+00  0.00000000000E+00 -0.96691269174E+03  0.96691269175E+03  0.50400001928E-02 0. -1.
    10030    2    1    2    0    0  0.00000000000E+00  0.00000000000E+00  0.40027948302E+03  0.23341048665E+04  0.22995264433E+04 0.  0.
        2    1    3    3  502    0  0.59866742281E+03 -0.38570320696E+03 -0.71608852663E+03  0.10099269404E+04  0.25500000920E-02 0. -1.
       -2    1    3    3    0  502 -0.59866742281E+03  0.38570320696E+03  0.11163680096E+04  0.13241779261E+04  0.25500000920E-02 0.  1.
</event>
<event>
 5   0  0.8097672E-07  0.2300073E+04  0.7818609E-02  0.8477892E-01
        1   -1    0    0  501    0  0.00000000000E+00  0.00000000000E+00  0.15926788460E+04  0.15926788461E+04  0.50400001928E-02 0. -1.
       -1   -1    0    0    0  501  0.00000000000E+00  0.00000000000E+00 -0.83041450484E+03  0.83041450485E+03  0.50400001928E-02 0.  1.
    10030    2    1    2    0    0  0.00000000000E+00  0.00000000000E+00  0.76226434121E+03  0.24230933509E+04  0.23000727078E+04 0.  0.
        3    1    3    3  502    0  0.15088043552E+03  0.95666401631E+03 -0.27220951461E+03  0.10060163895E+04  0.10100000352E+00 0.  1.
       -3    1    3    3    0  502 -0.15088043552E+03 -0.95666401631E+03  0.10344738558E+04  0.14170769614E+04  0.10100000352E+00 0. -1.
</event>
<event>
 5   0  0.7932912E-07  0.2300463E+04  0.7818609E-02  0.8477739E-01
       -1   -1    0    0    0  501  0.00000000000E+00  0.00000000000E+00  0.13007357776E+04  0.13007357776E+04  0.50400001928E-02 0.  1.
        1   -1    0    0  501    0  0.00000000000E+00  0.00000000000E+00 -0.10171413407E+04  0.10171413407E+04  0.50400001928E-02 0. -1.
    10030    2    1    2    0    0  0.00000000000E+00  0.00000000000E+00  0.28359443686E+03  0.23178771183E+04  0.23004626776E+04 0.  0.
        5    1    3    3  502    0  0.52960210975E+03 -0.53736987627E+03 -0.73297156471E+03  0.10519097790E+04  0.46999998093E+01 0. -1.
       -5    1    3    3    0  502 -0.52960210975E+03  0.53736987627E+03  0.10165660016E+04  0.12659673393E+04  0.46999998093E+01 0.  1.
</event>
<event>
 5   0  0.7607231E-07  0.2296167E+04  0.7818609E-02  0.8479434E-01
       -1   -1    0    0    0  501  0.00000000000E+00  0.00000000000E+00  0.11417481374E+04  0.11417481374E+04  0.50400001928E-02 0.  1.
        1   -1    0    0  501    0  0.00000000000E+00  0.00000000000E+00 -0.11544537018E+04  0.11544537018E+04  0.50400001928E-02 0. -1.
    10030    2    1    2    0    0  0.00000000000E+00  0.00000000000E+00 -0.12705564351E+02  0.22962018392E+04  0.22961666871E+04 0.  0.
        2    1    3    3  502    0 -0.23083072370E+02  0.12036491307E+03  0.11351877213E+04  0.11417844382E+04  0.25500000920E-02 0.  1.
       -2    1    3    3    0  502  0.23083072370E+02 -0.12036491307E+03 -0.11478932857E+04  0.11544174011E+04  0.25500000920E-02 0. -1.
</event>
<event>
 5   0  0.1888779E-06  0.2300027E+04  0.7818609E-02  0.8477911E-01
        2   -1    0    0  501    0  0.00000000000E+00  0.00000000000E+00  0.10302024572E+04  0.10302024572E+04  0.25500000920E-02 0.  1.
       -2   -1    0    0    0  501  0.00000000000E+00  0.00000000000E+00 -0.12837581588E+04  0.12837581588E+04  0.25500000920E-02 0. -1.
    10030    2    1    2    0    0  0.00000000000E+00  0.00000000000E+00 -0.25355570161E+03  0.23139606160E+04  0.23000267908E+04 0.  0.
        4    1    3    3  502    0 -0.65634861116E+03  0.10180250666E+02  0.82320530758E+03  0.10528844800E+04  0.12699999809E+01 0.  1.
       -4    1    3    3    0  502  0.65634861116E+03 -0.10180250666E+02 -0.10767610092E+04  0.12610761360E+04  0.12699999809E+01 0. -1.
</event>
<event>
 5   0  0.8108242E-07  0.2299901E+04  0.7818609E-02  0.8477960E-01
        1   -1    0    0  501    0  0.00000000000E+00  0.00000000000E+00  0.19348354000E+04  0.19348354000E+04  0.50400001928E-02 0. -1.
       -1   -1    0    0    0  501  0.00000000000E+00  0.00000000000E+00 -0.68346191887E+03  0.68346191889E+03  0.50400001928E-02 0.  1.
    10030    2    1    2    0    0  0.00000000000E+00  0.00000000000E+00  0.12513734812E+04  0.26182973189E+04  0.22999011416E+04 0.  0.
        4    1    3    3  502    0 -0.63846212891E+02 -0.80890277416E+03 -0.30197323044E+03  0.86578835852E+03  0.12699999809E+01 0.  1.
       -4    1    3    3    0  502  0.63846212891E+02  0.80890277416E+03  0.15533467116E+04  0.17525089604E+04  0.12699999809E+01 0. -1.
</event>
<event>
 5   0  0.8097672E-07  0.2299388E+04  0.7818609E-02  0.8478162E-01
       -1   -1    0    0    0  501  0.00000000000E+00  0.00000000000E+00  0.89153027574E+03  0.89153027575E+03  0.50400001928E-02 0.  1.
        1   -1    0    0  501    0  0.00000000000E+00  0.00000000000E+00 -0.14826154488E+04  0.14826154489E+04  0.50400001928E-02 0. -1.
    10030    2    1    2    0    0  0.00000000000E+00  0.00000000000E+00 -0.59108517311E+03  0.23741457246E+04  0.22993882316E+04 0.  0.
        3    1    3    3  502    0  0.33937452417E+03  0.49804443108E+03 -0.13064414668E+04  0.14387538495E+04  0.10100000352E+00 0. -1.
       -3    1    3    3    0  502 -0.33937452417E+03 -0.49804443108E+03  0.71535629368E+03  0.93539187515E+03  0.10100000352E+00 0.  1.
</event>
<event>
 5   0  0.6319125E-07  0.2301222E+04  0.7818609E-02  0.8477439E-01
        4   -1    0    0  501    0  0.00000000000E+00  0.00000000000E+00  0.17553297934E+04  0.17553302529E+04  0.12699999809E+01 0.  1.
       -4   -1    0    0    0  501  0.00000000000E+00  0.00000000000E+00 -0.75421931976E+03  0.75422038901E+03  0.12699999809E+01 0. -1.
    10030    2    1    2    0    0  0.00000000000E+00  0.00000000000E+00  0.10011104737E+04  0.25095506419E+04  0.23012219023E+04 0.  0.
        4    1    3    3  502    0  0.43806748142E+03 -0.24082372802E+02 -0.65942224275E+03  0.79203685905E+03  0.12699999809E+01 0. -1.
       -4    1    3    3    0  502 -0.43806748142E+03  0.24082372802E+02  0.16605327164E+04  0.17175137828E+04  0.12699999809E+01 0.  1.
</event>
<event>
 5   0  0.1744876E-06  0.2300199E+04  0.7818609E-02  0.8477843E-01
       -2   -1    0    0    0  501  0.00000000000E+00  0.00000000000E+00  0.10503086015E+04  0.10503086015E+04  0.25500000920E-02 0. -1.
        2   -1    0    0  501    0  0.00000000000E+00  0.00000000000E+00 -0.12593713052E+04  0.12593713052E+04  0.25500000920E-02 0.  1.
    10030    2    1    2    0    0  0.00000000000E+00  0.00000000000E+00 -0.20906270374E+03  0.23096799067E+04  0.23001986995E+04 0.  0.
        1    1    3    3  502    0 -0.59698790869E+03  0.49037766049E+03  0.75095676633E+03  0.10774046955E+04  0.50400001928E-02 0. -1.
       -1    1    3    3    0  502  0.59698790869E+03 -0.49037766049E+03 -0.96001947007E+03  0.12322752111E+04  0.50400001928E-02 0.  1.
</event>
<event>
 5   0  0.1828646E-06  0.2295024E+04  0.7818609E-02  0.8479886E-01
        2   -1    0    0  501    0  0.00000000000E+00  0.00000000000E+00  0.10711168849E+04  0.10711168849E+04  0.25500000920E-02 0. -1.
       -2   -1    0    0    0  501  0.00000000000E+00  0.00000000000E+00 -0.12293559128E+04  0.12293559128E+04  0.25500000920E-02 0.  1.
    10030    2    1    2    0    0  0.00000000000E+00  0.00000000000E+00 -0.15823902787E+03  0.23004727977E+04  0.22950240746E+04 0.  0.
        3    1    3    3  502    0 -0.72514041424E+03  0.11771197195E+02 -0.97050953558E+03  0.12115510515E+04  0.10100000352E+00 0.  1.
       -3    1    3    3    0  502  0.72514041424E+03 -0.11771197195E+02  0.81227050771E+03  0.10889217462E+04  0.10100000352E+00 0. -1.
</event>
<event>
 5   0  0.1828646E-06  0.2301744E+04  0.7818609E-02  0.8477234E-01
        2   -1    0    0  501    0  0.00000000000E+00  0.00000000000E+00  0.16536177386E+04  0.16536177386E+04  0.25500000920E-02 0.  1.
       -2   -1    0    0    0  501  0.00000000000E+00  0.00000000000E+00 -0.80097461740E+03  0.80097461741E+03  0.25500000920E-02 0. -1.
    10030    2    1    2    0    0  0.00000000000E+00  0.00000000000E+00  0.85264312116E+03  0.24545923560E+04  0.23017435439E+04 0.  0.
        3    1    3    3  502    0 -0.45508922085E+03 -0.62585714719E+03  0.13347730487E+04  0.15428617791E+04  0.10100000352E+00 0.  1.
       -3    1    3    3    0  502  0.45508922085E+03  0.62585714719E+03 -0.48212992753E+03  0.91173057690E+03  0.10100000352E+00 0. -1.
</event>
<event>
 5   0  0.8108242E-07  0.2300058E+04  0.7818609E-02  0.8477898E-01
       -1   -1    0    0    0  501  0.00000000000E+00  0.00000000000E+00  0.12640563544E+04  0.12640563544E+04  0.50400001928E-02 0.  1.
        1   -1    0    0  501    0  0.00000000000E+00  0.00000000000E+00 -0.10462880963E+04  0.10462880964E+04  0.50400001928E-02 0. -1.
    10030    2    1    2    0    0  0.00000000000E+00  0.00000000000E+00  0.21776825804E+03  0.23103444507E+04  0.23000583616E+04 0.  0.
        4    1    3    3  502    0 -0.69019442276E+03  0.79703399656E+03  0.57021353934E+03  0.11986561752E+04  0.12699999809E+01 0.  1.
       -4    1    3    3    0  502  0.69019442276E+03 -0.79703399656E+03 -0.35244528130E+03  0.11116882756E+04  0.12699999809E+01 0. -1.
</event>
<event>
 5   0  0.1744876E-06  0.2300075E+04  0.7818609E-02  0.8477892E-01
       -2   -1    0    0    0  501  0.00000000000E+00  0.00000000000E+00  0.99968305633E+03  0.99968305633E+03  0.25500000920E-02 0. -1.
        2   -1    0    0  501    0  0.00000000000E+00  0.00000000000E+00 -0.13230052037E+04  0.13230052037E+04  0.25500000920E-02 0.  1.
    10030    2    1    2    0    0  0.00000000000E+00  0.00000000000E+00 -0.32332214738E+03  0.23226882600E+04  0.23000746819E+04 0.  0.
        1    1    3    3  502    0  0.39749478316E+03  0.10023706166E+04 -0.56538784808E+03  0.12175435821E+04  0.50400001928E-02 0.  1.
       -1    1    3    3    0  502 -0.39749478316E+03 -0.10023706166E+04  0.24206570070E+03  0.11051446779E+04  0.50400001928E-02 0. -1.
</event>
<event>
 5   0  0.7607231E-07  0.2298024E+04  0.7818609E-02  0.8478700E-01
        1   -1    0    0  501    0  0.00000000000E+00  0.00000000000E+00  0.10574187164E+04  0.10574187164E+04  0.50400001928E-02 0.  1.
       -1   -1    0    0    0  501  0.00000000000E+00  0.00000000000E+00 -0.12485394471E+04  0.12485394471E+04  0.50400001928E-02 0. -1.
    10030    2    1    2    0    0  0.00000000000E+00  0.00000000000E+00 -0.19112073074E+03  0.23059581635E+04  0.22980243511E+04 0.  0.
        2    1    3    3  502    0  0.62046859981E+03  0.23965458950E+03  0.84459124430E+03  0.10750581266E+04  0.25500000920E-02 0.  1.
       -2    1    3    3    0  502 -0.62046859981E+03 -0.23965458950E+03 -0.10357119750E+04  0.12309000369E+04  0.25500000920E-02 0. -1.
</event>
<event>
 5   0  0.7761069E-07  0.2301400E+04  0.7818609E-02  0.8477369E-01
        1   -1    0    0  501    0  0.00000000000E+00  0.00000000000E+00  0.17799101814E+04  0.17799101814E+04  0.50400001928E-02 0.  1.
       -1   -1    0    0    0  501  0.00000000000E+00  0.00000000000E+00 -0.74391966040E+03  0.74391966042E+03  0.50400001928E-02 0. -1.
    10030    2    1    2    0    0  0.00000000000E+00  0.00000000000E+00  0.10359905210E+04  0.25238298419E+04  0.23013997286E+04 0.  0.
        1    1    3    3  502    0  0.21679816420E+03 -0.91072291162E+03  0.12517618427E+04  0.15631139999E+04  0.50400001928E-02 0.  1.
       -1    1    3    3    0  502 -0.21679816420E+03  0.91072291162E+03 -0.21577132167E+03  0.96071584198E+03  0.50400001928E-02 0. -1.
</event>
<event>
 5   0  0.7932912E-07  0.2299672E+04  0.7818609E-02  0.8478051E-01
        1   -1    0    0  501    0  0.00000000000E+00  0.00000000000E+00  0.16538514324E+04  0.16538514324E+04  0.50400001928E-02 0. -1.
       -1   -1    0    0    0  501  0.00000000000E+00  0.00000000000E+00 -0.79942031262E+03  0.79942031263E+03  0.50400001928E-02 0.  1.
    10030    2    1    2    0    0  0.00000000000E+00  0.00000000000E+00  0.85443111977E+03  0.24532717450E+04  0.22996716541E+04 0.  0.
        5    1    3    3  502    0 -0.11438000999E+04  0.93940753518E+02  0.50262505612E+03  0.12528996651E+04  0.46999998093E+01 0.  1.
       -5    1    3    3    0  502  0.11438000999E+04 -0.93940753518E+02  0.35180606365E+03  0.12003720799E+04  0.46999998093E+01 0. -1.
</event>
<event>
 5   0  0.1689444E-06  0.2300900E+04  0.7818609E-02  0.8477566E-01
       -2   -1    0    0    0  501  0.00000000000E+00  0.00000000000E+00  0.22686799194E+04  0.22686799194E+04  0.25500000920E-02 0. -1.
        2   -1    0    0  501    0  0.00000000000E+00  0.00000000000E+00 -0.58339422587E+03  0.58339422588E+03  0.25500000920E-02 0.  1.
    10030    2    1    2    0    0  0.00000000000E+00  0.00000000000E+00  0.16852856935E+04  0.28520741453E+04  0.23008996200E+04 0.  0.
        2    1    3    3  502    0  0.54149597677E+03  0.97650191561E+03  0.11860688024E+04  0.16289668775E+04  0.25500000920E-02 0. -1.
       -2    1    3    3    0  502 -0.54149597677E+03 -0.97650191561E+03  0.49921689112E+03  0.12231072678E+04  0.25500000920E-02 0.  1.
</event>
<event>
 5   0  0.1744876E-06  0.2296181E+04  0.7818609E-02  0.8479428E-01
        2   -1    0    0  501    0  0.00000000000E+00  0.00000000000E+00  0.17179169925E+04  0.17179169925E+04  0.25500000920E-02 0.  1.
       -2   -1    0    0    0  501  0.00000000000E+00  0.00000000000E+00 -0.76727343300E+03  0.76727343300E+03  0.25500000920E-02 0. -1.
    10030    2    1    2    0    0  0.00000000000E+00  0.00000000000E+00  0.95064355949E+03  0.24851904255E+04  0.22961812371E+04 0.  0.
        1    1    3    3  502    0  0.70597604850E+03 -0.86099870344E+03  0.77835269860E+03  0.13585116385E+04  0.50400001928E-02 0.  1.
       -1    1    3    3    0  502 -0.70597604850E+03  0.86099870344E+03  0.17229086089E+03  0.11266787870E+04  0.50400001928E-02 0. -1.
</event>
<event>
 5   0  0.1828646E-06  0.2299207E+04  0.7818609E-02  0.8478234E-01
       -2   -1    0    0    0  501  0.00000000000E+00  0.00000000000E+00  0.13635965101E+04  0.13635965101E+04  0.25500000920E-02 0.  1.
        2   -1    0    0  501    0  0.00000000000E+00  0.00000000000E+00 -0.96919328835E+03  0.96919328835E+03  0.25500000920E-02 0. -1.
    10030    2    1    2    0    0  0.00000000000E+00  0.00000000000E+00  0.39440322171E+03  0.23327897984E+04  0.22992073291E+04 0.  0.
        3    1    3    3  502    0 -0.16966514171E+03  0.10902954232E+04  0.52449379750E+03  0.12217299718E+04  0.10100000352E+00 0. -1.
       -3    1    3    3    0  502  0.16966514171E+03 -0.10902954232E+04 -0.13009057579E+03  0.11110598266E+04  0.10100000352E+00 0.  1.
</event>
<event>
 5   0  0.6319125E-07  0.2300437E+04  0.7818609E-02  0.8477749E-01
        3   -1    0    0  501    0  0.00000000000E+00  0.00000000000E+00  0.18787723126E+04  0.18787723153E+04  0.10100000352E+00 0.  1.
       -3   -1    0    0    0  501  0.00000000000E+00  0.00000000000E+00 -0.70418468812E+03  0.70418469536E+03  0.10100000352E+00 0. -1.
    10030    2    1    2    0    0  0.00000000000E+00  0.00000000000E+00  0.11745876244E+04  0.25829570106E+04  0.23004370957E+04 0.  0.
        4    1    3    3  502    0  0.47809310516E+03  0.51258920218E+01  0.17619079285E+04  0.18256287830E+04  0.12699999809E+01 0.  1.
       -4    1    3    3    0  502 -0.47809310516E+03 -0.51258920218E+01 -0.58732030403E+03  0.75732822765E+03  0.12699999809E+01 0. -1.
</event>
<event>
 5   0  0.6319125E-07  0.2302480E+04  0.7818609E-02  0.8476944E-01
       -4   -1    0    0    0  501  0.00000000000E+00  0.00000000000E+00  0.94164851463E+03  0.94164937105E+03  0.12699999809E+01 0. -1.
        4   -1    0    0  501    0  0.00000000000E+00  0.00000000000E+00 -0.14074803181E+04  0.14074808910E+04  0.12699999809E+01 0.  1.
    10030    2    1    2    0    0  0.00000000000E+00  0.00000000000E+00 -0.46583180343E+03  0.23491302621E+04  0.23024799064E+04 0.  0.
        2    1    3    3  502    0 -0.61612110192E+03  0.70093421835E+01  0.75925785488E+03  0.97781738239E+03  0.25500000920E-02 0. -1.
       -2    1    3    3    0  502  0.61612110192E+03 -0.70093421835E+01 -0.12250896583E+04  0.13713128797E+04  0.25500000920E-02 0.  1.
</event>
<event>
 5   0  0.1689444E-06  0.2300432E+04  0.7818609E-02  0.8477751E-01
        2   -1    0    0  501    0  0.00000000000E+00  0.00000000000E+00  0.16368935943E+04  0.16368935943E+04  0.25500000920E-02 0. -1.
       -2   -1    0    0    0  501  0.00000000000E+00  0.00000000000E+00 -0.80823666464E+03  0.80823666465E+03  0.25500000920E-02 0.  1.
    10030    2    1    2    0    0  0.00000000000E+00  0.00000000000E+00  0.82865692965E+03  0.24451302589E+04  0.23004324976E+04 0.  0.
        2    1    3    3  502    0  0.57335854053E+03  0.64271127303E+03  0.12246319285E+04  0.14971777305E+04  0.25500000920E-02 0.  1.
       -2    1    3    3    0  502 -0.57335854053E+03 -0.64271127303E+03 -0.39597499882E+03  0.94795252844E+03  0.25500000920E-02 0. -1.
</event>
<event>
 5   0  0.1744876E-06  0.2299922E+04  0.7818609E-02  0.8477952E-01
        2   -1    0    0  501    0  0.00000000000E+00  0.00000000000E+00  0.81850926384E+03  0.81850926384E+03  0.25500000920E-02 0. -1.
       -2   -1    0    0    0  501  0.00000000000E+00  0.00000000000E+00 -0.16156322089E+04  0.16156322089E+04  0.25500000920E-02 0.  1.
    10030    2    1    2    0    0  0.00000000000E+00  0.00000000000E+00 -0.79712294508E+03  0.24341414728E+04  0.22999216769E+04 0.  0.
        1    1    3    3  502    0  0.11146148346E+04  0.17028969785E+03 -0.15944478791E+03  0.11387657578E+04  0.50400001928E-02 0.  1.
       -1    1    3    3    0  502 -0.11146148346E+04 -0.17028969785E+03 -0.63767815718E+03  0.12953757150E+04  0.50400001928E-02 0. -1.
</event>
<event>
 5   0  0.7761069E-07  0.2302202E+04  0.7818609E-02  0.8477053E-01
        1   -1    0    0  501    0  0.00000000000E+00  0.00000000000E+00  0.12080031584E+04  0.12080031584E+04  0.50400001928E-02 0. -1.
       -1   -1    0    0    0  501  0.00000000000E+00  0.00000000000E+00 -0.10968791556E+04  0.10968791556E+04  0.50400001928E-02 0.  1.
    10030    2    1    2    0    0  0.00000000000E+00  0.00000000000E+00  0.11112400278E+03  0.23048823140E+04  0.23022019758E+04 0.  0.
        1    1    3    3  502    0 -0.10218900467E+04  0.44483050738E+03 -0.23269687795E+03  0.11385434928E+04  0.50400001928E-02 0. -1.
       -1    1    3    3    0  502  0.10218900467E+04 -0.44483050738E+03  0.34382088073E+03  0.11663388212E+04  0.50400001928E-02 0.  1.
</event>
<event>
 5   0  0.7932912E-07  0.2300976E+04  0.7818609E-02  0.8477536E-01
       -1   -1    0    0    0  501  0.00000000000E+00  0.00000000000E+00  0.89421392615E+03  0.89421392616E+03  0.50400001928E-02 0. -1.
        1   -1    0    0  501    0  0.00000000000E+00  0.00000000000E+00 -0.14802084425E+04  0.14802084425E+04  0.50400001928E-02 0.  1.
    10030    2    1    2    0    0  0.00000000000E+00  0.00000000000E+00 -0.58599451634E+03  0.23744223687E+04  0.23009763170E+04 0.  0.
        5    1    3    3  502    0 -0.93729326821E+03  0.45009020929E+03 -0.80115978295E+03  0.13126229295E+04  0.46999998093E+01 0.  1.
       -5    1    3    3    0  502  0.93729326821E+03 -0.45009020929E+03  0.21516526660E+03  0.10617994392E+04  0.46999998093E+01 0. -1.
</event>
<event>
 5   0  0.1825521E-06  0.2299998E+04  0.7818609E-02  0.8477922E-01
       -2   -1    0    0    0  501  0.00000000000E+00  0.00000000000E+00  0.80358676585E+03  0.80358676585E+03  0.25500000920E-02 0. -1.
        2   -1    0    0  501    0  0.00000000000E+00  0.00000000000E+00 -0.16457430366E+04  0.16457430366E+04  0.25500000920E-02 0.  1.
    10030    2    1    2    0    0  0.00000000000E+00  0.00000000000E+00 -0.84215627074E+03  0.24493298024E+04  0.22999976732E+04 0.  0.
        5    1    3    3  502    0  0.61994787050E+03 -0.40254057208E+03 -0.13592426034E+04  0.15472352178E+04  0.46999998093E+01 0.  1.
       -5    1    3    3    0  502 -0.61994787050E+03  0.40254057208E+03  0.51708633263E+03  0.90209458467E+03  0.46999998093E+01 0. -1.
</event>
<event>
 5   0  0.1825521E-06  0.2298249E+04  0.7818609E-02  0.8478612E-01
       -2   -1    0    0    0  501  0.00000000000E+00  0.00000000000E+00  0.13069619171E+04  0.13069619171E+04  0.25500000920E-02 0.  1.
        2   -1    0    0  501    0  0.00000000000E+00  0.00000000000E+00 -0.10103489654E+04  0.10103489654E+04  0.25500000920E-02 0. -1.
    10030    2    1    2    0    0  0.00000000000E+00  0.00000000000E+00  0.29661295164E+03  0.23173108825E+04  0.22982494388E+04 0.  0.
        5    1    3    3  502    0 -0.62859245845E+03  0.93070621802E+03 -0.96862393749E+02  0.11272741266E+04  0.46999998093E+01 0. -1.
       -5    1    3    3    0  502  0.62859245845E+03 -0.93070621802E+03  0.39347534539E+03  0.11900367559E+04  0.46999998093E+01 0.  1.
</event>
<event>
 5   0  0.1825521E-06  0.2300396E+04  0.7818609E-02  0.8477765E-01
       -2   -1    0    0    0  501  0.00000000000E+00  0.00000000000E+00  0.11620256633E+04  0.11620256633E+04  0.25500000920E-02 0.  1.
        2   -1    0    0  501    0  0.00000000000E+00  0.00000000000E+00 -0.11384908616E+04  0.11384908616E+04  0.25500000920E-02 0. -1.
    10030    2    1    2    0    0  0.00000000000E+00  0.00000000000E+00  0.23534801773E+02  0.23005165249E+04  0.23003961386E+04 0.  0.
        5    1    3    3  502    0  0.65738404590E+02  0.67135220344E+03  0.94342669015E+03  0.11597893466E+04  0.46999998093E+01 0.  1.
       -5    1    3    3    0  502 -0.65738404590E+02 -0.67135220344E+03 -0.91989188838E+03  0.11407271783E+04  0.46999998093E+01 0. -1.
</event>
<event>
 5   0  0.1888779E-06  0.2298202E+04  0.7818609E-02  0.8478630E-01
        2   -1    0    0  501    0  0.00000000000E+00  0.00000000000E+00  0.12348610925E+04  0.12348610925E+04  0.25500000920E-02 0. -1.
       -2   -1    0    0    0  501  0.00000000000E+00  0.00000000000E+00 -0.10692969482E+04  0.10692969482E+04  0.25500000920E-02 0.  1.
    10030    2    1    2    0    0  0.00000000000E+00  0.00000000000E+00  0.16556414426E+03  0.23041580407E+04  0.22982020779E+04 0.  0.
        4    1    3    3  502    0  0.77018639413E+03  0.77913791548E+03  0.43036281751E+03  0.11770542641E+04  0.12699999809E+01 0.  1.
       -4    1    3    3    0  502 -0.77018639413E+03 -0.77913791548E+03 -0.26479867325E+03  0.11271037766E+04  0.12699999809E+01 0. -1.
</event>
<event>
 5   0  0.1888779E-06  0.2301512E+04  0.7818609E-02  0.8477325E-01
        2   -1    0    0  501    0  0.00000000000E+00  0.00000000000E+00  0.12533314243E+04  0.12533314243E+04  0.25500000920E-02 0.  1.
       -2   -1    0    0    0  501  0.00000000000E+00  0.00000000000E+00 -0.10565760252E+04  0.10565760252E+04  0.25500000920E-02 0. -1.
    10030    2    1    2    0    0  0.00000000000E+00  0.00000000000E+00  0.19675539911E+03  0.23099074495E+04  0.23015124892E+04 0.  0.
        4    1    3    3  502    0  0.79622425487E+03 -0.19226984834E+03  0.90959417534E+03  0.12240522600E+04  0.12699999809E+01 0.  1.
       -4    1    3    3    0  502 -0.79622425487E+03  0.19226984834E+03 -0.71283877623E+03  0.10858551894E+04  0.12699999809E+01 0. -1.
</event>
<event>
 5   0  0.7932912E-07  0.2300850E+04  0.7818609E-02  0.8477586E-01
        1   -1    0    0  501    0  0.00000000000E+00  0.00000000000E+00  0.16570298837E+04  0.16570298837E+04  0.50400001928E-02 0.  1.
       -1   -1    0    0    0  501  0.00000000000E+00  0.00000000000E+00 -0.79870491020E+03  0.79870491021E+03  0.50400001928E-02 0. -1.
    10030    2    1    2    0    0  0.00000000000E+00  0.00000000000E+00  0.85832497347E+03  0.24557347939E+04  0.23008501946E+04 0.  0.
        5    1    3    3  502    0  0.18753665320E+03  0.51042995119E+03  0.15111848746E+04  0.16060543411E+04  0.46999998093E+01 0.  1.
       -5    1    3    3    0  502 -0.18753665320E+03 -0.51042995119E+03 -0.65285990112E+03  0.84968045279E+03  0.46999998093E+01 0. -1.
</event>
<event>
 5   0  0.1744876E-06  0.2300094E+04  0.7818609E-02  0.8477884E-01
        2   -1    0    0  501    0  0.00000000000E+00  0.00000000000E+00  0.14052771017E+04  0.14052771017E+04  0.25500000920E-02 0. -1.
       -2   -1    0    0    0  501  0.00000000000E+00  0.00000000000E+00 -0.94117244030E+03  0.94117244030E+03  0.25500000920E-02 0.  1.
    10030    2    1    2    0    0  0.00000000000E+00  0.00000000000E+00  0.46410466142E+03  0.23464495420E+04  0.23000939799E+04 0.  0.
        1    1    3    3  502    0 -0.66014105045E+03  0.32197782115E+03  0.11348464304E+04  0.13517885724E+04  0.50400001928E-02 0. -1.
       -1    1    3    3    0  502  0.66014105045E+03 -0.32197782115E+03 -0.67074176900E+03  0.99466096963E+03  0.50400001928E-02 0.  1.
</event>
<event>
 5   0  0.1689444E-06  0.2299510E+04  0.7818609E-02  0.8478114E-01
        2   -1    0    0  501    0  0.00000000000E+00  0.00000000000E+00  0.19080680952E+04  0.19080680952E+04  0.25500000920E-02 0.  1.
       -2   -1    0    0    0  501  0.00000000000E+00  0.00000000000E+00 -0.69281400652E+03  0.69281400653E+03  0.25500000920E-02 0. -1.
    10030    2    1    2    0    0  0.00000000000E+00  0.00000000000E+00  0.12152540887E+04  0.26008821017E+04  0.22995097754E+04 0.  0.
        2    1    3    3  502    0 -0.61892140378E+03 -0.93196477792E+03  0.30770590202E+03  0.11603038281E+04  0.25500000920E-02 0. -1.
       -2    1    3    3    0  502  0.61892140378E+03  0.93196477792E+03  0.90754818665E+03  0.14405782736E+04  0.25500000920E-02 0.  1.
</event>
<event>
 5   0  0.7761069E-07  0.2299469E+04  0.7818609E-02  0.8478131E-01
        1   -1    0    0  501    0  0.00000000000E+00  0.00000000000E+00  0.12240784935E+04  0.12240784935E+04  0.50400001928E-02 0. -1.
       -1   -1    0    0    0  501  0.00000000000E+00  0.00000000000E+00 -0.10799055758E+04  0.10799055758E+04  0.50400001928E-02 0.  1.
    10030    2    1    2    0    0  0.00000000000E+00  0.00000000000E+00  0.14417291767E+03  0.23039840693E+04  0.22994687999E+04 0.  0.
        1    1    3    3  502    0 -0.10051960381E+04 -0.55753712283E+03  0.47088076962E+02  0.11504277488E+04  0.50400001928E-02 0.  1.
       -1    1    3    3    0  502  0.10051960381E+04  0.55753712283E+03  0.97084840713E+02  0.11535563205E+04  0.50400001928E-02 0. -1.
</event>
<event>
 5   0  0.1825521E-06  0.2300810E+04  0.7818609E-02  0.8477602E-01
        2   -1    0    0  501    0  0.00000000000E+00  0.00000000000E+00  0.16843499474E+04  0.16843499474E+04  0.25500000920E-02 0.  1.
       -2   -1    0    0    0  501  0.00000000000E+00  0.00000000000E+00 -0.78572263837E+03  0.78572263838E+03  0.25500000920E-02 0. -1.
    10030    2    1    2    0    0  0.00000000000E+00  0.00000000000E+00  0.89862730906E+03  0.24700725858E+04  0.23008101918E+04 0.  0.
        5    1    3    3  502    0  0.15401718880E+03 -0.31279110631E+02 -0.77413299267E+03  0.78993902141E+03  0.46999998093E+01 0. -1.
       -5    1    3    3    0  502 -0.15401718880E+03  0.31279110631E+02  0.16727603017E+04  0.16801335644E+04  0.46999998093E+01 0.  1.
</event>
<event>
 5   0  0.1689444E-06  0.2296347E+04  0.7818609E-02  0.8479363E-01
        2   -1    0    0  501    0  0.00000000000E+00  0.00000000000E+00  0.22674401457E+04  0.22674401457E+04  0.25500000920E-02 0.  1.
       -2   -1    0    0    0  501  0.00000000000E+00  0.00000000000E+00 -0.58140543833E+03  0.58140543833E+03  0.25500000920E-02 0. -1.
    10030    2    1    2    0    0  0.00000000000E+00  0.00000000000E+00  0.16860347073E+04  0.28488455840E+04  0.22963466914E+04 0.  0.
        2    1    3    3  502    0 -0.66067286187E+03 -0.91550768553E+03  0.58379721481E+03  0.12710083165E+04  0.25500000920E-02 0. -1.
       -2    1    3    3    0  502  0.66067286187E+03  0.91550768553E+03  0.11022374925E+04  0.15778372675E+04  0.25500000920E-02 0.  1.
</event>
<event>
 5   0  0.7761069E-07  0.2300672E+04  0.7818609E-02  0.8477656E-01
       -1   -1    0    0    0  501  0.00000000000E+00  0.00000000000E+00  0.12827723017E+04  0.12827723017E+04  0.50400001928E-02 0. -1.
        1   -1    0    0  501    0  0.00000000000E+00  0.00000000000E+00 -0.10315730758E+04  0.10315730758E+04  0.50400001928E-02 0.  1.
    10030    2    1    2    0    0  0.00000000000E+00  0.00000000000E+00  0.25119922586E+03  0.23143453775E+04  0.23006723963E+04 0.  0.
        1    1    3    3  502    0  0.21398786521E+03 -0.29602916874E+03 -0.97168519761E+03  0.10380733107E+04  0.50400001928E-02 0.  1.
       -1    1    3    3    0  502 -0.21398786521E+03  0.29602916874E+03  0.12228844235E+04  0.12762720668E+04  0.50400001928E-02 0. -1.
</event>
<event>
 5   0  0.1825521E-06  0.2300702E+04  0.7818609E-02  0.8477644E-01
       -2   -1    0    0    0  501  0.00000000000E+00  0.00000000000E+00  0.83645063389E+03  0.83645063389E+03  0.25500000920E-02 0.  1.
        2   -1    0    0  501    0  0.00000000000E+00  0.00000000000E+00 -0.15820507462E+04  0.15820507463E+04  0.25500000920E-02 0. -1.
    10030    2    1    2    0    0  0.00000000000E+00  0.00000000000E+00 -0.74560011236E+03  0.24185013801E+04  0.23007019360E+04 0.  0.
        5    1    3    3  502    0  0.46606405598E+03  0.39934174872E+03 -0.13955471416E+04  0.15245535252E+04  0.46999998093E+01 0. -1.
       -5    1    3    3    0  502 -0.46606405598E+03 -0.39934174872E+03  0.64994702929E+03  0.89394785498E+03  0.46999998093E+01 0.  1.
</event>
<event>
 5   0  0.1825521E-06  0.2301255E+04  0.7818609E-02  0.8477427E-01
        2   -1    0    0  501    0  0.00000000000E+00  0.00000000000E+00  0.21627688998E+04  0.21627688998E+04  0.25500000920E-02 0. -1.
       -2   -1    0    0    0  501  0.00000000000E+00  0.00000000000E+00 -0.61215192918E+03  0.61215192918E+03  0.25500000920E-02 0.  1.
    10030    2    1    2    0    0  0.00000000000E+00  0.00000000000E+00  0.15506169706E+04  0.27749208289E+04  0.23012545747E+04 0.  0.
        5    1    3    3  502    0  0.10211749320E+04  0.37157303070E+03  0.31923015897E+03  0.11326052902E+04  0.46999998093E+01 0.  1.
       -5    1    3    3    0  502 -0.10211749320E+04 -0.37157303070E+03  0.12313868116E+04  0.16423155387E+04  0.46999998093E+01 0. -1.
</event>
<event>
 5   0  0.1828646E-06  0.2300431E+04  0.7818609E-02  0.8477751E-01
       -2   -1    0    0    0  501  0.00000000000E+00  0.00000000000E+00  0.57599142366E+03  0.57599142366E+03  0.25500000920E-02 0. -1.
        2   -1    0    0  501    0  0.00000000000E+00  0.00000000000E+00 -0.22969009469E+04  0.22969009469E+04  0.25500000920E-02 0.  1.
    10030    2    1    2    0    0  0.00000000000E+00  0.00000000000E+00 -0.17209095232E+04  0.28728923706E+04  0.23004306087E+04 0.  0.
        3    1    3    3  502    0  0.90298442241E+03  0.38664865558E+03 -0.11310689314E+03  0.98877258733E+03  0.10100000352E+00 0. -1.
       -3    1    3    3    0  502 -0.90298442241E+03 -0.38664865558E+03 -0.16078026301E+04  0.18841197832E+04  0.10100000352E+00 0.  1.
</event>
<event>
 5   0  0.7607231E-07  0.2298143E+04  0.7818609E-02  0.8478654E-01
       -1   -1    0    0    0  501  0.00000000000E+00  0.00000000000E+00  0.99468702539E+03  0.99468702540E+03  0.50400001928E-02 0.  1.
        1   -1    0    0  501    0  0.00000000000E+00  0.00000000000E+00 -0.13274176207E+04  0.13274176207E+04  0.50400001928E-02 0. -1.
    10030    2    1    2    0    0  0.00000000000E+00  0.00000000000E+00 -0.33273059527E+03  0.23221046461E+04  0.22981428020E+04 0.  0.
        2    1    3    3  502    0  0.33265348015E+03  0.32578553255E+03  0.89509761345E+03  0.10089570301E+04  0.25500000920E-02 0.  1.
       -2    1    3    3    0  502 -0.33265348015E+03 -0.32578553255E+03 -0.12278282087E+04  0.13131476159E+04  0.25500000920E-02 0. -1.
</event>
<event>
 5   0  0.7932912E-07  0.2300492E+04  0.7818609E-02  0.8477727E-01
       -1   -1    0    0    0  501  0.00000000000E+00  0.00000000000E+00  0.54361692433E+03  0.54361692436E+03  0.50400001928E-02 0.  1.
        1   -1    0    0  501    0  0.00000000000E+00  0.00000000000E+00 -0.24338193120E+04  0.24338193120E+04  0.50400001928E-02 0. -1.
    10030    2    1    2    0    0  0.00000000000E+00  0.00000000000E+00 -0.18902023877E+04  0.29774362364E+04  0.23004915725E+04 0.  0.
        5    1    3    3  502    0 -0.48239842635E+03 -0.31657784573E+02  0.40573322417E+03  0.63115132596E+03  0.46999998093E+01 0.  1.
       -5    1    3    3    0  502  0.48239842635E+03  0.31657784573E+02 -0.22959356119E+04  0.23462849104E+04  0.46999998093E+01 0. -1.
</event>
<event>
 5   0  0.1689444E-06  0.2299439E+04  0.7818609E-02  0.8478142E-01
       -2   -1    0    0    0  501  0.00000000000E+00  0.00000000000E+00  0.10225427209E+04  0.10225427209E+04  0.25500000920E-02 0.  1.
        2   -1    0    0  501    0  0.00000000000E+00  0.00000000000E+00 -0.12927135021E+04  0.12927135021E+04  0.25500000920E-02 0. -1.
    10030    2    1    2    0    0  0.00000000000E+00  0.00000000000E+00 -0.27017078119E+03  0.23152562231E+04  0.22994388723E+04 0.  0.
        2    1    3    3  502    0  0.27010557554E+03 -0.11149099011E+04 -0.21225246769E+03  0.11666328555E+04  0.25500000920E-02 0. -1.
       -2    1    3    3    0  502 -0.27010557554E+03  0.11149099011E+04 -0.57918313498E+02  0.11486233676E+04  0.25500000920E-02 0.  1.
</event>
<event>
 5   0  0.1744876E-06  0.2300472E+04  0.7818609E-02  0.8477735E-01
        2   -1    0    0  501    0  0.00000000000E+00  0.00000000000E+00  0.13149951065E+04  0.13149951065E+04  0.25500000920E-02 0. -1.
       -2   -1    0    0    0  501  0.00000000000E+00  0.00000000000E+00 -0.10061203288E+04  0.10061203288E+04  0.25500000920E-02 0.  1.
    10030    2    1    2    0    0  0.00000000000E+00  0.00000000000E+00  0.30887477765E+03  0.23211154353E+04  0.23004723940E+04 0.  0.
        1    1    3    3  502    0  0.35191742952E+03 -0.41064255922E+03 -0.86984212554E+03  0.10242551011E+04  0.50400001928E-02 0.  1.
       -1    1    3    3    0  502 -0.35191742952E+03  0.41064255922E+03  0.11787169032E+04  0.12968603343E+04  0.50400001928E-02 0. -1.
</event>
<event>
 5   0  0.7607231E-07  0.2300434E+04  0.7818609E-02  0.8477750E-01
       -1   -1    0    0    0  501  0.00000000000E+00  0.00000000000E+00  0.79048901287E+03  0.79048901289E+03  0.50400001928E-02 0.  1.
        1   -1    0    0  501    0  0.00000000000E+00  0.00000000000E+00 -0.16736457693E+04  0.16736457693E+04  0.50400001928E-02 0. -1.
    10030    2    1    2    0    0  0.00000000000E+00  0.00000000000E+00 -0.88315675645E+03  0.24641347822E+04  0.23004335175E+04 0.  0.
        2    1    3    3  502    0  0.75558393390E+03 -0.81245355597E+03 -0.76649655777E+03  0.13485194974E+04  0.25500000920E-02 0. -1.
       -2    1    3    3    0  502 -0.75558393390E+03  0.81245355597E+03 -0.11666019869E+03  0.11156152848E+04  0.25500000920E-02 0.  1.
</event>
<event>
 5   0  0.8097672E-07  0.2300786E+04  0.7818609E-02  0.8477611E-01
        1   -1    0    0  501    0  0.00000000000E+00  0.00000000000E+00  0.19022512046E+04  0.19022512046E+04  0.50400001928E-02 0. -1.
       -1   -1    0    0    0  501  0.00000000000E+00  0.00000000000E+00 -0.69570429539E+03  0.69570429540E+03  0.50400001928E-02 0.  1.
    10030    2    1    2    0    0  0.00000000000E+00  0.00000000000E+00  0.12065469093E+04  0.25979555001E+04  0.23007862430E+04 0.  0.
        3    1    3    3  502    0  0.93700483571E+03 -0.73705383537E+02 -0.14572117452E+03  0.95112839124E+03  0.10100000352E+00 0.  1.
       -3    1    3    3    0  502 -0.93700483571E+03  0.73705383537E+02  0.13522680838E+04  0.16468271088E+04  0.10100000352E+00 0. -1.
</event>
<event>
 5   0  0.1689444E-06  0.2299065E+04  0.7818609E-02  0.8478290E-01
       -2   -1    0    0    0  501  0.00000000000E+00  0.00000000000E+00  0.10497212910E+04  0.10497212910E+04  0.25500000920E-02 0.  1.
        2   -1    0    0  501    0  0.00000000000E+00  0.00000000000E+00 -0.12588346205E+04  0.12588346205E+04  0.25500000920E-02 0. -1.
    10030    2    1    2    0    0  0.00000000000E+00  0.00000000000E+00 -0.20911332942E+03  0.23085559115E+04  0.22990654649E+04 0.  0.
        2    1    3    3  502    0  0.43713846607E+03  0.10544053089E+03 -0.11668546451E+04  0.12505029016E+04  0.25500000920E-02 0. -1.
       -2    1    3    3    0  502 -0.43713846607E+03 -0.10544053089E+03  0.95774131567E+03  0.10580530099E+04  0.25500000920E-02 0.  1.
</event>
<event>
 5   0  0.7761069E-07  0.2300122E+04  0.7818609E-02  0.8477873E-01
       -1   -1    0    0    0  501  0.00000000000E+00  0.00000000000E+00  0.88724225118E+03  0.88724225119E+03  0.50400001928E-02 0. -1.
        1   -1    0    0  501    0  0.00000000000E+00  0.00000000000E+00 -0.14907315060E+04  0.14907315060E+04  0.50400001928E-02 0.  1.
    10030    2    1    2    0    0  0.00000000000E+00  0.00000000000E+00 -0.60348925481E+03  0.23779737572E+04  0.23001217162E+04 0.  0.
        1    1    3    3  502    0  0.74491442248E+03  0.56503148656E+03  0.39061015946E+03  0.10132790210E+04  0.50400001928E-02 0. -1.
       -1    1    3    3    0  502 -0.74491442248E+03 -0.56503148656E+03 -0.99409941427E+03  0.13646947362E+04  0.50400001928E-02 0.  1.
</event>
<event>
 5   0  0.7761069E-07  0.2299935E+04  0.7818609E-02  0.8477947E-01
       -1   -1    0    0    0  501  0.00000000000E+00  0.00000000000E+00  0.10978988291E+04  0.10978988291E+04  0.50400001928E-02 0. -1.
        1   -1    0    0  501    0  0.00000000000E+00  0.00000000000E+00 -0.12045051503E+04  0.12045051503E+04  0.50400001928E-02 0.  1.
    10030    2    1    2    0    0  0.00000000000E+00  0.00000000000E+00 -0.10660632119E+03  0.23024039793E+04  0.22999346026E+04 0.  0.
        1    1    3    3  502    0 -0.45565181100E+03  0.85492265623E+03  0.56696961034E+03  0.11224820088E+04  0.50400001928E-02 0. -1.
       -1    1    3    3    0  502  0.45565181100E+03 -0.85492265623E+03 -0.67357593153E+03  0.11799219705E+04  0.50400001928E-02 0.  1.
</event>
<event>
 5   0  0.7607231E-07  0.2301451E+04  0.7818609E-02  0.8477349E-01
       -1   -1    0    0    0  501  0.00000000000E+00  0.00000000000E+00  0.14812221515E+04  0.14812221515E+04  0.50400001928E-02 0. -1.
        1   -1    0    0  501    0  0.00000000000E+00  0.00000000000E+00 -0.89397101394E+03  0.89397101395E+03  0.50400001928E-02 0.  1.
    10030    2    1    2    0    0  0.00000000000E+00  0.00000000000E+00  0.58725113752E+03  0.23751931654E+04  0.23014514278E+04 0.  0.
        2    1    3    3  502    0  0.30209542959E+03 -0.10633077119E+04 -0.36441747853E+02  0.11059895749E+04  0.25500000920E-02 0.  1.
       -2    1    3    3    0  502 -0.30209542959E+03  0.10633077119E+04  0.62369288537E+03  0.12692035905E+04  0.25500000920E-02 0. -1.
</event>
<event>
 5   0  0.1888779E-06  0.2300296E+04  0.7818609E-02  0.8477804E-01
        2   -1    0    0  501    0  0.00000000000E+00  0.00000000000E+00  0.17433831653E+04  0.17433831653E+04  0.25500000920E-02 0. -1.
       -2   -1    0    0    0  501  0.00000000000E+00  0.00000000000E+00 -0.75877801119E+03  0.75877801120E+03  0.25500000920E-02 0.  1.
    10030    2    1    2    0    0  0.00000000000E+00  0.00000000000E+00  0.98460515413E+03  0.25021611765E+04  0.23002963382E+04 0.  0.
        4    1    3    3  502    0  0.10983742877E+04 -0.15354627994E+03  0.16087300832E+03  0.11206624263E+04  0.12699999809E+01 0.  1.
       -4    1    3    3    0  502 -0.10983742877E+04  0.15354627994E+03  0.82373214581E+03  0.13814987502E+04  0.12699999809E+01 0. -1.
</event>
<event>
 5   0  0.1825521E-06  0.2300302E+04  0.7818609E-02  0.8477802E-01
       -2   -1    0    0    0  501  0.00000000000E+00  0.00000000000E+00  0.14593788733E+04  0.14593788733E+04  0.25500000920E-02 0. -1.
        2   -1    0    0  501    0  0.00000000000E+00  0.00000000000E+00 -0.90644514944E+03  0.90644514945E+03  0.25500000920E-02 0.  1.
    10030    2    1    2    0    0  0.00000000000E+00  0.00000000000E+00  0.55293372389E+03  0.23658240228E+04  0.23003016332E+04 0.  0.
        5    1    3    3  502    0  0.95426899919E+03 -0.64186869419E+03  0.29101428183E+03  0.11863119934E+04  0.46999998093E+01 0. -1.
       -5    1    3    3    0  502 -0.95426899919E+03  0.64186869419E+03  0.26191944206E+03  0.11795120294E+04  0.46999998093E+01 0.  1.
</event>
<event>
 5   0  0.1888779E-06  0.2305782E+04  0.7818609E-02  0.8475645E-01
        2   -1    0    0  501    0  0.00000000000E+00  0.00000000000E+00  0.90681927279E+03  0.90681927280E+03  0.25500000920E-02 0.  1.
       -2   -1    0    0    0  501  0.00000000000E+00  0.00000000000E+00 -0.14657364499E+04  0.14657364499E+04  0.25500000920E-02 0. -1.
    10030    2    1    2    0    0  0.00000000000E+00  0.00000000000E+00 -0.55891717712E+03  0.23725557227E+04  0.23057823502E+04 0.  0.
        4    1    3    3  502    0 -0.84585695722E+03 -0.60634360260E+03  0.23091953269E+03  0.10660450272E+04  0.12699999809E+01 0.  1.
       -4    1    3    3    0  502  0.84585695722E+03  0.60634360260E+03 -0.78983670980E+03  0.13065106955E+04  0.12699999809E+01 0. -1.
</event>
<event>
 5   0  0.1744876E-06  0.2300113E+04  0.7818609E-02  0.8477877E-01
        2   -1    0    0  501    0  0.00000000000E+00  0.00000000000E+00  0.23816422134E+04  0.23816422134E+04  0.25500000920E-02 0. -1.
       -2   -1    0    0    0  501  0.00000000000E+00  0.00000000000E+00 -0.55534353245E+03  0.55534353246E+03  0.25500000920E-02 0.  1.
    10030    2    1    2    0    0  0.00000000000E+00  0.00000000000E+00  0.18262986810E+04  0.29369857459E+04  0.23001126928E+04 0.  0.
        1    1    3    3  502    0 -0.32308469598E+03  0.10781118547E+02  0.23224364539E+04  0.23448264404E+04  0.50400001928E-02 0. -1.
       -1    1    3    3    0  502  0.32308469598E+03 -0.10781118547E+02 -0.49613777292E+03  0.59215930546E+03  0.50400001928E-02 0.  1.
</event>
<event>
 5   0  0.1825521E-06  0.2300314E+04  0.7818609E-02  0.8477797E-01
        2   -1    0    0  501    0  0.00000000000E+00  0.00000000000E+00  0.25603658032E+04  0.25603658032E+04  0.25500000920E-02 0.  1.
       -2   -1    0    0    0  501  0.00000000000E+00  0.00000000000E+00 -0.51666896400E+03  0.51666896401E+03  0.25500000920E-02 0. -1.
    10030    2    1    2    0    0  0.00000000000E+00  0.00000000000E+00  0.20436968392E+04  0.30770347672E+04  0.23003143672E+04 0.  0.
        5    1    3    3  502    0 -0.65541699349E+03 -0.90312145326E+03  0.64912470102E+03  0.12909627269E+04  0.46999998093E+01 0.  1.
       -5    1    3    3    0  502  0.65541699349E+03  0.90312145326E+03  0.13945721382E+04  0.17860720403E+04  0.46999998093E+01 0. -1.
</event>
<event>
 5   0  0.1828646E-06  0.2299607E+04  0.7818609E-02  0.8478076E-01
        2   -1    0    0  501    0  0.00000000000E+00  0.00000000000E+00  0.21280560855E+04  0.21280560855E+04  0.25500000920E-02 0.  1.
       -2   -1    0    0    0  501  0.00000000000E+00  0.00000000000E+00 -0.62124670297E+03  0.62124670297E+03  0.25500000920E-02 0. -1.
    10030    2    1    2    0    0  0.00000000000E+00  0.00000000000E+00  0.15068093825E+04  0.27493027884E+04  0.22996067723E+04 0.  0.
        3    1    3    3  502    0 -0.13076629809E+03 -0.67317465627E+03 -0.34999714018E+03  0.76991035251E+03  0.10100000352E+00 0. -1.
       -3    1    3    3    0  502  0.13076629809E+03  0.67317465627E+03  0.18568065227E+04  0.19793924359E+04  0.10100000352E+00 0.  1.
</event>
<event>
 5   0  0.1888779E-06  0.2292880E+04  0.7818609E-02  0.8480734E-01
       -2   -1    0    0    0  501  0.00000000000E+00  0.00000000000E+00  0.62064929134E+03  0.62064929135E+03  0.25500000920E-02 0.  1.
        2   -1    0    0  501    0  0.00000000000E+00  0.00000000000E+00 -0.21176614354E+04  0.21176614354E+04  0.25500000920E-02 0. -1.
    10030    2    1    2    0    0  0.00000000000E+00  0.00000000000E+00 -0.14970121441E+04  0.27383107267E+04  0.22928803451E+04 0.  0.
        4    1    3    3  502    0  0.27983366662E+03  0.51967704020E+03 -0.19222657542E+04  0.20108402099E+04  0.12699999809E+01 0. -1.
       -4    1    3    3    0  502 -0.27983366662E+03 -0.51967704020E+03  0.42525361012E+03  0.72747051686E+03  0.12699999809E+01 0.  1.
</event>
<event>
 5   0  0.8097672E-07  0.2299903E+04  0.7818609E-02  0.8477959E-01
        1   -1    0    0  501    0  0.00000000000E+00  0.00000000000E+00  0.19261924531E+04  0.19261924532E+04  0.50400001928E-02 0. -1.
       -1   -1    0    0    0  501  0.00000000000E+00  0.00000000000E+00 -0.68652978433E+03  0.68652978435E+03  0.50400001928E-02 0.  1.
    10030    2    1    2    0    0  0.00000000000E+00  0.00000000000E+00  0.12396626688E+04  0.26127222375E+04  0.22999030323E+04 0.  0.
        3    1    3    3  502    0 -0.75800182883E+03 -0.85837037699E+03  0.73909659786E+03  0.13629491068E+04  0.10100000352E+00 0.  1.
       -3    1    3    3    0  502  0.75800182883E+03  0.85837037699E+03  0.50056607096E+03  0.12497731307E+04  0.10100000352E+00 0. -1.
</event>
<event>
 5   0  0.7607231E-07  0.2296269E+04  0.7818609E-02  0.8479394E-01
        1   -1    0    0  501    0  0.00000000000E+00  0.00000000000E+00  0.24173799457E+04  0.24173799457E+04  0.50400001928E-02 0. -1.
       -1   -1    0    0    0  501  0.00000000000E+00  0.00000000000E+00 -0.54530653351E+03  0.54530653353E+03  0.50400001928E-02 0.  1.
    10030    2    1    2    0    0  0.00000000000E+00  0.00000000000E+00  0.18720734122E+04  0.29626864793E+04  0.22962692163E+04 0.  0.
        2    1    3    3  502    0  0.11420510473E+04 -0.32617340405E+02  0.10823987351E+04  0.15738270259E+04  0.25500000920E-02 0. -1.
       -2    1    3    3    0  502 -0.11420510473E+04  0.32617340405E+02  0.78967467709E+03  0.13888594534E+04  0.25500000920E-02 0.  1.
</event>
<event>
 5   0  0.8097672E-07  0.2299843E+04  0.7818609E-02  0.8477983E-01
        1   -1    0    0  501    0  0.00000000000E+00  0.00000000000E+00  0.97939523085E+03  0.97939523086E+03  0.50400001928E-02 0.  1.
       -1   -1    0    0    0  501  0.00000000000E+00  0.00000000000E+00 -0.13501390442E+04  0.13501390442E+04  0.50400001928E-02 0. -1.
    10030    2    1    2    0    0  0.00000000000E+00  0.00000000000E+00 -0.37074381333E+03  0.23295342750E+04  0.22998432476E+04 0.  0.
        3    1    3    3  502    0 -0.25342760845E+03 -0.11211040436E+04 -0.22074990222E+03  0.11703975217E+04  0.10100000352E+00 0.  1.
       -3    1    3    3    0  502  0.25342760845E+03  0.11211040436E+04 -0.14999391111E+03  0.11591367533E+04  0.10100000352E+00 0. -1.
</event>
<event>
 5   0  0.1888779E-06  0.2299815E+04  0.7818609E-02  0.8477994E-01
        2   -1    0    0  501    0  0.00000000000E+00  0.00000000000E+00  0.21644992802E+04  0.21644992802E+04  0.25500000920E-02 0. -1.
       -2   -1    0    0    0  501  0.00000000000E+00  0.00000000000E+00 -0.61089744071E+03  0.61089744072E+03  0.25500000920E-02 0.  1.
    10030    2    1    2    0    0  0.00000000000E+00  0.00000000000E+00  0.15536018395E+04  0.27753967209E+04  0.22998148366E+04 0.  0.
        4    1    3    3  502    0  0.42929251407E+02 -0.11034484282E+04  0.38979117728E+03  0.11710594046E+04  0.12699999809E+01 0.  1.
       -4    1    3    3    0  502 -0.42929251407E+02  0.11034484282E+04  0.11638106622E+04  0.16043373164E+04  0.12699999809E+01 0. -1.
</event>
<event>
 5   0  0.7761069E-07  0.2296498E+04  0.7818609E-02  0.8479303E-01
       -1   -1    0    0    0  501  0.00000000000E+00  0.00000000000E+00  0.13082574538E+04  0.13082574538E+04  0.50400001928E-02 0. -1.
        1   -1    0    0  501    0  0.00000000000E+00  0.00000000000E+00 -0.10078108093E+04  0.10078108093E+04  0.50400001928E-02 0.  1.
    10030    2    1    2    0    0  0.00000000000E+00  0.00000000000E+00  0.30044664452E+03  0.23160682631E+04  0.22964982067E+04 0.  0.
        1    1    3    3  502    0  0.32347056857E+03 -0.62370298615E+03  0.10661683552E+04  0.12768530006E+04  0.50400001928E-02 0. -1.
       -1    1    3    3    0  502 -0.32347056857E+03  0.62370298615E+03 -0.76572171063E+03  0.10392152625E+04  0.50400001928E-02 0.  1.
</event>
<event>
 5   0  0.7932912E-07  0.2299750E+04  0.7818609E-02  0.8478020E-01
        1   -1    0    0  501    0  0.00000000000E+00  0.00000000000E+00  0.22463667225E+04  0.22463667225E+04  0.50400001928E-02 0. -1.
       -1   -1    0    0    0  501  0.00000000000E+00  0.00000000000E+00 -0.58860041845E+03  0.58860041848E+03  0.50400001928E-02 0.  1.
    10030    2    1    2    0    0  0.00000000000E+00  0.00000000000E+00  0.16577663040E+04  0.28349671410E+04  0.22997498933E+04 0.  0.
        5    1    3    3  502    0  0.18686832901E+03  0.91685120029E+03  0.16527428036E+04  0.18992411013E+04  0.46999998093E+01 0. -1.
       -5    1    3    3    0  502 -0.18686832901E+03 -0.91685120029E+03  0.50235004509E+01  0.93572603973E+03  0.46999998093E+01 0.  1.
</event>
<event>
 5   0  0.7761069E-07  0.2300475E+04  0.7818609E-02  0.8477734E-01
        1   -1    0    0  501    0  0.00000000000E+00  0.00000000000E+00  0.17214577402E+04  0.17214577402E+04  0.50400001928E-02 0. -1.
       -1   -1    0    0    0  501  0.00000000000E+00  0.00000000000E+00 -0.76856162852E+03  0.76856162854E+03  0.50400001928E-02 0.  1.
    10030    2    1    2    0    0  0.00000000000E+00  0.00000000000E+00  0.95289611171E+03  0.24900193688E+04  0.23004750503E+04 0.  0.
        1    1    3    3  502    0  0.55990530376E+03 -0.89965656555E+03 -0.78193196558E+01  0.10596872307E+04  0.50400001928E-02 0.  1.
       -1    1    3    3    0  502 -0.55990530376E+03  0.89965656555E+03  0.96071543137E+03  0.14303321381E+04  0.50400001928E-02 0. -1.
</event>
<event>
 5   0  0.7607231E-07  0.2294713E+04  0.7818609E-02  0.8480009E-01
       -1   -1    0    0    0  501  0.00000000000E+00  0.00000000000E+00  0.92842405867E+03  0.92842405868E+03  0.50400001928E-02 0.  1.
        1   -1    0    0  501    0  0.00000000000E+00  0.00000000000E+00 -0.14179151763E+04  0.14179151763E+04  0.50400001928E-02 0. -1.
    10030    2    1    2    0    0  0.00000000000E+00  0.00000000000E+00 -0.48949111761E+03  0.23463392350E+04  0.22947126729E+04 0.  0.
        2    1    3    3  502    0 -0.10002627617E+03  0.85939198654E+02  0.92064915061E+03  0.93004605280E+03  0.25500000920E-02 0.  1.
       -2    1    3    3    0  502  0.10002627617E+03 -0.85939198654E+02 -0.14101402682E+04  0.14162931822E+04  0.25500000920E-02 0. -1.
</event>
<event>
 5   0  0.1825521E-06  0.2300563E+04  0.7818609E-02  0.8477699E-01
        2   -1    0    0  501    0  0.00000000000E+00  0.00000000000E+00  0.16284673743E+04  0.16284673743E+04  0.25500000920E-02 0.  1.
       -2   -1    0    0    0  501  0.00000000000E+00  0.00000000000E+00 -0.81251061666E+03  0.81251061666E+03  0.25500000920E-02 0. -1.
    10030    2    1    2    0    0  0.00000000000E+00  0.00000000000E+00  0.81595675767E+03  0.24409779910E+04  0.23005625664E+04 0.  0.
        5    1    3    3  502    0  0.10756388101E+04  0.54755340660E+02 -0.20564216303E+02  0.10772381232E+04  0.46999998093E+01 0.  1.
       -5    1    3    3    0  502 -0.10756388101E+04 -0.54755340660E+02  0.83652097397E+03  0.13637398678E+04  0.46999998093E+01 0. -1.
</event>
<event>
 5   0  0.1888779E-06  0.2306142E+04  0.7818609E-02  0.8475503E-01
        2   -1    0    0  501    0  0.00000000000E+00  0.00000000000E+00  0.19664812236E+04  0.19664812236E+04  0.25500000920E-02 0. -1.
       -2   -1    0    0    0  501  0.00000000000E+00  0.00000000000E+00 -0.67611770830E+03  0.67611770831E+03  0.25500000920E-02 0.  1.
    10030    2    1    2    0    0  0.00000000000E+00  0.00000000000E+00  0.12903635153E+04  0.26425989319E+04  0.23061420410E+04 0.  0.
        4    1    3    3  502    0  0.74797685338E+03  0.68200036807E+03  0.12779999454E+04  0.16303003860E+04  0.12699999809E+01 0. -1.
       -4    1    3    3    0  502 -0.74797685338E+03 -0.68200036807E+03  0.12363569877E+02  0.10122985459E+04  0.12699999809E+01 0.  1.
</event>
<event>
 5   0  0.8097672E-07  0.2300514E+04  0.7818609E-02  0.8477719E-01
       -1   -1    0    0    0  501  0.00000000000E+00  0.00000000000E+00  0.73059677122E+03  0.73059677124E+03  0.50400001928E-02 0.  1.
        1   -1    0    0  501    0  0.00000000000E+00  0.00000000000E+00 -0.18109730647E+04  0.18109730648E+04  0.50400001928E-02 0. -1.
    10030    2    1    2    0    0  0.00000000000E+00  0.00000000000E+00 -0.10803762935E+04  0.25415698360E+04  0.23005139199E+04 0.  0.
        3    1    3    3  502    0  0.66962670705E+03  0.72606884880E+03 -0.11914626284E+04  0.15476301577E+04  0.10100000352E+00 0. -1.
       -3    1    3    3    0  502 -0.66962670705E+03 -0.72606884880E+03  0.11108633491E+03  0.99393967825E+03  0.10100000352E+00 0.  1.
</event>
<event>
 5   0  0.7607231E-07  0.2300405E+04  0.7818609E-02  0.8477761E-01
       -1   -1    0    0    0  501  0.00000000000E+00  0.00000000000E+00  0.84677335230E+03  0.84677335232E+03  0.50400001928E-02 0. -1.
        1   -1    0    0  501    0  0.00000000000E+00  0.00000000000E+00 -0.15623613998E+04  0.15623613998E+04  0.50400001928E-02 0.  1.
    10030    2    1    2    0    0  0.00000000000E+00  0.00000000000E+00 -0.71558804748E+03  0.24091347521E+04  0.23004051817E+04 0.  0.
        2    1    3    3  502    0 -0.62927572450E+03  0.88833492632E+03 -0.74660901658E+03  0.13200575375E+04  0.25500000920E-02 0. -1.
       -2    1    3    3    0  502  0.62927572450E+03 -0.88833492632E+03  0.31020969098E+02  0.10890772146E+04  0.25500000920E-02 0.  1.
</event>
<event>
 5   0  0.1689444E-06  0.2297883E+04  0.7818609E-02  0.8478756E-01
        2   -1    0    0  501    0  0.00000000000E+00  0.00000000000E+00  0.27253295944E+04  0.27253295944E+04  0.25500000920E-02 0.  1.
       -2   -1    0    0    0  501  0.00000000000E+00  0.00000000000E+00 -0.48436932321E+03  0.48436932322E+03  0.25500000920E-02 0. -1.
    10030    2    1    2    0    0  0.00000000000E+00  0.00000000000E+00  0.22409602711E+04  0.32096989176E+04  0.22978825480E+04 0.  0.
        2    1    3    3  502    0 -0.11176944683E+04 -0.26190013244E+03  0.11864923548E+04  0.16509381308E+04  0.25500000920E-02 0. -1.
       -2    1    3    3    0  502  0.11176944683E+04  0.26190013244E+03  0.10544679163E+04  0.15587607867E+04  0.25500000920E-02 0.  1.
</event>
<event>
 5   0  0.7761069E-07  0.2299684E+04  0.7818609E-02  0.8478046E-01
        1   -1    0    0  501    0  0.00000000000E+00  0.00000000000E+00  0.87340048147E+03  0.87340048149E+03  0.50400001928E-02 0. -1.
       -1   -1    0    0    0  501  0.00000000000E+00  0.00000000000E+00 -0.15137807804E+04  0.15137807804E+04  0.50400001928E-02 0.  1.
    10030    2    1    2    0    0  0.00000000000E+00  0.00000000000E+00 -0.64038029894E+03  0.23871812619E+04  0.22996842066E+04 0.  0.
        1    1    3    3  502    0  0.27691251598E+02  0.69538722469E+03  0.62995312728E+03  0.93870716428E+03  0.50400001928E-02 0. -1.
       -1    1    3    3    0  502 -0.27691251598E+02 -0.69538722469E+03 -0.12703334262E+04  0.14484740976E+04  0.50400001928E-02 0.  1.
</event>
<event>
 5   0  0.1888779E-06  0.2300598E+04  0.7818609E-02  0.8477685E-01
        2   -1    0    0  501    0  0.00000000000E+00  0.00000000000E+00  0.11851079116E+04  0.11851079116E+04  0.25500000920E-02 0. -1.
       -2   -1    0    0    0  501  0.00000000000E+00  0.00000000000E+00 -0.11165128100E+04  0.11165128100E+04  0.25500000920E-02 0.  1.
    10030    2    1    2    0    0  0.00000000000E+00  0.00000000000E+00  0.68595101615E+02  0.23016207215E+04  0.23005983261E+04 0.  0.
        4    1    3    3  502    0  0.96101117989E+03 -0.55308271410E+03  0.34060934237E+03  0.11599393577E+04  0.12699999809E+01 0. -1.
       -4    1    3    3    0  502 -0.96101117989E+03  0.55308271410E+03 -0.27201424075E+03  0.11416813639E+04  0.12699999809E+01 0.  1.
</event>
<event>
 5   0  0.7761069E-07  0.2300344E+04  0.7818609E-02  0.8477786E-01
       -1   -1    0    0    0  501  0.00000000000E+00  0.00000000000E+00  0.87810758757E+03  0.87810758758E+03  0.50400001928E-02 0.  1.
        1   -1    0    0  501    0  0.00000000000E+00  0.00000000000E+00 -0.15065301404E+04  0.15065301404E+04  0.50400001928E-02 0. -1.
    10030    2    1    2    0    0  0.00000000000E+00  0.00000000000E+00 -0.62842255283E+03  0.23846377280E+04  0.23003439284E+04 0.  0.
        1    1    3    3  502    0  0.90553941336E+03 -0.40000329491E+03 -0.92123806812E+03  0.13522883728E+04  0.50400001928E-02 0. -1.
       -1    1    3    3    0  502 -0.90553941336E+03  0.40000329491E+03  0.29281551529E+03  0.10323493552E+04  0.50400001928E-02 0.  1.
</event>
<event>
 5   0  0.7761069E-07  0.2295006E+04  0.7818609E-02  0.8479893E-01
       -1   -1    0    0    0  501  0.00000000000E+00  0.00000000000E+00  0.77683341506E+03  0.77683341508E+03  0.50400001928E-02 0. -1.
        1   -1    0    0  501    0  0.00000000000E+00  0.00000000000E+00 -0.16950392892E+04  0.16950392892E+04  0.50400001928E-02 0.  1.
    10030    2    1    2    0    0  0.00000000000E+00  0.00000000000E+00 -0.91820587411E+03  0.24718727043E+04  0.22950060215E+04 0.  0.
        1    1    3    3  502    0 -0.49867036042E+02 -0.27221854414E+03 -0.16585566592E+04  0.16814873918E+04  0.50400001928E-02 0.  1.
       -1    1    3    3    0  502  0.49867036042E+02  0.27221854414E+03  0.74035078511E+03  0.79038531242E+03  0.50400001928E-02 0. -1.
</event>
<event>
 5   0  0.1828646E-06  0.2299729E+04  0.7818609E-02  0.8478028E-01
        2   -1    0    0  501    0  0.00000000000E+00  0.00000000000E+00  0.12509900898E+04  0.12509900898E+04  0.25500000920E-02 0.  1.
       -2   -1    0    0    0  501  0.00000000000E+00  0.00000000000E+00 -0.10569138995E+04  0.10569138995E+04  0.25500000920E-02 0. -1.
    10030    2    1    2    0    0  0.00000000000E+00  0.00000000000E+00  0.19407619028E+03  0.23079039893E+04  0.22997293876E+04 0.  0.
        3    1    3    3  502    0  0.10608888038E+04 -0.21717352721E+03  0.48511592456E+03  0.11865862234E+04  0.10100000352E+00 0.  1.
       -3    1    3    3    0  502 -0.10608888038E+04  0.21717352721E+03 -0.29103973429E+03  0.11213177659E+04  0.10100000352E+00 0. -1.
</event>
<event>
 5   0  0.7932912E-07  0.2305679E+04  0.7818609E-02  0.8475686E-01
        1   -1    0    0  501    0  0.00000000000E+00  0.00000000000E+00  0.21454531106E+04  0.21454531106E+04  0.50400001928E-02 0. -1.
       -1   -1    0    0    0  501  0.00000000000E+00  0.00000000000E+00 -0.61946745344E+03  0.61946745346E+03  0.50400001928E-02 0.  1.
    10030    2    1    2    0    0  0.00000000000E+00  0.00000000000E+00  0.15259856572E+04  0.27649205641E+04  0.23056785335E+04 0.  0.
        5    1    3    3  502    0  0.23993541571E+03  0.31290478229E+03 -0.53607688675E+03  0.66549149131E+03  0.46999998093E+01 0.  1.
       -5    1    3    3    0  502 -0.23993541571E+03 -0.31290478229E+03  0.20620625440E+04  0.20994290728E+04  0.46999998093E+01 0. -1.
</event>
<event>
 5   0  0.1828646E-06  0.2301067E+04  0.7818609E-02  0.8477500E-01
        2   -1    0    0  501    0  0.00000000000E+00  0.00000000000E+00  0.10761706006E+04  0.10761706006E+04  0.25500000920E-02 0.  1.
       -2   -1    0    0    0  501  0.00000000000E+00  0.00000000000E+00 -0.12300353371E+04  0.12300353371E+04  0.25500000920E-02 0. -1.
    10030    2    1    2    0    0  0.00000000000E+00  0.00000000000E+00 -0.15386473646E+03  0.23062059377E+04  0.23010674631E+04 0.  0.
        3    1    3    3  502    0 -0.63009690850E+03  0.15513863124E+03  0.87526171881E+03  0.10895747774E+04  0.10100000352E+00 0.  1.
       -3    1    3    3    0  502  0.63009690850E+03 -0.15513863124E+03 -0.10291264553E+04  0.12166311603E+04  0.10100000352E+00 0. -1.
</event>
<event>
 5   0  0.1888779E-06  0.2299602E+04  0.7818609E-02  0.8478078E-01
       -2   -1    0    0    0  501  0.00000000000E+00  0.00000000000E+00  0.86032163437E+03  0.86032163438E+03  0.25500000920E-02 0.  1.
        2   -1    0    0  501    0  0.00000000000E+00  0.00000000000E+00 -0.15366838599E+04  0.15366838599E+04  0.25500000920E-02 0. -1.
    10030    2    1    2    0    0  0.00000000000E+00  0.00000000000E+00 -0.67636222556E+03  0.23970054943E+04  0.22996020264E+04 0.  0.
        4    1    3    3  502    0 -0.10043445280E+04 -0.16296957297E+03 -0.89637623908E+03  0.13560084762E+04  0.12699999809E+01 0. -1.
       -4    1    3    3    0  502  0.10043445280E+04  0.16296957297E+03  0.22001401352E+03  0.10409970181E+04  0.12699999809E+01 0.  1.
</event>
<event>
 5   0  0.1744876E-06  0.2299650E+04  0.7818609E-02  0.8478059E-01
        2   -1    0    0  501    0  0.00000000000E+00  0.00000000000E+00  0.88835881561E+03  0.88835881561E+03  0.25500000920E-02 0. -1.
       -2   -1    0    0    0  501  0.00000000000E+00  0.00000000000E+00 -0.14882466056E+04  0.14882466056E+04  0.25500000920E-02 0.  1.
    10030    2    1    2    0    0  0.00000000000E+00  0.00000000000E+00 -0.59988779002E+03  0.23766054212E+04  0.22996495315E+04 0.  0.
        1    1    3    3  502    0 -0.61957950419E+03  0.81081565470E+03  0.24769091431E+03  0.10500721770E+04  0.50400001928E-02 0. -1.
       -1    1    3    3    0  502  0.61957950419E+03 -0.81081565470E+03 -0.84757870433E+03  0.13265332442E+04  0.50400001928E-02 0.  1.
</event>
<event>
 5   0  0.1744876E-06  0.2301765E+04  0.7818609E-02  0.8477225E-01
       -2   -1    0    0    0  501  0.00000000000E+00  0.00000000000E+00  0.69215620693E+03  0.69215620693E+03  0.25500000920E-02 0. -1.
        2   -1    0    0  501    0  0.00000000000E+00  0.00000000000E+00 -0.19136303118E+04  0.19136303118E+04  0.25500000920E-02 0.  1.
    10030    2    1    2    0    0  0.00000000000E+00  0.00000000000E+00 -0.12214741049E+04  0.26057865187E+04  0.23017654947E+04 0.  0.
        1    1    3    3  502    0 -0.10210422810E+04  0.44690961194E+03 -0.93546014455E+03  0.14551086636E+04  0.50400001928E-02 0. -1.
       -1    1    3    3    0  502  0.10210422810E+04 -0.44690961194E+03 -0.28601396034E+03  0.11506778552E+04  0.50400001928E-02 0.  1.
</event>
<event>
 5   0  0.7607231E-07  0.2299714E+04  0.7818609E-02  0.8478034E-01
        1   -1    0    0  501    0  0.00000000000E+00  0.00000000000E+00  0.13554178531E+04  0.13554178532E+04  0.50400001928E-02 0.  1.
       -1   -1    0    0    0  501  0.00000000000E+00  0.00000000000E+00 -0.97547127647E+03  0.97547127648E+03  0.50400001928E-02 0. -1.
    10030    2    1    2    0    0  0.00000000000E+00  0.00000000000E+00  0.37994657667E+03  0.23308891296E+04  0.22997140547E+04 0.  0.
        2    1    3    3  502    0 -0.64346180183E+03  0.32849114062E+03 -0.71670440121E+03  0.10176515703E+04  0.25500000920E-02 0. -1.
       -2    1    3    3    0  502  0.64346180183E+03 -0.32849114062E+03  0.10966509779E+04  0.13132375593E+04  0.25500000920E-02 0.  1.
</event>
<event>
 5   0  0.8108242E-07  0.2300275E+04  0.7818609E-02  0.8477813E-01
        1   -1    0    0  501    0  0.00000000000E+00  0.00000000000E+00  0.18770563575E+04  0.18770563575E+04  0.50400001928E-02 0.  1.
       -1   -1    0    0    0  501  0.00000000000E+00  0.00000000000E+00 -0.70472905057E+03  0.70472905059E+03  0.50400001928E-02 0. -1.
    10030    2    1    2    0    0  0.00000000000E+00  0.00000000000E+00  0.11723273069E+04  0.25817854081E+04  0.23002748920E+04 0.  0.
        4    1    3    3  502    0  0.62516881228E+02 -0.94706338368E+03 -0.14293257896E+03  0.95982745750E+03  0.12699999809E+01 0. -1.
       -4    1    3    3    0  502 -0.62516881228E+02  0.94706338368E+03  0.13152598859E+04  0.16219579506E+04  0.12699999809E+01 0.  1.
</event>
<event>
 5   0  0.1825521E-06  0.2301983E+04  0.7818609E-02  0.8477140E-01
       -2   -1    0    0    0  501  0.00000000000E+00  0.00000000000E+00  0.50648389961E+03  0.50648389962E+03  0.25500000920E-02 0.  1.
        2   -1    0    0  501    0  0.00000000000E+00  0.00000000000E+00 -0.26156432132E+04  0.26156432132E+04  0.25500000920E-02 0. -1.
    10030    2    1    2    0    0  0.00000000000E+00  0.00000000000E+00 -0.21091593135E+04  0.31221271128E+04  0.23019827754E+04 0.  0.
        5    1    3    3  502    0  0.77149906914E+03 -0.85393701455E+03 -0.10795825155E+04  0.15779542884E+04  0.46999998093E+01 0.  1.
       -5    1    3    3    0  502 -0.77149906914E+03  0.85393701455E+03 -0.10295767981E+04  0.15441728244E+04  0.46999998093E+01 0. -1.
</event>
<event>
 5   0  0.7761069E-07  0.2298969E+04  0.7818609E-02  0.8478328E-01
        1   -1    0    0  501    0  0.00000000000E+00  0.00000000000E+00  0.17156004904E+04  0.17156004904E+04  0.50400001928E-02 0.  1.
       -1   -1    0    0    0  501  0.00000000000E+00  0.00000000000E+00 -0.77017617826E+03  0.77017617827E+03  0.50400001928E-02 0. -1.
    10030    2    1    2    0    0  0.00000000000E+00  0.00000000000E+00  0.94542431216E+03  0.24857766687E+04  0.22989690117E+04 0.  0.
        1    1    3    3  502    0  0.33949423633E+03 -0.74042479067E+03  0.13496839735E+04  0.15764301556E+04  0.50400001928E-02 0.  1.
       -1    1    3    3    0  502 -0.33949423633E+03  0.74042479067E+03 -0.40425966132E+03  0.90934651312E+03  0.50400001928E-02 0. -1.
</event>
<event>
 5   0  0.8108242E-07  0.2300538E+04  0.7818609E-02  0.8477709E-01
        1   -1    0    0  501    0  0.00000000000E+00  0.00000000000E+00  0.24854005161E+04  0.24854005161E+04  0.50400001928E-02 0. -1.
       -1   -1    0    0    0  501  0.00000000000E+00  0.00000000000E+00 -0.53235628593E+03  0.53235628595E+03  0.50400001928E-02 0.  1.
    10030    2    1    2    0    0  0.00000000000E+00  0.00000000000E+00  0.19530442302E+04  0.30177568021E+04  0.23005378396E+04 0.  0.
        4    1    3    3  502    0 -0.11040900551E+04  0.22166707531E+03  0.12840618692E+04  0.17079132411E+04  0.12699999809E+01 0.  1.
       -4    1    3    3    0  502  0.11040900551E+04 -0.22166707531E+03  0.66898236097E+03  0.13098435610E+04  0.12699999809E+01 0. -1.
</event>
<event>
 5   0  0.7932912E-07  0.2299888E+04  0.7818609E-02  0.8477965E-01
        1   -1    0    0  501    0  0.00000000000E+00  0.00000000000E+00  0.14361394663E+04  0.14361394663E+04  0.50400001928E-02 0. -1.
       -1   -1    0    0    0  501  0.00000000000E+00  0.00000000000E+00 -0.92078209709E+03  0.92078209710E+03  0.50400001928E-02 0.  1.
    10030    2    1    2    0    0  0.00000000000E+00  0.00000000000E+00  0.51535736917E+03  0.23569215634E+04  0.22998882664E+04 0.  0.
        5    1    3    3  502    0 -0.35274047614E+03  0.89978877349E+03  0.89627172104E+03  0.13180936114E+04  0.46999998093E+01 0. -1.
       -5    1    3    3    0  502  0.35274047614E+03 -0.89978877349E+03 -0.38091435187E+03  0.10388279520E+04  0.46999998093E+01 0.  1.
</event>
<event>
 5   0  0.1888779E-06  0.2295763E+04  0.7818609E-02  0.8479594E-01
       -2   -1    0    0    0  501  0.00000000000E+00  0.00000000000E+00  0.14676871509E+04  0.14676871509E+04  0.25500000920E-02 0.  1.
        2   -1    0    0  501    0  0.00000000000E+00  0.00000000000E+00 -0.89776072564E+03  0.89776072564E+03  0.25500000920E-02 0. -1.
    10030    2    1    2    0    0  0.00000000000E+00  0.00000000000E+00  0.56992642525E+03  0.23654478765E+04  0.22957629508E+04 0.  0.
        4    1    3    3  502    0  0.82907985805E+03  0.27957692972E+03  0.10505469426E+04  0.13671821978E+04  0.12699999809E+01 0.  1.
       -4    1    3    3    0  502 -0.82907985805E+03 -0.27957692972E+03 -0.48062051733E+03  0.99826567868E+03  0.12699999809E+01 0. -1.
</event>
<event>
 5   0  0.7761069E-07  0.2305321E+04  0.7818609E-02  0.8475826E-01
        1   -1    0    0  501    0  0.00000000000E+00  0.00000000000E+00  0.20688903079E+04  0.20688903079E+04  0.50400001928E-02 0. -1.
       -1   -1    0    0    0  501  0.00000000000E+00  0.00000000000E+00 -0.64219280100E+03  0.64219280102E+03  0.50400001928E-02 0.  1.
    10030    2    1    2    0    0  0.00000000000E+00  0.00000000000E+00  0.14266975069E+04  0.27110831090E+04  0.23053212027E+04 0.  0.
        1    1    3    3  502    0 -0.74869942190E+03  0.75752717907E+03  0.12316324421E+04  0.16282864379E+04  0.50400001928E-02 0. -1.
       -1    1    3    3    0  502  0.74869942190E+03 -0.75752717907E+03  0.19506506487E+03  0.10827966711E+04  0.50400001928E-02 0.  1.
</event>
<event>
 5   0  0.1689444E-06  0.2299751E+04  0.7818609E-02  0.8478019E-01
        2   -1    0    0  501    0  0.00000000000E+00  0.00000000000E+00  0.22856373441E+04  0.22856373441E+04  0.25500000920E-02 0.  1.
       -2   -1    0    0    0  501  0.00000000000E+00  0.00000000000E+00 -0.57848807675E+03  0.57848807675E+03  0.25500000920E-02 0. -1.
    10030    2    1    2    0    0  0.00000000000E+00  0.00000000000E+00  0.17071492674E+04  0.28641254209E+04  0.22997512486E+04 0.  0.
        2    1    3    3  502    0  0.70014758174E+03 -0.14776892320E+03 -0.26741008530E+03  0.76390473529E+03  0.25500000920E-02 0. -1.
       -2    1    3    3    0  502 -0.70014758174E+03  0.14776892320E+03  0.19745593527E+04  0.21002206856E+04  0.25500000920E-02 0.  1.
</event>
<event>
 5   0  0.1825521E-06  0.2301185E+04  0.7818609E-02  0.8477454E-01
        2   -1    0    0  501    0  0.00000000000E+00  0.00000000000E+00  0.20617966550E+04  0.20617966550E+04  0.25500000920E-02 0. -1.
       -2   -1    0    0    0  501  0.00000000000E+00  0.00000000000E+00 -0.64209171787E+03  0.64209171788E+03  0.25500000920E-02 0.  1.
    10030    2    1    2    0    0  0.00000000000E+00  0.00000000000E+00  0.14197049371E+04  0.27038883728E+04  0.23011845264E+04 0.  0.
        5    1    3    3  502    0 -0.52910536192E+03 -0.10182083958E+04  0.80913563484E+03  0.14040738537E+04  0.46999998093E+01 0.  1.
       -5    1    3    3    0  502  0.52910536192E+03  0.10182083958E+04  0.61056930226E+03  0.12998145191E+04  0.46999998093E+01 0. -1.
</event>
<event>
 5   0  0.8097672E-07  0.2300913E+04  0.7818609E-02  0.8477561E-01
       -1   -1    0    0    0  501  0.00000000000E+00  0.00000000000E+00  0.13619033296E+04  0.13619033296E+04  0.50400001928E-02 0.  1.
        1   -1    0    0  501    0  0.00000000000E+00  0.00000000000E+00 -0.97183883056E+03  0.97183883057E+03  0.50400001928E-02 0. -1.
    10030    2    1    2    0    0  0.00000000000E+00  0.00000000000E+00  0.39006449903E+03  0.23337421602E+04  0.23009133310E+04 0.  0.
        3    1    3    3  502    0 -0.90975942747E+03 -0.20014834654E+03 -0.48975168810E+03  0.10524154611E+04  0.10100000352E+00 0. -1.
       -3    1    3    3    0  502  0.90975942747E+03  0.20014834654E+03  0.87981618713E+03  0.12813266991E+04  0.10100000352E+00 0.  1.
</event>
<event>
 5   0  0.7932912E-07  0.2299899E+04  0.7818609E-02  0.8477961E-01
       -1   -1    0    0    0  501  0.00000000000E+00  0.00000000000E+00  0.77407967277E+03  0.77407967279E+03  0.50400001928E-02 0. -1.
        1   -1    0    0  501    0  0.00000000000E+00  0.00000000000E+00 -0.17083299793E+04  0.17083299793E+04  0.50400001928E-02 0.  1.
    10030    2    1    2    0    0  0.00000000000E+00  0.00000000000E+00 -0.93425030649E+03  0.24824096521E+04  0.22998987033E+04 0.  0.
        5    1    3    3  502    0  0.60188527434E+03 -0.96564492013E+03 -0.28772647637E+03  0.11736884640E+04  0.46999998093E+01 0.  1.
       -5    1    3    3    0  502 -0.60188527434E+03  0.96564492013E+03 -0.64652383013E+03  0.13087211881E+04  0.46999998093E+01 0. -1.
</event>
<event>
 5   0  0.1689444E-06  0.2300410E+04  0.7818609E-02  0.8477759E-01
       -2   -1    0    0    0  501  0.00000000000E+00  0.00000000000E+00  0.85597790840E+03  0.85597790840E+03  0.25500000920E-02 0.  1.
        2   -1    0    0  501    0  0.00000000000E+00  0.00000000000E+00 -0.15455675911E+04  0.15455675911E+04  0.25500000920E-02 0. -1.
    10030    2    1    2    0    0  0.00000000000E+00  0.00000000000E+00 -0.68958968267E+03  0.24015454995E+04  0.23004101494E+04 0.  0.
        2    1    3    3  502    0  0.91083724558E+03  0.61970088640E+03 -0.68996358127E+03  0.12998859258E+04  0.25500000920E-02 0. -1.
       -2    1    3    3    0  502 -0.91083724558E+03 -0.61970088640E+03  0.37389859453E+00  0.11016595737E+04  0.25500000920E-02 0.  1.
</event>
<event>
 5   0  0.8108242E-07  0.2299931E+04  0.7818609E-02  0.8477948E-01
        1   -1    0    0  501    0  0.00000000000E+00  0.00000000000E+00  0.85963931890E+03  0.85963931892E+03  0.50400001928E-02 0.  1.
       -1   -1    0    0    0  501  0.00000000000E+00  0.00000000000E+00 -0.15383434791E+04  0.15383434791E+04  0.50400001928E-02 0. -1.
    10030    2    1    2    0    0  0.00000000000E+00  0.00000000000E+00 -0.67870416018E+03  0.23979827980E+04  0.22999309038E+04 0.  0.
        4    1    3    3  502    0 -0.10166060381E+04  0.42336830713E+03  0.59629806803E+01  0.11012564326E+04  0.12699999809E+01 0.  1.
       -4    1    3    3    0  502  0.10166060381E+04 -0.42336830713E+03 -0.68466714086E+03  0.12967263655E+04  0.12699999809E+01 0. -1.
</event>
<event>
 5   0  0.1828646E-06  0.2298098E+04  0.7818609E-02  0.8478671E-01
        2   -1    0    0  501    0  0.00000000000E+00  0.00000000000E+00  0.11927746307E+04  0.11927746307E+04  0.25500000920E-02 0. -1.
       -2   -1    0    0    0  501  0.00000000000E+00  0.00000000000E+00 -0.11069266378E+04  0.11069266378E+04  0.25500000920E-02 0.  1.
    10030    2    1    2    0    0  0.00000000000E+00  0.00000000000E+00  0.85847992853E+02  0.22997012685E+04  0.22980983543E+04 0.  0.
        3    1    3    3  502    0  0.96696447912E+03  0.17532331307E+03 -0.55293689991E+03  0.11276071095E+04  0.10100000352E+00 0.  1.
       -3    1    3    3    0  502 -0.96696447912E+03 -0.17532331307E+03  0.63878489276E+03  0.11720941589E+04  0.10100000352E+00 0. -1.
</event>
<event>
 5   0  0.1825521E-06  0.2300057E+04  0.7818609E-02  0.8477898E-01
       -2   -1    0    0    0  501  0.00000000000E+00  0.00000000000E+00  0.57531603752E+03  0.57531603752E+03  0.25500000920E-02 0.  1.
        2   -1    0    0  501    0  0.00000000000E+00  0.00000000000E+00 -0.22988514144E+04  0.22988514144E+04  0.25500000920E-02 0. -1.
    10030    2    1    2    0    0  0.00000000000E+00  0.00000000000E+00 -0.17235353769E+04  0.28741674519E+04  0.23000574659E+04 0.  0.
        5    1    3    3  502    0 -0.26835040283E+02  0.98426460465E+03 -0.11927927130E+03  0.99183999007E+03  0.46999998093E+01 0.  1.
       -5    1    3    3    0  502  0.26835040283E+02 -0.98426460465E+03 -0.16042561056E+04  0.18823274619E+04  0.46999998093E+01 0. -1.
</event>
<event>
 5   0  0.1888779E-06  0.2299821E+04  0.7818609E-02  0.8477992E-01
       -2   -1    0    0    0  501  0.00000000000E+00  0.00000000000E+00  0.13505463705E+04  0.13505463705E+04  0.25500000920E-02 0. -1.
        2   -1    0    0  501    0  0.00000000000E+00  0.00000000000E+00 -0.97908048287E+03  0.97908048287E+03  0.25500000920E-02 0.  1.
    10030    2    1    2    0    0  0.00000000000E+00  0.00000000000E+00  0.37146588760E+03  0.23296268533E+04  0.22998205083E+04 0.  0.
        4    1    3    3  502    0  0.37003310461E+03  0.13162096820E+03  0.12805004826E+04  0.13393773466E+04  0.12699999809E+01 0. -1.
       -4    1    3    3    0  502 -0.37003310461E+03 -0.13162096820E+03 -0.90903459500E+03  0.99024950673E+03  0.12699999809E+01 0.  1.
</event>
<event>
 5   0  0.8108242E-07  0.2299871E+04  0.7818609E-02  0.8477972E-01
        1   -1    0    0  501    0  0.00000000000E+00  0.00000000000E+00  0.25049100925E+04  0.25049100925E+04  0.50400001928E-02 0.  1.
       -1   -1    0    0    0  501  0.00000000000E+00  0.00000000000E+00 -0.52790363402E+03  0.52790363404E+03  0.50400001928E-02 0. -1.
    10030    2    1    2    0    0  0.00000000000E+00  0.00000000000E+00  0.19770064585E+04  0.30328137266E+04  0.22998705535E+04 0.  0.
        4    1    3    3  502    0 -0.10998067559E+04  0.29324688869E+03  0.77270153678E+03  0.13757317747E+04  0.12699999809E+01 0. -1.
       -4    1    3    3    0  502  0.10998067559E+04 -0.29324688869E+03  0.12043049217E+04  0.16570819519E+04  0.12699999809E+01 0.  1.
</event>
<event>
 5   0  0.1744876E-06  0.2299355E+04  0.7818609E-02  0.8478175E-01
        2   -1    0    0  501    0  0.00000000000E+00  0.00000000000E+00  0.20355869488E+04  0.20355869488E+04  0.25500000920E-02 0.  1.
       -2   -1    0    0    0  501  0.00000000000E+00  0.00000000000E+00 -0.64932545782E+03  0.64932545782E+03  0.25500000920E-02 0. -1.
    10030    2    1    2    0    0  0.00000000000E+00  0.00000000000E+00  0.13862614910E+04  0.26849124066E+04  0.22993550639E+04 0.  0.
        1    1    3    3  502    0 -0.85285873333E+03  0.56806262848E+03  0.13017772214E+04  0.16567097220E+04  0.50400001928E-02 0.  1.
       -1    1    3    3    0  502  0.85285873333E+03 -0.56806262848E+03  0.84484269648E+02  0.10282026847E+04  0.50400001928E-02 0. -1.
</event>
<event>
 5   0  0.8108242E-07  0.2300053E+04  0.7818609E-02  0.8477900E-01
       -1   -1    0    0    0  501  0.00000000000E+00  0.00000000000E+00  0.76970682612E+03  0.76970682614E+03  0.50400001928E-02 0.  1.
        1   -1    0    0  501    0  0.00000000000E+00  0.00000000000E+00 -0.17182656301E+04  0.17182656301E+04  0.50400001928E-02 0. -1.
    10030    2    1    2    0    0  0.00000000000E+00  0.00000000000E+00 -0.94855880394E+03  0.24879724562E+04  0.23000528555E+04 0.  0.
        4    1    3    3  502    0  0.10961552546E+04 -0.78760659442E+02 -0.84078272484E+03  0.13837184638E+04  0.12699999809E+01 0. -1.
       -4    1    3    3    0  502 -0.10961552546E+04  0.78760659442E+02 -0.10777607910E+03  0.11042539924E+04  0.12699999809E+01 0.  1.
</event>
<event>
 5   0  0.1888779E-06  0.2301357E+04  0.7818609E-02  0.8477386E-01
        2   -1    0    0  501    0  0.00000000000E+00  0.00000000000E+00  0.18179003468E+04  0.18179003468E+04  0.25500000920E-02 0. -1.
       -2   -1    0    0    0  501  0.00000000000E+00  0.00000000000E+00 -0.72834631705E+03  0.72834631705E+03  0.25500000920E-02 0.  1.
    10030    2    1    2    0    0  0.00000000000E+00  0.00000000000E+00  0.10895540297E+04  0.25462466638E+04  0.23013570104E+04 0.  0.
        4    1    3    3  502    0  0.56117821244E+03  0.15322512105E+03  0.16432266527E+04  0.17431564384E+04  0.12699999809E+01 0. -1.
       -4    1    3    3    0  502 -0.56117821244E+03 -0.15322512105E+03 -0.55367262295E+03  0.80309022541E+03  0.12699999809E+01 0.  1.
</event>
<event>
 5   0  0.7761069E-07  0.2300091E+04  0.7818609E-02  0.8477885E-01
       -1   -1    0    0    0  501  0.00000000000E+00  0.00000000000E+00  0.74076767605E+03  0.74076767606E+03  0.50400001928E-02 0. -1.
        1   -1    0    0  501    0  0.00000000000E+00  0.00000000000E+00 -0.17854511693E+04  0.17854511693E+04  0.50400001928E-02 0.  1.
    10030    2    1    2    0    0  0.00000000000E+00  0.00000000000E+00 -0.10446834932E+04  0.25262188453E+04  0.23000908794E+04 0.  0.
        1    1    3    3  502    0 -0.28549138711E+03 -0.10940195482E+04 -0.75330205701E+03  0.13586199222E+04  0.50400001928E-02 0. -1.
       -1    1    3    3    0  502  0.28549138711E+03  0.10940195482E+04 -0.29138143620E+03  0.11675989231E+04  0.50400001928E-02 0.  1.
</event>
<event>
 5   0  0.1825521E-06  0.2299021E+04  0.7818609E-02  0.8478307E-01
       -2   -1    0    0    0  501  0.00000000000E+00  0.00000000000E+00  0.46169455587E+03  0.46169455588E+03  0.25500000920E-02 0.  1.
        2   -1    0    0  501    0  0.00000000000E+00  0.00000000000E+00 -0.28620110354E+04  0.28620110354E+04  0.25500000920E-02 0. -1.
    10030    2    1    2    0    0  0.00000000000E+00  0.00000000000E+00 -0.24003164795E+04  0.33237055913E+04  0.22990214561E+04 0.  0.
        5    1    3    3  502    0 -0.77665427982E+03 -0.29646758165E+03 -0.52421915240E+02  0.83297961832E+03  0.46999998093E+01 0.  1.
       -5    1    3    3    0  502  0.77665427982E+03  0.29646758165E+03 -0.23478945643E+04  0.24907259730E+04  0.46999998093E+01 0. -1.
</event>
<event>
 5   0  0.1825521E-06  0.2300089E+04  0.7818609E-02  0.8477886E-01
        2   -1    0    0  501    0  0.00000000000E+00  0.00000000000E+00  0.11781339524E+04  0.11781339524E+04  0.25500000920E-02 0. -1.
       -2   -1    0    0    0  501  0.00000000000E+00  0.00000000000E+00 -0.11226245729E+04  0.11226245729E+04  0.25500000920E-02 0.  1.
    10030    2    1    2    0    0  0.00000000000E+00  0.00000000000E+00  0.55509379545E+02  0.23007585253E+04  0.23000888027E+04 0.  0.
        5    1    3    3  502    0  0.44509542364E+03 -0.39340699994E+03  0.10127754073E+04  0.11741444202E+04  0.46999998093E+01 0. -1.
       -5    1    3    3    0  502 -0.44509542364E+03  0.39340699994E+03 -0.95726602780E+03  0.11266141051E+04  0.46999998093E+01 0.  1.
</event>
<event>
 5   0  0.1689444E-06  0.2302575E+04  0.7818609E-02  0.8476907E-01
        2   -1    0    0  501    0  0.00000000000E+00  0.00000000000E+00  0.15581957175E+04  0.15581957175E+04  0.25500000920E-02 0.  1.
       -2   -1    0    0    0  501  0.00000000000E+00  0.00000000000E+00 -0.85063954871E+03  0.85063954872E+03  0.25500000920E-02 0. -1.
    10030    2    1    2    0    0  0.00000000000E+00  0.00000000000E+00  0.70755616879E+03  0.24088352662E+04  0.23025749950E+04 0.  0.
        2    1    3    3  502    0 -0.20793100937E+03 -0.67522542873E+03 -0.59718076597E+03  0.92508894249E+03  0.25500000920E-02 0. -1.
       -2    1    3    3    0  502  0.20793100937E+03  0.67522542873E+03  0.13047369348E+04  0.14837463237E+04  0.25500000920E-02 0.  1.
</event>
<event>
 5   0  0.1689444E-06  0.2301339E+04  0.7818609E-02  0.8477393E-01
        2   -1    0    0  501    0  0.00000000000E+00  0.00000000000E+00  0.12045526195E+04  0.12045526195E+04  0.25500000920E-02 0.  1.
       -2   -1    0    0    0  501  0.00000000000E+00  0.00000000000E+00 -0.10991970212E+04  0.10991970212E+04  0.25500000920E-02 0. -1.
    10030    2    1    2    0    0  0.00000000000E+00  0.00000000000E+00  0.10535559830E+03  0.23037496407E+04  0.23013393068E+04 0.  0.
        2    1    3    3  502    0  0.57453368119E+03  0.80262204746E+03 -0.53933787745E+03  0.11248006259E+04  0.25500000920E-02 0. -1.
       -2    1    3    3    0  502 -0.57453368119E+03 -0.80262204746E+03  0.64469347575E+03  0.11789490148E+04  0.25500000920E-02 0.  1.
</event>
<event>
 5   0  0.1744876E-06  0.2297462E+04  0.7818609E-02  0.8478923E-01
        2   -1    0    0  501    0  0.00000000000E+00  0.00000000000E+00  0.72236556958E+03  0.72236556958E+03  0.25500000920E-02 0.  1.
       -2   -1    0    0    0  501  0.00000000000E+00  0.00000000000E+00 -0.18267520320E+04  0.18267520320E+04  0.25500000920E-02 0. -1.
    10030    2    1    2    0    0  0.00000000000E+00  0.00000000000E+00 -0.11043864624E+04  0.25491176015E+04  0.22974618796E+04 0.  0.
        1    1    3    3  502    0 -0.32747322552E+03 -0.98617984008E+03 -0.10955188130E+04  0.15099506151E+04  0.50400001928E-02 0. -1.
       -1    1    3    3    0  502  0.32747322552E+03  0.98617984008E+03 -0.88676493510E+01  0.10391669864E+04  0.50400001928E-02 0.  1.
</event>
<event>
 5   0  0.8097672E-07  0.2297362E+04  0.7818609E-02  0.8478962E-01
        1   -1    0    0  501    0  0.00000000000E+00  0.00000000000E+00  0.14894671508E+04  0.14894671508E+04  0.50400001928E-02 0.  1.
       -1   -1    0    0    0  501  0.00000000000E+00  0.00000000000E+00 -0.88586608813E+03  0.88586608814E+03  0.50400001928E-02 0. -1.
    10030    2    1    2    0    0  0.00000000000E+00  0.00000000000E+00  0.60360106264E+03  0.23753332389E+04  0.22973623469E+04 0.  0.
        3    1    3    3  502    0 -0.33525457316E+03 -0.10835837944E+04  0.48939416656E+03  0.12353364435E+04  0.10100000352E+00 0.  1.
       -3    1    3    3    0  502  0.33525457316E+03  0.10835837944E+04  0.11420689608E+03  0.11399967954E+04  0.10100000352E+00 0. -1.
</event>
<event>
 5   0  0.8097672E-07  0.2298072E+04  0.7818609E-02  0.8478682E-01
        1   -1    0    0  501    0  0.00000000000E+00  0.00000000000E+00  0.20430828403E+04  0.20430828403E+04  0.50400001928E-02 0.  1.
       -1   -1    0    0    0  501  0.00000000000E+00  0.00000000000E+00 -0.64622156838E+03  0.64622156840E+03  0.50400001928E-02 0. -1.
    10030    2    1    2    0    0  0.00000000000E+00  0.00000000000E+00  0.13968612719E+04  0.26893044087E+04  0.22980724074E+04 0.  0.
        3    1    3    3  502    0 -0.59185313804E+02 -0.46812031033E+03 -0.52761642386E+03  0.70782669294E+03  0.10100000352E+00 0. -1.
       -3    1    3    3    0  502  0.59185313804E+02  0.46812031033E+03  0.19244776958E+04  0.19814777158E+04  0.10100000352E+00 0.  1.
</event>
<event>
 5   0  0.6319125E-07  0.2304735E+04  0.7818609E-02  0.8476056E-01
       -3   -1    0    0    0  501  0.00000000000E+00  0.00000000000E+00  0.85359763193E+03  0.85359763791E+03  0.10100000352E+00 0.  1.
        3   -1    0    0  501    0  0.00000000000E+00  0.00000000000E+00 -0.15557107422E+04  0.15557107455E+04  0.10100000352E+00 0. -1.
    10030    2    1    2    0    0  0.00000000000E+00  0.00000000000E+00 -0.70211311031E+03  0.24093083834E+04  0.23047351403E+04 0.  0.
        3    1    3    3  502    0 -0.11017719095E+04 -0.23115483845E+03 -0.93680008492E+02  0.11296503238E+04  0.10100000352E+00 0.  1.
       -3    1    3    3    0  502  0.11017719095E+04  0.23115483845E+03 -0.60843310182E+03  0.12796580596E+04  0.10100000352E+00 0. -1.
</event>
<event>
 5   0  0.1828646E-06  0.2298960E+04  0.7818609E-02  0.8478331E-01
       -2   -1    0    0    0  501  0.00000000000E+00  0.00000000000E+00  0.83383803689E+03  0.83383803689E+03  0.25500000920E-02 0. -1.
        2   -1    0    0  501    0  0.00000000000E+00  0.00000000000E+00 -0.15846049572E+04  0.15846049572E+04  0.25500000920E-02 0.  1.
    10030    2    1    2    0    0  0.00000000000E+00  0.00000000000E+00 -0.75076692026E+03  0.24184429940E+04  0.22989596662E+04 0.  0.
        3    1    3    3  502    0 -0.50512277342E+03  0.50385687687E+03  0.57272541929E+03  0.91489626991E+03  0.10100000352E+00 0. -1.
       -3    1    3    3    0  502  0.50512277342E+03 -0.50385687687E+03 -0.13234923396E+04  0.15035467241E+04  0.10100000352E+00 0.  1.
</event>
<event>
 5   0  0.7761069E-07  0.2298873E+04  0.7818609E-02  0.8478366E-01
        1   -1    0    0  501    0  0.00000000000E+00  0.00000000000E+00  0.14051648142E+04  0.14051648142E+04  0.50400001928E-02 0.  1.
       -1   -1    0    0    0  501  0.00000000000E+00  0.00000000000E+00 -0.94024881370E+03  0.94024881371E+03  0.50400001928E-02 0. -1.
    10030    2    1    2    0    0  0.00000000000E+00  0.00000000000E+00  0.46491600051E+03  0.23454136279E+04  0.22988732454E+04 0.  0.
        1    1    3    3  502    0 -0.15011019994E+03 -0.69182282161E+03 -0.69144268545E+03  0.98956802490E+03  0.50400001928E-02 0. -1.
       -1    1    3    3    0  502  0.15011019994E+03  0.69182282161E+03  0.11563586860E+04  0.13558456030E+04  0.50400001928E-02 0.  1.
</event>
<event>
 5   0  0.1689444E-06  0.2300639E+04  0.7818609E-02  0.8477669E-01
       -2   -1    0    0    0  501  0.00000000000E+00  0.00000000000E+00  0.15390135354E+04  0.15390135354E+04  0.25500000920E-02 0. -1.
        2   -1    0    0  501    0  0.00000000000E+00  0.00000000000E+00 -0.85979398827E+03  0.85979398827E+03  0.25500000920E-02 0.  1.
    10030    2    1    2    0    0  0.00000000000E+00  0.00000000000E+00  0.67921954718E+03  0.23988075237E+04  0.23006386814E+04 0.  0.
        2    1    3    3  502    0 -0.20767387220E+03  0.83507104951E+03  0.11355725904E+04  0.14247797033E+04  0.25500000920E-02 0. -1.
       -2    1    3    3    0  502  0.20767387220E+03 -0.83507104951E+03 -0.45635304319E+03  0.97402782042E+03  0.25500000920E-02 0.  1.
</event>
<event>
 5   0  0.8108242E-07  0.2300110E+04  0.7818609E-02  0.8477878E-01
       -1   -1    0    0    0  501  0.00000000000E+00  0.00000000000E+00  0.21035867181E+04  0.21035867181E+04  0.50400001928E-02 0.  1.
        1   -1    0    0  501    0  0.00000000000E+00  0.00000000000E+00 -0.62874826507E+03  0.62874826509E+03  0.50400001928E-02 0. -1.
    10030    2    1    2    0    0  0.00000000000E+00  0.00000000000E+00  0.14748384530E+04  0.27323349832E+04  0.23001099969E+04 0.  0.
        4    1    3    3  502    0  0.97259198363E+03  0.40700232552E+03  0.12831350155E+04  0.16607297012E+04  0.12699999809E+01 0.  1.
       -4    1    3    3    0  502 -0.97259198363E+03 -0.40700232552E+03  0.19170343759E+03  0.10716052820E+04  0.12699999809E+01 0. -1.
</event>
<event>
 5   0  0.7761069E-07  0.2301277E+04  0.7818609E-02  0.8477418E-01
        1   -1    0    0  501    0  0.00000000000E+00  0.00000000000E+00  0.11905738401E+04  0.11905738401E+04  0.50400001928E-02 0.  1.
       -1   -1    0    0    0  501  0.00000000000E+00  0.00000000000E+00 -0.11120428669E+04  0.11120428669E+04  0.50400001928E-02 0. -1.
    10030    2    1    2    0    0  0.00000000000E+00  0.00000000000E+00  0.78530973234E+02  0.23026167070E+04  0.23012771641E+04 0.  0.
        1    1    3    3  502    0  0.62774083620E+02  0.67035468664E+03 -0.89436561896E+03  0.11194667712E+04  0.50400001928E-02 0. -1.
       -1    1    3    3    0  502 -0.62774083620E+02 -0.67035468664E+03  0.97289659220E+03  0.11831499358E+04  0.50400001928E-02 0.  1.
</event>
<event>
 5   0  0.7607231E-07  0.2299126E+04  0.7818609E-02  0.8478266E-01
        1   -1    0    0  501    0  0.00000000000E+00  0.00000000000E+00  0.12247985099E+04  0.12247985099E+04  0.50400001928E-02 0. -1.
       -1   -1    0    0    0  501  0.00000000000E+00  0.00000000000E+00 -0.10789493711E+04  0.10789493711E+04  0.50400001928E-02 0.  1.
    10030    2    1    2    0    0  0.00000000000E+00  0.00000000000E+00  0.14584913880E+03  0.23037478811E+04  0.22991264272E+04 0.  0.
        2    1    3    3  502    0 -0.27355144225E+03  0.77163365299E+02 -0.10431864928E+04  0.10812135013E+04  0.25500000920E-02 0.  1.
       -2    1    3    3    0  502  0.27355144225E+03 -0.77163365299E+02  0.11890356316E+04  0.12225343798E+04  0.25500000920E-02 0. -1.
</event>
<event>
 5   0  0.8097672E-07  0.2300401E+04  0.7818609E-02  0.8477763E-01
       -1   -1    0    0    0  501  0.00000000000E+00  0.00000000000E+00  0.73578782810E+03  0.73578782812E+03  0.50400001928E-02 0. -1.
        1   -1    0    0  501    0  0.00000000000E+00  0.00000000000E+00 -0.17980201807E+04  0.17980201807E+04  0.50400001928E-02 0.  1.
    10030    2    1    2    0    0  0.00000000000E+00  0.00000000000E+00 -0.10622323525E+04  0.25338080088E+04  0.23004011508E+04 0.  0.
        3    1    3    3  502    0 -0.41879567776E+03 -0.34375616663E+03  0.58642334831E+03  0.79840495705E+03  0.10100000352E+00 0. -1.
       -3    1    3    3    0  502  0.41879567776E+03  0.34375616663E+03 -0.16486557009E+04  0.17354030517E+04  0.10100000352E+00 0.  1.
</event>
<event>
 5   0  0.1888779E-06  0.2299877E+04  0.7818609E-02  0.8477970E-01
        2   -1    0    0  501    0  0.00000000000E+00  0.00000000000E+00  0.14242856807E+04  0.14242856807E+04  0.25500000920E-02 0. -1.
       -2   -1    0    0    0  501  0.00000000000E+00  0.00000000000E+00 -0.92843632678E+03  0.92843632678E+03  0.25500000920E-02 0.  1.
    10030    2    1    2    0    0  0.00000000000E+00  0.00000000000E+00  0.49584935390E+03  0.23527220075E+04  0.22998770103E+04 0.  0.
        4    1    3    3  502    0 -0.73434264736E+03  0.61710176127E+03  0.89675625040E+03  0.13131058956E+04  0.12699999809E+01 0.  1.
       -4    1    3    3    0  502  0.73434264736E+03 -0.61710176127E+03 -0.40090689650E+03  0.10396161119E+04  0.12699999809E+01 0. -1.
</event>
<event>
 5   0  0.1888779E-06  0.2300337E+04  0.7818609E-02  0.8477788E-01
       -2   -1    0    0    0  501  0.00000000000E+00  0.00000000000E+00  0.63447633972E+03  0.63447633973E+03  0.25500000920E-02 0.  1.
        2   -1    0    0  501    0  0.00000000000E+00  0.00000000000E+00 -0.20850071417E+04  0.20850071417E+04  0.25500000920E-02 0. -1.
    10030    2    1    2    0    0  0.00000000000E+00  0.00000000000E+00 -0.14505308019E+04  0.27194834814E+04  0.23003371053E+04 0.  0.
        4    1    3    3  502    0  0.73532563690E+03 -0.84531178937E+02  0.31550778594E+03  0.80460927684E+03  0.12699999809E+01 0.  1.
       -4    1    3    3    0  502 -0.73532563690E+03  0.84531178937E+02 -0.17660385879E+04  0.19148742046E+04  0.12699999809E+01 0. -1.
</event>
<event>
 5   0  0.7607231E-07  0.2300847E+04  0.7818609E-02  0.8477587E-01
       -1   -1    0    0    0  501  0.00000000000E+00  0.00000000000E+00  0.12916916236E+04  0.12916916237E+04  0.50400001928E-02 0. -1.
        1   -1    0    0  501    0  0.00000000000E+00  0.00000000000E+00 -0.10246057318E+04  0.10246057318E+04  0.50400001928E-02 0.  1.
    10030    2    1    2    0    0  0.00000000000E+00  0.00000000000E+00  0.26708589188E+03  0.23162973554E+04  0.23008473581E+04 0.  0.
        2    1    3    3  502    0  0.27667787292E+03 -0.10120686085E+04  0.60855999783E+03  0.12129215905E+04  0.25500000920E-02 0. -1.
       -2    1    3    3    0  502 -0.27667787292E+03  0.10120686085E+04 -0.34147410595E+03  0.11033757650E+04  0.25500000920E-02 0.  1.
</event>
<event>
 5   0  0.1888779E-06  0.2317281E+04  0.7818609E-02  0.8471139E-01
       -2   -1    0    0    0  501  0.00000000000E+00  0.00000000000E+00  0.13102337024E+04  0.13102337024E+04  0.25500000920E-02 0. -1.
        2   -1    0    0  501    0  0.00000000000E+00  0.00000000000E+00 -0.10245863348E+04  0.10245863348E+04  0.25500000920E-02 0.  1.
    10030    2    1    2    0    0  0.00000000000E+00  0.00000000000E+00  0.28564736763E+03  0.23348200371E+04  0.23172807744E+04 0.  0.
        4    1    3    3  502    0  0.32103506081E+03  0.10329956822E+04 -0.27541128958E+03  0.11162421695E+04  0.12699999809E+01 0.  1.
       -4    1    3    3    0  502 -0.32103506081E+03 -0.10329956822E+04  0.56105865721E+03  0.12185778676E+04  0.12699999809E+01 0. -1.
</event>
<event>
 5   0  0.1744876E-06  0.2291729E+04  0.7818609E-02  0.8481190E-01
       -2   -1    0    0    0  501  0.00000000000E+00  0.00000000000E+00  0.99203299510E+03  0.99203299510E+03  0.25500000920E-02 0. -1.
        2   -1    0    0  501    0  0.00000000000E+00  0.00000000000E+00 -0.13235496925E+04  0.13235496925E+04  0.25500000920E-02 0.  1.
    10030    2    1    2    0    0  0.00000000000E+00  0.00000000000E+00 -0.33151669742E+03  0.23155826876E+04  0.22917285752E+04 0.  0.
        1    1    3    3  502    0  0.79275535495E+03 -0.34312680291E+03 -0.92646123685E+03  0.12666994431E+04  0.50400001928E-02 0.  1.
       -1    1    3    3    0  502 -0.79275535495E+03  0.34312680291E+03  0.59494453942E+03  0.10488832445E+04  0.50400001928E-02 0. -1.
</event>
<event>
 5   0  0.1888779E-06  0.2300183E+04  0.7818609E-02  0.8477849E-01
       -2   -1    0    0    0  501  0.00000000000E+00  0.00000000000E+00  0.19084468305E+04  0.19084468305E+04  0.25500000920E-02 0. -1.
        2   -1    0    0  501    0  0.00000000000E+00  0.00000000000E+00 -0.69308235016E+03  0.69308235016E+03  0.25500000920E-02 0.  1.
    10030    2    1    2    0    0  0.00000000000E+00  0.00000000000E+00  0.12153644804E+04  0.26015291807E+04  0.23001833096E+04 0.  0.
        4    1    3    3  502    0  0.59733317876E+03 -0.95682304706E+03  0.35379156101E+03  0.11821536919E+04  0.12699999809E+01 0.  1.
       -4    1    3    3    0  502 -0.59733317876E+03  0.95682304706E+03  0.86157291938E+03  0.14193754888E+04  0.12699999809E+01 0. -1.
</event>
<event>
 5   0  0.8097672E-07  0.2299543E+04  0.7818609E-02  0.8478101E-01
        1   -1    0    0  501    0  0.00000000000E+00  0.00000000000E+00  0.79054787767E+03  0.79054787769E+03  0.50400001928E-02 0.  1.
       -1   -1    0    0    0  501  0.00000000000E+00  0.00000000000E+00 -0.16722257244E+04  0.16722257244E+04  0.50400001928E-02 0. -1.
    10030    2    1    2    0    0  0.00000000000E+00  0.00000000000E+00 -0.88167784671E+03  0.24627736021E+04  0.22995429958E+04 0.  0.
        3    1    3    3  502    0  0.32542220637E+03 -0.93199640384E+03  0.19045825711E+03  0.10053811551E+04  0.10100000352E+00 0.  1.
       -3    1    3    3    0  502 -0.32542220637E+03  0.93199640384E+03 -0.10721361038E+04  0.14573924470E+04  0.10100000352E+00 0. -1.
</event>
<event>
 5   0  0.1825521E-06  0.2300744E+04  0.7818609E-02  0.8477628E-01
        2   -1    0    0  501    0  0.00000000000E+00  0.00000000000E+00  0.10609482843E+04  0.10609482843E+04  0.25500000920E-02 0.  1.
       -2   -1    0    0    0  501  0.00000000000E+00  0.00000000000E+00 -0.12473330186E+04  0.12473330186E+04  0.25500000920E-02 0. -1.
    10030    2    1    2    0    0  0.00000000000E+00  0.00000000000E+00 -0.18638473435E+03  0.23082813029E+04  0.23007440762E+04 0.  0.
        5    1    3    3  502    0 -0.34247366713E+03 -0.50204612402E+03 -0.10731189046E+04  0.12332659067E+04  0.46999998093E+01 0. -1.
       -5    1    3    3    0  502  0.34247366713E+03  0.50204612402E+03  0.88673417025E+03  0.10750153962E+04  0.46999998093E+01 0.  1.
</event>
<event>
 5   0  0.8097672E-07  0.2300191E+04  0.7818609E-02  0.8477846E-01
        1   -1    0    0  501    0  0.00000000000E+00  0.00000000000E+00  0.15468948453E+04  0.15468948453E+04  0.50400001928E-02 0. -1.
       -1   -1    0    0    0  501  0.00000000000E+00  0.00000000000E+00 -0.85508059989E+03  0.85508059991E+03  0.50400001928E-02 0.  1.
    10030    2    1    2    0    0  0.00000000000E+00  0.00000000000E+00  0.69181424540E+03  0.24019754452E+04  0.23001910984E+04 0.  0.
        3    1    3    3  502    0 -0.37948305489E+03 -0.32676285594E+03 -0.73525186082E+03  0.88959353752E+03  0.10100000352E+00 0.  1.
       -3    1    3    3    0  502  0.37948305489E+03  0.32676285594E+03  0.14270661062E+04  0.15123819077E+04  0.10100000352E+00 0. -1.
</event>
<event>
 5   0  0.8097672E-07  0.2301446E+04  0.7818609E-02  0.8477351E-01
        1   -1    0    0  501    0  0.00000000000E+00  0.00000000000E+00  0.13913671400E+04  0.13913671400E+04  0.50400001928E-02 0.  1.
       -1   -1    0    0    0  501  0.00000000000E+00  0.00000000000E+00 -0.95169969629E+03  0.95169969630E+03  0.50400001928E-02 0. -1.
    10030    2    1    2    0    0  0.00000000000E+00  0.00000000000E+00  0.43966744370E+03  0.23430668363E+04  0.23014462276E+04 0.  0.
        3    1    3    3  502    0  0.74090405819E+02  0.47114021968E+03  0.12860075074E+04  0.13715968118E+04  0.10100000352E+00 0.  1.
       -3    1    3    3    0  502 -0.74090405819E+02 -0.47114021968E+03 -0.84634006372E+03  0.97147002449E+03  0.10100000352E+00 0. -1.
</event>
<event>
 5   0  0.1828646E-06  0.2300661E+04  0.7818609E-02  0.8477661E-01
        2   -1    0    0  501    0  0.00000000000E+00  0.00000000000E+00  0.17587366541E+04  0.17587366541E+04  0.25500000920E-02 0. -1.
       -2   -1    0    0    0  501  0.00000000000E+00  0.00000000000E+00 -0.75239219888E+03  0.75239219888E+03  0.25500000920E-02 0.  1.
    10030    2    1    2    0    0  0.00000000000E+00  0.00000000000E+00  0.10063444553E+04  0.25111288530E+04  0.23006605473E+04 0.  0.
        3    1    3    3  502    0 -0.87173462116E+03  0.56437694378E+03 -0.36881995512E+02  0.10391356390E+04  0.10100000352E+00 0.  1.
       -3    1    3    3    0  502  0.87173462116E+03 -0.56437694378E+03  0.10432264508E+04  0.14719932140E+04  0.10100000352E+00 0. -1.
</event>
<event>
 5   0  0.7761069E-07  0.2300136E+04  0.7818609E-02  0.8477868E-01
        1   -1    0    0  501    0  0.00000000000E+00  0.00000000000E+00  0.10583713739E+04  0.10583713740E+04  0.50400001928E-02 0.  1.
       -1   -1    0    0    0  501  0.00000000000E+00  0.00000000000E+00 -0.12497088767E+04  0.12497088767E+04  0.50400001928E-02 0. -1.
    10030    2    1    2    0    0  0.00000000000E+00  0.00000000000E+00 -0.19133750278E+03  0.23080802507E+04  0.23001357359E+04 0.  0.
        1    1    3    3  502    0 -0.48663160010E+03 -0.10417923554E+04 -0.72908371465E+02  0.11521533130E+04  0.50400001928E-02 0.  1.
       -1    1    3    3    0  502  0.48663160010E+03  0.10417923554E+04 -0.11842913131E+03  0.11559269377E+04  0.50400001928E-02 0. -1.
</event>
<event>
 5   0  0.8108242E-07  0.2300509E+04  0.7818609E-02  0.8477720E-01
        1   -1    0    0  501    0  0.00000000000E+00  0.00000000000E+00  0.15715350685E+04  0.15715350685E+04  0.50400001928E-02 0. -1.
       -1   -1    0    0    0  501  0.00000000000E+00  0.00000000000E+00 -0.84190656522E+03  0.84190656524E+03  0.50400001928E-02 0.  1.
    10030    2    1    2    0    0  0.00000000000E+00  0.00000000000E+00  0.72962850324E+03  0.24134416337E+04  0.23005092407E+04 0.  0.
        4    1    3    3  502    0 -0.60587797594E+03 -0.95289559723E+03  0.59462472198E+03  0.12761968163E+04  0.12699999809E+01 0. -1.
       -4    1    3    3    0  502  0.60587797594E+03  0.95289559723E+03  0.13500378127E+03  0.11372448174E+04  0.12699999809E+01 0.  1.
</event>
<event>
 5   0  0.7932912E-07  0.2300705E+04  0.7818609E-02  0.8477643E-01
       -1   -1    0    0    0  501  0.00000000000E+00  0.00000000000E+00  0.11052951463E+04  0.11052951463E+04  0.50400001928E-02 0.  1.
        1   -1    0    0  501    0  0.00000000000E+00  0.00000000000E+00 -0.11972466569E+04  0.11972466569E+04  0.50400001928E-02 0. -1.
    10030    2    1    2    0    0  0.00000000000E+00  0.00000000000E+00 -0.91951510566E+02  0.23025418032E+04  0.23007050387E+04 0.  0.
        5    1    3    3  502    0  0.91957468334E+03 -0.39587415870E+03  0.52100533200E+03  0.11286286341E+04  0.46999998093E+01 0.  1.
       -5    1    3    3    0  502 -0.91957468334E+03  0.39587415870E+03 -0.61295684256E+03  0.11739131691E+04  0.46999998093E+01 0. -1.
</event>
<event>
 5   0  0.8108242E-07  0.2295969E+04  0.7818609E-02  0.8479512E-01
       -1   -1    0    0    0  501  0.00000000000E+00  0.00000000000E+00  0.59660184578E+03  0.59660184580E+03  0.50400001928E-02 0.  1.
        1   -1    0    0  501    0  0.00000000000E+00  0.00000000000E+00 -0.22089586665E+04  0.22089586665E+04  0.50400001928E-02 0. -1.
    10030    2    1    2    0    0  0.00000000000E+00  0.00000000000E+00 -0.16123568207E+04  0.28055605123E+04  0.22959693532E+04 0.  0.
        4    1    3    3  502    0 -0.58953563904E+03 -0.29967353826E+03  0.34044518335E+03  0.74381518874E+03  0.12699999809E+01 0.  1.
       -4    1    3    3    0  502  0.58953563904E+03  0.29967353826E+03 -0.19528020040E+04  0.20617453235E+04  0.12699999809E+01 0. -1.
</event>
<event>
 5   0  0.7761069E-07  0.2302543E+04  0.7818609E-02  0.8476919E-01
       -1   -1    0    0    0  501  0.00000000000E+00  0.00000000000E+00  0.85274204959E+03  0.85274204960E+03  0.50400001928E-02 0.  1.
        1   -1    0    0  501    0  0.00000000000E+00  0.00000000000E+00 -0.15543101940E+04  0.15543101940E+04  0.50400001928E-02 0. -1.
    10030    2    1    2    0    0  0.00000000000E+00  0.00000000000E+00 -0.70156814436E+03  0.24070522436E+04  0.23025426472E+04 0.  0.
        1    1    3    3  502    0  0.10337360659E+04  0.17262532028E+03 -0.84887195497E+03  0.13487006159E+04  0.50400001928E-02 0. -1.
       -1    1    3    3    0  502 -0.10337360659E+04 -0.17262532028E+03  0.14730381061E+03  0.10583516277E+04  0.50400001928E-02 0.  1.
</event>
<event>
 5   0  0.1888779E-06  0.2300540E+04  0.7818609E-02  0.8477708E-01
       -2   -1    0    0    0  501  0.00000000000E+00  0.00000000000E+00  0.60553150739E+03  0.60553150740E+03  0.25500000920E-02 0.  1.
        2   -1    0    0  501    0  0.00000000000E+00  0.00000000000E+00 -0.21850565654E+04  0.21850565654E+04  0.25500000920E-02 0. -1.
    10030    2    1    2    0    0  0.00000000000E+00  0.00000000000E+00 -0.15795250580E+04  0.27905880728E+04  0.23005395852E+04 0.  0.
        4    1    3    3  502    0 -0.61562109608E+01 -0.55790949033E+03 -0.20099238165E+04  0.20859281530E+04  0.12699999809E+01 0. -1.
       -4    1    3    3    0  502  0.61562109608E+01  0.55790949033E+03  0.43039875852E+03  0.70465991980E+03  0.12699999809E+01 0.  1.
</event>
<event>
 5   0  0.8108242E-07  0.2299734E+04  0.7818609E-02  0.8478026E-01
        1   -1    0    0  501    0  0.00000000000E+00  0.00000000000E+00  0.16282191407E+04  0.16282191407E+04  0.50400001928E-02 0. -1.
       -1   -1    0    0    0  501  0.00000000000E+00  0.00000000000E+00 -0.81204930492E+03  0.81204930493E+03  0.50400001928E-02 0.  1.
    10030    2    1    2    0    0  0.00000000000E+00  0.00000000000E+00  0.81616983575E+03  0.24402684456E+04  0.22997340902E+04 0.  0.
        4    1    3    3  502    0 -0.40400689982E+03 -0.95108017027E+03  0.94330636556E+03  0.13991438731E+04  0.12699999809E+01 0. -1.
       -4    1    3    3    0  502  0.40400689982E+03  0.95108017027E+03 -0.12713652981E+03  0.10411245725E+04  0.12699999809E+01 0.  1.
</event>
<event>
 5   0  0.8108242E-07  0.2299609E+04  0.7818609E-02  0.8478075E-01
        1   -1    0    0  501    0  0.00000000000E+00  0.00000000000E+00  0.20772431057E+04  0.20772431057E+04  0.50400001928E-02 0. -1.
       -1   -1    0    0    0  501  0.00000000000E+00  0.00000000000E+00 -0.63644455784E+03  0.63644455786E+03  0.50400001928E-02 0.  1.
    10030    2    1    2    0    0  0.00000000000E+00  0.00000000000E+00  0.14407985479E+04  0.27136876636E+04  0.22996087232E+04 0.  0.
        4    1    3    3  502    0 -0.84456576154E+03 -0.46757248195E+03 -0.16676802569E+02  0.96550250134E+03  0.12699999809E+01 0.  1.
       -4    1    3    3    0  502  0.84456576154E+03  0.46757248195E+03  0.14574753505E+04  0.17481851623E+04  0.12699999809E+01 0. -1.
</event>
<event>
 5   0  0.8097672E-07  0.2300035E+04  0.7818609E-02  0.8477907E-01
        1   -1    0    0  501    0  0.00000000000E+00  0.00000000000E+00  0.73055766470E+03  0.73055766471E+03  0.50400001928E-02 0.  1.
       -1   -1    0    0    0  501  0.00000000000E+00  0.00000000000E+00 -0.18103153423E+04  0.18103153423E+04  0.50400001928E-02 0. -1.
    10030    2    1    2    0    0  0.00000000000E+00  0.00000000000E+00 -0.10797576776E+04  0.25408730070E+04  0.23000345640E+04 0.  0.
        3    1    3    3  502    0 -0.10871463604E+04 -0.11550157929E+03 -0.14570924273E+03  0.11029320094E+04  0.10100000352E+00 0.  1.
       -3    1    3    3    0  502  0.10871463604E+04  0.11550157929E+03 -0.93404843488E+03  0.14379409976E+04  0.10100000352E+00 0. -1.
</event>
<event>
 5   0  0.8097672E-07  0.2300155E+04  0.7818609E-02  0.8477860E-01
        1   -1    0    0  501    0  0.00000000000E+00  0.00000000000E+00  0.11712526486E+04  0.11712526487E+04  0.50400001928E-02 0.  1.
       -1   -1    0    0    0  501  0.00000000000E+00  0.00000000000E+00 -0.11292853481E+04  0.11292853481E+04  0.50400001928E-02 0. -1.
    10030    2    1    2    0    0  0.00000000000E+00  0.00000000000E+00  0.41967300557E+02  0.23005379968E+04  0.23001551731E+04 0.  0.
        3    1    3    3  502    0  0.95412554696E+02 -0.11424186566E+04  0.11294732101E+03  0.11519466351E+04  0.10100000352E+00 0.  1.
       -3    1    3    3    0  502 -0.95412554696E+02  0.11424186566E+04 -0.70980020448E+02  0.11485913617E+04  0.10100000352E+00 0. -1.
</event>
<event>
 5   0  0.1888779E-06  0.2299180E+04  0.7818609E-02  0.8478244E-01
       -2   -1    0    0    0  501  0.00000000000E+00  0.00000000000E+00  0.12128727823E+04  0.12128727823E+04  0.25500000920E-02 0.  1.
        2   -1    0    0  501    0  0.00000000000E+00  0.00000000000E+00 -0.10896093124E+04  0.10896093124E+04  0.25500000920E-02 0. -1.
    10030    2    1    2    0    0  0.00000000000E+00  0.00000000000E+00  0.12326346991E+03  0.23024820948E+04  0.22991802700E+04 0.  0.
        4    1    3    3  502    0  0.10049489900E+04 -0.30796130006E+03 -0.40464752253E+03  0.11262787689E+04  0.12699999809E+01 0.  1.
       -4    1    3    3    0  502 -0.10049489900E+04  0.30796130006E+03  0.52791099244E+03  0.11762033259E+04  0.12699999809E+01 0. -1.
</event>
<event>
 5   0  0.7607231E-07  0.2299961E+04  0.7818609E-02  0.8477937E-01
       -1   -1    0    0    0  501  0.00000000000E+00  0.00000000000E+00  0.69852221572E+03  0.69852221574E+03  0.50400001928E-02 0. -1.
        1   -1    0    0  501    0  0.00000000000E+00  0.00000000000E+00 -0.18932183317E+04  0.18932183317E+04  0.50400001928E-02 0.  1.
    10030    2    1    2    0    0  0.00000000000E+00  0.00000000000E+00 -0.11946961160E+04  0.25917405475E+04  0.22999609248E+04 0.  0.
        2    1    3    3  502    0 -0.76605713214E+03  0.16285925741E+03 -0.15462498241E+04  0.17332787387E+04  0.25500000920E-02 0.  1.
       -2    1    3    3    0  502  0.76605713214E+03 -0.16285925741E+03  0.35155370812E+03  0.85846180877E+03  0.25500000920E-02 0. -1.
</event>
<event>
 5   0  0.8108242E-07  0.2300814E+04  0.7818609E-02  0.8477600E-01
       -1   -1    0    0    0  501  0.00000000000E+00  0.00000000000E+00  0.16824656940E+04  0.16824656940E+04  0.50400001928E-02 0. -1.
        1   -1    0    0  501    0  0.00000000000E+00  0.00000000000E+00 -0.78660547518E+03  0.78660547519E+03  0.50400001928E-02 0.  1.
    10030    2    1    2    0    0  0.00000000000E+00  0.00000000000E+00  0.89586021881E+03  0.24690711692E+04  0.23008144008E+04 0.  0.
        4    1    3    3  502    0  0.18175143779E+03  0.80509291201E+03 -0.41206558755E+03  0.92250086366E+03  0.12699999809E+01 0.  1.
       -4    1    3    3    0  502 -0.18175143779E+03 -0.80509291201E+03  0.13079258064E+04  0.15465703055E+04  0.12699999809E+01 0. -1.
</event>
<event>
 5   0  0.1888779E-06  0.2293901E+04  0.7818609E-02  0.8480330E-01
       -2   -1    0    0    0  501  0.00000000000E+00  0.00000000000E+00  0.11678235480E+04  0.11678235480E+04  0.25500000920E-02 0.  1.
        2   -1    0    0  501    0  0.00000000000E+00  0.00000000000E+00 -0.11264508345E+04  0.11264508345E+04  0.25500000920E-02 0. -1.
    10030    2    1    2    0    0  0.00000000000E+00  0.00000000000E+00  0.41372713419E+02  0.22942743825E+04  0.22939013145E+04 0.  0.
        4    1    3    3  502    0  0.92736629874E+03  0.55304359719E+03 -0.36619527694E+03  0.11401605440E+04  0.12699999809E+01 0. -1.
       -4    1    3    3    0  502 -0.92736629874E+03 -0.55304359719E+03  0.40756799035E+03  0.11541138384E+04  0.12699999809E+01 0.  1.
</event>
<event>
 5   0  0.1825521E-06  0.2299128E+04  0.7818609E-02  0.8478265E-01
        2   -1    0    0  501    0  0.00000000000E+00  0.00000000000E+00  0.21800551279E+04  0.21800551279E+04  0.25500000920E-02 0.  1.
       -2   -1    0    0    0  501  0.00000000000E+00  0.00000000000E+00 -0.60617629261E+03  0.60617629262E+03  0.25500000920E-02 0. -1.
    10030    2    1    2    0    0  0.00000000000E+00  0.00000000000E+00  0.15738788353E+04  0.27862314206E+04  0.22991283002E+04 0.  0.
        5    1    3    3  502    0 -0.10207655957E+04  0.52194462903E+03  0.88895973421E+03  0.14507446695E+04  0.46999998093E+01 0. -1.
       -5    1    3    3    0  502  0.10207655957E+04 -0.52194462903E+03  0.68491910113E+03  0.13354867510E+04  0.46999998093E+01 0.  1.
</event>
<event>
 5   0  0.8108242E-07  0.2299843E+04  0.7818609E-02  0.8477983E-01
       -1   -1    0    0    0  501  0.00000000000E+00  0.00000000000E+00  0.78907552368E+03  0.78907552369E+03  0.50400001928E-02 0. -1.
        1   -1    0    0  501    0  0.00000000000E+00  0.00000000000E+00 -0.16757835005E+04  0.16757835005E+04  0.50400001928E-02 0.  1.
    10030    2    1    2    0    0  0.00000000000E+00  0.00000000000E+00 -0.88670797680E+03  0.24648590242E+04  0.22998432497E+04 0.  0.
        4    1    3    3  502    0 -0.39716895668E+03  0.53654514044E+03 -0.14468552677E+04  0.15934288960E+04  0.12699999809E+01 0.  1.
       -4    1    3    3    0  502  0.39716895668E+03 -0.53654514044E+03  0.56014729094E+03  0.87143012819E+03  0.12699999809E+01 0. -1.
</event>
<event>
 5   0  0.1888779E-06  0.2300028E+04  0.7818609E-02  0.8477910E-01
       -2   -1    0    0    0  501  0.00000000000E+00  0.00000000000E+00  0.10651950717E+04  0.10651950717E+04  0.25500000920E-02 0. -1.
        2   -1    0    0  501    0  0.00000000000E+00  0.00000000000E+00 -0.12415864788E+04  0.12415864788E+04  0.25500000920E-02 0.  1.
    10030    2    1    2    0    0  0.00000000000E+00  0.00000000000E+00 -0.17639140716E+03  0.23067815505E+04  0.23000276506E+04 0.  0.
        4    1    3    3  502    0 -0.27066436227E+03 -0.11544832694E+03  0.10267984129E+04  0.10681311281E+04  0.12699999809E+01 0. -1.
       -4    1    3    3    0  502  0.27066436227E+03  0.11544832694E+03 -0.12031898200E+04  0.12386504225E+04  0.12699999809E+01 0.  1.
</event>
<event>
 5   0  0.1828646E-06  0.2306034E+04  0.7818609E-02  0.8475546E-01
        2   -1    0    0  501    0  0.00000000000E+00  0.00000000000E+00  0.19495387460E+04  0.19495387460E+04  0.25500000920E-02 0.  1.
       -2   -1    0    0    0  501  0.00000000000E+00  0.00000000000E+00 -0.68192986337E+03  0.68192986337E+03  0.25500000920E-02 0. -1.
    10030    2    1    2    0    0  0.00000000000E+00  0.00000000000E+00  0.12676088827E+04  0.26314686094E+04  0.23060344236E+04 0.  0.
        3    1    3    3  502    0 -0.85560445829E+03 -0.25780349327E+03  0.14652806635E+04  0.17162660235E+04  0.10100000352E+00 0.  1.
       -3    1    3    3    0  502  0.85560445829E+03  0.25780349327E+03 -0.19767178084E+03  0.91520258596E+03  0.10100000352E+00 0. -1.
</event>
<event>
 5   0  0.7932912E-07  0.2300591E+04  0.7818609E-02  0.8477688E-01
        1   -1    0    0  501    0  0.00000000000E+00  0.00000000000E+00  0.16469863528E+04  0.16469863528E+04  0.50400001928E-02 0. -1.
       -1   -1    0    0    0  501  0.00000000000E+00  0.00000000000E+00 -0.80339451343E+03  0.80339451345E+03  0.50400001928E-02 0.  1.
    10030    2    1    2    0    0  0.00000000000E+00  0.00000000000E+00  0.84359183934E+03  0.24503808662E+04  0.23005910541E+04 0.  0.
        5    1    3    3  502    0  0.10143957172E+04  0.46737799065E+03  0.71487879380E+03  0.13260899807E+04  0.46999998093E+01 0. -1.
       -5    1    3    3    0  502 -0.10143957172E+04 -0.46737799065E+03  0.12871304554E+03  0.11242908855E+04  0.46999998093E+01 0.  1.
</event>
<event>
 5   0  0.1689444E-06  0.2300423E+04  0.7818609E-02  0.8477754E-01
        2   -1    0    0  501    0  0.00000000000E+00  0.00000000000E+00  0.12557123521E+04  0.12557123521E+04  0.25500000920E-02 0.  1.
       -2   -1    0    0    0  501  0.00000000000E+00  0.00000000000E+00 -0.10535747200E+04  0.10535747200E+04  0.25500000920E-02 0. -1.
    10030    2    1    2    0    0  0.00000000000E+00  0.00000000000E+00  0.20213763213E+03  0.23092870721E+04  0.23004232565E+04 0.  0.
        2    1    3    3  502    0  0.21007107530E+03 -0.38673717627E+03  0.11678446379E+04  0.12480210729E+04  0.25500000920E-02 0.  1.
       -2    1    3    3    0  502 -0.21007107530E+03  0.38673717627E+03 -0.96570700575E+03  0.10612659992E+04  0.25500000920E-02 0. -1.
</event>
<event>
 5   0  0.7932912E-07  0.2300364E+04  0.7818609E-02  0.8477778E-01
       -1   -1    0    0    0  501  0.00000000000E+00  0.00000000000E+00  0.12954002821E+04  0.12954002821E+04  0.50400001928E-02 0.  1.
        1   -1    0    0  501    0  0.00000000000E+00  0.00000000000E+00 -0.10212432373E+04  0.10212432373E+04  0.50400001928E-02 0. -1.
    10030    2    1    2    0    0  0.00000000000E+00  0.00000000000E+00  0.27415704487E+03  0.23166435194E+04  0.23003641257E+04 0.  0.
        5    1    3    3  502    0  0.10634254124E+04  0.40002702435E+03  0.31723402012E+03  0.11796417852E+04  0.46999998093E+01 0. -1.
       -5    1    3    3    0  502 -0.10634254124E+04 -0.40002702435E+03 -0.43076975248E+02  0.11370017342E+04  0.46999998093E+01 0.  1.
</event>
<event>
 5   0  0.1689444E-06  0.2301169E+04  0.7818609E-02  0.8477460E-01
       -2   -1    0    0    0  501  0.00000000000E+00  0.00000000000E+00  0.57867439716E+03  0.57867439716E+03  0.25500000920E-02 0. -1.
        2   -1    0    0  501    0  0.00000000000E+00  0.00000000000E+00 -0.22877190538E+04  0.22877190538E+04  0.25500000920E-02 0.  1.
    10030    2    1    2    0    0  0.00000000000E+00  0.00000000000E+00 -0.17090446567E+04  0.28663934510E+04  0.23011687851E+04 0.  0.
        2    1    3    3  502    0 -0.37170670532E+03 -0.89875703845E+02  0.49719660876E+03  0.62725432217E+03  0.25500000920E-02 0. -1.
       -2    1    3    3    0  502  0.37170670532E+03  0.89875703845E+02 -0.22062412654E+04  0.22391391288E+04  0.25500000920E-02 0.  1.
</event>
<event>
 5   0  0.8097672E-07  0.2300628E+04  0.7818609E-02  0.8477674E-01
        1   -1    0    0  501    0  0.00000000000E+00  0.00000000000E+00  0.11322170036E+04  0.11322170036E+04  0.50400001928E-02 0.  1.
       -1   -1    0    0    0  501  0.00000000000E+00  0.00000000000E+00 -0.11687002671E+04  0.11687002671E+04  0.50400001928E-02 0. -1.
    10030    2    1    2    0    0  0.00000000000E+00  0.00000000000E+00 -0.36483263572E+02  0.23009172707E+04  0.23006280139E+04 0.  0.
        3    1    3    3  502    0  0.41197188699E+03  0.10044246850E+04 -0.39859527280E+03  0.11564895094E+04  0.10100000352E+00 0. -1.
       -3    1    3    3    0  502 -0.41197188699E+03 -0.10044246850E+04  0.36211200923E+03  0.11444277614E+04  0.10100000352E+00 0.  1.
</event>
<event>
 5   0  0.1828646E-06  0.2300354E+04  0.7818609E-02  0.8477782E-01
       -2   -1    0    0    0  501  0.00000000000E+00  0.00000000000E+00  0.11892017073E+04  0.11892017074E+04  0.25500000920E-02 0.  1.
        2   -1    0    0  501    0  0.00000000000E+00  0.00000000000E+00 -0.11124328219E+04  0.11124328219E+04  0.25500000920E-02 0. -1.
    10030    2    1    2    0    0  0.00000000000E+00  0.00000000000E+00  0.76768885460E+02  0.23016345292E+04  0.23003538955E+04 0.  0.
        3    1    3    3  502    0 -0.58087313060E+03 -0.77214894016E+03  0.66265439609E+03  0.11716392100E+04  0.10100000352E+00 0.  1.
       -3    1    3    3    0  502  0.58087313060E+03  0.77214894016E+03 -0.58588551063E+03  0.11299953192E+04  0.10100000352E+00 0. -1.
</event>
<event>
 5   0  0.7607231E-07  0.2306855E+04  0.7818609E-02  0.8475223E-01
       -1   -1    0    0    0  501  0.00000000000E+00  0.00000000000E+00  0.10451034990E+04  0.10451034991E+04  0.50400001928E-02 0. -1.
        1   -1    0    0  501    0  0.00000000000E+00  0.00000000000E+00 -0.12729787550E+04  0.12729787550E+04  0.50400001928E-02 0.  1.
    10030    2    1    2    0    0  0.00000000000E+00  0.00000000000E+00 -0.22787525597E+03  0.23180822541E+04  0.23068546128E+04 0.  0.
        2    1    3    3  502    0  0.13364034922E+03 -0.11367276096E+04 -0.25740910574E+03  0.11731448542E+04  0.25500000920E-02 0. -1.
       -2    1    3    3    0  502 -0.13364034922E+03  0.11367276096E+04  0.29533849770E+02  0.11449373999E+04  0.25500000920E-02 0.  1.
</event>
<event>
 5   0  0.7761069E-07  0.2300653E+04  0.7818609E-02  0.8477664E-01
       -1   -1    0    0    0  501  0.00000000000E+00  0.00000000000E+00  0.88027618128E+03  0.88027618130E+03  0.50400001928E-02 0. -1.
        1   -1    0    0  501    0  0.00000000000E+00  0.00000000000E+00 -0.15032221985E+04  0.15032221985E+04  0.50400001928E-02 0.  1.
    10030    2    1    2    0    0  0.00000000000E+00  0.00000000000E+00 -0.62294601726E+03  0.23834983798E+04  0.23006526870E+04 0.  0.
        1    1    3    3  502    0 -0.32034311689E+03 -0.46757490445E+03  0.72557455970E+03  0.92070866485E+03  0.50400001928E-02 0.  1.
       -1    1    3    3    0  502  0.32034311689E+03  0.46757490445E+03 -0.13485205770E+04  0.14627897150E+04  0.50400001928E-02 0. -1.
</event>
<event>
 5   0  0.1689444E-06  0.2299543E+04  0.7818609E-02  0.8478101E-01
        2   -1    0    0  501    0  0.00000000000E+00  0.00000000000E+00  0.10891083420E+04  0.10891083420E+04  0.25500000920E-02 0. -1.
       -2   -1    0    0    0  501  0.00000000000E+00  0.00000000000E+00 -0.12138133605E+04  0.12138133605E+04  0.25500000920E-02 0.  1.
    10030    2    1    2    0    0  0.00000000000E+00  0.00000000000E+00 -0.12470501847E+03  0.23029217025E+04  0.22995427863E+04 0.  0.
        2    1    3    3  502    0  0.70459613759E+03  0.88153119687E+03  0.15801920409E+03  0.11395275499E+04  0.25500000920E-02 0.  1.
       -2    1    3    3    0  502 -0.70459613759E+03 -0.88153119687E+03 -0.28272422256E+03  0.11633941526E+04  0.25500000920E-02 0. -1.
</event>
<event>
 5   0  0.8097672E-07  0.2299917E+04  0.7818609E-02  0.8477954E-01
       -1   -1    0    0    0  501  0.00000000000E+00  0.00000000000E+00  0.13802722185E+04  0.13802722185E+04  0.50400001928E-02 0. -1.
        1   -1    0    0  501    0  0.00000000000E+00  0.00000000000E+00 -0.95807512344E+03  0.95807512346E+03  0.50400001928E-02 0.  1.
    10030    2    1    2    0    0  0.00000000000E+00  0.00000000000E+00  0.42219709502E+03  0.23383473419E+04  0.22999169343E+04 0.  0.
        3    1    3    3  502    0 -0.34376466968E+03 -0.23189900881E+03 -0.87941569892E+03  0.97227736789E+03  0.10100000352E+00 0.  1.
       -3    1    3    3    0  502  0.34376466968E+03  0.23189900881E+03  0.13016127939E+04  0.13660699740E+04  0.10100000352E+00 0. -1.
</event>
<event>
 5   0  0.1888779E-06  0.2300158E+04  0.7818609E-02  0.8477859E-01
        2   -1    0    0  501    0  0.00000000000E+00  0.00000000000E+00  0.12895747813E+04  0.12895747813E+04  0.25500000920E-02 0. -1.
       -2   -1    0    0    0  501  0.00000000000E+00  0.00000000000E+00 -0.10256727185E+04  0.10256727185E+04  0.25500000920E-02 0.  1.
    10030    2    1    2    0    0  0.00000000000E+00  0.00000000000E+00  0.26390206282E+03  0.23152474998E+04  0.23001579699E+04 0.  0.
        4    1    3    3  502    0  0.98071606272E+03 -0.17955972152E+03  0.70897818563E+03  0.12233958353E+04  0.12699999809E+01 0.  1.
       -4    1    3    3    0  502 -0.98071606272E+03  0.17955972152E+03 -0.44507612281E+03  0.10918516645E+04  0.12699999809E+01 0. -1.
</event>
<event>
 5   0  0.1828646E-06  0.2300118E+04  0.7818609E-02  0.8477874E-01
       -2   -1    0    0    0  501  0.00000000000E+00  0.00000000000E+00  0.14957240922E+04  0.14957240922E+04  0.25500000920E-02 0. -1.
        2   -1    0    0  501    0  0.00000000000E+00  0.00000000000E+00 -0.88427811929E+03  0.88427811929E+03  0.25500000920E-02 0.  1.
    10030    2    1    2    0    0  0.00000000000E+00  0.00000000000E+00  0.61144597292E+03  0.23800022115E+04  0.23001183337E+04 0.  0.
        3    1    3    3  502    0  0.48392132461E+03 -0.89363984943E+02  0.13812804024E+04  0.14663223829E+04  0.10100000352E+00 0. -1.
       -3    1    3    3    0  502 -0.48392132461E+03  0.89363984943E+02 -0.76983442949E+03  0.91367982864E+03  0.10100000352E+00 0.  1.
</event>
<event>
 5   0  0.1825521E-06  0.2300439E+04  0.7818609E-02  0.8477748E-01
       -2   -1    0    0    0  501  0.00000000000E+00  0.00000000000E+00  0.14381019264E+04  0.14381019264E+04  0.25500000920E-02 0. -1.
        2   -1    0    0  501    0  0.00000000000E+00  0.00000000000E+00 -0.91996591216E+03  0.91996591216E+03  0.25500000920E-02 0.  1.
    10030    2    1    2    0    0  0.00000000000E+00  0.00000000000E+00  0.51813601428E+03  0.23580678386E+04  0.23004388716E+04 0.  0.
        5    1    3    3  502    0 -0.48112590409E+03  0.20519967752E+03 -0.79099366495E+03  0.94830486197E+03  0.46999998093E+01 0.  1.
       -5    1    3    3    0  502  0.48112590409E+03 -0.20519967752E+03  0.13091296792E+04  0.14097629766E+04  0.46999998093E+01 0. -1.
</event>
<event>
 5   0  0.8108242E-07  0.2300575E+04  0.7818609E-02  0.8477695E-01
       -1   -1    0    0    0  501  0.00000000000E+00  0.00000000000E+00  0.11677195900E+04  0.11677195900E+04  0.50400001928E-02 0. -1.
        1   -1    0    0  501    0  0.00000000000E+00  0.00000000000E+00 -0.11331153331E+04  0.11331153331E+04  0.50400001928E-02 0.  1.
    10030    2    1    2    0    0  0.00000000000E+00  0.00000000000E+00  0.34604256890E+02  0.23008349231E+04  0.23005746866E+04 0.  0.
        4    1    3    3  502    0  0.17662702054E+03  0.10153592989E+04 -0.49364483728E+03  0.11427328859E+04  0.12699999809E+01 0.  1.
       -4    1    3    3    0  502 -0.17662702054E+03 -0.10153592989E+04  0.52824909417E+03  0.11581020372E+04  0.12699999809E+01 0. -1.
</event>
<event>
 5   0  0.8097672E-07  0.2300874E+04  0.7818609E-02  0.8477577E-01
       -1   -1    0    0    0  501  0.00000000000E+00  0.00000000000E+00  0.13251592304E+04  0.13251592304E+04  0.50400001928E-02 0. -1.
        1   -1    0    0  501    0  0.00000000000E+00  0.00000000000E+00 -0.99875166527E+03  0.99875166528E+03  0.50400001928E-02 0.  1.
    10030    2    1    2    0    0  0.00000000000E+00  0.00000000000E+00  0.32640756516E+03  0.23239108957E+04  0.23008737368E+04 0.  0.
        3    1    3    3  502    0  0.66581019193E+03  0.88738526764E+03  0.47080047524E+03  0.12051592934E+04  0.10100000352E+00 0. -1.
       -3    1    3    3    0  502 -0.66581019193E+03 -0.88738526764E+03 -0.14439291008E+03  0.11187516023E+04  0.10100000352E+00 0.  1.
</event>
<event>
 5   0  0.7932912E-07  0.2300058E+04  0.7818609E-02  0.8477898E-01
       -1   -1    0    0    0  501  0.00000000000E+00  0.00000000000E+00  0.13474015149E+04  0.13474015150E+04  0.50400001928E-02 0. -1.
        1   -1    0    0  501    0  0.00000000000E+00  0.00000000000E+00 -0.98156816147E+03  0.98156816149E+03  0.50400001928E-02 0.  1.
    10030    2    1    2    0    0  0.00000000000E+00  0.00000000000E+00  0.36583335347E+03  0.23289696764E+04  0.23000577626E+04 0.  0.
        5    1    3    3  502    0 -0.97665348892E+03  0.58267065673E+03  0.99265351453E+01  0.11373116362E+04  0.46999998093E+01 0.  1.
       -5    1    3    3    0  502  0.97665348892E+03 -0.58267065673E+03  0.35590681832E+03  0.11916580403E+04  0.46999998093E+01 0. -1.
</event>
<event>
 5   0  0.1689444E-06  0.2300015E+04  0.7818609E-02  0.8477915E-01
        2   -1    0    0  501    0  0.00000000000E+00  0.00000000000E+00  0.13514472014E+04  0.13514472014E+04  0.25500000920E-02 0.  1.
       -2   -1    0    0    0  501  0.00000000000E+00  0.00000000000E+00 -0.97859343294E+03  0.97859343295E+03  0.25500000920E-02 0. -1.
    10030    2    1    2    0    0  0.00000000000E+00  0.00000000000E+00  0.37285376842E+03  0.23300406343E+04  0.23000150923E+04 0.  0.
        2    1    3    3  502    0 -0.24404760244E+03  0.43690883809E+03  0.12353511581E+04  0.13328694793E+04  0.25500000920E-02 0.  1.
       -2    1    3    3    0  502  0.24404760244E+03 -0.43690883809E+03 -0.86249738971E+03  0.99717115498E+03  0.25500000920E-02 0. -1.
</event>
<event>
 5   0  0.1888779E-06  0.2299063E+04  0.7818609E-02  0.8478291E-01
        2   -1    0    0  501    0  0.00000000000E+00  0.00000000000E+00  0.87105621388E+03  0.87105621389E+03  0.25500000920E-02 0.  1.
       -2   -1    0    0    0  501  0.00000000000E+00  0.00000000000E+00 -0.15170349925E+04  0.15170349925E+04  0.25500000920E-02 0. -1.
    10030    2    1    2    0    0  0.00000000000E+00  0.00000000000E+00 -0.64597877866E+03  0.23880912064E+04  0.22990630761E+04 0.  0.
        4    1    3    3  502    0 -0.34714698230E+03  0.71145591171E+03 -0.11887769931E+04  0.14282411889E+04  0.12699999809E+01 0. -1.
       -4    1    3    3    0  502  0.34714698230E+03 -0.71145591171E+03  0.54279821440E+03  0.95985001750E+03  0.12699999809E+01 0.  1.
</event>
<event>
 5   0  0.1825521E-06  0.2299682E+04  0.7818609E-02  0.8478047E-01
       -2   -1    0    0    0  501  0.00000000000E+00  0.00000000000E+00  0.77401633790E+03  0.77401633790E+03  0.25500000920E-02 0.  1.
        2   -1    0    0  501    0  0.00000000000E+00  0.00000000000E+00 -0.17081472269E+04  0.17081472269E+04  0.25500000920E-02 0. -1.
    10030    2    1    2    0    0  0.00000000000E+00  0.00000000000E+00 -0.93413088897E+03  0.24821635648E+04  0.22996815963E+04 0.  0.
        5    1    3    3  502    0  0.11202278924E+04  0.24649985797E+03 -0.55367661930E+03  0.12736768035E+04  0.46999998093E+01 0.  1.
       -5    1    3    3    0  502 -0.11202278924E+04 -0.24649985797E+03 -0.38045426968E+03  0.12084867613E+04  0.46999998093E+01 0. -1.
</event>
<event>
 5   0  0.1888779E-06  0.2299377E+04  0.7818609E-02  0.8478167E-01
        2   -1    0    0  501    0  0.00000000000E+00  0.00000000000E+00  0.10080611774E+04  0.10080611774E+04  0.25500000920E-02 0.  1.
       -2   -1    0    0    0  501  0.00000000000E+00  0.00000000000E+00 -0.13112137716E+04  0.13112137716E+04  0.25500000920E-02 0. -1.
    10030    2    1    2    0    0  0.00000000000E+00  0.00000000000E+00 -0.30315259424E+03  0.23192749490E+04  0.22993770447E+04 0.  0.
        4    1    3    3  502    0  0.10557517745E+04  0.45314321836E+03 -0.19474266283E+03  0.11652797533E+04  0.12699999809E+01 0.  1.
       -4    1    3    3    0  502 -0.10557517745E+04 -0.45314321836E+03 -0.10840993141E+03  0.11539951958E+04  0.12699999809E+01 0. -1.
</event>
<event>
 5   0  0.1689444E-06  0.2299891E+04  0.7818609E-02  0.8477964E-01
        2   -1    0    0  501    0  0.00000000000E+00  0.00000000000E+00  0.14670348525E+04  0.14670348525E+04  0.25500000920E-02 0.  1.
       -2   -1    0    0    0  501  0.00000000000E+00  0.00000000000E+00 -0.90139271301E+03  0.90139271301E+03  0.25500000920E-02 0. -1.
    10030    2    1    2    0    0  0.00000000000E+00  0.00000000000E+00  0.56564213947E+03  0.23684275655E+04  0.22998908894E+04 0.  0.
        2    1    3    3  502    0  0.83137922444E+03 -0.46127810315E+03  0.94893977641E+03  0.13433002652E+04  0.25500000920E-02 0.  1.
       -2    1    3    3    0  502 -0.83137922444E+03  0.46127810315E+03 -0.38329763694E+03  0.10251273003E+04  0.25500000920E-02 0. -1.
</event>
<event>
 5   0  0.1825521E-06  0.2300175E+04  0.7818609E-02  0.8477852E-01
       -2   -1    0    0    0  501  0.00000000000E+00  0.00000000000E+00  0.68346140570E+03  0.68346140571E+03  0.25500000920E-02 0. -1.
        2   -1    0    0  501    0  0.00000000000E+00  0.00000000000E+00 -0.19352980666E+04  0.19352980666E+04  0.25500000920E-02 0.  1.
    10030    2    1    2    0    0  0.00000000000E+00  0.00000000000E+00 -0.12518366609E+04  0.26187594723E+04  0.23001752430E+04 0.  0.
        5    1    3    3  502    0 -0.67724414634E+03  0.78008156931E+03 -0.50446838545E+02  0.10342890612E+04  0.46999998093E+01 0. -1.
       -5    1    3    3    0  502  0.67724414634E+03 -0.78008156931E+03 -0.12013898224E+04  0.15844704112E+04  0.46999998093E+01 0.  1.
</event>
<event>
 5   0  0.1825521E-06  0.2299467E+04  0.7818609E-02  0.8478131E-01
        2   -1    0    0  501    0  0.00000000000E+00  0.00000000000E+00  0.13171801070E+04  0.13171801070E+04  0.25500000920E-02 0.  1.
       -2   -1    0    0    0  501  0.00000000000E+00  0.00000000000E+00 -0.10035738200E+04  0.10035738200E+04  0.25500000920E-02 0. -1.
    10030    2    1    2    0    0  0.00000000000E+00  0.00000000000E+00  0.31360628700E+03  0.23207539271E+04  0.22994673050E+04 0.  0.
        5    1    3    3  502    0 -0.71034161463E+02  0.10752079590E+03  0.13098585364E+04  0.13161907343E+04  0.46999998093E+01 0.  1.
       -5    1    3    3    0  502  0.71034161463E+02 -0.10752079590E+03 -0.99625224945E+03  0.10045631927E+04  0.46999998093E+01 0. -1.
</event>
<event>
 5   0  0.7607231E-07  0.2301050E+04  0.7818609E-02  0.8477507E-01
       -1   -1    0    0    0  501  0.00000000000E+00  0.00000000000E+00  0.87813936068E+03  0.87813936070E+03  0.50400001928E-02 0.  1.
        1   -1    0    0  501    0  0.00000000000E+00  0.00000000000E+00 -0.15074008277E+04  0.15074008277E+04  0.50400001928E-02 0. -1.
    10030    2    1    2    0    0  0.00000000000E+00  0.00000000000E+00 -0.62926146704E+03  0.23855401884E+04  0.23010501943E+04 0.  0.
        2    1    3    3  502    0 -0.42634773281E+03 -0.34307386709E+03  0.73457498450E+03  0.91600899308E+03  0.25500000920E-02 0.  1.
       -2    1    3    3    0  502  0.42634773281E+03  0.34307386709E+03 -0.13638364515E+04  0.14695311953E+04  0.25500000920E-02 0. -1.
</event>
<event>
 5   0  0.7607231E-07  0.2299787E+04  0.7818609E-02  0.8478005E-01
        1   -1    0    0  501    0  0.00000000000E+00  0.00000000000E+00  0.14124173348E+04  0.14124173348E+04  0.50400001928E-02 0.  1.
       -1   -1    0    0    0  501  0.00000000000E+00  0.00000000000E+00 -0.93616479937E+03  0.93616479938E+03  0.50400001928E-02 0. -1.
    10030    2    1    2    0    0  0.00000000000E+00  0.00000000000E+00  0.47625253543E+03  0.23485821342E+04  0.22997872866E+04 0.  0.
        2    1    3    3  502    0 -0.80599609744E+03  0.45209907022E+03 -0.46066695081E+03  0.10325876805E+04  0.25500000920E-02 0. -1.
       -2    1    3    3    0  502  0.80599609744E+03 -0.45209907022E+03  0.93691948624E+03  0.13159944537E+04  0.25500000920E-02 0.  1.
</event>
<event>
 5   0  0.6319125E-07  0.2292781E+04  0.7818609E-02  0.8480773E-01
        4   -1    0    0  501    0  0.00000000000E+00  0.00000000000E+00  0.13304294220E+04  0.13304300281E+04  0.12699999809E+01 0. -1.
       -4   -1    0    0    0  501  0.00000000000E+00  0.00000000000E+00 -0.98780851438E+03  0.98780933078E+03  0.12699999809E+01 0.  1.
    10030    2    1    2    0    0  0.00000000000E+00  0.00000000000E+00  0.34262090761E+03  0.23182393589E+04  0.22927809836E+04 0.  0.
        4    1    3    3  502    0  0.74388097223E+03 -0.22538601297E+03  0.10233126566E+04  0.12850401401E+04  0.12699999809E+01 0. -1.
       -4    1    3    3    0  502 -0.74388097223E+03  0.22538601297E+03 -0.68069174899E+03  0.10331992188E+04  0.12699999809E+01 0.  1.
</event>
<event>
 5   0  0.7932912E-07  0.2300016E+04  0.7818609E-02  0.8477915E-01
       -1   -1    0    0    0  501  0.00000000000E+00  0.00000000000E+00  0.76912568290E+03  0.76912568292E+03  0.50400001928E-02 0.  1.
        1   -1    0    0  501    0  0.00000000000E+00  0.00000000000E+00 -0.17195091198E+04  0.17195091198E+04  0.50400001928E-02 0. -1.
    10030    2    1    2    0    0  0.00000000000E+00  0.00000000000E+00 -0.95038343685E+03  0.24886348027E+04  0.23000161965E+04 0.  0.
        5    1    3    3  502    0 -0.35561476798E+03  0.10046699222E+04 -0.77030879514E+01  0.10657884139E+04  0.46999998093E+01 0.  1.
       -5    1    3    3    0  502  0.35561476798E+03 -0.10046699222E+04 -0.94268034890E+03  0.14228463887E+04  0.46999998093E+01 0. -1.
</event>
<event>
 5   0  0.1828646E-06  0.2296221E+04  0.7818609E-02  0.8479413E-01
       -2   -1    0    0    0  501  0.00000000000E+00  0.00000000000E+00  0.13427583348E+04  0.13427583348E+04  0.25500000920E-02 0. -1.
        2   -1    0    0  501    0  0.00000000000E+00  0.00000000000E+00 -0.98167877966E+03  0.98167877966E+03  0.25500000920E-02 0.  1.
    10030    2    1    2    0    0  0.00000000000E+00  0.00000000000E+00  0.36107955512E+03  0.23244371144E+04  0.22962206893E+04 0.  0.
        3    1    3    3  502    0  0.19752337497E+03  0.83107475431E+03 -0.59599588016E+03  0.10415910091E+04  0.10100000352E+00 0.  1.
       -3    1    3    3    0  502 -0.19752337497E+03 -0.83107475431E+03  0.95707543528E+03  0.12828461053E+04  0.10100000352E+00 0. -1.
</event>
<event>
 5   0  0.7761069E-07  0.2300157E+04  0.7818609E-02  0.8477859E-01
        1   -1    0    0  501    0  0.00000000000E+00  0.00000000000E+00  0.86946540668E+03  0.86946540669E+03  0.50400001928E-02 0. -1.
       -1   -1    0    0    0  501  0.00000000000E+00  0.00000000000E+00 -0.15212570948E+04  0.15212570948E+04  0.50400001928E-02 0.  1.
    10030    2    1    2    0    0  0.00000000000E+00  0.00000000000E+00 -0.65179168808E+03  0.23907225015E+04  0.23001568804E+04 0.  0.
        1    1    3    3  502    0  0.74625937759E+03  0.39253914051E+03 -0.11387966193E+04  0.14169854535E+04  0.50400001928E-02 0.  1.
       -1    1    3    3    0  502 -0.74625937759E+03 -0.39253914051E+03  0.48700493118E+03  0.97373704792E+03  0.50400001928E-02 0. -1.
</event>
<event>
 5   0  0.7607231E-07  0.2300087E+04  0.7818609E-02  0.8477887E-01
       -1   -1    0    0    0  501  0.00000000000E+00  0.00000000000E+00  0.11275983781E+04  0.11275983782E+04  0.50400001928E-02 0. -1.
        1   -1    0    0  501    0  0.00000000000E+00  0.00000000000E+00 -0.11729354142E+04  0.11729354142E+04  0.50400001928E-02 0.  1.
    10030    2    1    2    0    0  0.00000000000E+00  0.00000000000E+00 -0.45337036094E+02  0.23005337924E+04  0.23000870164E+04 0.  0.
        2    1    3    3  502    0 -0.10685912460E+04  0.14820770843E+03 -0.42117695199E+03  0.11581203741E+04  0.25500000920E-02 0.  1.
       -2    1    3    3    0  502  0.10685912460E+04 -0.14820770843E+03  0.37583991590E+03  0.11424134183E+04  0.25500000920E-02 0. -1.
</event>
<event>
 5   0  0.7932912E-07  0.2302456E+04  0.7818609E-02  0.8476953E-01
        1   -1    0    0  501    0  0.00000000000E+00  0.00000000000E+00  0.11365585547E+04  0.11365585547E+04  0.50400001928E-02 0.  1.
       -1   -1    0    0    0  501  0.00000000000E+00  0.00000000000E+00 -0.11660865887E+04  0.11660865887E+04  0.50400001928E-02 0. -1.
    10030    2    1    2    0    0  0.00000000000E+00  0.00000000000E+00 -0.29528034021E+02  0.23026451434E+04  0.23024558088E+04 0.  0.
        5    1    3    3  502    0  0.34137239297E+03  0.62922967192E+03 -0.91641372432E+03  0.11628849018E+04  0.46999998093E+01 0. -1.
       -5    1    3    3    0  502 -0.34137239297E+03 -0.62922967192E+03  0.88688569030E+03  0.11397602416E+04  0.46999998093E+01 0.  1.
</event>
<event>
 5   0  0.1689444E-06  0.2303673E+04  0.7818609E-02  0.8476474E-01
       -2   -1    0    0    0  501  0.00000000000E+00  0.00000000000E+00  0.69531900235E+03  0.69531900235E+03  0.25500000920E-02 0.  1.
        2   -1    0    0  501    0  0.00000000000E+00  0.00000000000E+00 -0.19080848891E+04  0.19080848891E+04  0.25500000920E-02 0. -1.
    10030    2    1    2    0    0  0.00000000000E+00  0.00000000000E+00 -0.12127658867E+04  0.26034038914E+04  0.23036733114E+04 0.  0.
        2    1    3    3  502    0 -0.76930366282E+03 -0.21658685490E+03  0.33098829502E+03  0.86503828978E+03  0.25500000920E-02 0.  1.
       -2    1    3    3    0  502  0.76930366282E+03  0.21658685490E+03 -0.15437541817E+04  0.17383656016E+04  0.25500000920E-02 0. -1.
</event>
<event>
 5   0  0.1888779E-06  0.2299910E+04  0.7818609E-02  0.8477956E-01
       -2   -1    0    0    0  501  0.00000000000E+00  0.00000000000E+00  0.67224829652E+03  0.67224829652E+03  0.25500000920E-02 0.  1.
        2   -1    0    0  501    0  0.00000000000E+00  0.00000000000E+00 -0.19671258341E+04  0.19671258341E+04  0.25500000920E-02 0. -1.
    10030    2    1    2    0    0  0.00000000000E+00  0.00000000000E+00 -0.12948775376E+04  0.26393741307E+04  0.22999104252E+04 0.  0.
        4    1    3    3  502    0 -0.77605108739E+03 -0.59609318284E+03 -0.13405855167E+04  0.16597450145E+04  0.12699999809E+01 0. -1.
       -4    1    3    3    0  502  0.77605108739E+03  0.59609318284E+03  0.45707979081E+02  0.97962911610E+03  0.12699999809E+01 0.  1.
</event>
<event>
 5   0  0.8097672E-07  0.2301182E+04  0.7818609E-02  0.8477455E-01
        1   -1    0    0  501    0  0.00000000000E+00  0.00000000000E+00  0.98132360053E+03  0.98132360054E+03  0.50400001928E-02 0.  1.
       -1   -1    0    0    0  501  0.00000000000E+00  0.00000000000E+00 -0.13490556247E+04  0.13490556248E+04  0.50400001928E-02 0. -1.
    10030    2    1    2    0    0  0.00000000000E+00  0.00000000000E+00 -0.36773202421E+03  0.23303792253E+04  0.23011824117E+04 0.  0.
        3    1    3    3  502    0 -0.96304580865E+03 -0.19986144151E+03  0.42075037268E+03  0.10697816187E+04  0.10100000352E+00 0.  1.
       -3    1    3    3    0  502  0.96304580865E+03  0.19986144151E+03 -0.78848239690E+03  0.12605976066E+04  0.10100000352E+00 0. -1.
</event>
<event>
 5   0  0.1689444E-06  0.2300781E+04  0.7818609E-02  0.8477613E-01
       -2   -1    0    0    0  501  0.00000000000E+00  0.00000000000E+00  0.12791323592E+04  0.12791323592E+04  0.25500000920E-02 0. -1.
        2   -1    0    0  501    0  0.00000000000E+00  0.00000000000E+00 -0.10346061524E+04  0.10346061524E+04  0.25500000920E-02 0.  1.
    10030    2    1    2    0    0  0.00000000000E+00  0.00000000000E+00  0.24452620683E+03  0.23137385116E+04  0.23007809183E+04 0.  0.
        2    1    3    3  502    0  0.36858342527E+03 -0.10750485327E+04 -0.57109366433E+02  0.11379123730E+04  0.25500000920E-02 0. -1.
       -2    1    3    3    0  502 -0.36858342527E+03  0.10750485327E+04  0.30163557326E+03  0.11758261385E+04  0.25500000920E-02 0.  1.
</event>
<event>
 5   0  0.7932912E-07  0.2299356E+04  0.7818609E-02  0.8478175E-01
       -1   -1    0    0    0  501  0.00000000000E+00  0.00000000000E+00  0.77558494323E+03  0.77558494324E+03  0.50400001928E-02 0.  1.
        1   -1    0    0  501    0  0.00000000000E+00  0.00000000000E+00 -0.17042095208E+04  0.17042095208E+04  0.50400001928E-02 0. -1.
    10030    2    1    2    0    0  0.00000000000E+00  0.00000000000E+00 -0.92862457755E+03  0.24797944640E+04  0.22993557745E+04 0.  0.
        5    1    3    3  502    0 -0.10365920810E+04  0.52579269611E+02 -0.99752933997E+03  0.14395744497E+04  0.46999998093E+01 0. -1.
       -5    1    3    3    0  502  0.10365920810E+04 -0.52579269611E+02  0.68904762423E+02  0.10402200144E+04  0.46999998093E+01 0.  1.
</event>
<event>
 5   0  0.6319125E-07  0.2286998E+04  0.7818609E-02  0.8483065E-01
        3   -1    0    0  501    0  0.00000000000E+00  0.00000000000E+00  0.11980209334E+04  0.11980209377E+04  0.10100000352E+00 0. -1.
       -3   -1    0    0    0  501  0.00000000000E+00  0.00000000000E+00 -0.10914582643E+04  0.10914582690E+04  0.10100000352E+00 0.  1.
    10030    2    1    2    0    0  0.00000000000E+00  0.00000000000E+00  0.10656266908E+03  0.22894792067E+04  0.22869979089E+04 0.  0.
        3    1    3    3  502    0  0.16226953326E+03  0.10712203810E+04  0.41939022038E+03  0.11617799590E+04  0.10100000352E+00 0. -1.
       -3    1    3    3    0  502 -0.16226953326E+03 -0.10712203810E+04 -0.31282755129E+03  0.11276992476E+04  0.10100000352E+00 0.  1.
</event>
<event>
 5   0  0.8108242E-07  0.2299779E+04  0.7818609E-02  0.8478008E-01
       -1   -1    0    0    0  501  0.00000000000E+00  0.00000000000E+00  0.11272711596E+04  0.11272711596E+04  0.50400001928E-02 0. -1.
        1   -1    0    0  501    0  0.00000000000E+00  0.00000000000E+00 -0.11729618153E+04  0.11729618153E+04  0.50400001928E-02 0.  1.
    10030    2    1    2    0    0  0.00000000000E+00  0.00000000000E+00 -0.45690655705E+02  0.23002329750E+04  0.22997791423E+04 0.  0.
        4    1    3    3  502    0 -0.31940956004E+03 -0.47379022482E+03 -0.10209123612E+04  0.11699415825E+04  0.12699999809E+01 0.  1.
       -4    1    3    3    0  502  0.31940956004E+03  0.47379022482E+03  0.97522170552E+03  0.11302913925E+04  0.12699999809E+01 0. -1.
</event>
<event>
 5   0  0.7607231E-07  0.2299204E+04  0.7818609E-02  0.8478235E-01
       -1   -1    0    0    0  501  0.00000000000E+00  0.00000000000E+00  0.10763589633E+04  0.10763589634E+04  0.50400001928E-02 0.  1.
        1   -1    0    0  501    0  0.00000000000E+00  0.00000000000E+00 -0.12278291542E+04  0.12278291542E+04  0.50400001928E-02 0. -1.
    10030    2    1    2    0    0  0.00000000000E+00  0.00000000000E+00 -0.15147019081E+03  0.23041881175E+04  0.22992041367E+04 0.  0.
        2    1    3    3  502    0  0.57192634919E+03  0.29291418856E+03 -0.10310519176E+04  0.12148936280E+04  0.25500000920E-02 0. -1.
       -2    1    3    3    0  502 -0.57192634919E+03 -0.29291418856E+03  0.87958172675E+03  0.10892944895E+04  0.25500000920E-02 0.  1.
</event>
<event>
 5   0  0.7932912E-07  0.2300931E+04  0.7818609E-02  0.8477554E-01
        1   -1    0    0  501    0  0.00000000000E+00  0.00000000000E+00  0.15908818503E+04  0.15908818503E+04  0.50400001928E-02 0.  1.
       -1   -1    0    0    0  501  0.00000000000E+00  0.00000000000E+00 -0.83197322708E+03  0.83197322710E+03  0.50400001928E-02 0. -1.
    10030    2    1    2    0    0  0.00000000000E+00  0.00000000000E+00  0.75890862320E+03  0.24228550774E+04  0.23009312088E+04 0.  0.
        5    1    3    3  502    0  0.10216495646E+04  0.39612889974E+03  0.74854619959E+03  0.13270378446E+04  0.46999998093E+01 0.  1.
       -5    1    3    3    0  502 -0.10216495646E+04 -0.39612889974E+03  0.10362423610E+02  0.10958172328E+04  0.46999998093E+01 0. -1.
</event>
<event>
 5   0  0.7761069E-07  0.2298880E+04  0.7818609E-02  0.8478363E-01
        1   -1    0    0  501    0  0.00000000000E+00  0.00000000000E+00  0.11499775534E+04  0.11499775534E+04  0.50400001928E-02 0.  1.
       -1   -1    0    0    0  501  0.00000000000E+00  0.00000000000E+00 -0.11489024212E+04  0.11489024212E+04  0.50400001928E-02 0. -1.
    10030    2    1    2    0    0  0.00000000000E+00  0.00000000000E+00  0.10751321593E+01  0.22988799746E+04  0.22988797232E+04 0.  0.
        1    1    3    3  502    0 -0.72031998042E+03  0.24899557759E+03  0.86097494640E+03  0.11498423936E+04  0.50400001928E-02 0.  1.
       -1    1    3    3    0  502  0.72031998042E+03 -0.24899557759E+03 -0.85989981424E+03  0.11490375809E+04  0.50400001928E-02 0. -1.
</event>
<event>
 5   0  0.1828646E-06  0.2300936E+04  0.7818609E-02  0.8477552E-01
        2   -1    0    0  501    0  0.00000000000E+00  0.00000000000E+00  0.16739396133E+04  0.16739396133E+04  0.25500000920E-02 0. -1.
       -2   -1    0    0    0  501  0.00000000000E+00  0.00000000000E+00 -0.79069566216E+03  0.79069566216E+03  0.25500000920E-02 0.  1.
    10030    2    1    2    0    0  0.00000000000E+00  0.00000000000E+00  0.88324395111E+03  0.24646352754E+04  0.23009361494E+04 0.  0.
        3    1    3    3  502    0 -0.71087416877E+03 -0.60992044532E+03 -0.27390881239E+03  0.97589501544E+03  0.10100000352E+00 0.  1.
       -3    1    3    3    0  502  0.71087416877E+03  0.60992044532E+03  0.11571527635E+04  0.14887402600E+04  0.10100000352E+00 0. -1.
</event>
<event>
 5   0  0.1828646E-06  0.2301223E+04  0.7818609E-02  0.8477439E-01
        2   -1    0    0  501    0  0.00000000000E+00  0.00000000000E+00  0.19965541769E+04  0.19965541769E+04  0.25500000920E-02 0.  1.
       -2   -1    0    0    0  501  0.00000000000E+00  0.00000000000E+00 -0.66309604528E+03  0.66309604529E+03  0.25500000920E-02 0. -1.
    10030    2    1    2    0    0  0.00000000000E+00  0.00000000000E+00  0.13334581317E+04  0.26596502222E+04  0.23012233085E+04 0.  0.
        3    1    3    3  502    0  0.42652616727E+03  0.81539034287E+03 -0.13159663630E+03  0.92957176565E+03  0.10100000352E+00 0. -1.
       -3    1    3    3    0  502 -0.42652616727E+03 -0.81539034287E+03  0.14650547680E+04  0.17300784566E+04  0.10100000352E+00 0.  1.
</event>
<event>
 5   0  0.7932912E-07  0.2300401E+04  0.7818609E-02  0.8477763E-01
        1   -1    0    0  501    0  0.00000000000E+00  0.00000000000E+00  0.19719430272E+04  0.19719430272E+04  0.50400001928E-02 0. -1.
       -1   -1    0    0    0  501  0.00000000000E+00  0.00000000000E+00 -0.67089234777E+03  0.67089234779E+03  0.50400001928E-02 0.  1.
    10030    2    1    2    0    0  0.00000000000E+00  0.00000000000E+00  0.13010506794E+04  0.26428353750E+04  0.23004012582E+04 0.  0.
        5    1    3    3  502    0  0.48626842912E+03  0.10276006544E+04  0.44982234635E+03  0.12226129082E+04  0.46999998093E+01 0. -1.
       -5    1    3    3    0  502 -0.48626842912E+03 -0.10276006544E+04  0.85122833304E+03  0.14202224667E+04  0.46999998093E+01 0.  1.
</event>
<event>
 5   0  0.8097672E-07  0.2298131E+04  0.7818609E-02  0.8478658E-01
       -1   -1    0    0    0  501  0.00000000000E+00  0.00000000000E+00  0.11712341828E+04  0.11712341828E+04  0.50400001928E-02 0. -1.
        1   -1    0    0  501    0  0.00000000000E+00  0.00000000000E+00 -0.11273166625E+04  0.11273166625E+04  0.50400001928E-02 0.  1.
    10030    2    1    2    0    0  0.00000000000E+00  0.00000000000E+00  0.43917520281E+02  0.22985508453E+04  0.22981312494E+04 0.  0.
        3    1    3    3  502    0 -0.34807960461E+03 -0.13060130987E+03  0.11094179077E+04  0.11700530832E+04  0.10100000352E+00 0. -1.
       -3    1    3    3    0  502  0.34807960461E+03  0.13060130987E+03 -0.10655003874E+04  0.11284977621E+04  0.10100000352E+00 0.  1.
</event>
<event>
 5   0  0.8097672E-07  0.2298842E+04  0.7818609E-02  0.8478378E-01
       -1   -1    0    0    0  501  0.00000000000E+00  0.00000000000E+00  0.88730858460E+03  0.88730858462E+03  0.50400001928E-02 0. -1.
        1   -1    0    0  501    0  0.00000000000E+00  0.00000000000E+00 -0.14889619398E+04  0.14889619398E+04  0.50400001928E-02 0.  1.
    10030    2    1    2    0    0  0.00000000000E+00  0.00000000000E+00 -0.60165335524E+03  0.23762705245E+04  0.22988420662E+04 0.  0.
        3    1    3    3  502    0 -0.21752148405E+02  0.10177157509E+04  0.25096001830E+03  0.10484271299E+04  0.10100000352E+00 0. -1.
       -3    1    3    3    0  502  0.21752148405E+02 -0.10177157509E+04 -0.85261337353E+03  0.13278433946E+04  0.10100000352E+00 0.  1.
</event>
<event>
 5   0  0.1689444E-06  0.2300208E+04  0.7818609E-02  0.8477839E-01
       -2   -1    0    0    0  501  0.00000000000E+00  0.00000000000E+00  0.98558980165E+03  0.98558980165E+03  0.25500000920E-02 0.  1.
        2   -1    0    0  501    0  0.00000000000E+00  0.00000000000E+00 -0.13420791043E+04  0.13420791043E+04  0.25500000920E-02 0. -1.
    10030    2    1    2    0    0  0.00000000000E+00  0.00000000000E+00 -0.35648930263E+03  0.23276689059E+04  0.23002082325E+04 0.  0.
        2    1    3    3  502    0 -0.10234284244E+04 -0.52187745400E+03 -0.12302524818E+03  0.11553774398E+04  0.25500000920E-02 0. -1.
       -2    1    3    3    0  502  0.10234284244E+04  0.52187745400E+03 -0.23346405445E+03  0.11722914661E+04  0.25500000920E-02 0.  1.
</event>
<event>
 5   0  0.1689444E-06  0.2299474E+04  0.7818609E-02  0.8478129E-01
        2   -1    0    0  501    0  0.00000000000E+00  0.00000000000E+00  0.10455806300E+04  0.10455806300E+04  0.25500000920E-02 0. -1.
       -2   -1    0    0    0  501  0.00000000000E+00  0.00000000000E+00 -0.12642687405E+04  0.12642687405E+04  0.25500000920E-02 0.  1.
    10030    2    1    2    0    0  0.00000000000E+00  0.00000000000E+00 -0.21868811052E+03  0.23098493705E+04  0.22994737713E+04 0.  0.
        2    1    3    3  502    0 -0.59721767881E+03  0.28845236491E+03  0.83405341498E+03  0.10656072549E+04  0.25500000920E-02 0. -1.
       -2    1    3    3    0  502  0.59721767881E+03 -0.28845236491E+03 -0.10527415255E+04  0.12442421156E+04  0.25500000920E-02 0.  1.
</event>
<event>
 5   0  0.8108242E-07  0.2299708E+04  0.7818609E-02  0.8478036E-01
       -1   -1    0    0    0  501  0.00000000000E+00  0.00000000000E+00  0.10816451934E+04  0.10816451934E+04  0.50400001928E-02 0. -1.
        1   -1    0    0  501    0  0.00000000000E+00  0.00000000000E+00 -0.12223645390E+04  0.12223645390E+04  0.50400001928E-02 0.  1.
    10030    2    1    2    0    0  0.00000000000E+00  0.00000000000E+00 -0.14071934558E+03  0.23040097325E+04  0.22997084409E+04 0.  0.
        4    1    3    3  502    0 -0.10365482504E+04 -0.20731587421E+02 -0.56858351028E+03  0.11824343090E+04  0.12699999809E+01 0.  1.
       -4    1    3    3    0  502  0.10365482504E+04  0.20731587421E+02  0.42786416470E+03  0.11215754234E+04  0.12699999809E+01 0. -1.
</event>
<event>
 5   0  0.1744876E-06  0.2298317E+04  0.7818609E-02  0.8478585E-01
        2   -1    0    0  501    0  0.00000000000E+00  0.00000000000E+00  0.87423832725E+03  0.87423832726E+03  0.25500000920E-02 0.  1.
       -2   -1    0    0    0  501  0.00000000000E+00  0.00000000000E+00 -0.15105316917E+04  0.15105316917E+04  0.25500000920E-02 0. -1.
    10030    2    1    2    0    0  0.00000000000E+00  0.00000000000E+00 -0.63629336444E+03  0.23847700190E+04  0.22983165138E+04 0.  0.
        1    1    3    3  502    0  0.50157188232E+03  0.51230819286E+03  0.61370567231E+03  0.94375245157E+03  0.50400001928E-02 0.  1.
       -1    1    3    3    0  502 -0.50157188232E+03 -0.51230819286E+03 -0.12499990367E+04  0.14410175674E+04  0.50400001928E-02 0. -1.
</event>
<event>
 5   0  0.6319125E-07  0.2301131E+04  0.7818609E-02  0.8477475E-01
        3   -1    0    0  501    0  0.00000000000E+00  0.00000000000E+00  0.13074912438E+04  0.13074912477E+04  0.10100000352E+00 0.  1.
       -3   -1    0    0    0  501  0.00000000000E+00  0.00000000000E+00 -0.10124744080E+04  0.10124744130E+04  0.10100000352E+00 0. -1.
    10030    2    1    2    0    0  0.00000000000E+00  0.00000000000E+00  0.29501683575E+03  0.23199656607E+04  0.23011314029E+04 0.  0.
        1    1    3    3  502    0 -0.64668625092E+03  0.92936594973E+03  0.35382268176E+03  0.11862186416E+04  0.50400001928E-02 0. -1.
       -1    1    3    3    0  502  0.64668625092E+03 -0.92936594973E+03 -0.58805846002E+02  0.11337470190E+04  0.50400001928E-02 0.  1.
</event>
<event>
 5   0  0.1825521E-06  0.2299797E+04  0.7818609E-02  0.8478001E-01
       -2   -1    0    0    0  501  0.00000000000E+00  0.00000000000E+00  0.12983281360E+04  0.12983281360E+04  0.25500000920E-02 0. -1.
        2   -1    0    0  501    0  0.00000000000E+00  0.00000000000E+00 -0.10184376054E+04  0.10184376054E+04  0.25500000920E-02 0.  1.
    10030    2    1    2    0    0  0.00000000000E+00  0.00000000000E+00  0.27989053068E+03  0.23167657414E+04  0.22997966848E+04 0.  0.
        5    1    3    3  502    0 -0.27663703590E+03 -0.78624828821E+03 -0.65806746072E+03  0.10619742432E+04  0.46999998093E+01 0.  1.
       -5    1    3    3    0  502  0.27663703590E+03  0.78624828821E+03  0.93795799140E+03  0.12547914982E+04  0.46999998093E+01 0. -1.
</event>
<event>
 5   0  0.1825521E-06  0.2299512E+04  0.7818609E-02  0.8478114E-01
       -2   -1    0    0    0  501  0.00000000000E+00  0.00000000000E+00  0.12896424467E+04  0.12896424467E+04  0.25500000920E-02 0. -1.
        2   -1    0    0  501    0  0.00000000000E+00  0.00000000000E+00 -0.10250426318E+04  0.10250426318E+04  0.25500000920E-02 0.  1.
    10030    2    1    2    0    0  0.00000000000E+00  0.00000000000E+00  0.26459981488E+03  0.23146850785E+04  0.22995116766E+04 0.  0.
        5    1    3    3  502    0 -0.64066969693E+03 -0.42160504151E+03 -0.72991970672E+03  0.10587791743E+04  0.46999998093E+01 0.  1.
       -5    1    3    3    0  502  0.64066969693E+03  0.42160504151E+03  0.99451952160E+03  0.12559059043E+04  0.46999998093E+01 0. -1.
</event>
<event>
 5   0  0.1689444E-06  0.2298509E+04  0.7818609E-02  0.8478509E-01
        2   -1    0    0  501    0  0.00000000000E+00  0.00000000000E+00  0.16350812397E+04  0.16350812397E+04  0.25500000920E-02 0. -1.
       -2   -1    0    0    0  501  0.00000000000E+00  0.00000000000E+00 -0.80778007693E+03  0.80778007694E+03  0.25500000920E-02 0.  1.
    10030    2    1    2    0    0  0.00000000000E+00  0.00000000000E+00  0.82730116276E+03  0.24428613166E+04  0.22985091252E+04 0.  0.
        2    1    3    3  502    0 -0.23844068173E+03 -0.84999372283E+03 -0.36838921935E+03  0.95658449940E+03  0.25500000920E-02 0.  1.
       -2    1    3    3    0  502  0.23844068173E+03  0.84999372283E+03  0.11956903821E+04  0.14862768172E+04  0.25500000920E-02 0. -1.
</event>
<event>
 5   0  0.7932912E-07  0.2301208E+04  0.7818609E-02  0.8477445E-01
       -1   -1    0    0    0  501  0.00000000000E+00  0.00000000000E+00  0.10938920785E+04  0.10938920785E+04  0.50400001928E-02 0.  1.
        1   -1    0    0  501    0  0.00000000000E+00  0.00000000000E+00 -0.12102564742E+04  0.12102564742E+04  0.50400001928E-02 0. -1.
    10030    2    1    2    0    0  0.00000000000E+00  0.00000000000E+00 -0.11636439565E+03  0.23041485527E+04  0.23012083522E+04 0.  0.
        5    1    3    3  502    0  0.92934660159E+03 -0.24652264423E+03  0.57461369676E+03  0.11201167397E+04  0.46999998093E+01 0.  1.
       -5    1    3    3    0  502 -0.92934660159E+03  0.24652264423E+03 -0.69097809241E+03  0.11840318130E+04  0.46999998093E+01 0. -1.
</event>
<event>
 5   0  0.1828646E-06  0.2299177E+04  0.7818609E-02  0.8478246E-01
       -2   -1    0    0    0  501  0.00000000000E+00  0.00000000000E+00  0.13417164027E+04  0.13417164027E+04  0.25500000920E-02 0.  1.
        2   -1    0    0  501    0  0.00000000000E+00  0.00000000000E+00 -0.98497250323E+03  0.98497250324E+03  0.25500000920E-02 0. -1.
    10030    2    1    2    0    0  0.00000000000E+00  0.00000000000E+00  0.35674389948E+03  0.23266889060E+04  0.22991770387E+04 0.  0.
        3    1    3    3  502    0  0.10666895421E+04 -0.35908178376E+03 -0.58496074086E+02  0.11270262231E+04  0.10100000352E+00 0. -1.
       -3    1    3    3    0  502 -0.10666895421E+04  0.35908178376E+03  0.41523997357E+03  0.11996626828E+04  0.10100000352E+00 0.  1.
</event>
<event>
 5   0  0.8097672E-07  0.2299749E+04  0.7818609E-02  0.8478020E-01
       -1   -1    0    0    0  501  0.00000000000E+00  0.00000000000E+00  0.81957107989E+03  0.81957107991E+03  0.50400001928E-02 0. -1.
        1   -1    0    0  501    0  0.00000000000E+00  0.00000000000E+00 -0.16132968158E+04  0.16132968158E+04  0.50400001928E-02 0.  1.
    10030    2    1    2    0    0  0.00000000000E+00  0.00000000000E+00 -0.79372573590E+03  0.24328678957E+04  0.22997490416E+04 0.  0.
        3    1    3    3  502    0 -0.74089903092E+03 -0.71429470687E+03 -0.93944819938E+03  0.13934529887E+04  0.10100000352E+00 0.  1.
       -3    1    3    3    0  502  0.74089903092E+03  0.71429470687E+03  0.14572246348E+03  0.10394149070E+04  0.10100000352E+00 0. -1.
</event>
<event>
 5   0  0.1888779E-06  0.2298914E+04  0.7818609E-02  0.8478350E-01
       -2   -1    0    0    0  501  0.00000000000E+00  0.00000000000E+00  0.72039519265E+03  0.72039519266E+03  0.25500000920E-02 0. -1.
        2   -1    0    0  501    0  0.00000000000E+00  0.00000000000E+00 -0.18340639756E+04  0.18340639756E+04  0.25500000920E-02 0.  1.
    10030    2    1    2    0    0  0.00000000000E+00  0.00000000000E+00 -0.11136687829E+04  0.25544591682E+04  0.22989135443E+04 0.  0.
        4    1    3    3  502    0 -0.22884831440E+03 -0.76212600097E+03 -0.14785218869E+04  0.16790581215E+04  0.12699999809E+01 0.  1.
       -4    1    3    3    0  502  0.22884831440E+03  0.76212600097E+03  0.36485310394E+03  0.87540104679E+03  0.12699999809E+01 0. -1.
</event>
<event>
 5   0  0.7607231E-07  0.2299465E+04  0.7818609E-02  0.8478132E-01
       -1   -1    0    0    0  501  0.00000000000E+00  0.00000000000E+00  0.12989141182E+04  0.12989141182E+04  0.50400001928E-02 0. -1.
        1   -1    0    0  501    0  0.00000000000E+00  0.00000000000E+00 -0.10176846809E+04  0.10176846809E+04  0.50400001928E-02 0.  1.
    10030    2    1    2    0    0  0.00000000000E+00  0.00000000000E+00  0.28122943730E+03  0.23165987992E+04  0.22994651552E+04 0.  0.
        2    1    3    3  502    0 -0.62306336382E+02 -0.47962086795E+03 -0.91021368728E+03  0.10307313971E+04  0.25500000920E-02 0.  1.
       -2    1    3    3    0  502  0.62306336382E+02  0.47962086795E+03  0.11914431246E+04  0.12858674020E+04  0.25500000920E-02 0. -1.
</event>
<event>
 5   0  0.7761069E-07  0.2300236E+04  0.7818609E-02  0.8477828E-01
       -1   -1    0    0    0  501  0.00000000000E+00  0.00000000000E+00  0.15769414474E+04  0.15769414475E+04  0.50400001928E-02 0.  1.
        1   -1    0    0  501    0  0.00000000000E+00  0.00000000000E+00 -0.83882120916E+03  0.83882120918E+03  0.50400001928E-02 0. -1.
    10030    2    1    2    0    0  0.00000000000E+00  0.00000000000E+00  0.73812023828E+03  0.24157626566E+04  0.23002364502E+04 0.  0.
        1    1    3    3  502    0 -0.57359142118E+03  0.99351179179E+03  0.45501906427E+03  0.12341455132E+04  0.50400001928E-02 0.  1.
       -1    1    3    3    0  502  0.57359142118E+03 -0.99351179179E+03  0.28310117401E+03  0.11816171434E+04  0.50400001928E-02 0. -1.
</event>
<event>
 5   0  0.1825521E-06  0.2299739E+04  0.7818609E-02  0.8478024E-01
       -2   -1    0    0    0  501  0.00000000000E+00  0.00000000000E+00  0.14920081140E+04  0.14920081140E+04  0.25500000920E-02 0.  1.
        2   -1    0    0  501    0  0.00000000000E+00  0.00000000000E+00 -0.88618800181E+03  0.88618800181E+03  0.25500000920E-02 0. -1.
    10030    2    1    2    0    0  0.00000000000E+00  0.00000000000E+00  0.60582011222E+03  0.23781961158E+04  0.22997388454E+04 0.  0.
        5    1    3    3  502    0 -0.97848661931E+03 -0.23374865896E+03  0.87877706399E+03  0.13357940402E+04  0.46999998093E+01 0.  1.
       -5    1    3    3    0  502  0.97848661931E+03  0.23374865896E+03 -0.27295695177E+03  0.10424020756E+04  0.46999998093E+01 0. -1.
</event>
<event>
 5   0  0.7932912E-07  0.2301907E+04  0.7818609E-02  0.8477170E-01
        1   -1    0    0  501    0  0.00000000000E+00  0.00000000000E+00  0.20243425406E+04  0.20243425406E+04  0.50400001928E-02 0.  1.
       -1   -1    0    0    0  501  0.00000000000E+00  0.00000000000E+00 -0.65438232022E+03  0.65438232024E+03  0.50400001928E-02 0. -1.
    10030    2    1    2    0    0  0.00000000000E+00  0.00000000000E+00  0.13699602204E+04  0.26787248608E+04  0.23019070083E+04 0.  0.
        5    1    3    3  502    0 -0.55778881631E+03 -0.55579675146E+03  0.16618168203E+04  0.18389387229E+04  0.46999998093E+01 0.  1.
       -5    1    3    3    0  502  0.55778881631E+03  0.55579675146E+03 -0.29185659990E+03  0.83978613792E+03  0.46999998093E+01 0. -1.
</event>
<event>
 5   0  0.1828646E-06  0.2300325E+04  0.7818609E-02  0.8477793E-01
        2   -1    0    0  501    0  0.00000000000E+00  0.00000000000E+00  0.90981304689E+03  0.90981304689E+03  0.25500000920E-02 0. -1.
       -2   -1    0    0    0  501  0.00000000000E+00  0.00000000000E+00 -0.14540056560E+04  0.14540056560E+04  0.25500000920E-02 0.  1.
    10030    2    1    2    0    0  0.00000000000E+00  0.00000000000E+00 -0.54419260916E+03  0.23638187029E+04  0.23003245998E+04 0.  0.
        3    1    3    3  502    0  0.10004376607E+04  0.43272371467E+03  0.10511627905E+03  0.10950683853E+04  0.10100000352E+00 0. -1.
       -3    1    3    3    0  502 -0.10004376607E+04 -0.43272371467E+03 -0.64930888820E+03  0.12687503177E+04  0.10100000352E+00 0.  1.
</event>
<event>
 5   0  0.1744876E-06  0.2301407E+04  0.7818609E-02  0.8477367E-01
        2   -1    0    0  501    0  0.00000000000E+00  0.00000000000E+00  0.16202581553E+04  0.16202581553E+04  0.25500000920E-02 0. -1.
       -2   -1    0    0    0  501  0.00000000000E+00  0.00000000000E+00 -0.81722654294E+03  0.81722654295E+03  0.25500000920E-02 0.  1.
    10030    2    1    2    0    0  0.00000000000E+00  0.00000000000E+00  0.80303161236E+03  0.24374846983E+04  0.23014065012E+04 0.  0.
        1    1    3    3  502    0 -0.10239796498E+04 -0.35329784950E+03  0.81275811370E+03  0.13542265118E+04  0.50400001928E-02 0. -1.
       -1    1    3    3    0  502  0.10239796498E+04  0.35329784950E+03 -0.97265013418E+01  0.10832581865E+04  0.50400001928E-02 0.  1.
</event>
<event>
 5   0  0.7607231E-07  0.2298705E+04  0.7818609E-02  0.8478432E-01
       -1   -1    0    0    0  501  0.00000000000E+00  0.00000000000E+00  0.17424202521E+04  0.17424202521E+04  0.50400001928E-02 0.  1.
        1   -1    0    0  501    0  0.00000000000E+00  0.00000000000E+00 -0.75814726747E+03  0.75814726749E+03  0.50400001928E-02 0. -1.
    10030    2    1    2    0    0  0.00000000000E+00  0.00000000000E+00  0.98427298464E+03  0.25005675196E+04  0.22987049858E+04 0.  0.
        2    1    3    3  502    0  0.10808806563E+04  0.36685211161E+03  0.34567395398E+03  0.11926331990E+04  0.25500000920E-02 0. -1.
       -2    1    3    3    0  502 -0.10808806563E+04 -0.36685211161E+03  0.63859903067E+03  0.13079343206E+04  0.25500000920E-02 0.  1.
</event>
<event>
 5   0  0.7607231E-07  0.2300721E+04  0.7818609E-02  0.8477637E-01
       -1   -1    0    0    0  501  0.00000000000E+00  0.00000000000E+00  0.16573468631E+04  0.16573468631E+04  0.50400001928E-02 0. -1.
        1   -1    0    0  501    0  0.00000000000E+00  0.00000000000E+00 -0.79846221385E+03  0.79846221387E+03  0.50400001928E-02 0.  1.
    10030    2    1    2    0    0  0.00000000000E+00  0.00000000000E+00  0.85888464926E+03  0.24558090770E+04  0.23007206223E+04 0.  0.
        2    1    3    3  502    0  0.50529165601E+03  0.10095447704E+04  0.66530955319E+03  0.13103957809E+04  0.25500000920E-02 0.  1.
       -2    1    3    3    0  502 -0.50529165601E+03 -0.10095447704E+04  0.19357509606E+03  0.11454132961E+04  0.25500000920E-02 0. -1.
</event>
<event>
 5   0  0.1828646E-06  0.2301395E+04  0.7818609E-02  0.8477371E-01
       -2   -1    0    0    0  501  0.00000000000E+00  0.00000000000E+00  0.25453530501E+04  0.25453530501E+04  0.25500000920E-02 0.  1.
        2   -1    0    0  501    0  0.00000000000E+00  0.00000000000E+00 -0.52020486666E+03  0.52020486667E+03  0.25500000920E-02 0. -1.
    10030    2    1    2    0    0  0.00000000000E+00  0.00000000000E+00  0.20251481834E+04  0.30655579168E+04  0.23013952673E+04 0.  0.
        3    1    3    3  502    0 -0.44353974598E+03  0.12648833893E+03  0.24168396756E+04  0.24604554119E+04  0.10100000352E+00 0.  1.
       -3    1    3    3    0  502  0.44353974598E+03 -0.12648833893E+03 -0.39169149218E+03  0.60510250487E+03  0.10100000352E+00 0. -1.
</event>
<event>
 5   0  0.1828646E-06  0.2300159E+04  0.7818609E-02  0.8477859E-01
       -2   -1    0    0    0  501  0.00000000000E+00  0.00000000000E+00  0.76561002203E+03  0.76561002203E+03  0.25500000920E-02 0.  1.
        2   -1    0    0  501    0  0.00000000000E+00  0.00000000000E+00 -0.17276188271E+04  0.17276188271E+04  0.25500000920E-02 0. -1.
    10030    2    1    2    0    0  0.00000000000E+00  0.00000000000E+00 -0.96200880506E+03  0.24932288491E+04  0.23001585061E+04 0.  0.
        3    1    3    3  502    0 -0.60148586340E+03  0.43493370286E+03  0.47121491635E+03  0.87920195481E+03  0.10100000352E+00 0.  1.
       -3    1    3    3    0  502  0.60148586340E+03 -0.43493370286E+03 -0.14332237214E+04  0.16140268943E+04  0.10100000352E+00 0. -1.
</event>
<event>
 5   0  0.8108242E-07  0.2298665E+04  0.7818609E-02  0.8478448E-01
       -1   -1    0    0    0  501  0.00000000000E+00  0.00000000000E+00  0.67547203072E+03  0.67547203074E+03  0.50400001928E-02 0. -1.
        1   -1    0    0  501    0  0.00000000000E+00  0.00000000000E+00 -0.19556185146E+04  0.19556185146E+04  0.50400001928E-02 0.  1.
    10030    2    1    2    0    0  0.00000000000E+00  0.00000000000E+00 -0.12801464839E+04  0.26310905453E+04  0.22986653601E+04 0.  0.
        4    1    3    3  502    0  0.29698737014E+03 -0.12130304627E+03 -0.19033318219E+04  0.19301786353E+04  0.12699999809E+01 0.  1.
       -4    1    3    3    0  502 -0.29698737014E+03  0.12130304627E+03  0.62318533807E+03  0.70091190998E+03  0.12699999809E+01 0. -1.
</event>
<event>
 5   0  0.8108242E-07  0.2299770E+04  0.7818609E-02  0.8478012E-01
       -1   -1    0    0    0  501  0.00000000000E+00  0.00000000000E+00  0.27610002722E+04  0.27610002722E+04  0.50400001928E-02 0.  1.
        1   -1    0    0  501    0  0.00000000000E+00  0.00000000000E+00 -0.47889718017E+03  0.47889718019E+03  0.50400001928E-02 0. -1.
    10030    2    1    2    0    0  0.00000000000E+00  0.00000000000E+00  0.22821030921E+04  0.32398974524E+04  0.22997697666E+04 0.  0.
        4    1    3    3  502    0 -0.60319680574E+03 -0.15318813912E+03  0.25032308505E+04  0.25794339100E+04  0.12699999809E+01 0.  1.
       -4    1    3    3    0  502  0.60319680574E+03  0.15318813912E+03 -0.22112775842E+03  0.66046354242E+03  0.12699999809E+01 0. -1.
</event>
<event>
 5   0  0.7761069E-07  0.2300547E+04  0.7818609E-02  0.8477706E-01
        1   -1    0    0  501    0  0.00000000000E+00  0.00000000000E+00  0.19894150297E+04  0.19894150297E+04  0.50400001928E-02 0. -1.
       -1   -1    0    0    0  501  0.00000000000E+00  0.00000000000E+00 -0.66508439934E+03  0.66508439936E+03  0.50400001928E-02 0.  1.
    10030    2    1    2    0    0  0.00000000000E+00  0.00000000000E+00  0.13243306303E+04  0.26544994290E+04  0.23005468046E+04 0.  0.
        1    1    3    3  502    0  0.61638016266E+03  0.33239294413E+03 -0.39076804287E+03  0.80194091901E+03  0.50400001928E-02 0.  1.
       -1    1    3    3    0  502 -0.61638016266E+03 -0.33239294413E+03  0.17150986732E+04  0.18525585100E+04  0.50400001928E-02 0. -1.
</event>
<event>
 5   0  0.7761069E-07  0.2305900E+04  0.7818609E-02  0.8475598E-01
        1   -1    0    0  501    0  0.00000000000E+00  0.00000000000E+00  0.89712365844E+03  0.89712365845E+03  0.50400001928E-02 0. -1.
       -1   -1    0    0    0  501  0.00000000000E+00  0.00000000000E+00 -0.14817284831E+04  0.14817284831E+04  0.50400001928E-02 0.  1.
    10030    2    1    2    0    0  0.00000000000E+00  0.00000000000E+00 -0.58460482470E+03  0.23788521416E+04  0.23058999784E+04 0.  0.
        1    1    3    3  502    0  0.40678632125E+03 -0.24242349340E+03 -0.13767731394E+04  0.14559356231E+04  0.50400001928E-02 0.  1.
       -1    1    3    3    0  502 -0.40678632125E+03  0.24242349340E+03  0.79216831467E+03  0.92291651849E+03  0.50400001928E-02 0. -1.
</event>
<event>
 5   0  0.7607231E-07  0.2301355E+04  0.7818609E-02  0.8477387E-01
        1   -1    0    0  501    0  0.00000000000E+00  0.00000000000E+00  0.16340241141E+04  0.16340241141E+04  0.50400001928E-02 0.  1.
       -1   -1    0    0    0  501  0.00000000000E+00  0.00000000000E+00 -0.81030568451E+03  0.81030568452E+03  0.50400001928E-02 0. -1.
    10030    2    1    2    0    0  0.00000000000E+00  0.00000000000E+00  0.82371842956E+03  0.24443297986E+04  0.23013552775E+04 0.  0.
        2    1    3    3  502    0 -0.13448427311E+03  0.61714203129E+03  0.14334395415E+04  0.15664288128E+04  0.25500000920E-02 0.  1.
       -2    1    3    3    0  502  0.13448427311E+03 -0.61714203129E+03 -0.60972111193E+03  0.87790098579E+03  0.25500000920E-02 0. -1.
</event>
<event>
 5   0  0.7932912E-07  0.2299653E+04  0.7818609E-02  0.8478058E-01
       -1   -1    0    0    0  501  0.00000000000E+00  0.00000000000E+00  0.48912748123E+03  0.48912748125E+03  0.50400001928E-02 0. -1.
        1   -1    0    0  501    0  0.00000000000E+00  0.00000000000E+00 -0.27029776857E+04  0.27029776857E+04  0.50400001928E-02 0.  1.
    10030    2    1    2    0    0  0.00000000000E+00  0.00000000000E+00 -0.22138502045E+04  0.31921051669E+04  0.22996527279E+04 0.  0.
        5    1    3    3  502    0 -0.84941564980E+03  0.67142789711E+03 -0.56976054001E+03  0.12235078791E+04  0.46999998093E+01 0. -1.
       -5    1    3    3    0  502  0.84941564980E+03 -0.67142789711E+03 -0.16440896644E+04  0.19685972879E+04  0.46999998093E+01 0.  1.
</event>
<event>
 5   0  0.7607231E-07  0.2301392E+04  0.7818609E-02  0.8477373E-01
        1   -1    0    0  501    0  0.00000000000E+00  0.00000000000E+00  0.12312718283E+04  0.12312718284E+04  0.50400001928E-02 0. -1.
       -1   -1    0    0    0  501  0.00000000000E+00  0.00000000000E+00 -0.10753927268E+04  0.10753927269E+04  0.50400001928E-02 0.  1.
    10030    2    1    2    0    0  0.00000000000E+00  0.00000000000E+00  0.15587910150E+03  0.23066645552E+04  0.23013915521E+04 0.  0.
        2    1    3    3  502    0 -0.96711221806E+03  0.40102184219E+03  0.55650208020E+03  0.11856724360E+04  0.25500000920E-02 0.  1.
       -2    1    3    3    0  502  0.96711221806E+03 -0.40102184219E+03 -0.40062297869E+03  0.11209921192E+04  0.25500000920E-02 0. -1.
</event>
<event>
 5   0  0.1744876E-06  0.2297498E+04  0.7818609E-02  0.8478908E-01
        2   -1    0    0  501    0  0.00000000000E+00  0.00000000000E+00  0.16080234803E+04  0.16080234803E+04  0.25500000920E-02 0.  1.
       -2   -1    0    0    0  501  0.00000000000E+00  0.00000000000E+00 -0.82065014863E+03  0.82065014863E+03  0.25500000920E-02 0. -1.
    10030    2    1    2    0    0  0.00000000000E+00  0.00000000000E+00  0.78737333171E+03  0.24286736290E+04  0.22974983858E+04 0.  0.
        1    1    3    3  502    0  0.70255562080E+03 -0.87022613405E+03  0.11652055133E+03  0.11244798636E+04  0.50400001928E-02 0. -1.
       -1    1    3    3    0  502 -0.70255562080E+03  0.87022613405E+03  0.67085278038E+03  0.13041937654E+04  0.50400001928E-02 0.  1.
</event>
<event>
 5   0  0.1744876E-06  0.2300086E+04  0.7818609E-02  0.8477887E-01
        2   -1    0    0  501    0  0.00000000000E+00  0.00000000000E+00  0.16124681342E+04  0.16124681342E+04  0.25500000920E-02 0. -1.
       -2   -1    0    0    0  501  0.00000000000E+00  0.00000000000E+00 -0.82023273956E+03  0.82023273956E+03  0.25500000920E-02 0.  1.
    10030    2    1    2    0    0  0.00000000000E+00  0.00000000000E+00  0.79223539459E+03  0.24327008737E+04  0.23000862202E+04 0.  0.
        1    1    3    3  502    0 -0.86715961111E+03 -0.15098390370E+03  0.11789529314E+04  0.14712892118E+04  0.50400001928E-02 0. -1.
       -1    1    3    3    0  502  0.86715961111E+03  0.15098390370E+03 -0.38671753682E+03  0.96141166189E+03  0.50400001928E-02 0.  1.
</event>
<event>
 5   0  0.1689444E-06  0.2300362E+04  0.7818609E-02  0.8477779E-01
        2   -1    0    0  501    0  0.00000000000E+00  0.00000000000E+00  0.75528907409E+03  0.75528907409E+03  0.25500000920E-02 0.  1.
       -2   -1    0    0    0  501  0.00000000000E+00  0.00000000000E+00 -0.17515359734E+04  0.17515359734E+04  0.25500000920E-02 0. -1.
    10030    2    1    2    0    0  0.00000000000E+00  0.00000000000E+00 -0.99624689933E+03  0.25068250475E+04  0.23003616964E+04 0.  0.
        2    1    3    3  502    0 -0.39614231230E+03 -0.66063567711E+03  0.43267309052E+03  0.88350112209E+03  0.25500000920E-02 0.  1.
       -2    1    3    3    0  502  0.39614231230E+03  0.66063567711E+03 -0.14289199899E+04  0.16233239254E+04  0.25500000920E-02 0. -1.
</event>
<event>
 5   0  0.8108242E-07  0.2299411E+04  0.7818609E-02  0.8478153E-01
       -1   -1    0    0    0  501  0.00000000000E+00  0.00000000000E+00  0.17790740332E+04  0.17790740332E+04  0.50400001928E-02 0. -1.
        1   -1    0    0  501    0  0.00000000000E+00  0.00000000000E+00 -0.74298378185E+03  0.74298378186E+03  0.50400001928E-02 0.  1.
    10030    2    1    2    0    0  0.00000000000E+00  0.00000000000E+00  0.10360902513E+04  0.25220578150E+04  0.22994113624E+04 0.  0.
        4    1    3    3  502    0 -0.47054527742E+03 -0.31186318263E+03  0.16165988780E+04  0.17123273776E+04  0.12699999809E+01 0. -1.
       -4    1    3    3    0  502  0.47054527742E+03  0.31186318263E+03 -0.58050862668E+03  0.80973043745E+03  0.12699999809E+01 0.  1.
</event>
<event>
 5   0  0.8108242E-07  0.2299734E+04  0.7818609E-02  0.8478026E-01
       -1   -1    0    0    0  501  0.00000000000E+00  0.00000000000E+00  0.55605637944E+03  0.55605637946E+03  0.50400001928E-02 0.  1.
        1   -1    0    0  501    0  0.00000000000E+00  0.00000000000E+00 -0.23778064341E+04  0.23778064341E+04  0.50400001928E-02 0. -1.
    10030    2    1    2    0    0  0.00000000000E+00  0.00000000000E+00 -0.18217500547E+04  0.29338628136E+04  0.22997342775E+04 0.  0.
        4    1    3    3  502    0  0.10528557726E+04  0.43223783840E+03 -0.70180154407E+03  0.13371095120E+04  0.12699999809E+01 0.  1.
       -4    1    3    3    0  502 -0.10528557726E+04 -0.43223783840E+03 -0.11199485106E+04  0.15967533016E+04  0.12699999809E+01 0. -1.
</event>
<event>
 5   0  0.7761069E-07  0.2300905E+04  0.7818609E-02  0.8477564E-01
        1   -1    0    0  501    0  0.00000000000E+00  0.00000000000E+00  0.17857961811E+04  0.17857961811E+04  0.50400001928E-02 0. -1.
       -1   -1    0    0    0  501  0.00000000000E+00  0.00000000000E+00 -0.74114904060E+03  0.74114904061E+03  0.50400001928E-02 0.  1.
    10030    2    1    2    0    0  0.00000000000E+00  0.00000000000E+00  0.10446471405E+04  0.25269452217E+04  0.23009051492E+04 0.  0.
        1    1    3    3  502    0 -0.10451701854E+04  0.23680741300E+02 -0.50597825643E+01  0.10454506661E+04  0.50400001928E-02 0. -1.
       -1    1    3    3    0  502  0.10451701854E+04 -0.23680741300E+02  0.10497069231E+04  0.14814945556E+04  0.50400001928E-02 0.  1.
</event>
<event>
 5   0  0.7607231E-07  0.2299852E+04  0.7818609E-02  0.8477979E-01
       -1   -1    0    0    0  501  0.00000000000E+00  0.00000000000E+00  0.12699926394E+04  0.12699926394E+04  0.50400001928E-02 0.  1.
        1   -1    0    0  501    0  0.00000000000E+00  0.00000000000E+00 -0.10412108001E+04  0.10412108001E+04  0.50400001928E-02 0. -1.
    10030    2    1    2    0    0  0.00000000000E+00  0.00000000000E+00  0.22878183931E+03  0.23112034395E+04  0.22998522146E+04 0.  0.
        2    1    3    3  502    0  0.78699420865E+03 -0.71725703829E+03  0.55071414605E+03  0.11987925651E+04  0.25500000920E-02 0.  1.
       -2    1    3    3    0  502 -0.78699420865E+03  0.71725703829E+03 -0.32193230675E+03  0.11124108744E+04  0.25500000920E-02 0. -1.
</event>
<event>
 5   0  0.7607231E-07  0.2298722E+04  0.7818609E-02  0.8478425E-01
       -1   -1    0    0    0  501  0.00000000000E+00  0.00000000000E+00  0.15192493610E+04  0.15192493610E+04  0.50400001928E-02 0.  1.
        1   -1    0    0  501    0  0.00000000000E+00  0.00000000000E+00 -0.86952869850E+03  0.86952869851E+03  0.50400001928E-02 0. -1.
    10030    2    1    2    0    0  0.00000000000E+00  0.00000000000E+00  0.64972066247E+03  0.23887780595E+04  0.22987221838E+04 0.  0.
        2    1    3    3  502    0  0.47308330361E+03 -0.96477342407E+03  0.74880785036E+03  0.13096979685E+04  0.25500000920E-02 0.  1.
       -2    1    3    3    0  502 -0.47308330361E+03  0.96477342407E+03 -0.99087187888E+02  0.10790800910E+04  0.25500000920E-02 0. -1.
</event>
<event>
 5   0  0.1828646E-06  0.2299844E+04  0.7818609E-02  0.8477982E-01
       -2   -1    0    0    0  501  0.00000000000E+00  0.00000000000E+00  0.79040959377E+03  0.79040959377E+03  0.25500000920E-02 0. -1.
        2   -1    0    0  501    0  0.00000000000E+00  0.00000000000E+00 -0.16729567608E+04  0.16729567608E+04  0.25500000920E-02 0.  1.
    10030    2    1    2    0    0  0.00000000000E+00  0.00000000000E+00 -0.88254716701E+03  0.24633663546E+04  0.22998444066E+04 0.  0.
        3    1    3    3  502    0  0.73663258670E+03  0.31074116750E+02 -0.13864729373E+04  0.15703185615E+04  0.10100000352E+00 0.  1.
       -3    1    3    3    0  502 -0.73663258670E+03 -0.31074116750E+02  0.50392577029E+03  0.89304779305E+03  0.10100000352E+00 0. -1.
</event>
<event>
 5   0  0.1744876E-06  0.2300105E+04  0.7818609E-02  0.8477880E-01
       -2   -1    0    0    0  501  0.00000000000E+00  0.00000000000E+00  0.59962377057E+03  0.59962377058E+03  0.25500000920E-02 0. -1.
        2   -1    0    0  501    0  0.00000000000E+00  0.00000000000E+00 -0.22057511552E+04  0.22057511552E+04  0.25500000920E-02 0.  1.
    10030    2    1    2    0    0  0.00000000000E+00  0.00000000000E+00 -0.16061273847E+04  0.28053749258E+04  0.23001050625E+04 0.  0.
        1    1    3    3  502    0 -0.26506753896E+03  0.48915581508E+03  0.42456357293E+03  0.69984886877E+03  0.50400001928E-02 0. -1.
       -1    1    3    3    0  502  0.26506753896E+03 -0.48915581508E+03 -0.20306909576E+04  0.21055260570E+04  0.50400001928E-02 0.  1.
</event>
<event>
 5   0  0.1828646E-06  0.2299490E+04  0.7818609E-02  0.8478122E-01
       -2   -1    0    0    0  501  0.00000000000E+00  0.00000000000E+00  0.69040105077E+03  0.69040105077E+03  0.25500000920E-02 0.  1.
        2   -1    0    0  501    0  0.00000000000E+00  0.00000000000E+00 -0.19147032990E+04  0.19147032990E+04  0.25500000920E-02 0. -1.
    10030    2    1    2    0    0  0.00000000000E+00  0.00000000000E+00 -0.12243022483E+04  0.26051043498E+04  0.22994896560E+04 0.  0.
        3    1    3    3  502    0 -0.10509951599E+04 -0.72069952563E+02 -0.11339377264E+04  0.15477724903E+04  0.10100000352E+00 0. -1.
       -3    1    3    3    0  502  0.10509951599E+04  0.72069952563E+02 -0.90364521866E+02  0.10573318595E+04  0.10100000352E+00 0.  1.
</event>
<event>
 5   0  0.7761069E-07  0.2300784E+04  0.7818609E-02  0.8477612E-01
       -1   -1    0    0    0  501  0.00000000000E+00  0.00000000000E+00  0.85659363389E+03  0.85659363391E+03  0.50400001928E-02 0.  1.
        1   -1    0    0  501    0  0.00000000000E+00  0.00000000000E+00 -0.15449585591E+04  0.15449585591E+04  0.50400001928E-02 0. -1.
    10030    2    1    2    0    0  0.00000000000E+00  0.00000000000E+00 -0.68836492517E+03  0.24015521930E+04  0.23007839241E+04 0.  0.
        1    1    3    3  502    0 -0.72267553731E+03 -0.83938208220E+03 -0.66856582313E+03  0.12937551824E+04  0.50400001928E-02 0.  1.
       -1    1    3    3    0  502  0.72267553731E+03  0.83938208220E+03 -0.19799102040E+02  0.11077970106E+04  0.50400001928E-02 0. -1.
</event>
<event>
 5   0  0.1689444E-06  0.2299713E+04  0.7818609E-02  0.8478034E-01
       -2   -1    0    0    0  501  0.00000000000E+00  0.00000000000E+00  0.16845898796E+04  0.16845898796E+04  0.25500000920E-02 0.  1.
        2   -1    0    0  501    0  0.00000000000E+00  0.00000000000E+00 -0.78486171120E+03  0.78486171120E+03  0.25500000920E-02 0. -1.
    10030    2    1    2    0    0  0.00000000000E+00  0.00000000000E+00  0.89972816840E+03  0.24694515908E+04  0.22997131087E+04 0.  0.
        2    1    3    3  502    0 -0.78343540559E+03 -0.73519713058E+03  0.88984295499E+03  0.13950291539E+04  0.25500000920E-02 0.  1.
       -2    1    3    3    0  502  0.78343540559E+03  0.73519713058E+03  0.98852134034E+01  0.10744224369E+04  0.25500000920E-02 0. -1.
</event>
<event>
 5   0  0.1689444E-06  0.2299048E+04  0.7818609E-02  0.8478297E-01
        2   -1    0    0  501    0  0.00000000000E+00  0.00000000000E+00  0.85585070772E+03  0.85585070772E+03  0.25500000920E-02 0.  1.
       -2   -1    0    0    0  501  0.00000000000E+00  0.00000000000E+00 -0.15439673034E+04  0.15439673034E+04  0.25500000920E-02 0. -1.
    10030    2    1    2    0    0  0.00000000000E+00  0.00000000000E+00 -0.68811659569E+03  0.23998180111E+04  0.22990480720E+04 0.  0.
        2    1    3    3  502    0  0.86604513384E+02  0.98170802488E+03  0.27361684673E+03  0.10227986931E+04  0.25500000920E-02 0.  1.
       -2    1    3    3    0  502 -0.86604513384E+02 -0.98170802488E+03 -0.96173344242E+03  0.13770193180E+04  0.25500000920E-02 0. -1.
</event>
<event>
 5   0  0.8108242E-07  0.2299923E+04  0.7818609E-02  0.8477951E-01
       -1   -1    0    0    0  501  0.00000000000E+00  0.00000000000E+00  0.84539641933E+03  0.84539641934E+03  0.50400001928E-02 0.  1.
        1   -1    0    0  501    0  0.00000000000E+00  0.00000000000E+00 -0.15642503365E+04  0.15642503365E+04  0.50400001928E-02 0. -1.
    10030    2    1    2    0    0  0.00000000000E+00  0.00000000000E+00 -0.71885391719E+03  0.24096467559E+04  0.22999231582E+04 0.  0.
        4    1    3    3  502    0 -0.77097610419E+03  0.65738630839E+03 -0.92929616240E+03  0.13748286737E+04  0.12699999809E+01 0. -1.
       -4    1    3    3    0  502  0.77097610419E+03 -0.65738630839E+03  0.21044224521E+03  0.10348180822E+04  0.12699999809E+01 0.  1.
</event>
<event>
 5   0  0.7607231E-07  0.2299667E+04  0.7818609E-02  0.8478052E-01
        1   -1    0    0  501    0  0.00000000000E+00  0.00000000000E+00  0.23348682358E+04  0.23348682358E+04  0.50400001928E-02 0.  1.
       -1   -1    0    0    0  501  0.00000000000E+00  0.00000000000E+00 -0.56624917790E+03  0.56624917792E+03  0.50400001928E-02 0. -1.
    10030    2    1    2    0    0  0.00000000000E+00  0.00000000000E+00  0.17686190579E+04  0.29011174137E+04  0.22996671229E+04 0.  0.
        2    1    3    3  502    0  0.10303272231E+04  0.50992202963E+03  0.85547141735E+03  0.14329780210E+04  0.25500000920E-02 0. -1.
       -2    1    3    3    0  502 -0.10303272231E+04 -0.50992202963E+03  0.91314764055E+03  0.14681393927E+04  0.25500000920E-02 0.  1.
</event>
<event>
 5   0  0.7932912E-07  0.2300149E+04  0.7818609E-02  0.8477862E-01
       -1   -1    0    0    0  501  0.00000000000E+00  0.00000000000E+00  0.81852783276E+03  0.81852783278E+03  0.50400001928E-02 0. -1.
        1   -1    0    0  501    0  0.00000000000E+00  0.00000000000E+00 -0.16159151513E+04  0.16159151513E+04  0.50400001928E-02 0.  1.
    10030    2    1    2    0    0  0.00000000000E+00  0.00000000000E+00 -0.79738731856E+03  0.24344429841E+04  0.23001491489E+04 0.  0.
        5    1    3    3  502    0  0.44544346073E+03 -0.65064703014E+03 -0.12847634345E+04  0.15074483763E+04  0.46999998093E+01 0.  1.
       -5    1    3    3    0  502 -0.44544346073E+03  0.65064703014E+03  0.48737611595E+03  0.92699460782E+03  0.46999998093E+01 0. -1.
</event>
<event>
 5   0  0.1888779E-06  0.2298699E+04  0.7818609E-02  0.8478434E-01
        2   -1    0    0  501    0  0.00000000000E+00  0.00000000000E+00  0.10069566014E+04  0.10069566014E+04  0.25500000920E-02 0. -1.
       -2   -1    0    0    0  501  0.00000000000E+00  0.00000000000E+00 -0.13118780681E+04  0.13118780681E+04  0.25500000920E-02 0.  1.
    10030    2    1    2    0    0  0.00000000000E+00  0.00000000000E+00 -0.30492146673E+03  0.23188346695E+04  0.22986990067E+04 0.  0.
        4    1    3    3  502    0 -0.14869611467E+03 -0.21146407843E+03  0.97724871221E+03  0.10108631210E+04  0.12699999809E+01 0. -1.
       -4    1    3    3    0  502  0.14869611467E+03  0.21146407843E+03 -0.12821701789E+04  0.13079715485E+04  0.12699999809E+01 0.  1.
</event>
<event>
 5   0  0.7932912E-07  0.2299870E+04  0.7818609E-02  0.8477973E-01
        1   -1    0    0  501    0  0.00000000000E+00  0.00000000000E+00  0.10899708985E+04  0.10899708985E+04  0.50400001928E-02 0.  1.
       -1   -1    0    0    0  501  0.00000000000E+00  0.00000000000E+00 -0.12131974789E+04  0.12131974789E+04  0.50400001928E-02 0. -1.
    10030    2    1    2    0    0  0.00000000000E+00  0.00000000000E+00 -0.12322658037E+03  0.23031683774E+04  0.22998695147E+04 0.  0.
        5    1    3    3  502    0 -0.27927042219E+03  0.10427655930E+04 -0.45838331324E+03  0.11728126033E+04  0.46999998093E+01 0. -1.
       -5    1    3    3    0  502  0.27927042219E+03 -0.10427655930E+04  0.33515673287E+03  0.11303557741E+04  0.46999998093E+01 0.  1.
</event>
<event>
 5   0  0.1744876E-06  0.2300678E+04  0.7818609E-02  0.8477654E-01
        2   -1    0    0  501    0  0.00000000000E+00  0.00000000000E+00  0.18250950690E+04  0.18250950690E+04  0.25500000920E-02 0.  1.
       -2   -1    0    0    0  501  0.00000000000E+00  0.00000000000E+00 -0.72504717138E+03  0.72504717139E+03  0.25500000920E-02 0. -1.
    10030    2    1    2    0    0  0.00000000000E+00  0.00000000000E+00  0.11000478976E+04  0.25501422404E+04  0.23006781759E+04 0.  0.
        1    1    3    3  502    0 -0.55373129147E+03 -0.40732368530E+03 -0.47234883223E+03  0.83405296421E+03  0.50400001928E-02 0. -1.
       -1    1    3    3    0  502  0.55373129147E+03  0.40732368530E+03  0.15723967299E+04  0.17160892762E+04  0.50400001928E-02 0.  1.
</event>
<event>
 5   0  0.7932912E-07  0.2300997E+04  0.7818609E-02  0.8477528E-01
       -1   -1    0    0    0  501  0.00000000000E+00  0.00000000000E+00  0.84921245659E+03  0.84921245661E+03  0.50400001928E-02 0.  1.
        1   -1    0    0  501    0  0.00000000000E+00  0.00000000000E+00 -0.15586759417E+04  0.15586759417E+04  0.50400001928E-02 0. -1.
    10030    2    1    2    0    0  0.00000000000E+00  0.00000000000E+00 -0.70946348507E+03  0.24078883983E+04  0.23009971973E+04 0.  0.
        5    1    3    3  502    0 -0.79507427907E+02  0.95002219266E+03 -0.10286688939E+04  0.14025139503E+04  0.46999998093E+01 0. -1.
       -5    1    3    3    0  502  0.79507427907E+02 -0.95002219266E+03  0.31920540879E+03  0.10053744480E+04  0.46999998093E+01 0.  1.
</event>
<event>
 5   0  0.7761069E-07  0.2300012E+04  0.7818609E-02  0.8477916E-01
       -1   -1    0    0    0  501  0.00000000000E+00  0.00000000000E+00  0.12449501398E+04  0.12449501398E+04  0.50400001928E-02 0.  1.
        1   -1    0    0  501    0  0.00000000000E+00  0.00000000000E+00 -0.10623029119E+04  0.10623029119E+04  0.50400001928E-02 0. -1.
    10030    2    1    2    0    0  0.00000000000E+00  0.00000000000E+00  0.18264722787E+03  0.23072530517E+04  0.23000123119E+04 0.  0.
        1    1    3    3  502    0  0.79280052726E+03 -0.80961733212E+03  0.28815870671E+03  0.11692084249E+04  0.50400001928E-02 0.  1.
       -1    1    3    3    0  502 -0.79280052726E+03  0.80961733212E+03 -0.10551147884E+03  0.11380446268E+04  0.50400001928E-02 0. -1.
</event>
<event>
 5   0  0.8097672E-07  0.2300765E+04  0.7818609E-02  0.8477620E-01
       -1   -1    0    0    0  501  0.00000000000E+00  0.00000000000E+00  0.88053004280E+03  0.88053004282E+03  0.50400001928E-02 0.  1.
        1   -1    0    0  501    0  0.00000000000E+00  0.00000000000E+00 -0.15029349604E+04  0.15029349604E+04  0.50400001928E-02 0. -1.
    10030    2    1    2    0    0  0.00000000000E+00  0.00000000000E+00 -0.62240491756E+03  0.23834650032E+04  0.23007645555E+04 0.  0.
        3    1    3    3  502    0 -0.19713127717E+03 -0.44017446848E+03 -0.13931400555E+04  0.14742637239E+04  0.10100000352E+00 0. -1.
       -3    1    3    3    0  502  0.19713127717E+03  0.44017446848E+03  0.77073513796E+03  0.90920127927E+03  0.10100000352E+00 0.  1.
</event>
<event>
 5   0  0.7932912E-07  0.2299487E+04  0.7818609E-02  0.8478123E-01
       -1   -1    0    0    0  501  0.00000000000E+00  0.00000000000E+00  0.14982155439E+04  0.14982155439E+04  0.50400001928E-02 0. -1.
        1   -1    0    0  501    0  0.00000000000E+00  0.00000000000E+00 -0.88232299897E+03  0.88232299898E+03  0.50400001928E-02 0.  1.
    10030    2    1    2    0    0  0.00000000000E+00  0.00000000000E+00  0.61589254491E+03  0.23805385429E+04  0.22994869269E+04 0.  0.
        5    1    3    3  502    0 -0.10525006619E+04  0.33292293294E+03  0.64066628047E+03  0.12763505378E+04  0.46999998093E+01 0.  1.
       -5    1    3    3    0  502  0.10525006619E+04 -0.33292293294E+03 -0.24773735554E+02  0.11041880050E+04  0.46999998093E+01 0. -1.
</event>
<event>
 5   0  0.1888779E-06  0.2300253E+04  0.7818609E-02  0.8477821E-01
       -2   -1    0    0    0  501  0.00000000000E+00  0.00000000000E+00  0.76067668427E+03  0.76067668427E+03  0.25500000920E-02 0. -1.
        2   -1    0    0  501    0  0.00000000000E+00  0.00000000000E+00 -0.17389667296E+04  0.17389667296E+04  0.25500000920E-02 0.  1.
    10030    2    1    2    0    0  0.00000000000E+00  0.00000000000E+00 -0.97829004538E+03  0.24996434139E+04  0.23002534173E+04 0.  0.
        4    1    3    3  502    0  0.82450453078E+02  0.89917512511E+01 -0.17357119981E+04  0.17376929194E+04  0.12699999809E+01 0.  1.
       -4    1    3    3    0  502 -0.82450453078E+02 -0.89917512511E+01  0.75742195271E+03  0.76195049455E+03  0.12699999809E+01 0. -1.
</event>
<event>
 5   0  0.1828646E-06  0.2299889E+04  0.7818609E-02  0.8477965E-01
        2   -1    0    0  501    0  0.00000000000E+00  0.00000000000E+00  0.21672373603E+04  0.21672373604E+04  0.25500000920E-02 0.  1.
       -2   -1    0    0    0  501  0.00000000000E+00  0.00000000000E+00 -0.61016511722E+03  0.61016511722E+03  0.25500000920E-02 0. -1.
    10030    2    1    2    0    0  0.00000000000E+00  0.00000000000E+00  0.15570722431E+04  0.27774024776E+04  0.22998892478E+04 0.  0.
        3    1    3    3  502    0 -0.14295140049E+02  0.99432150152E+03  0.14759254147E+04  0.17796728462E+04  0.10100000352E+00 0.  1.
       -3    1    3    3    0  502  0.14295140049E+02 -0.99432150152E+03  0.81146828414E+02  0.99772963140E+03  0.10100000352E+00 0. -1.
</event>
<event>
 5   0  0.1689444E-06  0.2299625E+04  0.7818609E-02  0.8478069E-01
        2   -1    0    0  501    0  0.00000000000E+00  0.00000000000E+00  0.13710187755E+04  0.13710187755E+04  0.25500000920E-02 0. -1.
       -2   -1    0    0    0  501  0.00000000000E+00  0.00000000000E+00 -0.96429702403E+03  0.96429702403E+03  0.25500000920E-02 0.  1.
    10030    2    1    2    0    0  0.00000000000E+00  0.00000000000E+00  0.40672175144E+03  0.23353157995E+04  0.22996254696E+04 0.  0.
        2    1    3    3  502    0 -0.72449932398E+02  0.54080549426E+03  0.12311704060E+04  0.13466625947E+04  0.25500000920E-02 0. -1.
       -2    1    3    3    0  502  0.72449932398E+02 -0.54080549426E+03 -0.82444865457E+03  0.98865320480E+03  0.25500000920E-02 0.  1.
</event>
<event>
 5   0  0.1744876E-06  0.2300034E+04  0.7818609E-02  0.8477908E-01
       -2   -1    0    0    0  501  0.00000000000E+00  0.00000000000E+00  0.10932760135E+04  0.10932760135E+04  0.25500000920E-02 0.  1.
        2   -1    0    0  501    0  0.00000000000E+00  0.00000000000E+00 -0.12097030032E+04  0.12097030032E+04  0.25500000920E-02 0. -1.
    10030    2    1    2    0    0  0.00000000000E+00  0.00000000000E+00 -0.11642698971E+03  0.23029790166E+04  0.23000341535E+04 0.  0.
        1    1    3    3  502    0 -0.59567317231E+03  0.75351726267E+03 -0.69141901493E+03  0.11835011819E+04  0.50400001928E-02 0. -1.
       -1    1    3    3    0  502  0.59567317231E+03 -0.75351726267E+03  0.57499202521E+03  0.11194778347E+04  0.50400001928E-02 0.  1.
</event>
<event>
 5   0  0.1825521E-06  0.2299247E+04  0.7818609E-02  0.8478218E-01
       -2   -1    0    0    0  501  0.00000000000E+00  0.00000000000E+00  0.82313387375E+03  0.82313387375E+03  0.25500000920E-02 0.  1.
        2   -1    0    0  501    0  0.00000000000E+00  0.00000000000E+00 -0.16056121809E+04  0.16056121809E+04  0.25500000920E-02 0. -1.
    10030    2    1    2    0    0  0.00000000000E+00  0.00000000000E+00 -0.78247830712E+03  0.24287460546E+04  0.22992466368E+04 0.  0.
        5    1    3    3  502    0 -0.66016904908E+03  0.93957445665E+03 -0.33349442170E+03  0.11957691885E+04  0.46999998093E+01 0.  1.
       -5    1    3    3    0  502  0.66016904908E+03 -0.93957445665E+03 -0.44898388542E+03  0.12329768661E+04  0.46999998093E+01 0. -1.
</event>
<event>
 5   0  0.1828646E-06  0.2299384E+04  0.7818609E-02  0.8478164E-01
        2   -1    0    0  501    0  0.00000000000E+00  0.00000000000E+00  0.17528623912E+04  0.17528623912E+04  0.25500000920E-02 0.  1.
       -2   -1    0    0    0  501  0.00000000000E+00  0.00000000000E+00 -0.75407587983E+03  0.75407587984E+03  0.25500000920E-02 0. -1.
    10030    2    1    2    0    0  0.00000000000E+00  0.00000000000E+00  0.99878651138E+03  0.25069382711E+04  0.22993836130E+04 0.  0.
        3    1    3    3  502    0 -0.36606365174E+03 -0.10541062928E+04  0.80123842214E+03  0.13737269354E+04  0.10100000352E+00 0.  1.
       -3    1    3    3    0  502  0.36606365174E+03  0.10541062928E+04  0.19754808925E+03  0.11332113357E+04  0.10100000352E+00 0. -1.
</event>
<event>
 5   0  0.7761069E-07  0.2301307E+04  0.7818609E-02  0.8477406E-01
        1   -1    0    0  501    0  0.00000000000E+00  0.00000000000E+00  0.18185914580E+04  0.18185914581E+04  0.50400001928E-02 0. -1.
       -1   -1    0    0    0  501  0.00000000000E+00  0.00000000000E+00 -0.72803792621E+03  0.72803792623E+03  0.50400001928E-02 0.  1.
    10030    2    1    2    0    0  0.00000000000E+00  0.00000000000E+00  0.10905535318E+04  0.25466293843E+04  0.23013070667E+04 0.  0.
        1    1    3    3  502    0  0.33095848479E+03  0.48401780014E+03 -0.55031261944E+03  0.80414596228E+03  0.50400001928E-02 0.  1.
       -1    1    3    3    0  502 -0.33095848479E+03 -0.48401780014E+03  0.16408661513E+04  0.17424834220E+04  0.50400001928E-02 0. -1.
</event>
<event>
 5   0  0.8097672E-07  0.2301097E+04  0.7818609E-02  0.8477489E-01
        1   -1    0    0  501    0  0.00000000000E+00  0.00000000000E+00  0.15450825125E+04  0.15450825125E+04  0.50400001928E-02 0. -1.
       -1   -1    0    0    0  501  0.00000000000E+00  0.00000000000E+00 -0.85675781350E+03  0.85675781351E+03  0.50400001928E-02 0.  1.
    10030    2    1    2    0    0  0.00000000000E+00  0.00000000000E+00  0.68832469903E+03  0.24018403261E+04  0.23010967082E+04 0.  0.
        3    1    3    3  502    0 -0.24434130532E+01  0.93275580508E+03 -0.35891684785E+03  0.99943017567E+03  0.10100000352E+00 0.  1.
       -3    1    3    3    0  502  0.24434130532E+01 -0.93275580508E+03  0.10472415469E+04  0.14024101504E+04  0.10100000352E+00 0. -1.
</event>
<event>
 5   0  0.7932912E-07  0.2298857E+04  0.7818609E-02  0.8478372E-01
       -1   -1    0    0    0  501  0.00000000000E+00  0.00000000000E+00  0.11691138095E+04  0.11691138095E+04  0.50400001928E-02 0.  1.
        1   -1    0    0  501    0  0.00000000000E+00  0.00000000000E+00 -0.11300744335E+04  0.11300744335E+04  0.50400001928E-02 0. -1.
    10030    2    1    2    0    0  0.00000000000E+00  0.00000000000E+00  0.39039375985E+02  0.22991882430E+04  0.22988567819E+04 0.  0.
        5    1    3    3  502    0 -0.12860905874E+03  0.61607070962E+03  0.98146922493E+03  0.11659276730E+04  0.46999998093E+01 0.  1.
       -5    1    3    3    0  502  0.12860905874E+03 -0.61607070962E+03 -0.94242984894E+03  0.11332605700E+04  0.46999998093E+01 0. -1.
</event>
<event>
 5   0  0.8097672E-07  0.2301966E+04  0.7818609E-02  0.8477146E-01
       -1   -1    0    0    0  501  0.00000000000E+00  0.00000000000E+00  0.91002359789E+03  0.91002359791E+03  0.50400001928E-02 0. -1.
        1   -1    0    0  501    0  0.00000000000E+00  0.00000000000E+00 -0.14557448027E+04  0.14557448027E+04  0.50400001928E-02 0.  1.
    10030    2    1    2    0    0  0.00000000000E+00  0.00000000000E+00 -0.54572120480E+03  0.23657684006E+04  0.23019662230E+04 0.  0.
        3    1    3    3  502    0 -0.16906463670E+03  0.31404750734E+03 -0.13975192535E+04  0.14423136837E+04  0.10100000352E+00 0.  1.
       -3    1    3    3    0  502  0.16906463670E+03 -0.31404750734E+03  0.85179804866E+03  0.92345471689E+03  0.10100000352E+00 0. -1.
</event>
<event>
 5   0  0.1689444E-06  0.2299447E+04  0.7818609E-02  0.8478139E-01
        2   -1    0    0  501    0  0.00000000000E+00  0.00000000000E+00  0.10236416952E+04  0.10236416952E+04  0.25500000920E-02 0. -1.
       -2   -1    0    0    0  501  0.00000000000E+00  0.00000000000E+00 -0.12913343357E+04  0.12913343357E+04  0.25500000920E-02 0.  1.
    10030    2    1    2    0    0  0.00000000000E+00  0.00000000000E+00 -0.26769264048E+03  0.23149760310E+04  0.22994466017E+04 0.  0.
        2    1    3    3  502    0 -0.18243651381E+03 -0.40508996735E+03 -0.12014241841E+04  0.12809375603E+04  0.25500000920E-02 0.  1.
       -2    1    3    3    0  502  0.18243651381E+03  0.40508996735E+03  0.93373154364E+03  0.10340384707E+04  0.25500000920E-02 0. -1.
</event>
<event>
 5   0  0.1828646E-06  0.2300581E+04  0.7818609E-02  0.8477692E-01
       -2   -1    0    0    0  501  0.00000000000E+00  0.00000000000E+00  0.10387675261E+04  0.10387675261E+04  0.25500000920E-02 0. -1.
        2   -1    0    0  501    0  0.00000000000E+00  0.00000000000E+00 -0.12737868610E+04  0.12737868610E+04  0.25500000920E-02 0.  1.
    10030    2    1    2    0    0  0.00000000000E+00  0.00000000000E+00 -0.23501933492E+03  0.23125543870E+04  0.23005811668E+04 0.  0.
        3    1    3    3  502    0  0.72045772519E+03 -0.77145912789E+03  0.34199070437E+03  0.11095792770E+04  0.10100000352E+00 0.  1.
       -3    1    3    3    0  502 -0.72045772519E+03  0.77145912789E+03 -0.57701003929E+03  0.12029751101E+04  0.10100000352E+00 0. -1.
</event>
<event>
 5   0  0.8097672E-07  0.2299194E+04  0.7818609E-02  0.8478239E-01
        1   -1    0    0  501    0  0.00000000000E+00  0.00000000000E+00  0.89804830144E+03  0.89804830146E+03  0.50400001928E-02 0.  1.
       -1   -1    0    0    0  501  0.00000000000E+00  0.00000000000E+00 -0.14716053989E+04  0.14716053989E+04  0.50400001928E-02 0. -1.
    10030    2    1    2    0    0  0.00000000000E+00  0.00000000000E+00 -0.57355709741E+03  0.23696537003E+04  0.22991935359E+04 0.  0.
        3    1    3    3  502    0 -0.10492378079E+04 -0.16300920199E+03 -0.74084869602E+03  0.12947311605E+04  0.10100000352E+00 0. -1.
       -3    1    3    3    0  502  0.10492378079E+04  0.16300920199E+03  0.16729159860E+03  0.10749225398E+04  0.10100000352E+00 0.  1.
</event>
<event>
 5   0  0.7607231E-07  0.2301166E+04  0.7818609E-02  0.8477461E-01
       -1   -1    0    0    0  501  0.00000000000E+00  0.00000000000E+00  0.96506738015E+03  0.96506738017E+03  0.50400001928E-02 0.  1.
        1   -1    0    0  501    0  0.00000000000E+00  0.00000000000E+00 -0.13717608730E+04  0.13717608731E+04  0.50400001928E-02 0. -1.
    10030    2    1    2    0    0  0.00000000000E+00  0.00000000000E+00 -0.40669349289E+03  0.23368282532E+04  0.23011663755E+04 0.  0.
        2    1    3    3  502    0 -0.91248941107E+03 -0.68711318131E+03 -0.63074906014E+02  0.11440017015E+04  0.25500000920E-02 0.  1.
       -2    1    3    3    0  502  0.91248941107E+03  0.68711318131E+03 -0.34361858687E+03  0.11928265517E+04  0.25500000920E-02 0. -1.
</event>
<event>
 5   0  0.1689444E-06  0.2300846E+04  0.7818609E-02  0.8477588E-01
        2   -1    0    0  501    0  0.00000000000E+00  0.00000000000E+00  0.16553907753E+04  0.16553907753E+04  0.25500000920E-02 0.  1.
       -2   -1    0    0    0  501  0.00000000000E+00  0.00000000000E+00 -0.79949279149E+03  0.79949279149E+03  0.25500000920E-02 0. -1.
    10030    2    1    2    0    0  0.00000000000E+00  0.00000000000E+00  0.85589798377E+03  0.24548835668E+04  0.23008459244E+04 0.  0.
        2    1    3    3  502    0  0.72216122462E+03 -0.18352769337E+03  0.13631422277E+04  0.15534979825E+04  0.25500000920E-02 0.  1.
       -2    1    3    3    0  502 -0.72216122462E+03  0.18352769337E+03 -0.50724424392E+03  0.90138558429E+03  0.25500000920E-02 0. -1.
</event>
<event>
 5   0  0.8108242E-07  0.2299148E+04  0.7818609E-02  0.8478257E-01
        1   -1    0    0  501    0  0.00000000000E+00  0.00000000000E+00  0.11709288330E+04  0.11709288330E+04  0.50400001928E-02 0. -1.
       -1   -1    0    0    0  501  0.00000000000E+00  0.00000000000E+00 -0.11286089337E+04  0.11286089337E+04  0.50400001928E-02 0.  1.
    10030    2    1    2    0    0  0.00000000000E+00  0.00000000000E+00  0.42319899339E+02  0.22995377667E+04  0.22991483133E+04 0.  0.
        4    1    3    3  502    0 -0.33603968819E+02  0.46588230430E+03  0.10717395057E+04  0.11691033869E+04  0.12699999809E+01 0. -1.
       -4    1    3    3    0  502  0.33603968819E+02 -0.46588230430E+03 -0.10294196064E+04  0.11304343798E+04  0.12699999809E+01 0.  1.
</event>
<event>
 5   0  0.6319125E-07  0.2300699E+04  0.7818609E-02  0.8477645E-01
       -3   -1    0    0    0  501  0.00000000000E+00  0.00000000000E+00  0.60085314120E+03  0.60085314969E+03  0.10100000352E+00 0.  1.
        3   -1    0    0  501    0  0.00000000000E+00  0.00000000000E+00 -0.22023757804E+04  0.22023757827E+04  0.10100000352E+00 0. -1.
    10030    2    1    2    0    0  0.00000000000E+00  0.00000000000E+00 -0.16015226392E+04  0.28032289324E+04  0.23006993901E+04 0.  0.
        5    1    3    3  502    0 -0.40745667974E+03  0.30471571681E+03 -0.20578129186E+04  0.21197850627E+04  0.46999998093E+01 0. -1.
       -5    1    3    3    0  502  0.40745667974E+03 -0.30471571681E+03  0.45629027943E+03  0.68344386971E+03  0.46999998093E+01 0.  1.
</event>
<event>
 5   0  0.1744876E-06  0.2299767E+04  0.7818609E-02  0.8478013E-01
        2   -1    0    0  501    0  0.00000000000E+00  0.00000000000E+00  0.12310535883E+04  0.12310535883E+04  0.25500000920E-02 0.  1.
       -2   -1    0    0    0  501  0.00000000000E+00  0.00000000000E+00 -0.10740657815E+04  0.10740657815E+04  0.25500000920E-02 0. -1.
    10030    2    1    2    0    0  0.00000000000E+00  0.00000000000E+00  0.15698780685E+03  0.23051193698E+04  0.22997674095E+04 0.  0.
        1    1    3    3  502    0  0.10881667551E+04  0.36160264868E+03  0.16453755810E+03  0.11584196004E+04  0.50400001928E-02 0.  1.
       -1    1    3    3    0  502 -0.10881667551E+04 -0.36160264868E+03 -0.75497512444E+01  0.11466997695E+04  0.50400001928E-02 0. -1.
</event>
<event>
 5   0  0.8108242E-07  0.2299147E+04  0.7818609E-02  0.8478258E-01
       -1   -1    0    0    0  501  0.00000000000E+00  0.00000000000E+00  0.20987074419E+04  0.20987074419E+04  0.50400001928E-02 0. -1.
        1   -1    0    0  501    0  0.00000000000E+00  0.00000000000E+00 -0.62968239939E+03  0.62968239941E+03  0.50400001928E-02 0.  1.
    10030    2    1    2    0    0  0.00000000000E+00  0.00000000000E+00  0.14690250425E+04  0.27283898413E+04  0.22991469180E+04 0.  0.
        4    1    3    3  502    0 -0.60503725382E+02  0.54091623824E+03 -0.46708236736E+03  0.71722982953E+03  0.12699999809E+01 0.  1.
       -4    1    3    3    0  502  0.60503725382E+02 -0.54091623824E+03  0.19361074099E+04  0.20111600118E+04  0.12699999809E+01 0. -1.
</event>
<event>
 5   0  0.7761069E-07  0.2298921E+04  0.7818609E-02  0.8478347E-01
        1   -1    0    0  501    0  0.00000000000E+00  0.00000000000E+00  0.11615520546E+04  0.11615520546E+04  0.50400001928E-02 0.  1.
       -1   -1    0    0    0  501  0.00000000000E+00  0.00000000000E+00 -0.11374947185E+04  0.11374947185E+04  0.50400001928E-02 0. -1.
    10030    2    1    2    0    0  0.00000000000E+00  0.00000000000E+00  0.24057336099E+02  0.22990467731E+04  0.22989209010E+04 0.  0.
        1    1    3    3  502    0  0.17142385383E+03  0.54537238233E+03  0.10093004735E+04  0.11599588867E+04  0.50400001928E-02 0.  1.
       -1    1    3    3    0  502 -0.17142385383E+03 -0.54537238233E+03 -0.98524313737E+03  0.11390878864E+04  0.50400001928E-02 0. -1.
</event>
<event>
 5   0  0.7607231E-07  0.2299811E+04  0.7818609E-02  0.8477996E-01
       -1   -1    0    0    0  501  0.00000000000E+00  0.00000000000E+00  0.12934359615E+04  0.12934359615E+04  0.50400001928E-02 0. -1.
        1   -1    0    0  501    0  0.00000000000E+00  0.00000000000E+00 -0.10223025533E+04  0.10223025533E+04  0.50400001928E-02 0.  1.
    10030    2    1    2    0    0  0.00000000000E+00  0.00000000000E+00  0.27113340817E+03  0.23157385148E+04  0.22998111975E+04 0.  0.
        2    1    3    3  502    0  0.10445335977E+03 -0.11175633238E+04  0.38714618400E+03  0.11873249155E+04  0.25500000920E-02 0. -1.
       -2    1    3    3    0  502 -0.10445335977E+03  0.11175633238E+04 -0.11601277582E+03  0.11284135994E+04  0.25500000920E-02 0.  1.
</event>
<event>
 5   0  0.1744876E-06  0.2299832E+04  0.7818609E-02  0.8477987E-01
        2   -1    0    0  501    0  0.00000000000E+00  0.00000000000E+00  0.13473847363E+04  0.13473847363E+04  0.25500000920E-02 0. -1.
       -2   -1    0    0    0  501  0.00000000000E+00  0.00000000000E+00 -0.98138763831E+03  0.98138763831E+03  0.25500000920E-02 0.  1.
    10030    2    1    2    0    0  0.00000000000E+00  0.00000000000E+00  0.36599709797E+03  0.23287723746E+04  0.22998319280E+04 0.  0.
        1    1    3    3  502    0 -0.32436720329E+03 -0.10523558245E+04  0.51828436277E+03  0.12170807470E+04  0.50400001928E-02 0. -1.
       -1    1    3    3    0  502  0.32436720329E+03  0.10523558245E+04 -0.15228726480E+03  0.11116916276E+04  0.50400001928E-02 0.  1.
</event>
<event>
 5   0  0.1825521E-06  0.2300846E+04  0.7818609E-02  0.8477588E-01
       -2   -1    0    0    0  501  0.00000000000E+00  0.00000000000E+00  0.11962522950E+04  0.11962522950E+04  0.25500000920E-02 0. -1.
        2   -1    0    0  501    0  0.00000000000E+00  0.00000000000E+00 -0.11063497014E+04  0.11063497014E+04  0.25500000920E-02 0.  1.
    10030    2    1    2    0    0  0.00000000000E+00  0.00000000000E+00  0.89902593630E+02  0.23026019964E+04  0.23008462524E+04 0.  0.
        5    1    3    3  502    0 -0.26046090021E+03  0.17302631309E+03 -0.10629948193E+04  0.11080424456E+04  0.46999998093E+01 0.  1.
       -5    1    3    3    0  502  0.26046090021E+03 -0.17302631309E+03  0.11528974129E+04  0.11945595507E+04  0.46999998093E+01 0. -1.
</event>
<event>
 5   0  0.8097672E-07  0.2298924E+04  0.7818609E-02  0.8478345E-01
       -1   -1    0    0    0  501  0.00000000000E+00  0.00000000000E+00  0.16115737469E+04  0.16115737469E+04  0.50400001928E-02 0. -1.
        1   -1    0    0  501    0  0.00000000000E+00  0.00000000000E+00 -0.81985877061E+03  0.81985877062E+03  0.50400001928E-02 0.  1.
    10030    2    1    2    0    0  0.00000000000E+00  0.00000000000E+00  0.79171497625E+03  0.24314325175E+04  0.22989239838E+04 0.  0.
        3    1    3    3  502    0 -0.83351509750E+03 -0.64860285266E+03 -0.83977284202E+02  0.10594740548E+04  0.10100000352E+00 0.  1.
       -3    1    3    3    0  502  0.83351509750E+03  0.64860285266E+03  0.87569226046E+03  0.13719584627E+04  0.10100000352E+00 0. -1.
</event>
<event>
 5   0  0.1888779E-06  0.2300270E+04  0.7818609E-02  0.8477815E-01
       -2   -1    0    0    0  501  0.00000000000E+00  0.00000000000E+00  0.57972682206E+03  0.57972682206E+03  0.25500000920E-02 0. -1.
        2   -1    0    0  501    0  0.00000000000E+00  0.00000000000E+00 -0.22817820073E+04  0.22817820073E+04  0.25500000920E-02 0.  1.
    10030    2    1    2    0    0  0.00000000000E+00  0.00000000000E+00 -0.17020551853E+04  0.28615088294E+04  0.23002697509E+04 0.  0.
        4    1    3    3  502    0 -0.65109217176E+03  0.84552178327E+03 -0.31744427986E+03  0.11133735159E+04  0.12699999809E+01 0. -1.
       -4    1    3    3    0  502  0.65109217176E+03 -0.84552178327E+03 -0.13846109054E+04  0.17481353135E+04  0.12699999809E+01 0.  1.
</event>
<event>
 5   0  0.8108242E-07  0.2299603E+04  0.7818609E-02  0.8478078E-01
       -1   -1    0    0    0  501  0.00000000000E+00  0.00000000000E+00  0.90236767563E+03  0.90236767565E+03  0.50400001928E-02 0.  1.
        1   -1    0    0  501    0  0.00000000000E+00  0.00000000000E+00 -0.14650823492E+04  0.14650823492E+04  0.50400001928E-02 0. -1.
    10030    2    1    2    0    0  0.00000000000E+00  0.00000000000E+00 -0.56271467357E+03  0.23674500249E+04  0.22996025344E+04 0.  0.
        4    1    3    3  502    0 -0.10818776087E+04  0.38828354324E+03 -0.31080314920E+03  0.11907239313E+04  0.12699999809E+01 0.  1.
       -4    1    3    3    0  502  0.10818776087E+04 -0.38828354324E+03 -0.25191152437E+03  0.11767260935E+04  0.12699999809E+01 0. -1.
</event>
<event>
 5   0  0.7932912E-07  0.2299964E+04  0.7818609E-02  0.8477935E-01
       -1   -1    0    0    0  501  0.00000000000E+00  0.00000000000E+00  0.57640503571E+03  0.57640503573E+03  0.50400001928E-02 0.  1.
        1   -1    0    0  501    0  0.00000000000E+00  0.00000000000E+00 -0.22943221236E+04  0.22943221236E+04  0.50400001928E-02 0. -1.
    10030    2    1    2    0    0  0.00000000000E+00  0.00000000000E+00 -0.17179170879E+04  0.28707271593E+04  0.22999641959E+04 0.  0.
        5    1    3    3  502    0 -0.64817491457E+03 -0.72858040777E+03 -0.98217975440E+02  0.98011682526E+03  0.46999998093E+01 0.  1.
       -5    1    3    3    0  502  0.64817491457E+03  0.72858040777E+03 -0.16196991124E+04  0.18906103341E+04  0.46999998093E+01 0. -1.
</event>
<event>
 5   0  0.7607231E-07  0.2300128E+04  0.7818609E-02  0.8477871E-01
       -1   -1    0    0    0  501  0.00000000000E+00  0.00000000000E+00  0.10296710136E+04  0.10296710136E+04  0.50400001928E-02 0. -1.
        1   -1    0    0  501    0  0.00000000000E+00  0.00000000000E+00 -0.12845340004E+04  0.12845340004E+04  0.50400001928E-02 0.  1.
    10030    2    1    2    0    0  0.00000000000E+00  0.00000000000E+00 -0.25486298679E+03  0.23142050140E+04  0.23001281931E+04 0.  0.
        2    1    3    3  502    0 -0.15227705944E+03  0.75182438834E+03  0.73467846402E+03  0.10621584906E+04  0.25500000920E-02 0. -1.
       -2    1    3    3    0  502  0.15227705944E+03 -0.75182438834E+03 -0.98954145080E+03  0.12520465233E+04  0.25500000920E-02 0.  1.
</event>
<event>
 5   0  0.7607231E-07  0.2300145E+04  0.7818609E-02  0.8477864E-01
       -1   -1    0    0    0  501  0.00000000000E+00  0.00000000000E+00  0.10588587131E+04  0.10588587131E+04  0.50400001928E-02 0.  1.
        1   -1    0    0  501    0  0.00000000000E+00  0.00000000000E+00 -0.12491432652E+04  0.12491432652E+04  0.50400001928E-02 0. -1.
    10030    2    1    2    0    0  0.00000000000E+00  0.00000000000E+00 -0.19028455208E+03  0.23080019782E+04  0.23001445435E+04 0.  0.
        2    1    3    3  502    0  0.96821024113E+03  0.15044628879E+03  0.50907841189E+03  0.11041856666E+04  0.25500000920E-02 0.  1.
       -2    1    3    3    0  502 -0.96821024113E+03 -0.15044628879E+03 -0.69936296396E+03  0.12038163117E+04  0.25500000920E-02 0. -1.
</event>
<event>
 5   0  0.7932912E-07  0.2297373E+04  0.7818609E-02  0.8478958E-01
        1   -1    0    0  501    0  0.00000000000E+00  0.00000000000E+00  0.13255532066E+04  0.13255532066E+04  0.50400001928E-02 0. -1.
       -1   -1    0    0    0  501  0.00000000000E+00  0.00000000000E+00 -0.99541886754E+03  0.99541886755E+03  0.50400001928E-02 0.  1.
    10030    2    1    2    0    0  0.00000000000E+00  0.00000000000E+00  0.33013433905E+03  0.23209720741E+04  0.22973729970E+04 0.  0.
        5    1    3    3  502    0  0.99176056531E+03 -0.41104990461E+03 -0.24767265912E+03  0.11017780534E+04  0.46999998093E+01 0.  1.
       -5    1    3    3    0  502 -0.99176056531E+03  0.41104990461E+03  0.57780699816E+03  0.12191940207E+04  0.46999998093E+01 0. -1.
</event>
<event>
 5   0  0.7932912E-07  0.2300363E+04  0.7818609E-02  0.8477778E-01
        1   -1    0    0  501    0  0.00000000000E+00  0.00000000000E+00  0.69172062361E+03  0.69172062362E+03  0.50400001928E-02 0.  1.
       -1   -1    0    0    0  501  0.00000000000E+00  0.00000000000E+00 -0.19125033673E+04  0.19125033673E+04  0.50400001928E-02 0. -1.
    10030    2    1    2    0    0  0.00000000000E+00  0.00000000000E+00 -0.12207827437E+04  0.26042239909E+04  0.23003634686E+04 0.  0.
        5    1    3    3  502    0  0.57926270081E+02  0.10959101308E+02  0.68999816642E+03  0.69252806032E+03  0.46999998093E+01 0.  1.
       -5    1    3    3    0  502 -0.57926270081E+02 -0.10959101308E+02 -0.19107809101E+04  0.19116959306E+04  0.46999998093E+01 0. -1.
</event>
<event>
 5   0  0.7607231E-07  0.2303132E+04  0.7818609E-02  0.8476687E-01
        1   -1    0    0  501    0  0.00000000000E+00  0.00000000000E+00  0.20731643636E+04  0.20731643636E+04  0.50400001928E-02 0. -1.
       -1   -1    0    0    0  501  0.00000000000E+00  0.00000000000E+00 -0.63965206899E+03  0.63965206901E+03  0.50400001928E-02 0.  1.
    10030    2    1    2    0    0  0.00000000000E+00  0.00000000000E+00  0.14335122946E+04  0.27128164326E+04  0.23031316719E+04 0.  0.
        2    1    3    3  502    0  0.10804663612E+03 -0.22360938269E+03 -0.60773421497E+03  0.65651817008E+03  0.25500000920E-02 0.  1.
       -2    1    3    3    0  502 -0.10804663612E+03  0.22360938269E+03  0.20412465096E+04  0.20562982625E+04  0.25500000920E-02 0. -1.
</event>
<event>
 5   0  0.7607231E-07  0.2299694E+04  0.7818609E-02  0.8478042E-01
        1   -1    0    0  501    0  0.00000000000E+00  0.00000000000E+00  0.21697776760E+04  0.21697776760E+04  0.50400001928E-02 0.  1.
       -1   -1    0    0    0  501  0.00000000000E+00  0.00000000000E+00 -0.60934726158E+03  0.60934726160E+03  0.50400001928E-02 0. -1.
    10030    2    1    2    0    0  0.00000000000E+00  0.00000000000E+00  0.15604304144E+04  0.27791249376E+04  0.22996939667E+04 0.  0.
        2    1    3    3  502    0 -0.23713761148E+03 -0.10981100173E+04  0.48403199651E+03  0.12232607369E+04  0.25500000920E-02 0.  1.
       -2    1    3    3    0  502  0.23713761148E+03  0.10981100173E+04  0.10763984179E+04  0.15558642007E+04  0.25500000920E-02 0. -1.
</event>
<event>
 5   0  0.6319125E-07  0.2294415E+04  0.7818609E-02  0.8480126E-01
        4   -1    0    0  501    0  0.00000000000E+00  0.00000000000E+00  0.92235077169E+03  0.92235164603E+03  0.12699999809E+01 0.  1.
       -4   -1    0    0    0  501  0.00000000000E+00  0.00000000000E+00 -0.14268795082E+04  0.14268800734E+04  0.12699999809E+01 0. -1.
    10030    2    1    2    0    0  0.00000000000E+00  0.00000000000E+00 -0.50452873653E+03  0.23492317194E+04  0.22944150509E+04 0.  0.
        4    1    3    3  502    0  0.48667837664E+03  0.60366162330E+03  0.61340551898E+03  0.98870174539E+03  0.12699999809E+01 0.  1.
       -4    1    3    3    0  502 -0.48667837664E+03 -0.60366162330E+03 -0.11179342555E+04  0.13605299740E+04  0.12699999809E+01 0. -1.
</event>
<event>
 5   0  0.1744876E-06  0.2299589E+04  0.7818609E-02  0.8478083E-01
        2   -1    0    0  501    0  0.00000000000E+00  0.00000000000E+00  0.86704233924E+03  0.86704233925E+03  0.25500000920E-02 0. -1.
       -2   -1    0    0    0  501  0.00000000000E+00  0.00000000000E+00 -0.15247553915E+04  0.15247553915E+04  0.25500000920E-02 0.  1.
    10030    2    1    2    0    0  0.00000000000E+00  0.00000000000E+00 -0.65771305227E+03  0.23917977308E+04  0.22995890776E+04 0.  0.
        1    1    3    3  502    0 -0.85788530009E+03 -0.19007974951E+03 -0.11001646601E+04  0.14079985010E+04  0.50400001928E-02 0.  1.
       -1    1    3    3    0  502  0.85788530009E+03  0.19007974951E+03  0.44245160785E+03  0.98379922982E+03  0.50400001928E-02 0. -1.
</event>
<event>
 5   0  0.7932912E-07  0.2299545E+04  0.7818609E-02  0.8478101E-01
        1   -1    0    0  501    0  0.00000000000E+00  0.00000000000E+00  0.71435372335E+03  0.71435372337E+03  0.50400001928E-02 0. -1.
       -1   -1    0    0    0  501  0.00000000000E+00  0.00000000000E+00 -0.18505911559E+04  0.18505911559E+04  0.50400001928E-02 0.  1.
    10030    2    1    2    0    0  0.00000000000E+00  0.00000000000E+00 -0.11362374325E+04  0.25649448792E+04  0.22995448964E+04 0.  0.
        5    1    3    3  502    0 -0.74642094756E+03  0.86312569488E+03 -0.41106937071E+03  0.12129016092E+04  0.46999998093E+01 0.  1.
       -5    1    3    3    0  502  0.74642094756E+03 -0.86312569488E+03 -0.72516806179E+03  0.13520432700E+04  0.46999998093E+01 0. -1.
</event>
<event>
 5   0  0.7607231E-07  0.2300069E+04  0.7818609E-02  0.8477894E-01
       -1   -1    0    0    0  501  0.00000000000E+00  0.00000000000E+00  0.87878431460E+03  0.87878431462E+03  0.50400001928E-02 0.  1.
        1   -1    0    0  501    0  0.00000000000E+00  0.00000000000E+00 -0.15050105548E+04  0.15050105548E+04  0.50400001928E-02 0. -1.
    10030    2    1    2    0    0  0.00000000000E+00  0.00000000000E+00 -0.62622624019E+03  0.23837948694E+04  0.23000692763E+04 0.  0.
        2    1    3    3  502    0 -0.32094402243E+03  0.35639172745E+03  0.77019131374E+03  0.90731184755E+03  0.25500000920E-02 0.  1.
       -2    1    3    3    0  502  0.32094402243E+03 -0.35639172745E+03 -0.13964175539E+04  0.14764830219E+04  0.25500000920E-02 0. -1.
</event>
<event>
 5   0  0.7761069E-07  0.2300674E+04  0.7818609E-02  0.8477655E-01
       -1   -1    0    0    0  501  0.00000000000E+00  0.00000000000E+00  0.10410230438E+04  0.10410230438E+04  0.50400001928E-02 0. -1.
        1   -1    0    0  501    0  0.00000000000E+00  0.00000000000E+00 -0.12711295449E+04  0.12711295449E+04  0.50400001928E-02 0.  1.
    10030    2    1    2    0    0  0.00000000000E+00  0.00000000000E+00 -0.23010650104E+03  0.23121525887E+04  0.23006739429E+04 0.  0.
        1    1    3    3  502    0 -0.16642963945E+03 -0.45137786996E+03 -0.11651753372E+04  0.12605849328E+04  0.50400001928E-02 0.  1.
       -1    1    3    3    0  502  0.16642963945E+03  0.45137786996E+03  0.93506883620E+03  0.10515676559E+04  0.50400001928E-02 0. -1.
</event>
<event>
 5   0  0.1825521E-06  0.2300433E+04  0.7818609E-02  0.8477750E-01
       -2   -1    0    0    0  501  0.00000000000E+00  0.00000000000E+00  0.53520453081E+03  0.53520453081E+03  0.25500000920E-02 0.  1.
        2   -1    0    0  501    0  0.00000000000E+00  0.00000000000E+00 -0.24719487510E+04  0.24719487510E+04  0.25500000920E-02 0. -1.
    10030    2    1    2    0    0  0.00000000000E+00  0.00000000000E+00 -0.19367442202E+04  0.30071532818E+04  0.23004331518E+04 0.  0.
        5    1    3    3  502    0 -0.19915010727E+03  0.10186619083E+04 -0.32048647586E+03  0.10863086669E+04  0.46999998093E+01 0.  1.
       -5    1    3    3    0  502  0.19915010727E+03 -0.10186619083E+04 -0.16162577443E+04  0.19208446149E+04  0.46999998093E+01 0. -1.
</event>
<event>
 5   0  0.1825521E-06  0.2299489E+04  0.7818609E-02  0.8478123E-01
        2   -1    0    0  501    0  0.00000000000E+00  0.00000000000E+00  0.15777245257E+04  0.15777245257E+04  0.25500000920E-02 0.  1.
       -2   -1    0    0    0  501  0.00000000000E+00  0.00000000000E+00 -0.83786014397E+03  0.83786014397E+03  0.25500000920E-02 0. -1.
    10030    2    1    2    0    0  0.00000000000E+00  0.00000000000E+00  0.73986438175E+03  0.24155846697E+04  0.22994890722E+04 0.  0.
        5    1    3    3  502    0  0.51612589981E+02 -0.11465033339E+04  0.44238274351E+03  0.12299830632E+04  0.46999998093E+01 0.  1.
       -5    1    3    3    0  502 -0.51612589981E+02  0.11465033339E+04  0.29748163823E+03  0.11856016064E+04  0.46999998093E+01 0. -1.
</event>
<event>
 5   0  0.1888779E-06  0.2295936E+04  0.7818609E-02  0.8479525E-01
        2   -1    0    0  501    0  0.00000000000E+00  0.00000000000E+00  0.12954672482E+04  0.12954672482E+04  0.25500000920E-02 0. -1.
       -2   -1    0    0    0  501  0.00000000000E+00  0.00000000000E+00 -0.10172629940E+04  0.10172629940E+04  0.25500000920E-02 0.  1.
    10030    2    1    2    0    0  0.00000000000E+00  0.00000000000E+00  0.27820425417E+03  0.23127302423E+04  0.22959363159E+04 0.  0.
        4    1    3    3  502    0  0.28840758886E+02  0.10714432179E+03  0.12900522528E+04  0.12948158645E+04  0.12699999809E+01 0. -1.
       -4    1    3    3    0  502 -0.28840758886E+02 -0.10714432179E+03 -0.10118479987E+04  0.10179143777E+04  0.12699999809E+01 0.  1.
</event>
<event>
 5   0  0.7932912E-07  0.2298791E+04  0.7818609E-02  0.8478398E-01
       -1   -1    0    0    0  501  0.00000000000E+00  0.00000000000E+00  0.10467672408E+04  0.10467672408E+04  0.50400001928E-02 0. -1.
        1   -1    0    0  501    0  0.00000000000E+00  0.00000000000E+00 -0.12620858179E+04  0.12620858180E+04  0.50400001928E-02 0.  1.
    10030    2    1    2    0    0  0.00000000000E+00  0.00000000000E+00 -0.21531857715E+03  0.23088530588E+04  0.22987910643E+04 0.  0.
        5    1    3    3  502    0  0.46250163301E+03  0.17377305920E+03  0.93466114262E+03  0.10572220099E+04  0.46999998093E+01 0. -1.
       -5    1    3    3    0  502 -0.46250163301E+03 -0.17377305920E+03 -0.11499797198E+04  0.12516310489E+04  0.46999998093E+01 0.  1.
</event>
<event>
 5   0  0.1689444E-06  0.2300412E+04  0.7818609E-02  0.8477759E-01
       -2   -1    0    0    0  501  0.00000000000E+00  0.00000000000E+00  0.76539986416E+03  0.76539986417E+03  0.25500000920E-02 0. -1.
        2   -1    0    0  501    0  0.00000000000E+00  0.00000000000E+00 -0.17284737922E+04  0.17284737922E+04  0.25500000920E-02 0.  1.
    10030    2    1    2    0    0  0.00000000000E+00  0.00000000000E+00 -0.96307392805E+03  0.24938736564E+04  0.23004117943E+04 0.  0.
        2    1    3    3  502    0  0.64500241000E+03 -0.49095265070E+03  0.40312418237E+03  0.90530200516E+03  0.25500000920E-02 0. -1.
       -2    1    3    3    0  502 -0.64500241000E+03  0.49095265070E+03 -0.13661981104E+04  0.15885716512E+04  0.25500000920E-02 0.  1.
</event>
<event>
 5   0  0.7607231E-07  0.2297872E+04  0.7818609E-02  0.8478760E-01
       -1   -1    0    0    0  501  0.00000000000E+00  0.00000000000E+00  0.78872086064E+03  0.78872086066E+03  0.50400001928E-02 0. -1.
        1   -1    0    0  501    0  0.00000000000E+00  0.00000000000E+00 -0.16736648786E+04  0.16736648786E+04  0.50400001928E-02 0.  1.
    10030    2    1    2    0    0  0.00000000000E+00  0.00000000000E+00 -0.88494401797E+03  0.24623857393E+04  0.22978724103E+04 0.  0.
        2    1    3    3  502    0 -0.35994596270E+03 -0.90737708856E+03 -0.10917907412E+04  0.14645481554E+04  0.25500000920E-02 0.  1.
       -2    1    3    3    0  502  0.35994596270E+03  0.90737708856E+03  0.20684672321E+03  0.99783758389E+03  0.25500000920E-02 0. -1.
</event>
<event>
 5   0  0.1689444E-06  0.2299609E+04  0.7818609E-02  0.8478075E-01
        2   -1    0    0  501    0  0.00000000000E+00  0.00000000000E+00  0.11136903021E+04  0.11136903021E+04  0.25500000920E-02 0.  1.
       -2   -1    0    0    0  501  0.00000000000E+00  0.00000000000E+00 -0.11870892929E+04  0.11870892929E+04  0.25500000920E-02 0. -1.
    10030    2    1    2    0    0  0.00000000000E+00  0.00000000000E+00 -0.73398990814E+02  0.23007795950E+04  0.22996085173E+04 0.  0.
        2    1    3    3  502    0  0.20660747790E+03 -0.86856908746E+03 -0.76160343607E+03  0.11735155318E+04  0.25500000920E-02 0.  1.
       -2    1    3    3    0  502 -0.20660747790E+03  0.86856908746E+03  0.68820444525E+03  0.11272640632E+04  0.25500000920E-02 0. -1.
</event>
<event>
 5   0  0.7932912E-07  0.2300424E+04  0.7818609E-02  0.8477754E-01
        1   -1    0    0  501    0  0.00000000000E+00  0.00000000000E+00  0.12867058414E+04  0.12867058414E+04  0.50400001928E-02 0.  1.
       -1   -1    0    0    0  501  0.00000000000E+00  0.00000000000E+00 -0.10281971453E+04  0.10281971454E+04  0.50400001928E-02 0. -1.
    10030    2    1    2    0    0  0.00000000000E+00  0.00000000000E+00  0.25850869608E+03  0.23149029868E+04  0.23004236767E+04 0.  0.
        5    1    3    3  502    0 -0.74397121721E+03  0.72089301065E+03  0.63218532476E+03  0.12136145515E+04  0.46999998093E+01 0.  1.
       -5    1    3    3    0  502  0.74397121721E+03 -0.72089301065E+03 -0.37367662867E+03  0.11012884353E+04  0.46999998093E+01 0. -1.
</event>
<event>
 5   0  0.1888779E-06  0.2306762E+04  0.7818609E-02  0.8475260E-01
        2   -1    0    0  501    0  0.00000000000E+00  0.00000000000E+00  0.86851819418E+03  0.86851819419E+03  0.25500000920E-02 0.  1.
       -2   -1    0    0    0  501  0.00000000000E+00  0.00000000000E+00 -0.15316754908E+04  0.15316754908E+04  0.25500000920E-02 0. -1.
    10030    2    1    2    0    0  0.00000000000E+00  0.00000000000E+00 -0.66315729662E+03  0.24001936850E+04  0.23067622603E+04 0.  0.
        4    1    3    3  502    0  0.67553178121E+03  0.47746702465E+03  0.50469634772E+03  0.96903971195E+03  0.12699999809E+01 0.  1.
       -4    1    3    3    0  502 -0.67553178121E+03 -0.47746702465E+03 -0.11678536443E+04  0.14311539730E+04  0.12699999809E+01 0. -1.
</event>
<event>
 5   0  0.7761069E-07  0.2299924E+04  0.7818609E-02  0.8477951E-01
       -1   -1    0    0    0  501  0.00000000000E+00  0.00000000000E+00  0.85152935717E+03  0.85152935719E+03  0.50400001928E-02 0. -1.
        1   -1    0    0  501    0  0.00000000000E+00  0.00000000000E+00 -0.15529848323E+04  0.15529848323E+04  0.50400001928E-02 0.  1.
    10030    2    1    2    0    0  0.00000000000E+00  0.00000000000E+00 -0.70145547514E+03  0.24045141895E+04  0.22999236300E+04 0.  0.
        1    1    3    3  502    0  0.29531354546E+03 -0.28294362116E+03 -0.14743806427E+04  0.15300540718E+04  0.50400001928E-02 0.  1.
       -1    1    3    3    0  502 -0.29531354546E+03  0.28294362116E+03  0.77292516756E+03  0.87446011776E+03  0.50400001928E-02 0. -1.
</event>
<event>
 5   0  0.7932912E-07  0.2299025E+04  0.7818609E-02  0.8478306E-01
       -1   -1    0    0    0  501  0.00000000000E+00  0.00000000000E+00  0.11874337678E+04  0.11874337678E+04  0.50400001928E-02 0.  1.
        1   -1    0    0  501    0  0.00000000000E+00  0.00000000000E+00 -0.11128021572E+04  0.11128021572E+04  0.50400001928E-02 0. -1.
    10030    2    1    2    0    0  0.00000000000E+00  0.00000000000E+00  0.74631610626E+02  0.23002359250E+04  0.22990248875E+04 0.  0.
        5    1    3    3  502    0  0.48731467274E+03  0.53491500932E+03 -0.85632158029E+03  0.11211237204E+04  0.46999998093E+01 0. -1.
       -5    1    3    3    0  502 -0.48731467274E+03 -0.53491500932E+03  0.93095319092E+03  0.11791122046E+04  0.46999998093E+01 0.  1.
</event>
<event>
 5   0  0.8108242E-07  0.2299571E+04  0.7818609E-02  0.8478090E-01
       -1   -1    0    0    0  501  0.00000000000E+00  0.00000000000E+00  0.97823557305E+03  0.97823557306E+03  0.50400001928E-02 0.  1.
        1   -1    0    0  501    0  0.00000000000E+00  0.00000000000E+00 -0.13514197938E+04  0.13514197938E+04  0.50400001928E-02 0. -1.
    10030    2    1    2    0    0  0.00000000000E+00  0.00000000000E+00 -0.37318422076E+03  0.23296553669E+04  0.22995711917E+04 0.  0.
        4    1    3    3  502    0 -0.27150177485E+02 -0.26258352596E+03 -0.13203025410E+04  0.13464351648E+04  0.12699999809E+01 0. -1.
       -4    1    3    3    0  502  0.27150177485E+02  0.26258352596E+03  0.94711832029E+03  0.98322020207E+03  0.12699999809E+01 0.  1.
</event>
<event>
 5   0  0.1689444E-06  0.2301099E+04  0.7818609E-02  0.8477488E-01
        2   -1    0    0  501    0  0.00000000000E+00  0.00000000000E+00  0.22839627164E+04  0.22839627164E+04  0.25500000920E-02 0. -1.
       -2   -1    0    0    0  501  0.00000000000E+00  0.00000000000E+00 -0.57959093574E+03  0.57959093574E+03  0.25500000920E-02 0.  1.
    10030    2    1    2    0    0  0.00000000000E+00  0.00000000000E+00  0.17043717806E+04  0.28635536521E+04  0.23010989444E+04 0.  0.
        2    1    3    3  502    0  0.51488242566E+03  0.32064202456E+03 -0.36446126886E+03  0.70763496004E+03  0.25500000920E-02 0.  1.
       -2    1    3    3    0  502 -0.51488242566E+03 -0.32064202456E+03  0.20688330495E+04  0.21559186921E+04  0.25500000920E-02 0. -1.
</event>
<event>
 5   0  0.1744876E-06  0.2299453E+04  0.7818609E-02  0.8478137E-01
        2   -1    0    0  501    0  0.00000000000E+00  0.00000000000E+00  0.15443518019E+04  0.15443518019E+04  0.25500000920E-02 0.  1.
       -2   -1    0    0    0  501  0.00000000000E+00  0.00000000000E+00 -0.85593939962E+03  0.85593939962E+03  0.25500000920E-02 0. -1.
    10030    2    1    2    0    0  0.00000000000E+00  0.00000000000E+00  0.68841240232E+03  0.24002912016E+04  0.22994534604E+04 0.  0.
        1    1    3    3  502    0 -0.10869884623E+04  0.21230346287E+03  0.22037817344E+02  0.11077465157E+04  0.50400001928E-02 0. -1.
       -1    1    3    3    0  502  0.10869884623E+04 -0.21230346287E+03  0.66637458497E+03  0.12925446859E+04  0.50400001928E-02 0.  1.
</event>
<event>
 5   0  0.7932912E-07  0.2300635E+04  0.7818609E-02  0.8477671E-01
       -1   -1    0    0    0  501  0.00000000000E+00  0.00000000000E+00  0.82640039988E+03  0.82640039989E+03  0.50400001928E-02 0.  1.
        1   -1    0    0  501    0  0.00000000000E+00  0.00000000000E+00 -0.16011975772E+04  0.16011975772E+04  0.50400001928E-02 0. -1.
    10030    2    1    2    0    0  0.00000000000E+00  0.00000000000E+00 -0.77479717736E+03  0.24275979771E+04  0.23006349716E+04 0.  0.
        5    1    3    3  502    0  0.19517598299E+03  0.19982913842E+03  0.79005994096E+03  0.83799889571E+03  0.46999998093E+01 0.  1.
       -5    1    3    3    0  502 -0.19517598299E+03 -0.19982913842E+03 -0.15648571183E+04  0.15895990814E+04  0.46999998093E+01 0. -1.
</event>
<event>
 5   0  0.1825521E-06  0.2299657E+04  0.7818609E-02  0.8478056E-01
        2   -1    0    0  501    0  0.00000000000E+00  0.00000000000E+00  0.17885812697E+04  0.17885812697E+04  0.25500000920E-02 0.  1.
       -2   -1    0    0    0  501  0.00000000000E+00  0.00000000000E+00 -0.73919241465E+03  0.73919241465E+03  0.25500000920E-02 0. -1.
    10030    2    1    2    0    0  0.00000000000E+00  0.00000000000E+00  0.10493888550E+04  0.25277736843E+04  0.22996571114E+04 0.  0.
        5    1    3    3  502    0  0.34126700449E+01  0.86634276343E+02  0.17849724955E+04  0.17870831105E+04  0.46999998093E+01 0.  1.
       -5    1    3    3    0  502 -0.34126700449E+01 -0.86634276343E+02 -0.73558364043E+03  0.74069057387E+03  0.46999998093E+01 0. -1.
</event>
<event>
 5   0  0.1825521E-06  0.2299728E+04  0.7818609E-02  0.8478028E-01
        2   -1    0    0  501    0  0.00000000000E+00  0.00000000000E+00  0.22575268678E+04  0.22575268678E+04  0.25500000920E-02 0.  1.
       -2   -1    0    0    0  501  0.00000000000E+00  0.00000000000E+00 -0.58567973263E+03  0.58567973263E+03  0.25500000920E-02 0. -1.
    10030    2    1    2    0    0  0.00000000000E+00  0.00000000000E+00  0.16718471352E+04  0.28432066004E+04  0.22997284469E+04 0.  0.
        5    1    3    3  502    0  0.19560920996E+03  0.74146350835E+03 -0.22337818692E+03  0.79871834937E+03  0.46999998093E+01 0. -1.
       -5    1    3    3    0  502 -0.19560920996E+03 -0.74146350835E+03  0.18952253221E+04  0.20444882511E+04  0.46999998093E+01 0.  1.
</event>
<event>
 5   0  0.1825521E-06  0.2299709E+04  0.7818609E-02  0.8478036E-01
       -2   -1    0    0    0  501  0.00000000000E+00  0.00000000000E+00  0.54066735365E+03  0.54066735365E+03  0.25500000920E-02 0.  1.
        2   -1    0    0  501    0  0.00000000000E+00  0.00000000000E+00 -0.24454323065E+04  0.24454323065E+04  0.25500000920E-02 0. -1.
    10030    2    1    2    0    0  0.00000000000E+00  0.00000000000E+00 -0.19047649528E+04  0.29860996601E+04  0.22997090370E+04 0.  0.
        5    1    3    3  502    0  0.94516887409E+03  0.52004897781E+03 -0.14690818672E+04  0.18226406016E+04  0.46999998093E+01 0.  1.
       -5    1    3    3    0  502 -0.94516887409E+03 -0.52004897781E+03 -0.43568308559E+03  0.11634590586E+04  0.46999998093E+01 0. -1.
</event>
<event>
 5   0  0.8108242E-07  0.2300240E+04  0.7818609E-02  0.8477826E-01
       -1   -1    0    0    0  501  0.00000000000E+00  0.00000000000E+00  0.11152948337E+04  0.11152948337E+04  0.50400001928E-02 0. -1.
        1   -1    0    0  501    0  0.00000000000E+00  0.00000000000E+00 -0.11860326792E+04  0.11860326793E+04  0.50400001928E-02 0.  1.
    10030    2    1    2    0    0  0.00000000000E+00  0.00000000000E+00 -0.70737845560E+02  0.23013275130E+04  0.23002400916E+04 0.  0.
        4    1    3    3  502    0  0.20437558536E+02 -0.25429531358E+03 -0.11573671917E+04  0.11851515640E+04  0.12699999809E+01 0.  1.
       -4    1    3    3    0  502 -0.20437558536E+02  0.25429531358E+03  0.10866293461E+04  0.11161759490E+04  0.12699999809E+01 0. -1.
</event>
<event>
 5   0  0.1888779E-06  0.2299844E+04  0.7818609E-02  0.8477983E-01
       -2   -1    0    0    0  501  0.00000000000E+00  0.00000000000E+00  0.10400364287E+04  0.10400364287E+04  0.25500000920E-02 0. -1.
        2   -1    0    0  501    0  0.00000000000E+00  0.00000000000E+00 -0.12714170964E+04  0.12714170964E+04  0.25500000920E-02 0.  1.
    10030    2    1    2    0    0  0.00000000000E+00  0.00000000000E+00 -0.23138066761E+03  0.23114535251E+04  0.22998435567E+04 0.  0.
        4    1    3    3  502    0  0.54483908220E+03  0.10124575567E+04 -0.95625738854E+02  0.11537182604E+04  0.12699999809E+01 0. -1.
       -4    1    3    3    0  502 -0.54483908220E+03 -0.10124575567E+04 -0.13575492876E+03  0.11577352647E+04  0.12699999809E+01 0.  1.
</event>
<event>
 5   0  0.7761069E-07  0.2299982E+04  0.7818609E-02  0.8477928E-01
        1   -1    0    0  501    0  0.00000000000E+00  0.00000000000E+00  0.16770899168E+04  0.16770899168E+04  0.50400001928E-02 0. -1.
       -1   -1    0    0    0  501  0.00000000000E+00  0.00000000000E+00 -0.78855620029E+03  0.78855620031E+03  0.50400001928E-02 0.  1.
    10030    2    1    2    0    0  0.00000000000E+00  0.00000000000E+00  0.88853371651E+03  0.24656461171E+04  0.22999823063E+04 0.  0.
        1    1    3    3  502    0  0.24788542458E+03 -0.10918846930E+04  0.16303502017E+03  0.11314768157E+04  0.50400001928E-02 0.  1.
       -1    1    3    3    0  502 -0.24788542458E+03  0.10918846930E+04  0.72549869634E+03  0.13341693015E+04  0.50400001928E-02 0. -1.
</event>
<event>
 5   0  0.7761069E-07  0.2299183E+04  0.7818609E-02  0.8478243E-01
       -1   -1    0    0    0  501  0.00000000000E+00  0.00000000000E+00  0.81293787746E+03  0.81293787747E+03  0.50400001928E-02 0.  1.
        1   -1    0    0  501    0  0.00000000000E+00  0.00000000000E+00 -0.16256602531E+04  0.16256602531E+04  0.50400001928E-02 0. -1.
    10030    2    1    2    0    0  0.00000000000E+00  0.00000000000E+00 -0.81272237568E+03  0.24385981306E+04  0.22991831555E+04 0.  0.
        1    1    3    3  502    0 -0.49410493135E+02 -0.94812402395E+03  0.28115745147E+03  0.99016669009E+03  0.50400001928E-02 0.  1.
       -1    1    3    3    0  502  0.49410493135E+02  0.94812402395E+03 -0.10938798272E+04  0.14484314405E+04  0.50400001928E-02 0. -1.
</event>
<event>
 5   0  0.7607231E-07  0.2298298E+04  0.7818609E-02  0.8478592E-01
        1   -1    0    0  501    0  0.00000000000E+00  0.00000000000E+00  0.10427872797E+04  0.10427872797E+04  0.50400001928E-02 0. -1.
       -1   -1    0    0    0  501  0.00000000000E+00  0.00000000000E+00 -0.12663596726E+04  0.12663596726E+04  0.50400001928E-02 0.  1.
    10030    2    1    2    0    0  0.00000000000E+00  0.00000000000E+00 -0.22357239289E+03  0.23091469523E+04  0.22982982906E+04 0.  0.
        2    1    3    3  502    0 -0.61681941894E+03 -0.60006694668E+03 -0.87695654942E+03  0.12286575298E+04  0.25500000920E-02 0.  1.
       -2    1    3    3    0  502  0.61681941894E+03  0.60006694668E+03  0.65338415653E+03  0.10804894225E+04  0.25500000920E-02 0. -1.
</event>
<event>
 5   0  0.1888779E-06  0.2300896E+04  0.7818609E-02  0.8477568E-01
       -2   -1    0    0    0  501  0.00000000000E+00  0.00000000000E+00  0.47697035982E+03  0.47697035983E+03  0.25500000920E-02 0. -1.
        2   -1    0    0  501    0  0.00000000000E+00  0.00000000000E+00 -0.27748701650E+04  0.27748701650E+04  0.25500000920E-02 0.  1.
    10030    2    1    2    0    0  0.00000000000E+00  0.00000000000E+00 -0.22978998052E+04  0.32518405249E+04  0.23008961916E+04 0.  0.
        4    1    3    3  502    0 -0.10153493491E+04  0.24461936266E+03 -0.46710921614E+03  0.11441003304E+04  0.12699999809E+01 0. -1.
       -4    1    3    3    0  502  0.10153493491E+04 -0.24461936266E+03 -0.18307905891E+04  0.21077401945E+04  0.12699999809E+01 0.  1.
</event>
<event>
 5   0  0.8108242E-07  0.2296675E+04  0.7818609E-02  0.8479233E-01
       -1   -1    0    0    0  501  0.00000000000E+00  0.00000000000E+00  0.80744779825E+03  0.80744779827E+03  0.50400001928E-02 0. -1.
        1   -1    0    0  501    0  0.00000000000E+00  0.00000000000E+00 -0.16331439356E+04  0.16331439356E+04  0.50400001928E-02 0.  1.
    10030    2    1    2    0    0  0.00000000000E+00  0.00000000000E+00 -0.82569613738E+03  0.24405917339E+04  0.22966745308E+04 0.  0.
        4    1    3    3  502    0  0.30422834683E+02 -0.10770684103E+04  0.91175210006E+01  0.10775373086E+04  0.12699999809E+01 0.  1.
       -4    1    3    3    0  502 -0.30422834683E+02  0.10770684103E+04 -0.83481365838E+03  0.13630544253E+04  0.12699999809E+01 0. -1.
</event>
<event>
 5   0  0.7761069E-07  0.2298411E+04  0.7818609E-02  0.8478548E-01
        1   -1    0    0  501    0  0.00000000000E+00  0.00000000000E+00  0.17311402323E+04  0.17311402323E+04  0.50400001928E-02 0.  1.
       -1   -1    0    0    0  501  0.00000000000E+00  0.00000000000E+00 -0.76289237077E+03  0.76289237079E+03  0.50400001928E-02 0. -1.
    10030    2    1    2    0    0  0.00000000000E+00  0.00000000000E+00  0.96824786149E+03  0.24940326031E+04  0.22984113435E+04 0.  0.
        1    1    3    3  502    0 -0.43111886860E+02  0.11470000726E+03 -0.75578344946E+03  0.76565223761E+03  0.50400001928E-02 0. -1.
       -1    1    3    3    0  502  0.43111886860E+02 -0.11470000726E+03  0.17240313110E+04  0.17283803654E+04  0.50400001928E-02 0.  1.
</event>
<event>
 5   0  0.1744876E-06  0.2297978E+04  0.7818609E-02  0.8478719E-01
       -2   -1    0    0    0  501  0.00000000000E+00  0.00000000000E+00  0.49108833287E+03  0.49108833288E+03  0.25500000920E-02 0.  1.
        2   -1    0    0  501    0  0.00000000000E+00  0.00000000000E+00 -0.26882650642E+04  0.26882650642E+04  0.25500000920E-02 0. -1.
    10030    2    1    2    0    0  0.00000000000E+00  0.00000000000E+00 -0.21971767313E+04  0.31793533970E+04  0.22979779013E+04 0.  0.
        1    1    3    3  502    0  0.80452560887E+03 -0.59535719732E+03 -0.31781839353E+03  0.10501048419E+04  0.50400001928E-02 0.  1.
       -1    1    3    3    0  502 -0.80452560887E+03  0.59535719732E+03 -0.18793583378E+04  0.21292485551E+04  0.50400001928E-02 0. -1.
</event>
<event>
 5   0  0.1825521E-06  0.2301297E+04  0.7818609E-02  0.8477410E-01
       -2   -1    0    0    0  501  0.00000000000E+00  0.00000000000E+00  0.79027892290E+03  0.79027892290E+03  0.25500000920E-02 0. -1.
        2   -1    0    0  501    0  0.00000000000E+00  0.00000000000E+00 -0.16753481362E+04  0.16753481362E+04  0.25500000920E-02 0.  1.
    10030    2    1    2    0    0  0.00000000000E+00  0.00000000000E+00 -0.88506921332E+03  0.24656270591E+04  0.23012973042E+04 0.  0.
        5    1    3    3  502    0 -0.90663548498E+03  0.20269070621E+03 -0.11699080658E+04  0.14939137851E+04  0.46999998093E+01 0.  1.
       -5    1    3    3    0  502  0.90663548498E+03 -0.20269070621E+03  0.28483885246E+03  0.97171327400E+03  0.46999998093E+01 0. -1.
</event>
<event>
 5   0  0.8108242E-07  0.2300377E+04  0.7818609E-02  0.8477773E-01
       -1   -1    0    0    0  501  0.00000000000E+00  0.00000000000E+00  0.10058210625E+04  0.10058210625E+04  0.50400001928E-02 0. -1.
        1   -1    0    0  501    0  0.00000000000E+00  0.00000000000E+00 -0.13152768773E+04  0.13152768773E+04  0.50400001928E-02 0.  1.
    10030    2    1    2    0    0  0.00000000000E+00  0.00000000000E+00 -0.30945581480E+03  0.23210979398E+04  0.23003766528E+04 0.  0.
        4    1    3    3  502    0 -0.94715579283E+03  0.22925080848E+03  0.46173500916E+03  0.10783602648E+04  0.12699999809E+01 0. -1.
       -4    1    3    3    0  502  0.94715579283E+03 -0.22925080848E+03 -0.77119082396E+03  0.12427376750E+04  0.12699999809E+01 0.  1.
</event>
<event>
 5   0  0.1888779E-06  0.2300460E+04  0.7818609E-02  0.8477740E-01
       -2   -1    0    0    0  501  0.00000000000E+00  0.00000000000E+00  0.90203845437E+03  0.90203845438E+03  0.25500000920E-02 0.  1.
        2   -1    0    0  501    0  0.00000000000E+00  0.00000000000E+00 -0.14667099175E+04  0.14667099175E+04  0.25500000920E-02 0. -1.
    10030    2    1    2    0    0  0.00000000000E+00  0.00000000000E+00 -0.56467146310E+03  0.23687483719E+04  0.23004597340E+04 0.  0.
        4    1    3    3  502    0 -0.48721889795E+03  0.15916519824E+03 -0.13426167623E+04  0.14371281078E+04  0.12699999809E+01 0. -1.
       -4    1    3    3    0  502  0.48721889795E+03 -0.15916519824E+03  0.77794529924E+03  0.93162026404E+03  0.12699999809E+01 0.  1.
</event>
<event>
 5   0  0.1689444E-06  0.2300517E+04  0.7818609E-02  0.8477717E-01
       -2   -1    0    0    0  501  0.00000000000E+00  0.00000000000E+00  0.10678849621E+04  0.10678849621E+04  0.25500000920E-02 0. -1.
        2   -1    0    0  501    0  0.00000000000E+00  0.00000000000E+00 -0.12389859020E+04  0.12389859020E+04  0.25500000920E-02 0.  1.
    10030    2    1    2    0    0  0.00000000000E+00  0.00000000000E+00 -0.17110093987E+03  0.23068708641E+04  0.23005168228E+04 0.  0.
        2    1    3    3  502    0  0.58473351304E+03  0.95563165155E+03  0.17584032809E+03  0.11340480394E+04  0.25500000920E-02 0. -1.
       -2    1    3    3    0  502 -0.58473351304E+03 -0.95563165155E+03 -0.34694126796E+03  0.11728228247E+04  0.25500000920E-02 0.  1.
</event>
<event>
 5   0  0.7761069E-07  0.2300243E+04  0.7818609E-02  0.8477825E-01
       -1   -1    0    0    0  501  0.00000000000E+00  0.00000000000E+00  0.14361440843E+04  0.14361440843E+04  0.50400001928E-02 0.  1.
        1   -1    0    0  501    0  0.00000000000E+00  0.00000000000E+00 -0.92106340369E+03  0.92106340370E+03  0.50400001928E-02 0. -1.
    10030    2    1    2    0    0  0.00000000000E+00  0.00000000000E+00  0.51508068060E+03  0.23572074880E+04  0.23002432554E+04 0.  0.
        1    1    3    3  502    0  0.49608510950E+03 -0.24164983949E+03  0.12916310835E+04  0.14045661027E+04  0.50400001928E-02 0.  1.
       -1    1    3    3    0  502 -0.49608510950E+03  0.24164983949E+03 -0.77655040291E+03  0.95264138535E+03  0.50400001928E-02 0. -1.
</event>
<event>
 5   0  0.1689444E-06  0.2299086E+04  0.7818609E-02  0.8478281E-01
        2   -1    0    0  501    0  0.00000000000E+00  0.00000000000E+00  0.14621818295E+04  0.14621818295E+04  0.25500000920E-02 0.  1.
       -2   -1    0    0    0  501  0.00000000000E+00  0.00000000000E+00 -0.90375171611E+03  0.90375171612E+03  0.25500000920E-02 0. -1.
    10030    2    1    2    0    0  0.00000000000E+00  0.00000000000E+00  0.55843011343E+03  0.23659335457E+04  0.22990861991E+04 0.  0.
        2    1    3    3  502    0  0.41941104566E+03 -0.74097508467E+03 -0.51557491576E+03  0.99537289248E+03  0.25500000920E-02 0. -1.
       -2    1    3    3    0  502 -0.41941104566E+03  0.74097508467E+03  0.10740050292E+04  0.13705606532E+04  0.25500000920E-02 0.  1.
</event>
<event>
 5   0  0.7607231E-07  0.2299392E+04  0.7818609E-02  0.8478161E-01
       -1   -1    0    0    0  501  0.00000000000E+00  0.00000000000E+00  0.79350343799E+03  0.79350343801E+03  0.50400001928E-02 0.  1.
        1   -1    0    0  501    0  0.00000000000E+00  0.00000000000E+00 -0.16657788355E+04  0.16657788355E+04  0.50400001928E-02 0. -1.
    10030    2    1    2    0    0  0.00000000000E+00  0.00000000000E+00 -0.87227539753E+03  0.24592822735E+04  0.22993922962E+04 0.  0.
        2    1    3    3  502    0  0.22599431636E+03  0.53043531507E+02  0.76817769566E+03  0.80248614902E+03  0.25500000920E-02 0.  1.
       -2    1    3    3    0  502 -0.22599431636E+03 -0.53043531507E+02 -0.16404530932E+04  0.16567961245E+04  0.25500000920E-02 0. -1.
</event>
<event>
 5   0  0.8108242E-07  0.2299696E+04  0.7818609E-02  0.8478041E-01
        1   -1    0    0  501    0  0.00000000000E+00  0.00000000000E+00  0.13236053943E+04  0.13236053944E+04  0.50400001928E-02 0. -1.
       -1   -1    0    0    0  501  0.00000000000E+00  0.00000000000E+00 -0.99890113457E+03  0.99890113458E+03  0.50400001928E-02 0.  1.
    10030    2    1    2    0    0  0.00000000000E+00  0.00000000000E+00  0.32470425978E+03  0.23225065289E+04  0.22996964410E+04 0.  0.
        4    1    3    3  502    0  0.21642211489E+03  0.11155234967E+04  0.33993166931E+03  0.11860802487E+04  0.12699999809E+01 0. -1.
       -4    1    3    3    0  502 -0.21642211489E+03 -0.11155234967E+04 -0.15227409534E+02  0.11364262803E+04  0.12699999809E+01 0.  1.
</event>
<event>
 5   0  0.1744876E-06  0.2300356E+04  0.7818609E-02  0.8477781E-01
       -2   -1    0    0    0  501  0.00000000000E+00  0.00000000000E+00  0.11387401350E+04  0.11387401350E+04  0.25500000920E-02 0. -1.
        2   -1    0    0  501    0  0.00000000000E+00  0.00000000000E+00 -0.11617308829E+04  0.11617308829E+04  0.25500000920E-02 0.  1.
    10030    2    1    2    0    0  0.00000000000E+00  0.00000000000E+00 -0.22990747906E+02  0.23004710179E+04  0.23003561311E+04 0.  0.
        1    1    3    3  502    0  0.44193448213E+03  0.70433706638E+03 -0.80621285445E+03  0.11581778604E+04  0.50400001928E-02 0.  1.
       -1    1    3    3    0  502 -0.44193448213E+03 -0.70433706638E+03  0.78322210654E+03  0.11422931575E+04  0.50400001928E-02 0. -1.
</event>
<event>
 5   0  0.1689444E-06  0.2299260E+04  0.7818609E-02  0.8478213E-01
        2   -1    0    0  501    0  0.00000000000E+00  0.00000000000E+00  0.13323558500E+04  0.13323558500E+04  0.25500000920E-02 0. -1.
       -2   -1    0    0    0  501  0.00000000000E+00  0.00000000000E+00 -0.99196418215E+03  0.99196418216E+03  0.25500000920E-02 0.  1.
    10030    2    1    2    0    0  0.00000000000E+00  0.00000000000E+00  0.34039166786E+03  0.23243200322E+04  0.22992601254E+04 0.  0.
        2    1    3    3  502    0 -0.46005404651E+03  0.99555650846E+03 -0.17833250132E+03  0.11111187913E+04  0.25500000920E-02 0.  1.
       -2    1    3    3    0  502  0.46005404651E+03 -0.99555650846E+03  0.51872416918E+03  0.12132012409E+04  0.25500000920E-02 0. -1.
</event>
<event>
 5   0  0.7761069E-07  0.2299855E+04  0.7818609E-02  0.8477978E-01
        1   -1    0    0  501    0  0.00000000000E+00  0.00000000000E+00  0.15799249180E+04  0.15799249180E+04  0.50400001928E-02 0. -1.
       -1   -1    0    0    0  501  0.00000000000E+00  0.00000000000E+00 -0.83695947573E+03  0.83695947575E+03  0.50400001928E-02 0.  1.
    10030    2    1    2    0    0  0.00000000000E+00  0.00000000000E+00  0.74296544223E+03  0.24168843937E+04  0.22998548920E+04 0.  0.
        1    1    3    3  502    0  0.34518244556E+03 -0.75106057080E+03  0.12115934500E+04  0.14666975114E+04  0.50400001928E-02 0. -1.
       -1    1    3    3    0  502 -0.34518244556E+03  0.75106057080E+03 -0.46862800776E+03  0.95018688236E+03  0.50400001928E-02 0.  1.
</event>
<event>
 5   0  0.7607231E-07  0.2298080E+04  0.7818609E-02  0.8478679E-01
       -1   -1    0    0    0  501  0.00000000000E+00  0.00000000000E+00  0.72408468860E+03  0.72408468862E+03  0.50400001928E-02 0.  1.
        1   -1    0    0  501    0  0.00000000000E+00  0.00000000000E+00 -0.18233952978E+04  0.18233952978E+04  0.50400001928E-02 0. -1.
    10030    2    1    2    0    0  0.00000000000E+00  0.00000000000E+00 -0.10993106092E+04  0.25474799864E+04  0.22980797344E+04 0.  0.
        2    1    3    3  502    0 -0.52115925874E+03  0.28238167223E+03 -0.16408331193E+04  0.17446144867E+04  0.25500000920E-02 0. -1.
       -2    1    3    3    0  502  0.52115925874E+03 -0.28238167223E+03  0.54152251007E+03  0.80286549976E+03  0.25500000920E-02 0.  1.
</event>
<event>
 5   0  0.1744876E-06  0.2299064E+04  0.7818609E-02  0.8478290E-01
       -2   -1    0    0    0  501  0.00000000000E+00  0.00000000000E+00  0.85990106588E+03  0.85990106588E+03  0.25500000920E-02 0. -1.
        2   -1    0    0  501    0  0.00000000000E+00  0.00000000000E+00 -0.15367158974E+04  0.15367158974E+04  0.25500000920E-02 0.  1.
    10030    2    1    2    0    0  0.00000000000E+00  0.00000000000E+00 -0.67681483152E+03  0.23966169633E+04  0.22990638426E+04 0.  0.
        1    1    3    3  502    0 -0.84799385712E+03  0.76886019032E+03 -0.44864950163E+03  0.12294413159E+04  0.50400001928E-02 0. -1.
       -1    1    3    3    0  502  0.84799385712E+03 -0.76886019032E+03 -0.22816532988E+03  0.11671756474E+04  0.50400001928E-02 0.  1.
</event>
<event>
 5   0  0.7607231E-07  0.2301968E+04  0.7818609E-02  0.8477146E-01
       -1   -1    0    0    0  501  0.00000000000E+00  0.00000000000E+00  0.58085028649E+03  0.58085028651E+03  0.50400001928E-02 0.  1.
        1   -1    0    0  501    0  0.00000000000E+00  0.00000000000E+00 -0.22807318497E+04  0.22807318497E+04  0.50400001928E-02 0. -1.
    10030    2    1    2    0    0  0.00000000000E+00  0.00000000000E+00 -0.16998815632E+04  0.28615821362E+04  0.23019676352E+04 0.  0.
        2    1    3    3  502    0 -0.88544619670E+03  0.69477357906E+03 -0.11494187815E+04  0.16086916512E+04  0.25500000920E-02 0. -1.
       -2    1    3    3    0  502  0.88544619670E+03 -0.69477357906E+03 -0.55046278177E+03  0.12528904850E+04  0.25500000920E-02 0.  1.
</event>
<event>
 5   0  0.8097672E-07  0.2299595E+04  0.7818609E-02  0.8478081E-01
        1   -1    0    0  501    0  0.00000000000E+00  0.00000000000E+00  0.78143617406E+03  0.78143617408E+03  0.50400001928E-02 0.  1.
       -1   -1    0    0    0  501  0.00000000000E+00  0.00000000000E+00 -0.16918012257E+04  0.16918012257E+04  0.50400001928E-02 0. -1.
    10030    2    1    2    0    0  0.00000000000E+00  0.00000000000E+00 -0.91036505166E+03  0.24732373998E+04  0.22995953358E+04 0.  0.
        3    1    3    3  502    0  0.19252502257E+03 -0.11327353851E+04 -0.50180721093E+03  0.12537806124E+04  0.10100000352E+00 0. -1.
       -3    1    3    3    0  502 -0.19252502257E+03  0.11327353851E+04 -0.40855784073E+03  0.12194567874E+04  0.10100000352E+00 0.  1.
</event>
<event>
 5   0  0.1888779E-06  0.2299238E+04  0.7818609E-02  0.8478221E-01
        2   -1    0    0  501    0  0.00000000000E+00  0.00000000000E+00  0.12005164308E+04  0.12005164308E+04  0.25500000920E-02 0. -1.
       -2   -1    0    0    0  501  0.00000000000E+00  0.00000000000E+00 -0.11008797573E+04  0.11008797573E+04  0.25500000920E-02 0.  1.
    10030    2    1    2    0    0  0.00000000000E+00  0.00000000000E+00  0.99636673519E+02  0.23013961882E+04  0.22992383409E+04 0.  0.
        4    1    3    3  502    0 -0.97118415514E+03  0.43832368131E+03  0.48184397905E+03  0.11694022173E+04  0.12699999809E+01 0. -1.
       -4    1    3    3    0  502  0.97118415514E+03 -0.43832368131E+03 -0.38220730553E+03  0.11319939709E+04  0.12699999809E+01 0.  1.
</event>
<event>
 5   0  0.1888779E-06  0.2300490E+04  0.7818609E-02  0.8477728E-01
       -2   -1    0    0    0  501  0.00000000000E+00  0.00000000000E+00  0.11331755813E+04  0.11331755813E+04  0.25500000920E-02 0.  1.
        2   -1    0    0  501    0  0.00000000000E+00  0.00000000000E+00 -0.11675711984E+04  0.11675711984E+04  0.25500000920E-02 0. -1.
    10030    2    1    2    0    0  0.00000000000E+00  0.00000000000E+00 -0.34395617064E+02  0.23007467796E+04  0.23004896621E+04 0.  0.
        4    1    3    3  502    0  0.82465912952E+03 -0.65023859759E+03  0.45209726596E+03  0.11433575401E+04  0.12699999809E+01 0.  1.
       -4    1    3    3    0  502 -0.82465912952E+03  0.65023859759E+03 -0.48649288303E+03  0.11573892396E+04  0.12699999809E+01 0. -1.
</event>
<event>
 5   0  0.1888779E-06  0.2298753E+04  0.7818609E-02  0.8478413E-01
        2   -1    0    0  501    0  0.00000000000E+00  0.00000000000E+00  0.10859640274E+04  0.10859640274E+04  0.25500000920E-02 0.  1.
       -2   -1    0    0    0  501  0.00000000000E+00  0.00000000000E+00 -0.12164918523E+04  0.12164918523E+04  0.25500000920E-02 0. -1.
    10030    2    1    2    0    0  0.00000000000E+00  0.00000000000E+00 -0.13052782485E+03  0.23024558797E+04  0.22987530457E+04 0.  0.
        4    1    3    3  502    0  0.46849468582E+03 -0.93008196031E+03  0.42185789801E+03  0.11236126657E+04  0.12699999809E+01 0.  1.
       -4    1    3    3    0  502 -0.46849468582E+03  0.93008196031E+03 -0.55238572286E+03  0.11788432140E+04  0.12699999809E+01 0. -1.
</event>
<event>
 5   0  0.1828646E-06  0.2298692E+04  0.7818609E-02  0.8478437E-01
        2   -1    0    0  501    0  0.00000000000E+00  0.00000000000E+00  0.11470270556E+04  0.11470270556E+04  0.25500000920E-02 0.  1.
       -2   -1    0    0    0  501  0.00000000000E+00  0.00000000000E+00 -0.11516693107E+04  0.11516693107E+04  0.25500000920E-02 0. -1.
    10030    2    1    2    0    0  0.00000000000E+00  0.00000000000E+00 -0.46422550741E+01  0.22986963663E+04  0.22986916788E+04 0.  0.
        3    1    3    3  502    0  0.61652510344E+03  0.15522204634E+03 -0.95981916964E+03  0.11512818662E+04  0.10100000352E+00 0. -1.
       -3    1    3    3    0  502 -0.61652510344E+03 -0.15522204634E+03  0.95517691456E+03  0.11474145001E+04  0.10100000352E+00 0.  1.
</event>
<event>
 5   0  0.7761069E-07  0.2300431E+04  0.7818609E-02  0.8477751E-01
        1   -1    0    0  501    0  0.00000000000E+00  0.00000000000E+00  0.19435154280E+04  0.19435154280E+04  0.50400001928E-02 0. -1.
       -1   -1    0    0    0  501  0.00000000000E+00  0.00000000000E+00 -0.68072291455E+03  0.68072291457E+03  0.50400001928E-02 0.  1.
    10030    2    1    2    0    0  0.00000000000E+00  0.00000000000E+00  0.12627925134E+04  0.26242383426E+04  0.23004308176E+04 0.  0.
        1    1    3    3  502    0 -0.41598213690E+03 -0.10487369286E+04  0.88674605095E+03  0.14349943702E+04  0.50400001928E-02 0. -1.
       -1    1    3    3    0  502  0.41598213690E+03  0.10487369286E+04  0.37604646249E+03  0.11892439723E+04  0.50400001928E-02 0.  1.
</event>
<event>
 5   0  0.1689444E-06  0.2300875E+04  0.7818609E-02  0.8477576E-01
       -2   -1    0    0    0  501  0.00000000000E+00  0.00000000000E+00  0.56342908296E+03  0.56342908297E+03  0.25500000920E-02 0.  1.
        2   -1    0    0  501    0  0.00000000000E+00  0.00000000000E+00 -0.23490206633E+04  0.23490206633E+04  0.25500000920E-02 0. -1.
    10030    2    1    2    0    0  0.00000000000E+00  0.00000000000E+00 -0.17855915804E+04  0.29124497463E+04  0.23008751015E+04 0.  0.
        2    1    3    3  502    0  0.17561795931E+03  0.77850153731E+01  0.54632812879E+03  0.57391349384E+03  0.25500000920E-02 0.  1.
       -2    1    3    3    0  502 -0.17561795931E+03 -0.77850153731E+01 -0.23319197092E+04  0.23385362525E+04  0.25500000920E-02 0. -1.
</event>
<event>
 5   0  0.1744876E-06  0.2304613E+04  0.7818609E-02  0.8476104E-01
       -2   -1    0    0    0  501  0.00000000000E+00  0.00000000000E+00  0.67545000216E+03  0.67545000217E+03  0.25500000920E-02 0.  1.
        2   -1    0    0  501    0  0.00000000000E+00  0.00000000000E+00 -0.19658163177E+04  0.19658163178E+04  0.25500000920E-02 0. -1.
    10030    2    1    2    0    0  0.00000000000E+00  0.00000000000E+00 -0.12903663156E+04  0.26412663199E+04  0.23046133177E+04 0.  0.
        1    1    3    3  502    0 -0.29837007840E+03  0.61550229876E+03  0.41761042114E+03  0.80141515292E+03  0.50400001928E-02 0.  1.
       -1    1    3    3    0  502  0.29837007840E+03 -0.61550229876E+03 -0.17079767367E+04  0.18398511670E+04  0.50400001928E-02 0. -1.
</event>
<event>
 5   0  0.7607231E-07  0.2299836E+04  0.7818609E-02  0.8477986E-01
        1   -1    0    0  501    0  0.00000000000E+00  0.00000000000E+00  0.14647926973E+04  0.14647926973E+04  0.50400001928E-02 0. -1.
       -1   -1    0    0    0  501  0.00000000000E+00  0.00000000000E+00 -0.90272964992E+03  0.90272964993E+03  0.50400001928E-02 0.  1.
    10030    2    1    2    0    0  0.00000000000E+00  0.00000000000E+00  0.56206304742E+03  0.23675223473E+04  0.22998363410E+04 0.  0.
        2    1    3    3  502    0 -0.35917095239E+03  0.12667913010E+03 -0.83591769086E+03  0.91859118271E+03  0.25500000920E-02 0.  1.
       -2    1    3    3    0  502  0.35917095239E+03 -0.12667913010E+03  0.13979807383E+04  0.14489311646E+04  0.25500000920E-02 0. -1.
</event>
<event>
 5   0  0.7607231E-07  0.2299773E+04  0.7818609E-02  0.8478011E-01
        1   -1    0    0  501    0  0.00000000000E+00  0.00000000000E+00  0.73609735599E+03  0.73609735601E+03  0.50400001928E-02 0. -1.
       -1   -1    0    0    0  501  0.00000000000E+00  0.00000000000E+00 -0.17962826675E+04  0.17962826675E+04  0.50400001928E-02 0.  1.
    10030    2    1    2    0    0  0.00000000000E+00  0.00000000000E+00 -0.10601853115E+04  0.25323800235E+04  0.22997729646E+04 0.  0.
        2    1    3    3  502    0 -0.64095934016E+03  0.10781647157E+03 -0.15746046881E+04  0.17034767950E+04  0.25500000920E-02 0.  1.
       -2    1    3    3    0  502  0.64095934016E+03 -0.10781647157E+03  0.51441937658E+03  0.82890322854E+03  0.25500000920E-02 0. -1.
</event>
<event>
 5   0  0.1888779E-06  0.2300278E+04  0.7818609E-02  0.8477811E-01
        2   -1    0    0  501    0  0.00000000000E+00  0.00000000000E+00  0.11481700446E+04  0.11481700446E+04  0.25500000920E-02 0. -1.
       -2   -1    0    0    0  501  0.00000000000E+00  0.00000000000E+00 -0.11521115849E+04  0.11521115849E+04  0.25500000920E-02 0.  1.
    10030    2    1    2    0    0  0.00000000000E+00  0.00000000000E+00 -0.39415402412E+01  0.23002816295E+04  0.23002782526E+04 0.  0.
        4    1    3    3  502    0 -0.90569397862E+03 -0.55343580792E+03 -0.44496760612E+03  0.11508998913E+04  0.12699999809E+01 0.  1.
       -4    1    3    3    0  502  0.90569397862E+03  0.55343580792E+03  0.44102606588E+03  0.11493817382E+04  0.12699999809E+01 0. -1.
</event>
<event>
 5   0  0.1888779E-06  0.2300156E+04  0.7818609E-02  0.8477860E-01
        2   -1    0    0  501    0  0.00000000000E+00  0.00000000000E+00  0.89508453800E+03  0.89508453800E+03  0.25500000920E-02 0.  1.
       -2   -1    0    0    0  501  0.00000000000E+00  0.00000000000E+00 -0.14777144015E+04  0.14777144015E+04  0.25500000920E-02 0. -1.
    10030    2    1    2    0    0  0.00000000000E+00  0.00000000000E+00 -0.58262986351E+03  0.23727989395E+04  0.23001559185E+04 0.  0.
        4    1    3    3  502    0  0.54115186093E+03 -0.65674504847E+02  0.75334651184E+03  0.92988765825E+03  0.12699999809E+01 0.  1.
       -4    1    3    3    0  502 -0.54115186093E+03  0.65674504847E+02 -0.13359763754E+04  0.14429112813E+04  0.12699999809E+01 0. -1.
</event>
<event>
 5   0  0.1888779E-06  0.2300096E+04  0.7818609E-02  0.8477883E-01
        2   -1    0    0  501    0  0.00000000000E+00  0.00000000000E+00  0.81135266966E+03  0.81135266966E+03  0.25500000920E-02 0.  1.
       -2   -1    0    0    0  501  0.00000000000E+00  0.00000000000E+00 -0.16301298390E+04  0.16301298390E+04  0.25500000920E-02 0. -1.
    10030    2    1    2    0    0  0.00000000000E+00  0.00000000000E+00 -0.81877716931E+03  0.24414825086E+04  0.23000958213E+04 0.  0.
        4    1    3    3  502    0 -0.90115291370E+03  0.34538584791E+03  0.25455267925E+03  0.99808147825E+03  0.12699999809E+01 0.  1.
       -4    1    3    3    0  502  0.90115291370E+03 -0.34538584791E+03 -0.10733298486E+04  0.14434010304E+04  0.12699999809E+01 0. -1.
</event>
<event>
 5   0  0.8097672E-07  0.2299438E+04  0.7818609E-02  0.8478143E-01
        1   -1    0    0  501    0  0.00000000000E+00  0.00000000000E+00  0.19827046694E+04  0.19827046694E+04  0.50400001928E-02 0. -1.
       -1   -1    0    0    0  501  0.00000000000E+00  0.00000000000E+00 -0.66669200907E+03  0.66669200909E+03  0.50400001928E-02 0.  1.
    10030    2    1    2    0    0  0.00000000000E+00  0.00000000000E+00  0.13160126603E+04  0.26493966785E+04  0.22994376351E+04 0.  0.
        3    1    3    3  502    0  0.43209373867E+03 -0.76656843775E+03  0.15105680216E+04  0.17481841799E+04  0.10100000352E+00 0. -1.
       -3    1    3    3    0  502 -0.43209373867E+03  0.76656843775E+03 -0.19455536132E+03  0.90121249856E+03  0.10100000352E+00 0.  1.
</event>
<event>
 5   0  0.8097672E-07  0.2305116E+04  0.7818609E-02  0.8475907E-01
       -1   -1    0    0    0  501  0.00000000000E+00  0.00000000000E+00  0.11286689885E+04  0.11286689885E+04  0.50400001928E-02 0. -1.
        1   -1    0    0  501    0  0.00000000000E+00  0.00000000000E+00 -0.11769523125E+04  0.11769523125E+04  0.50400001928E-02 0.  1.
    10030    2    1    2    0    0  0.00000000000E+00  0.00000000000E+00 -0.48283323985E+02  0.23056213010E+04  0.23051156814E+04 0.  0.
        3    1    3    3  502    0  0.82882174883E+03  0.29581345660E+03 -0.76857534564E+03  0.11684002587E+04  0.10100000352E+00 0.  1.
       -3    1    3    3    0  502 -0.82882174883E+03 -0.29581345660E+03  0.72029202166E+03  0.11372210423E+04  0.10100000352E+00 0. -1.
</event>
<event>
 5   0  0.1689444E-06  0.2300167E+04  0.7818609E-02  0.8477855E-01
        2   -1    0    0  501    0  0.00000000000E+00  0.00000000000E+00  0.24495810071E+04  0.24495810071E+04  0.25500000920E-02 0.  1.
       -2   -1    0    0    0  501  0.00000000000E+00  0.00000000000E+00 -0.53996670255E+03  0.53996670256E+03  0.25500000920E-02 0. -1.
    10030    2    1    2    0    0  0.00000000000E+00  0.00000000000E+00  0.19096143046E+04  0.29895477097E+04  0.23001671062E+04 0.  0.
        2    1    3    3  502    0 -0.66384171527E+02  0.41869479263E+03  0.23443291102E+04  0.23823499249E+04  0.25500000920E-02 0.  1.
       -2    1    3    3    0  502  0.66384171527E+02 -0.41869479263E+03 -0.43471480565E+03  0.60719778479E+03  0.25500000920E-02 0. -1.
</event>
<event>
 5   0  0.7607231E-07  0.2300866E+04  0.7818609E-02  0.8477580E-01
       -1   -1    0    0    0  501  0.00000000000E+00  0.00000000000E+00  0.77203255469E+03  0.77203255471E+03  0.50400001928E-02 0. -1.
        1   -1    0    0  501    0  0.00000000000E+00  0.00000000000E+00 -0.17143002205E+04  0.17143002205E+04  0.50400001928E-02 0.  1.
    10030    2    1    2    0    0  0.00000000000E+00  0.00000000000E+00 -0.94226766584E+03  0.24863327752E+04  0.23008655578E+04 0.  0.
        2    1    3    3  502    0 -0.15880121535E+03  0.99422716501E+03  0.13031928040E+03  0.10152283470E+04  0.25500000920E-02 0. -1.
       -2    1    3    3    0  502  0.15880121535E+03 -0.99422716501E+03 -0.10725869462E+04  0.14711044283E+04  0.25500000920E-02 0.  1.
</event>
<event>
 5   0  0.7607231E-07  0.2300235E+04  0.7818609E-02  0.8477828E-01
       -1   -1    0    0    0  501  0.00000000000E+00  0.00000000000E+00  0.56794395555E+03  0.56794395557E+03  0.50400001928E-02 0.  1.
        1   -1    0    0  501    0  0.00000000000E+00  0.00000000000E+00 -0.23290505868E+04  0.23290505868E+04  0.50400001928E-02 0. -1.
    10030    2    1    2    0    0  0.00000000000E+00  0.00000000000E+00 -0.17611066312E+04  0.28969945423E+04  0.23002349471E+04 0.  0.
        2    1    3    3  502    0  0.48810835283E+03 -0.12019781708E+03 -0.21833665669E+04  0.22404880818E+04  0.25500000920E-02 0. -1.
       -2    1    3    3    0  502 -0.48810835283E+03  0.12019781708E+03  0.42225993572E+03  0.65650646048E+03  0.25500000920E-02 0.  1.
</event>
<event>
 5   0  0.7761069E-07  0.2299167E+04  0.7818609E-02  0.8478249E-01
       -1   -1    0    0    0  501  0.00000000000E+00  0.00000000000E+00  0.12043605856E+04  0.12043605857E+04  0.50400001928E-02 0. -1.
        1   -1    0    0  501    0  0.00000000000E+00  0.00000000000E+00 -0.10972981079E+04  0.10972981079E+04  0.50400001928E-02 0.  1.
    10030    2    1    2    0    0  0.00000000000E+00  0.00000000000E+00  0.10706247772E+03  0.23016586936E+04  0.22991673205E+04 0.  0.
        1    1    3    3  502    0 -0.68794862279E+03 -0.69513013477E+03  0.65839070400E+03  0.11789646012E+04  0.50400001928E-02 0.  1.
       -1    1    3    3    0  502  0.68794862279E+03  0.69513013477E+03 -0.55132822627E+03  0.11226940923E+04  0.50400001928E-02 0. -1.
</event>
<event>
 5   0  0.1689444E-06  0.2299631E+04  0.7818609E-02  0.8478067E-01
        2   -1    0    0  501    0  0.00000000000E+00  0.00000000000E+00  0.11429380757E+04  0.11429380757E+04  0.25500000920E-02 0.  1.
       -2   -1    0    0    0  501  0.00000000000E+00  0.00000000000E+00 -0.11567338336E+04  0.11567338336E+04  0.25500000920E-02 0. -1.
    10030    2    1    2    0    0  0.00000000000E+00  0.00000000000E+00 -0.13795757941E+02  0.22996719093E+04  0.22996305285E+04 0.  0.
        2    1    3    3  502    0 -0.30518867825E+03 -0.10990327884E+04 -0.15202782257E+03  0.11507065908E+04  0.25500000920E-02 0.  1.
       -2    1    3    3    0  502  0.30518867825E+03  0.10990327884E+04  0.13823206463E+03  0.11489653185E+04  0.25500000920E-02 0. -1.
</event>
<event>
 5   0  0.1888779E-06  0.2301294E+04  0.7818609E-02  0.8477411E-01
       -2   -1    0    0    0  501  0.00000000000E+00  0.00000000000E+00  0.98046842255E+03  0.98046842255E+03  0.25500000920E-02 0. -1.
        2   -1    0    0  501    0  0.00000000000E+00  0.00000000000E+00 -0.13503633038E+04  0.13503633038E+04  0.25500000920E-02 0.  1.
    10030    2    1    2    0    0  0.00000000000E+00  0.00000000000E+00 -0.36989488126E+03  0.23308317264E+04  0.23012940519E+04 0.  0.
        4    1    3    3  502    0 -0.10102764413E+04  0.55044198022E+03 -0.20368089867E+03  0.11683887978E+04  0.12699999809E+01 0. -1.
       -4    1    3    3    0  502  0.10102764413E+04 -0.55044198022E+03 -0.16621398259E+03  0.11624429286E+04  0.12699999809E+01 0.  1.
</event>
<event>
 5   0  0.7761069E-07  0.2304719E+04  0.7818609E-02  0.8476063E-01
        1   -1    0    0  501    0  0.00000000000E+00  0.00000000000E+00  0.10852897040E+04  0.10852897040E+04  0.50400001928E-02 0.  1.
       -1   -1    0    0    0  501  0.00000000000E+00  0.00000000000E+00 -0.12235740820E+04  0.12235740820E+04  0.50400001928E-02 0. -1.
    10030    2    1    2    0    0  0.00000000000E+00  0.00000000000E+00 -0.13828437805E+03  0.23088637860E+04  0.23047189445E+04 0.  0.
        1    1    3    3  502    0  0.23625017815E+03  0.76988837021E+03  0.75659139531E+03  0.11049763747E+04  0.50400001928E-02 0.  1.
       -1    1    3    3    0  502 -0.23625017815E+03 -0.76988837021E+03 -0.89487577336E+03  0.12038874113E+04  0.50400001928E-02 0. -1.
</event>
<event>
 5   0  0.1744876E-06  0.2315865E+04  0.7818609E-02  0.8471692E-01
       -2   -1    0    0    0  501  0.00000000000E+00  0.00000000000E+00  0.98211884786E+03  0.98211884786E+03  0.25500000920E-02 0. -1.
        2   -1    0    0  501    0  0.00000000000E+00  0.00000000000E+00 -0.13652195609E+04  0.13652195609E+04  0.25500000920E-02 0.  1.
    10030    2    1    2    0    0  0.00000000000E+00  0.00000000000E+00 -0.38310071309E+03  0.23473384088E+04  0.23158651621E+04 0.  0.
        1    1    3    3  502    0 -0.79016760547E+02 -0.16391559479E+03  0.96753605671E+03  0.98449885309E+03  0.50400001928E-02 0. -1.
       -1    1    3    3    0  502  0.79016760547E+02  0.16391559479E+03 -0.13506367698E+04  0.13628395557E+04  0.50400001928E-02 0.  1.
</event>
<event>
 5   0  0.7607231E-07  0.2297960E+04  0.7818609E-02  0.8478726E-01
        1   -1    0    0  501    0  0.00000000000E+00  0.00000000000E+00  0.14160391135E+04  0.14160391135E+04  0.50400001928E-02 0.  1.
       -1   -1    0    0    0  501  0.00000000000E+00  0.00000000000E+00 -0.93228682120E+03  0.93228682121E+03  0.50400001928E-02 0. -1.
    10030    2    1    2    0    0  0.00000000000E+00  0.00000000000E+00  0.48375229229E+03  0.23483259347E+04  0.22979596200E+04 0.  0.
        2    1    3    3  502    0  0.10931985695E+03  0.99626010608E+03 -0.33228307408E+03  0.10558868649E+04  0.25500000920E-02 0. -1.
       -2    1    3    3    0  502 -0.10931985695E+03 -0.99626010608E+03  0.81603536637E+03  0.12924390698E+04  0.25500000920E-02 0.  1.
</event>
<event>
 5   0  0.7761069E-07  0.2300135E+04  0.7818609E-02  0.8477868E-01
        1   -1    0    0  501    0  0.00000000000E+00  0.00000000000E+00  0.26754068247E+04  0.26754068247E+04  0.50400001928E-02 0. -1.
       -1   -1    0    0    0  501  0.00000000000E+00  0.00000000000E+00 -0.49437537617E+03  0.49437537620E+03  0.50400001928E-02 0.  1.
    10030    2    1    2    0    0  0.00000000000E+00  0.00000000000E+00  0.21810314486E+04  0.31697822009E+04  0.23001350008E+04 0.  0.
        1    1    3    3  502    0  0.81177213939E+03 -0.29322363546E+03  0.21379522428E+04  0.23056005506E+04  0.50400001928E-02 0. -1.
       -1    1    3    3    0  502 -0.81177213939E+03  0.29322363546E+03  0.43079205764E+02  0.86418165028E+03  0.50400001928E-02 0.  1.
</event>
<event>
 5   0  0.7761069E-07  0.2300035E+04  0.7818609E-02  0.8477907E-01
        1   -1    0    0  501    0  0.00000000000E+00  0.00000000000E+00  0.93847468936E+03  0.93847468937E+03  0.50400001928E-02 0.  1.
       -1   -1    0    0    0  501  0.00000000000E+00  0.00000000000E+00 -0.14092447710E+04  0.14092447710E+04  0.50400001928E-02 0. -1.
    10030    2    1    2    0    0  0.00000000000E+00  0.00000000000E+00 -0.47077008168E+03  0.23477194604E+04  0.23000352595E+04 0.  0.
        1    1    3    3  502    0  0.56005638682E+02 -0.70838492903E+03  0.68757041706E+03  0.98878658854E+03  0.50400001928E-02 0.  1.
       -1    1    3    3    0  502 -0.56005638682E+02  0.70838492903E+03 -0.11583404987E+04  0.13589328719E+04  0.50400001928E-02 0. -1.
</event>
<event>
 5   0  0.7761069E-07  0.2300227E+04  0.7818609E-02  0.8477832E-01
       -1   -1    0    0    0  501  0.00000000000E+00  0.00000000000E+00  0.51242627110E+03  0.51242627112E+03  0.50400001928E-02 0. -1.
        1   -1    0    0  501    0  0.00000000000E+00  0.00000000000E+00 -0.25813683025E+04  0.25813683025E+04  0.50400001928E-02 0.  1.
    10030    2    1    2    0    0  0.00000000000E+00  0.00000000000E+00 -0.20689420314E+04  0.30937945736E+04  0.23002268876E+04 0.  0.
        1    1    3    3  502    0 -0.12974059556E+03  0.31236240145E+03 -0.25129617803E+04  0.25356221725E+04  0.50400001928E-02 0.  1.
       -1    1    3    3    0  502  0.12974059556E+03 -0.31236240145E+03  0.44401974893E+03  0.55817240118E+03  0.50400001928E-02 0. -1.
</event>
<event>
 5   0  0.7761069E-07  0.2300628E+04  0.7818609E-02  0.8477673E-01
        1   -1    0    0  501    0  0.00000000000E+00  0.00000000000E+00  0.19109107597E+04  0.19109107597E+04  0.50400001928E-02 0. -1.
       -1   -1    0    0    0  501  0.00000000000E+00  0.00000000000E+00 -0.69245658621E+03  0.69245658623E+03  0.50400001928E-02 0.  1.
    10030    2    1    2    0    0  0.00000000000E+00  0.00000000000E+00  0.12184541735E+04  0.26033673460E+04  0.23006283848E+04 0.  0.
        1    1    3    3  502    0  0.10373572341E+03  0.21395994822E+03  0.18827973584E+04  0.18977528428E+04  0.50400001928E-02 0. -1.
       -1    1    3    3    0  502 -0.10373572341E+03 -0.21395994822E+03 -0.66434318485E+03  0.70561450314E+03  0.50400001928E-02 0.  1.
</event>
<event>
 5   0  0.7607231E-07  0.2299565E+04  0.7818609E-02  0.8478093E-01
       -1   -1    0    0    0  501  0.00000000000E+00  0.00000000000E+00  0.11758947323E+04  0.11758947323E+04  0.50400001928E-02 0. -1.
        1   -1    0    0  501    0  0.00000000000E+00  0.00000000000E+00 -0.11242498974E+04  0.11242498974E+04  0.50400001928E-02 0.  1.
    10030    2    1    2    0    0  0.00000000000E+00  0.00000000000E+00  0.51644834938E+02  0.23001446297E+04  0.22995647694E+04 0.  0.
        2    1    3    3  502    0 -0.48316536226E+03  0.10393024900E+04  0.11750304004E+03  0.11521308074E+04  0.25500000920E-02 0.  1.
       -2    1    3    3    0  502  0.48316536226E+03 -0.10393024900E+04 -0.65858205099E+02  0.11480138223E+04  0.25500000920E-02 0. -1.
</event>
<event>
 5   0  0.8108242E-07  0.2300198E+04  0.7818609E-02  0.8477843E-01
       -1   -1    0    0    0  501  0.00000000000E+00  0.00000000000E+00  0.66165500538E+03  0.66165500540E+03  0.50400001928E-02 0.  1.
        1   -1    0    0  501    0  0.00000000000E+00  0.00000000000E+00 -0.19991205324E+04  0.19991205324E+04  0.50400001928E-02 0. -1.
    10030    2    1    2    0    0  0.00000000000E+00  0.00000000000E+00 -0.13374655270E+04  0.26607755378E+04  0.23001983450E+04 0.  0.
        4    1    3    3  502    0  0.22970164725E+03 -0.10812760407E+04 -0.30146259867E+03  0.11457757347E+04  0.12699999809E+01 0.  1.
       -4    1    3    3    0  502 -0.22970164725E+03  0.10812760407E+04 -0.10360029283E+04  0.15149998031E+04  0.12699999809E+01 0. -1.
</event>
<event>
 5   0  0.1689444E-06  0.2299879E+04  0.7818609E-02  0.8477969E-01
       -2   -1    0    0    0  501  0.00000000000E+00  0.00000000000E+00  0.10813199643E+04  0.10813199643E+04  0.25500000920E-02 0. -1.
        2   -1    0    0  501    0  0.00000000000E+00  0.00000000000E+00 -0.12229139840E+04  0.12229139840E+04  0.25500000920E-02 0.  1.
    10030    2    1    2    0    0  0.00000000000E+00  0.00000000000E+00 -0.14159401971E+03  0.23042339483E+04  0.22998793930E+04 0.  0.
        2    1    3    3  502    0  0.11714811839E+03 -0.18052612421E+03  0.10609647208E+04  0.10825707838E+04  0.25500000920E-02 0. -1.
       -2    1    3    3    0  502 -0.11714811839E+03  0.18052612421E+03 -0.12025587405E+04  0.12216631645E+04  0.25500000920E-02 0.  1.
</event>
<event>
 5   0  0.7607231E-07  0.2300038E+04  0.7818609E-02  0.8477906E-01
       -1   -1    0    0    0  501  0.00000000000E+00  0.00000000000E+00  0.98033291509E+03  0.98033291510E+03  0.50400001928E-02 0.  1.
        1   -1    0    0  501    0  0.00000000000E+00  0.00000000000E+00 -0.13490759676E+04  0.13490759676E+04  0.50400001928E-02 0. -1.
    10030    2    1    2    0    0  0.00000000000E+00  0.00000000000E+00 -0.36874305249E+03  0.23294088827E+04  0.23000378919E+04 0.  0.
        2    1    3    3  502    0 -0.19879997753E+03  0.10458282682E+04  0.25623033260E+03  0.10949576161E+04  0.25500000920E-02 0.  1.
       -2    1    3    3    0  502  0.19879997753E+03 -0.10458282682E+04 -0.62497338509E+03  0.12344512666E+04  0.25500000920E-02 0. -1.
</event>
<event>
 5   0  0.7932912E-07  0.2300455E+04  0.7818609E-02  0.8477742E-01
       -1   -1    0    0    0  501  0.00000000000E+00  0.00000000000E+00  0.12117681195E+04  0.12117681195E+04  0.50400001928E-02 0.  1.
        1   -1    0    0  501    0  0.00000000000E+00  0.00000000000E+00 -0.10918119827E+04  0.10918119827E+04  0.50400001928E-02 0. -1.
    10030    2    1    2    0    0  0.00000000000E+00  0.00000000000E+00  0.11995613686E+03  0.23035801022E+04  0.23004546969E+04 0.  0.
        5    1    3    3  502    0 -0.65628397515E+03  0.92218430648E+03 -0.14491740269E+03  0.11411203682E+04  0.46999998093E+01 0. -1.
       -5    1    3    3    0  502  0.65628397515E+03 -0.92218430648E+03  0.26487353955E+03  0.11624597340E+04  0.46999998093E+01 0.  1.
</event>
<event>
 5   0  0.1744876E-06  0.2298786E+04  0.7818609E-02  0.8478400E-01
       -2   -1    0    0    0  501  0.00000000000E+00  0.00000000000E+00  0.32745619838E+04  0.32745619838E+04  0.25500000920E-02 0. -1.
        2   -1    0    0  501    0  0.00000000000E+00  0.00000000000E+00 -0.40344447383E+03  0.40344447384E+03  0.25500000920E-02 0.  1.
    10030    2    1    2    0    0  0.00000000000E+00  0.00000000000E+00  0.28711175100E+04  0.36780064576E+04  0.22987857113E+04 0.  0.
        1    1    3    3  502    0  0.34327680309E+03 -0.58698576773E+00 -0.31951177358E+03  0.46896383824E+03  0.50400001928E-02 0.  1.
       -1    1    3    3    0  502 -0.34327680309E+03  0.58698576773E+00  0.31906292836E+04  0.32090426194E+04  0.50400001928E-02 0. -1.
</event>
<event>
 5   0  0.1744876E-06  0.2300400E+04  0.7818609E-02  0.8477763E-01
       -2   -1    0    0    0  501  0.00000000000E+00  0.00000000000E+00  0.64771872166E+03  0.64771872166E+03  0.25500000920E-02 0.  1.
        2   -1    0    0  501    0  0.00000000000E+00  0.00000000000E+00 -0.20424922069E+04  0.20424922070E+04  0.25500000920E-02 0. -1.
    10030    2    1    2    0    0  0.00000000000E+00  0.00000000000E+00 -0.13947734853E+04  0.26902109286E+04  0.23004003489E+04 0.  0.
        1    1    3    3  502    0  0.10351515240E+04  0.32945047990E+03 -0.11394403387E+04  0.15742936771E+04  0.50400001928E-02 0. -1.
       -1    1    3    3    0  502 -0.10351515240E+04 -0.32945047990E+03 -0.25533314659E+03  0.11159172515E+04  0.50400001928E-02 0.  1.
</event>
<event>
 5   0  0.1689444E-06  0.2301186E+04  0.7818609E-02  0.8477454E-01
       -2   -1    0    0    0  501  0.00000000000E+00  0.00000000000E+00  0.87035371170E+03  0.87035371170E+03  0.25500000920E-02 0. -1.
        2   -1    0    0  501    0  0.00000000000E+00  0.00000000000E+00 -0.15210643484E+04  0.15210643484E+04  0.25500000920E-02 0.  1.
    10030    2    1    2    0    0  0.00000000000E+00  0.00000000000E+00 -0.65071063667E+03  0.23914180601E+04  0.23011857824E+04 0.  0.
        2    1    3    3  502    0 -0.29154323618E+03  0.80862987822E+03  0.46947772581E+03  0.97943303679E+03  0.25500000920E-02 0. -1.
       -2    1    3    3    0  502  0.29154323618E+03 -0.80862987822E+03 -0.11201883625E+04  0.14119850233E+04  0.25500000920E-02 0.  1.
</event>
<event>
 5   0  0.1825521E-06  0.2301088E+04  0.7818609E-02  0.8477492E-01
       -2   -1    0    0    0  501  0.00000000000E+00  0.00000000000E+00  0.71614760351E+03  0.71614760352E+03  0.25500000920E-02 0. -1.
        2   -1    0    0  501    0  0.00000000000E+00  0.00000000000E+00 -0.18484345581E+04  0.18484345581E+04  0.25500000920E-02 0.  1.
    10030    2    1    2    0    0  0.00000000000E+00  0.00000000000E+00 -0.11322869546E+04  0.25645821616E+04  0.23010884199E+04 0.  0.
        5    1    3    3  502    0 -0.21037730249E+03 -0.27002364973E+03 -0.17903579333E+04  0.18227931863E+04  0.46999998093E+01 0.  1.
       -5    1    3    3    0  502  0.21037730249E+03  0.27002364973E+03  0.65807097872E+03  0.74178897528E+03  0.46999998093E+01 0. -1.
</event>
<event>
 5   0  0.8108242E-07  0.2300615E+04  0.7818609E-02  0.8477679E-01
        1   -1    0    0  501    0  0.00000000000E+00  0.00000000000E+00  0.23444992875E+04  0.23444992875E+04  0.50400001928E-02 0. -1.
       -1   -1    0    0    0  501  0.00000000000E+00  0.00000000000E+00 -0.56438822690E+03  0.56438822692E+03  0.50400001928E-02 0.  1.
    10030    2    1    2    0    0  0.00000000000E+00  0.00000000000E+00  0.17801110606E+04  0.29088875144E+04  0.23006153923E+04 0.  0.
        4    1    3    3  502    0  0.24142991876E+03  0.46547659567E+03 -0.40448365320E+03  0.66224278433E+03  0.12699999809E+01 0.  1.
       -4    1    3    3    0  502 -0.24142991876E+03 -0.46547659567E+03  0.21845947138E+04  0.22466447301E+04  0.12699999809E+01 0. -1.
</event>
<event>
 5   0  0.1744876E-06  0.2300367E+04  0.7818609E-02  0.8477776E-01
       -2   -1    0    0    0  501  0.00000000000E+00  0.00000000000E+00  0.13355707514E+04  0.13355707514E+04  0.25500000920E-02 0.  1.
        2   -1    0    0  501    0  0.00000000000E+00  0.00000000000E+00 -0.99052964614E+03  0.99052964614E+03  0.25500000920E-02 0. -1.
    10030    2    1    2    0    0  0.00000000000E+00  0.00000000000E+00  0.34504110531E+03  0.23261003976E+04  0.23003672957E+04 0.  0.
        1    1    3    3  502    0 -0.76954642322E+03 -0.67750102884E+03  0.69961269914E+03  0.12412361864E+04  0.50400001928E-02 0.  1.
       -1    1    3    3    0  502  0.76954642322E+03  0.67750102884E+03 -0.35457159383E+03  0.10848642112E+04  0.50400001928E-02 0. -1.
</event>
<event>
 5   0  0.7761069E-07  0.2300295E+04  0.7818609E-02  0.8477805E-01
        1   -1    0    0  501    0  0.00000000000E+00  0.00000000000E+00  0.11762709339E+04  0.11762709339E+04  0.50400001928E-02 0. -1.
       -1   -1    0    0    0  501  0.00000000000E+00  0.00000000000E+00 -0.11246044320E+04  0.11246044320E+04  0.50400001928E-02 0.  1.
    10030    2    1    2    0    0  0.00000000000E+00  0.00000000000E+00  0.51666501917E+02  0.23008753660E+04  0.23002952033E+04 0.  0.
        1    1    3    3  502    0 -0.14032161700E+03  0.17373731139E+03  0.11543751826E+04  0.11757792616E+04  0.50400001928E-02 0. -1.
       -1    1    3    3    0  502  0.14032161700E+03 -0.17373731139E+03 -0.11027086807E+04  0.11250961044E+04  0.50400001928E-02 0.  1.
</event>
<event>
 5   0  0.7607231E-07  0.2310544E+04  0.7818609E-02  0.8473775E-01
       -1   -1    0    0    0  501  0.00000000000E+00  0.00000000000E+00  0.10001585165E+04  0.10001585165E+04  0.50400001928E-02 0.  1.
        1   -1    0    0  501    0  0.00000000000E+00  0.00000000000E+00 -0.13344419110E+04  0.13344419110E+04  0.50400001928E-02 0. -1.
    10030    2    1    2    0    0  0.00000000000E+00  0.00000000000E+00 -0.33428339453E+03  0.23346004275E+04  0.23105440416E+04 0.  0.
        2    1    3    3  502    0  0.37746729914E+03 -0.87971230944E+03  0.48633618045E+03  0.10737309671E+04  0.25500000920E-02 0.  1.
       -2    1    3    3    0  502 -0.37746729914E+03  0.87971230944E+03 -0.82061957497E+03  0.12608694604E+04  0.25500000920E-02 0. -1.
</event>
<event>
 5   0  0.7761069E-07  0.2298951E+04  0.7818609E-02  0.8478335E-01
        1   -1    0    0  501    0  0.00000000000E+00  0.00000000000E+00  0.13242593715E+04  0.13242593715E+04  0.50400001928E-02 0.  1.
       -1   -1    0    0    0  501  0.00000000000E+00  0.00000000000E+00 -0.99776094858E+03  0.99776094859E+03  0.50400001928E-02 0. -1.
    10030    2    1    2    0    0  0.00000000000E+00  0.00000000000E+00  0.32649842288E+03  0.23220203201E+04  0.22989513145E+04 0.  0.
        1    1    3    3  502    0  0.53828235217E+03  0.72092808391E+03 -0.55933794971E+03  0.10594074452E+04  0.50400001928E-02 0. -1.
       -1    1    3    3    0  502 -0.53828235217E+03 -0.72092808391E+03  0.88583637259E+03  0.12626128749E+04  0.50400001928E-02 0.  1.
</event>
<event>
 5   0  0.7932912E-07  0.2298758E+04  0.7818609E-02  0.8478411E-01
       -1   -1    0    0    0  501  0.00000000000E+00  0.00000000000E+00  0.27902079057E+04  0.27902079057E+04  0.50400001928E-02 0.  1.
        1   -1    0    0  501    0  0.00000000000E+00  0.00000000000E+00 -0.47346732553E+03  0.47346732555E+03  0.50400001928E-02 0. -1.
    10030    2    1    2    0    0  0.00000000000E+00  0.00000000000E+00  0.23167405802E+04  0.32636752312E+04  0.22987581646E+04 0.  0.
        5    1    3    3  502    0 -0.85388114666E+03 -0.58948334532E+03  0.45642120258E+03  0.11335546000E+04  0.46999998093E+01 0. -1.
       -5    1    3    3    0  502  0.85388114666E+03  0.58948334532E+03  0.18603193776E+04  0.21301206312E+04  0.46999998093E+01 0.  1.
</event>
<event>
 5   0  0.7607231E-07  0.2300013E+04  0.7818609E-02  0.8477916E-01
       -1   -1    0    0    0  501  0.00000000000E+00  0.00000000000E+00  0.82297931139E+03  0.82297931140E+03  0.50400001928E-02 0. -1.
        1   -1    0    0  501    0  0.00000000000E+00  0.00000000000E+00 -0.16069849400E+04  0.16069849400E+04  0.50400001928E-02 0.  1.
    10030    2    1    2    0    0  0.00000000000E+00  0.00000000000E+00 -0.78400562858E+03  0.24299642514E+04  0.23000133559E+04 0.  0.
        2    1    3    3  502    0 -0.89725960303E+03  0.32062578135E+03  0.28830420652E+03  0.99548731906E+03  0.25500000920E-02 0. -1.
       -2    1    3    3    0  502  0.89725960303E+03 -0.32062578135E+03 -0.10723098351E+04  0.14344769323E+04  0.25500000920E-02 0.  1.
</event>
<event>
 5   0  0.1744876E-06  0.2300348E+04  0.7818609E-02  0.8477784E-01
       -2   -1    0    0    0  501  0.00000000000E+00  0.00000000000E+00  0.56844317541E+03  0.56844317542E+03  0.25500000920E-02 0.  1.
        2   -1    0    0  501    0  0.00000000000E+00  0.00000000000E+00 -0.23272336907E+04  0.23272336907E+04  0.25500000920E-02 0. -1.
    10030    2    1    2    0    0  0.00000000000E+00  0.00000000000E+00 -0.17587905153E+04  0.28956768661E+04  0.23003478946E+04 0.  0.
        1    1    3    3  502    0 -0.81948072003E+03  0.64095662531E+03 -0.26203645339E+03  0.10728639937E+04  0.50400001928E-02 0.  1.
       -1    1    3    3    0  502  0.81948072003E+03 -0.64095662531E+03 -0.14967540619E+04  0.18228128724E+04  0.50400001928E-02 0. -1.
</event>
<event>
 5   0  0.1828646E-06  0.2300044E+04  0.7818609E-02  0.8477904E-01
        2   -1    0    0  501    0  0.00000000000E+00  0.00000000000E+00  0.12459375019E+04  0.12459375019E+04  0.25500000920E-02 0.  1.
       -2   -1    0    0    0  501  0.00000000000E+00  0.00000000000E+00 -0.10614901393E+04  0.10614901393E+04  0.25500000920E-02 0. -1.
    10030    2    1    2    0    0  0.00000000000E+00  0.00000000000E+00  0.18444736262E+03  0.23074276412E+04  0.23000438017E+04 0.  0.
        3    1    3    3  502    0  0.10253564626E+03  0.10972972318E+04  0.42187496710E+03  0.11800649439E+04  0.10100000352E+00 0.  1.
       -3    1    3    3    0  502 -0.10253564626E+03 -0.10972972318E+04 -0.23742760448E+03  0.11273626973E+04  0.10100000352E+00 0. -1.
</event>
<event>
 5   0  0.7761069E-07  0.2301206E+04  0.7818609E-02  0.8477446E-01
       -1   -1    0    0    0  501  0.00000000000E+00  0.00000000000E+00  0.14033977666E+04  0.14033977666E+04  0.50400001928E-02 0.  1.
        1   -1    0    0  501    0  0.00000000000E+00  0.00000000000E+00 -0.94334416595E+03  0.94334416596E+03  0.50400001928E-02 0. -1.
    10030    2    1    2    0    0  0.00000000000E+00  0.00000000000E+00  0.46005360062E+03  0.23467419325E+04  0.23012058540E+04 0.  0.
        1    1    3    3  502    0 -0.92534330778E+03  0.59442313428E+03 -0.11472788081E+03  0.11057855065E+04  0.50400001928E-02 0. -1.
       -1    1    3    3    0  502  0.92534330778E+03 -0.59442313428E+03  0.57478148143E+03  0.12409564260E+04  0.50400001928E-02 0.  1.
</event>
<event>
 5   0  0.7607231E-07  0.2300348E+04  0.7818609E-02  0.8477784E-01
       -1   -1    0    0    0  501  0.00000000000E+00  0.00000000000E+00  0.15552989522E+04  0.15552989523E+04  0.50400001928E-02 0.  1.
        1   -1    0    0  501    0  0.00000000000E+00  0.00000000000E+00 -0.85057610690E+03  0.85057610692E+03  0.50400001928E-02 0. -1.
    10030    2    1    2    0    0  0.00000000000E+00  0.00000000000E+00  0.70472284535E+03  0.24058750592E+04  0.23003479110E+04 0.  0.
        2    1    3    3  502    0 -0.96763872071E+03  0.16715477205E+02 -0.29767795494E+03  0.10125296370E+04  0.25500000920E-02 0. -1.
       -2    1    3    3    0  502  0.96763872071E+03 -0.16715477205E+02  0.10024008003E+04  0.13933454221E+04  0.25500000920E-02 0.  1.
</event>
<event>
 5   0  0.6319125E-07  0.2299697E+04  0.7818609E-02  0.8478041E-01
       -3   -1    0    0    0  501  0.00000000000E+00  0.00000000000E+00  0.12357126984E+04  0.12357127025E+04  0.10100000352E+00 0.  1.
        3   -1    0    0  501    0  0.00000000000E+00  0.00000000000E+00 -0.10699503656E+04  0.10699503703E+04  0.10100000352E+00 0. -1.
    10030    2    1    2    0    0  0.00000000000E+00  0.00000000000E+00  0.16576233279E+03  0.23056630728E+04  0.22996967309E+04 0.  0.
        5    1    3    3  502    0 -0.37299217051E+03  0.54615726972E+03 -0.86015374216E+03  0.10850333970E+04  0.46999998093E+01 0. -1.
       -5    1    3    3    0  502  0.37299217051E+03 -0.54615726972E+03  0.10259160750E+04  0.12206296758E+04  0.46999998093E+01 0.  1.
</event>
<event>
 5   0  0.8108242E-07  0.2300060E+04  0.7818609E-02  0.8477898E-01
        1   -1    0    0  501    0  0.00000000000E+00  0.00000000000E+00  0.15480566450E+04  0.15480566450E+04  0.50400001928E-02 0.  1.
       -1   -1    0    0    0  501  0.00000000000E+00  0.00000000000E+00 -0.85434118819E+03  0.85434118820E+03  0.50400001928E-02 0. -1.
    10030    2    1    2    0    0  0.00000000000E+00  0.00000000000E+00  0.69371545681E+03  0.24023978332E+04  0.23000596110E+04 0.  0.
        4    1    3    3  502    0  0.80087258614E+03 -0.24878518382E+03  0.11688125570E+04  0.14385462708E+04  0.12699999809E+01 0.  1.
       -4    1    3    3    0  502 -0.80087258614E+03  0.24878518382E+03 -0.47509710016E+03  0.96385156244E+03  0.12699999809E+01 0. -1.
</event>
<event>
 5   0  0.7607231E-07  0.2300279E+04  0.7818609E-02  0.8477811E-01
        1   -1    0    0  501    0  0.00000000000E+00  0.00000000000E+00  0.19214600443E+04  0.19214600443E+04  0.50400001928E-02 0. -1.
       -1   -1    0    0    0  501  0.00000000000E+00  0.00000000000E+00 -0.68844594569E+03  0.68844594571E+03  0.50400001928E-02 0.  1.
    10030    2    1    2    0    0  0.00000000000E+00  0.00000000000E+00  0.12330140986E+04  0.26099059900E+04  0.23002794416E+04 0.  0.
        2    1    3    3  502    0  0.67985614787E+03  0.17666813712E+03 -0.41679594105E+03  0.81678324478E+03  0.25500000920E-02 0.  1.
       -2    1    3    3    0  502 -0.67985614787E+03 -0.17666813712E+03  0.16498100396E+04  0.17931227452E+04  0.25500000920E-02 0. -1.
</event>
<event>
 5   0  0.8097672E-07  0.2299798E+04  0.7818609E-02  0.8478001E-01
        1   -1    0    0  501    0  0.00000000000E+00  0.00000000000E+00  0.20354661265E+04  0.20354661266E+04  0.50400001928E-02 0.  1.
       -1   -1    0    0    0  501  0.00000000000E+00  0.00000000000E+00 -0.64961394118E+03  0.64961394120E+03  0.50400001928E-02 0. -1.
    10030    2    1    2    0    0  0.00000000000E+00  0.00000000000E+00  0.13858521854E+04  0.26850800677E+04  0.22997975325E+04 0.  0.
        3    1    3    3  502    0 -0.10588111461E+04  0.44072262736E+03  0.79025687100E+03  0.13927754341E+04  0.10100000352E+00 0.  1.
       -3    1    3    3    0  502  0.10588111461E+04 -0.44072262736E+03  0.59559531437E+03  0.12923046337E+04  0.10100000352E+00 0. -1.
</event>
<event>
 5   0  0.1744876E-06  0.2300431E+04  0.7818609E-02  0.8477751E-01
       -2   -1    0    0    0  501  0.00000000000E+00  0.00000000000E+00  0.75259402233E+03  0.75259402233E+03  0.25500000920E-02 0. -1.
        2   -1    0    0  501    0  0.00000000000E+00  0.00000000000E+00 -0.17579138904E+04  0.17579138904E+04  0.25500000920E-02 0.  1.
    10030    2    1    2    0    0  0.00000000000E+00  0.00000000000E+00 -0.10053198681E+04  0.25105079128E+04  0.23004308168E+04 0.  0.
        1    1    3    3  502    0  0.94290573674E+03  0.28947913016E+03  0.14309042301E+03  0.99666657632E+03  0.50400001928E-02 0.  1.
       -1    1    3    3    0  502 -0.94290573674E+03 -0.28947913016E+03 -0.11484102911E+04  0.15138413365E+04  0.50400001928E-02 0. -1.
</event>
<event>
 5   0  0.7932912E-07  0.2293595E+04  0.7818609E-02  0.8480451E-01
        1   -1    0    0  501    0  0.00000000000E+00  0.00000000000E+00  0.98134616524E+03  0.98134616525E+03  0.50400001928E-02 0. -1.
       -1   -1    0    0    0  501  0.00000000000E+00  0.00000000000E+00 -0.13401428143E+04  0.13401428143E+04  0.50400001928E-02 0.  1.
    10030    2    1    2    0    0  0.00000000000E+00  0.00000000000E+00 -0.35879664907E+03  0.23214889796E+04  0.22935945690E+04 0.  0.
        5    1    3    3  502    0  0.44743404896E+03 -0.94266423792E+03 -0.66090323739E+03  0.12351632576E+04  0.46999998093E+01 0.  1.
       -5    1    3    3    0  502 -0.44743404896E+03  0.94266423792E+03  0.30210658832E+03  0.10863257220E+04  0.46999998093E+01 0. -1.
</event>
<event>
 5   0  0.1689444E-06  0.2294998E+04  0.7818609E-02  0.8479896E-01
        2   -1    0    0  501    0  0.00000000000E+00  0.00000000000E+00  0.30634495650E+04  0.30634495650E+04  0.25500000920E-02 0. -1.
       -2   -1    0    0    0  501  0.00000000000E+00  0.00000000000E+00 -0.42982735373E+03  0.42982735374E+03  0.25500000920E-02 0.  1.
    10030    2    1    2    0    0  0.00000000000E+00  0.00000000000E+00  0.26336222112E+04  0.34932769187E+04  0.22949984051E+04 0.  0.
        2    1    3    3  502    0  0.36873372791E+03  0.69996576707E+03  0.25819513387E+04  0.27004424364E+04  0.25500000920E-02 0. -1.
       -2    1    3    3    0  502 -0.36873372791E+03 -0.69996576707E+03  0.51670872535E+02  0.79283448225E+03  0.25500000920E-02 0.  1.
</event>
<event>
 5   0  0.7607231E-07  0.2299946E+04  0.7818609E-02  0.8477943E-01
        1   -1    0    0  501    0  0.00000000000E+00  0.00000000000E+00  0.16817949820E+04  0.16817949820E+04  0.50400001928E-02 0. -1.
       -1   -1    0    0    0  501  0.00000000000E+00  0.00000000000E+00 -0.78632495726E+03  0.78632495728E+03  0.50400001928E-02 0.  1.
    10030    2    1    2    0    0  0.00000000000E+00  0.00000000000E+00  0.89547002473E+03  0.24681199393E+04  0.22999455362E+04 0.  0.
        2    1    3    3  502    0 -0.67204634595E+03  0.35375388689E+03  0.13743855999E+04  0.15702623605E+04  0.25500000920E-02 0. -1.
       -2    1    3    3    0  502  0.67204634595E+03 -0.35375388689E+03 -0.47891557518E+03  0.89785757876E+03  0.25500000920E-02 0.  1.
</event>
<event>
 5   0  0.1828646E-06  0.2300107E+04  0.7818609E-02  0.8477879E-01
        2   -1    0    0  501    0  0.00000000000E+00  0.00000000000E+00  0.19776812465E+04  0.19776812465E+04  0.25500000920E-02 0.  1.
       -2   -1    0    0    0  501  0.00000000000E+00  0.00000000000E+00 -0.66877489969E+03  0.66877489970E+03  0.25500000920E-02 0. -1.
    10030    2    1    2    0    0  0.00000000000E+00  0.00000000000E+00  0.13089063468E+04  0.26464561462E+04  0.23001074560E+04 0.  0.
        3    1    3    3  502    0  0.10684893212E+03 -0.49359757428E+03  0.18432685459E+04  0.19112022923E+04  0.10100000352E+00 0.  1.
       -3    1    3    3    0  502 -0.10684893212E+03  0.49359757428E+03 -0.53436219910E+03  0.73525385389E+03  0.10100000352E+00 0. -1.
</event>
<event>
 5   0  0.7761069E-07  0.2299799E+04  0.7818609E-02  0.8478000E-01
        1   -1    0    0  501    0  0.00000000000E+00  0.00000000000E+00  0.11646411684E+04  0.11646411684E+04  0.50400001928E-02 0.  1.
       -1   -1    0    0    0  501  0.00000000000E+00  0.00000000000E+00 -0.11353448836E+04  0.11353448836E+04  0.50400001928E-02 0. -1.
    10030    2    1    2    0    0  0.00000000000E+00  0.00000000000E+00  0.29296284802E+02  0.22999860519E+04  0.22997994623E+04 0.  0.
        1    1    3    3  502    0 -0.26147880979E+03 -0.10150639360E+02  0.11344689516E+04  0.11642568470E+04  0.50400001928E-02 0.  1.
       -1    1    3    3    0  502  0.26147880979E+03  0.10150639360E+02 -0.11051726668E+04  0.11357292050E+04  0.50400001928E-02 0. -1.
</event>
<event>
 5   0  0.1828646E-06  0.2302816E+04  0.7818609E-02  0.8476812E-01
        2   -1    0    0  501    0  0.00000000000E+00  0.00000000000E+00  0.89958827716E+03  0.89958827716E+03  0.25500000920E-02 0.  1.
       -2   -1    0    0    0  501  0.00000000000E+00  0.00000000000E+00 -0.14737190846E+04  0.14737190846E+04  0.25500000920E-02 0. -1.
    10030    2    1    2    0    0  0.00000000000E+00  0.00000000000E+00 -0.57413080742E+03  0.23733073617E+04  0.23028160259E+04 0.  0.
        3    1    3    3  502    0 -0.90457433870E+02 -0.31247180641E+03  0.85124388816E+03  0.91128335027E+03  0.10100000352E+00 0.  1.
       -3    1    3    3    0  502  0.90457433870E+02  0.31247180641E+03 -0.14253746956E+04  0.14620240115E+04  0.10100000352E+00 0. -1.
</event>
<event>
 5   0  0.8097672E-07  0.2299926E+04  0.7818609E-02  0.8477950E-01
        1   -1    0    0  501    0  0.00000000000E+00  0.00000000000E+00  0.19119922290E+04  0.19119922290E+04  0.50400001928E-02 0. -1.
       -1   -1    0    0    0  501  0.00000000000E+00  0.00000000000E+00 -0.69164259150E+03  0.69164259152E+03  0.50400001928E-02 0.  1.
    10030    2    1    2    0    0  0.00000000000E+00  0.00000000000E+00  0.12203496375E+04  0.26036348205E+04  0.22999263120E+04 0.  0.
        3    1    3    3  502    0  0.65790700054E+03  0.35547930909E+03  0.15991550983E+04  0.17653623422E+04  0.10100000352E+00 0. -1.
       -3    1    3    3    0  502 -0.65790700054E+03 -0.35547930909E+03 -0.37880546084E+03  0.83827247832E+03  0.10100000352E+00 0.  1.
</event>
<event>
 5   0  0.7932912E-07  0.2299995E+04  0.7818609E-02  0.8477923E-01
       -1   -1    0    0    0  501  0.00000000000E+00  0.00000000000E+00  0.11842411005E+04  0.11842411006E+04  0.50400001928E-02 0. -1.
        1   -1    0    0  501    0  0.00000000000E+00  0.00000000000E+00 -0.11167437126E+04  0.11167437126E+04  0.50400001928E-02 0.  1.
    10030    2    1    2    0    0  0.00000000000E+00  0.00000000000E+00  0.67497387962E+02  0.23009848131E+04  0.22999946115E+04 0.  0.
        5    1    3    3  502    0  0.31954656539E+01  0.51931599933E+03 -0.99274001840E+03  0.11203812531E+04  0.46999998093E+01 0.  1.
       -5    1    3    3    0  502 -0.31954656539E+01 -0.51931599933E+03  0.10602374064E+04  0.11806035601E+04  0.46999998093E+01 0. -1.
</event>
<event>
 5   0  0.8097672E-07  0.2315162E+04  0.7818609E-02  0.8471967E-01
        1   -1    0    0  501    0  0.00000000000E+00  0.00000000000E+00  0.20547413208E+04  0.20547413208E+04  0.50400001928E-02 0.  1.
       -1   -1    0    0    0  501  0.00000000000E+00  0.00000000000E+00 -0.65214735145E+03  0.65214735147E+03  0.50400001928E-02 0. -1.
    10030    2    1    2    0    0  0.00000000000E+00  0.00000000000E+00  0.14025939693E+04  0.27068886722E+04  0.23151622926E+04 0.  0.
        3    1    3    3  502    0  0.44077823790E+03  0.94883725469E+03  0.12805133732E+04  0.16535695026E+04  0.10100000352E+00 0.  1.
       -3    1    3    3    0  502 -0.44077823790E+03 -0.94883725469E+03  0.12208059610E+03  0.10533191696E+04  0.10100000352E+00 0. -1.
</event>
<event>
 5   0  0.1825521E-06  0.2297899E+04  0.7818609E-02  0.8478750E-01
        2   -1    0    0  501    0  0.00000000000E+00  0.00000000000E+00  0.26504747911E+04  0.26504747911E+04  0.25500000920E-02 0.  1.
       -2   -1    0    0    0  501  0.00000000000E+00  0.00000000000E+00 -0.49805590538E+03  0.49805590539E+03  0.25500000920E-02 0. -1.
    10030    2    1    2    0    0  0.00000000000E+00  0.00000000000E+00  0.21524188857E+04  0.31485306965E+04  0.22978987112E+04 0.  0.
        5    1    3    3  502    0  0.62730062829E+03  0.96237661829E+03  0.10492305646E+04  0.15558218733E+04  0.46999998093E+01 0.  1.
       -5    1    3    3    0  502 -0.62730062829E+03 -0.96237661829E+03  0.11031883211E+04  0.15927088232E+04  0.46999998093E+01 0. -1.
</event>
<event>
 5   0  0.1744876E-06  0.2304585E+04  0.7818609E-02  0.8476116E-01
       -2   -1    0    0    0  501  0.00000000000E+00  0.00000000000E+00  0.59460985235E+03  0.59460985236E+03  0.25500000920E-02 0. -1.
        2   -1    0    0  501    0  0.00000000000E+00  0.00000000000E+00 -0.22330233340E+04  0.22330233340E+04  0.25500000920E-02 0.  1.
    10030    2    1    2    0    0  0.00000000000E+00  0.00000000000E+00 -0.16384134816E+04  0.28276331864E+04  0.23045847131E+04 0.  0.
        1    1    3    3  502    0  0.13627435602E+02 -0.57081568542E+03  0.40883334863E+03  0.70225419949E+03  0.50400001928E-02 0. -1.
       -1    1    3    3    0  502 -0.13627435602E+02  0.57081568542E+03 -0.20472468303E+04  0.21253789869E+04  0.50400001928E-02 0.  1.
</event>
<event>
 5   0  0.1744876E-06  0.2298666E+04  0.7818609E-02  0.8478447E-01
        2   -1    0    0  501    0  0.00000000000E+00  0.00000000000E+00  0.11901077507E+04  0.11901077507E+04  0.25500000920E-02 0.  1.
       -2   -1    0    0    0  501  0.00000000000E+00  0.00000000000E+00 -0.11099548686E+04  0.11099548686E+04  0.25500000920E-02 0. -1.
    10030    2    1    2    0    0  0.00000000000E+00  0.00000000000E+00  0.80152882139E+02  0.23000626193E+04  0.22986656060E+04 0.  0.
        1    1    3    3  502    0 -0.78820548973E+03  0.51973238619E+03 -0.61574255303E+03  0.11271772438E+04  0.50400001928E-02 0. -1.
       -1    1    3    3    0  502  0.78820548973E+03 -0.51973238619E+03  0.69589543517E+03  0.11728853755E+04  0.50400001928E-02 0.  1.
</event>
<event>
 5   0  0.7607231E-07  0.2300152E+04  0.7818609E-02  0.8477861E-01
       -1   -1    0    0    0  501  0.00000000000E+00  0.00000000000E+00  0.12378749126E+04  0.12378749126E+04  0.50400001928E-02 0. -1.
        1   -1    0    0  501    0  0.00000000000E+00  0.00000000000E+00 -0.10685041461E+04  0.10685041461E+04  0.50400001928E-02 0.  1.
    10030    2    1    2    0    0  0.00000000000E+00  0.00000000000E+00  0.16937076656E+03  0.23063790587E+04  0.23001517137E+04 0.  0.
        2    1    3    3  502    0  0.79606847943E+03 -0.74505800925E+03  0.45151462487E+03  0.11801279242E+04  0.25500000920E-02 0.  1.
       -2    1    3    3    0  502 -0.79606847943E+03  0.74505800925E+03 -0.28214385831E+03  0.11262511345E+04  0.25500000920E-02 0. -1.
</event>
<event>
 5   0  0.1825521E-06  0.2299818E+04  0.7818609E-02  0.8477993E-01
       -2   -1    0    0    0  501  0.00000000000E+00  0.00000000000E+00  0.26729965759E+04  0.26729965759E+04  0.25500000920E-02 0.  1.
        2   -1    0    0  501    0  0.00000000000E+00  0.00000000000E+00 -0.49468463597E+03  0.49468463598E+03  0.25500000920E-02 0. -1.
    10030    2    1    2    0    0  0.00000000000E+00  0.00000000000E+00  0.21783119400E+04  0.31676812119E+04  0.22998176781E+04 0.  0.
        5    1    3    3  502    0  0.98894448124E+03 -0.58539488185E+03  0.11437296390E+04  0.16213691534E+04  0.46999998093E+01 0. -1.
       -5    1    3    3    0  502 -0.98894448124E+03  0.58539488185E+03  0.10345823010E+04  0.15463120585E+04  0.46999998093E+01 0.  1.
</event>
<event>
 5   0  0.1689444E-06  0.2300176E+04  0.7818609E-02  0.8477852E-01
       -2   -1    0    0    0  501  0.00000000000E+00  0.00000000000E+00  0.63376642743E+03  0.63376642743E+03  0.25500000920E-02 0. -1.
        2   -1    0    0  501    0  0.00000000000E+00  0.00000000000E+00 -0.20870508754E+04  0.20870508754E+04  0.25500000920E-02 0.  1.
    10030    2    1    2    0    0  0.00000000000E+00  0.00000000000E+00 -0.14532844480E+04  0.27208173029E+04  0.23001763212E+04 0.  0.
        2    1    3    3  502    0 -0.66504404357E+03  0.66166443973E+03  0.60319225955E+02  0.94006479549E+03  0.25500000920E-02 0. -1.
       -2    1    3    3    0  502  0.66504404357E+03 -0.66166443973E+03 -0.15136036740E+04  0.17807525074E+04  0.25500000920E-02 0.  1.
</event>
<event>
 5   0  0.7932912E-07  0.2285060E+04  0.7818609E-02  0.8483835E-01
        1   -1    0    0  501    0  0.00000000000E+00  0.00000000000E+00  0.13479282307E+04  0.13479282307E+04  0.50400001928E-02 0.  1.
       -1   -1    0    0    0  501  0.00000000000E+00  0.00000000000E+00 -0.96843068336E+03  0.96843068337E+03  0.50400001928E-02 0. -1.
    10030    2    1    2    0    0  0.00000000000E+00  0.00000000000E+00  0.37949754735E+03  0.23163589141E+04  0.22850602247E+04 0.  0.
        5    1    3    3  502    0 -0.94733385171E+03 -0.63784642109E+03  0.15669099196E+03  0.11527634798E+04  0.46999998093E+01 0.  1.
       -5    1    3    3    0  502  0.94733385171E+03  0.63784642109E+03  0.22280655539E+03  0.11635954343E+04  0.46999998093E+01 0. -1.
</event>
<event>
 5   0  0.8108242E-07  0.2300282E+04  0.7818609E-02  0.8477810E-01
       -1   -1    0    0    0  501  0.00000000000E+00  0.00000000000E+00  0.11180006175E+04  0.11180006176E+04  0.50400001928E-02 0.  1.
        1   -1    0    0  501    0  0.00000000000E+00  0.00000000000E+00 -0.11832049423E+04  0.11832049423E+04  0.50400001928E-02 0. -1.
    10030    2    1    2    0    0  0.00000000000E+00  0.00000000000E+00 -0.65204324743E+02  0.23012055599E+04  0.23002815968E+04 0.  0.
        4    1    3    3  502    0  0.58015642685E+03 -0.11565167730E+03  0.95413344530E+03  0.11226437700E+04  0.12699999809E+01 0.  1.
       -4    1    3    3    0  502 -0.58015642685E+03  0.11565167730E+03 -0.10193377700E+04  0.11785617898E+04  0.12699999809E+01 0. -1.
</event>
<event>
 5   0  0.8097672E-07  0.2304360E+04  0.7818609E-02  0.8476204E-01
        1   -1    0    0  501    0  0.00000000000E+00  0.00000000000E+00  0.15232926059E+04  0.15232926059E+04  0.50400001928E-02 0.  1.
       -1   -1    0    0    0  501  0.00000000000E+00  0.00000000000E+00 -0.87148010650E+03  0.87148010652E+03  0.50400001928E-02 0. -1.
    10030    2    1    2    0    0  0.00000000000E+00  0.00000000000E+00  0.65181249937E+03  0.23947727124E+04  0.23043603906E+04 0.  0.
        3    1    3    3  502    0  0.68223118212E+03  0.41116897814E+02  0.12898714951E+04  0.14597597299E+04  0.10100000352E+00 0.  1.
       -3    1    3    3    0  502 -0.68223118212E+03 -0.41116897814E+02 -0.63805899571E+03  0.93501298245E+03  0.10100000352E+00 0. -1.
</event>
<event>
 5   0  0.7932912E-07  0.2297633E+04  0.7818609E-02  0.8478855E-01
       -1   -1    0    0    0  501  0.00000000000E+00  0.00000000000E+00  0.77167332505E+03  0.77167332506E+03  0.50400001928E-02 0. -1.
        1   -1    0    0  501    0  0.00000000000E+00  0.00000000000E+00 -0.17102818576E+04  0.17102818576E+04  0.50400001928E-02 0.  1.
    10030    2    1    2    0    0  0.00000000000E+00  0.00000000000E+00 -0.93860853252E+03  0.24819551826E+04  0.22976325971E+04 0.  0.
        5    1    3    3  502    0  0.34461378485E+02  0.11480619877E+04 -0.44460319209E+03  0.12316363110E+04  0.46999998093E+01 0.  1.
       -5    1    3    3    0  502 -0.34461378485E+02 -0.11480619877E+04 -0.49400534043E+03  0.12503188716E+04  0.46999998093E+01 0. -1.
</event>
<event>
 5   0  0.1689444E-06  0.2299612E+04  0.7818609E-02  0.8478074E-01
       -2   -1    0    0    0  501  0.00000000000E+00  0.00000000000E+00  0.87541612576E+03  0.87541612576E+03  0.25500000920E-02 0. -1.
        2   -1    0    0  501    0  0.00000000000E+00  0.00000000000E+00 -0.15102000214E+04  0.15102000214E+04  0.25500000920E-02 0.  1.
    10030    2    1    2    0    0  0.00000000000E+00  0.00000000000E+00 -0.63478389566E+03  0.23856161472E+04  0.22996116645E+04 0.  0.
        2    1    3    3  502    0  0.10763494060E+04 -0.92987029359E+02  0.90872985279E+02  0.10841736627E+04  0.25500000920E-02 0.  1.
       -2    1    3    3    0  502 -0.10763494060E+04  0.92987029359E+02 -0.72565688094E+03  0.13014424845E+04  0.25500000920E-02 0. -1.
</event>
<event>
 5   0  0.1689444E-06  0.2299921E+04  0.7818609E-02  0.8477952E-01
       -2   -1    0    0    0  501  0.00000000000E+00  0.00000000000E+00  0.15438505044E+04  0.15438505044E+04  0.25500000920E-02 0.  1.
        2   -1    0    0  501    0  0.00000000000E+00  0.00000000000E+00 -0.85656589139E+03  0.85656589140E+03  0.25500000920E-02 0. -1.
    10030    2    1    2    0    0  0.00000000000E+00  0.00000000000E+00  0.68728461303E+03  0.24004163958E+04  0.22999214626E+04 0.  0.
        2    1    3    3  502    0  0.31464483356E+03  0.92148706475E+03  0.98214984640E+03  0.13830249826E+04  0.25500000920E-02 0.  1.
       -2    1    3    3    0  502 -0.31464483356E+03 -0.92148706475E+03 -0.29486523337E+03  0.10173914132E+04  0.25500000920E-02 0. -1.
</event>
<event>
 5   0  0.8108242E-07  0.2297397E+04  0.7818609E-02  0.8478948E-01
       -1   -1    0    0    0  501  0.00000000000E+00  0.00000000000E+00  0.66939856588E+03  0.66939856590E+03  0.50400001928E-02 0. -1.
        1   -1    0    0  501    0  0.00000000000E+00  0.00000000000E+00 -0.19711852721E+04  0.19711852721E+04  0.50400001928E-02 0.  1.
    10030    2    1    2    0    0  0.00000000000E+00  0.00000000000E+00 -0.13017867062E+04  0.26405838380E+04  0.22973973050E+04 0.  0.
        4    1    3    3  502    0  0.68446682116E+03 -0.19543715880E+03 -0.16871327526E+04  0.18311496525E+04  0.12699999809E+01 0.  1.
       -4    1    3    3    0  502 -0.68446682116E+03  0.19543715880E+03  0.38534604633E+03  0.80943418548E+03  0.12699999809E+01 0. -1.
</event>
<event>
 5   0  0.7761069E-07  0.2299430E+04  0.7818609E-02  0.8478146E-01
        1   -1    0    0  501    0  0.00000000000E+00  0.00000000000E+00  0.13702564958E+04  0.13702564958E+04  0.50400001928E-02 0.  1.
       -1   -1    0    0    0  501  0.00000000000E+00  0.00000000000E+00 -0.96466937969E+03  0.96466937971E+03  0.50400001928E-02 0. -1.
    10030    2    1    2    0    0  0.00000000000E+00  0.00000000000E+00  0.40558711609E+03  0.23349258755E+04  0.22994299153E+04 0.  0.
        1    1    3    3  502    0  0.81535175485E+02 -0.10411914055E+04  0.69096101612E+03  0.12522598187E+04  0.50400001928E-02 0. -1.
       -1    1    3    3    0  502 -0.81535175485E+02  0.10411914055E+04 -0.28537390003E+03  0.10826660568E+04  0.50400001928E-02 0.  1.
</event>
<event>
 5   0  0.7761069E-07  0.2300286E+04  0.7818609E-02  0.8477809E-01
       -1   -1    0    0    0  501  0.00000000000E+00  0.00000000000E+00  0.10594584333E+04  0.10594584334E+04  0.50400001928E-02 0.  1.
        1   -1    0    0  501    0  0.00000000000E+00  0.00000000000E+00 -0.12485892499E+04  0.12485892499E+04  0.50400001928E-02 0. -1.
    10030    2    1    2    0    0  0.00000000000E+00  0.00000000000E+00 -0.18913081654E+03  0.23080476833E+04  0.23002855567E+04 0.  0.
        1    1    3    3  502    0  0.76886591322E+03 -0.53308943882E+03  0.57663828362E+03  0.10990226806E+04  0.50400001928E-02 0.  1.
       -1    1    3    3    0  502 -0.76886591322E+03  0.53308943882E+03 -0.76576910016E+03  0.12090250027E+04  0.50400001928E-02 0. -1.
</event>
<event>
 5   0  0.7932912E-07  0.2299653E+04  0.7818609E-02  0.8478058E-01
        1   -1    0    0  501    0  0.00000000000E+00  0.00000000000E+00  0.12051940421E+04  0.12051940421E+04  0.50400001928E-02 0.  1.
       -1   -1    0    0    0  501  0.00000000000E+00  0.00000000000E+00 -0.10970030277E+04  0.10970030277E+04  0.50400001928E-02 0. -1.
    10030    2    1    2    0    0  0.00000000000E+00  0.00000000000E+00  0.10819101440E+03  0.23021970698E+04  0.22996534636E+04 0.  0.
        5    1    3    3  502    0  0.11451425758E+04 -0.92254451512E+02  0.10123283407E+03  0.11533137385E+04  0.46999998093E+01 0.  1.
       -5    1    3    3    0  502 -0.11451425758E+04  0.92254451512E+02  0.69581803297E+01  0.11488833313E+04  0.46999998093E+01 0. -1.
</event>
<event>
 5   0  0.1888779E-06  0.2300435E+04  0.7818609E-02  0.8477750E-01
        2   -1    0    0  501    0  0.00000000000E+00  0.00000000000E+00  0.13712392508E+04  0.13712392508E+04  0.25500000920E-02 0.  1.
       -2   -1    0    0    0  501  0.00000000000E+00  0.00000000000E+00 -0.96482049577E+03  0.96482049578E+03  0.25500000920E-02 0. -1.
    10030    2    1    2    0    0  0.00000000000E+00  0.00000000000E+00  0.40641875503E+03  0.23360597466E+04  0.23004345101E+04 0.  0.
        4    1    3    3  502    0 -0.88313935754E+03 -0.22936900959E+03  0.91437819308E+03  0.12917563084E+04  0.12699999809E+01 0.  1.
       -4    1    3    3    0  502  0.88313935754E+03  0.22936900959E+03 -0.50795943805E+03  0.10443034382E+04  0.12699999809E+01 0. -1.
</event>
<event>
 5   0  0.1828646E-06  0.2299741E+04  0.7818609E-02  0.8478023E-01
        2   -1    0    0  501    0  0.00000000000E+00  0.00000000000E+00  0.17006178072E+04  0.17006178072E+04  0.25500000920E-02 0.  1.
       -2   -1    0    0    0  501  0.00000000000E+00  0.00000000000E+00 -0.77748331134E+03  0.77748331134E+03  0.25500000920E-02 0. -1.
    10030    2    1    2    0    0  0.00000000000E+00  0.00000000000E+00  0.92313449587E+03  0.24781011185E+04  0.22997408237E+04 0.  0.
        3    1    3    3  502    0 -0.49525035209E+03 -0.53345044775E+03 -0.49761538821E+03  0.88173883675E+03  0.10100000352E+00 0. -1.
       -3    1    3    3    0  502  0.49525035209E+03  0.53345044775E+03  0.14207498841E+04  0.15963622818E+04  0.10100000352E+00 0.  1.
</event>
<event>
 5   0  0.1744876E-06  0.2300171E+04  0.7818609E-02  0.8477854E-01
       -2   -1    0    0    0  501  0.00000000000E+00  0.00000000000E+00  0.11932957117E+04  0.11932957117E+04  0.25500000920E-02 0. -1.
        2   -1    0    0  501    0  0.00000000000E+00  0.00000000000E+00 -0.11084403867E+04  0.11084403867E+04  0.25500000920E-02 0.  1.
    10030    2    1    2    0    0  0.00000000000E+00  0.00000000000E+00  0.84855325003E+02  0.23017360985E+04  0.23001714372E+04 0.  0.
        1    1    3    3  502    0 -0.60860839618E+03 -0.58352893806E+03 -0.74027251111E+03  0.11220131872E+04  0.50400001928E-02 0.  1.
       -1    1    3    3    0  502  0.60860839618E+03  0.58352893806E+03  0.82512783611E+03  0.11797229113E+04  0.50400001928E-02 0. -1.
</event>
<event>
 5   0  0.1828646E-06  0.2299488E+04  0.7818609E-02  0.8478123E-01
        2   -1    0    0  501    0  0.00000000000E+00  0.00000000000E+00  0.10987834232E+04  0.10987834232E+04  0.25500000920E-02 0. -1.
       -2   -1    0    0    0  501  0.00000000000E+00  0.00000000000E+00 -0.12030680530E+04  0.12030680530E+04  0.25500000920E-02 0.  1.
    10030    2    1    2    0    0  0.00000000000E+00  0.00000000000E+00 -0.10428462977E+03  0.23018514763E+04  0.22994879723E+04 0.  0.
        3    1    3    3  502    0  0.75091483821E+03  0.76105895774E+03  0.37117221666E+03  0.11317476115E+04  0.10100000352E+00 0. -1.
       -3    1    3    3    0  502 -0.75091483821E+03 -0.76105895774E+03 -0.47545684643E+03  0.11701038648E+04  0.10100000352E+00 0.  1.
</event>
<event>
 5   0  0.1825521E-06  0.2282496E+04  0.7818609E-02  0.8484855E-01
        2   -1    0    0  501    0  0.00000000000E+00  0.00000000000E+00  0.17382855512E+04  0.17382855512E+04  0.25500000920E-02 0. -1.
       -2   -1    0    0    0  501  0.00000000000E+00  0.00000000000E+00 -0.74927134522E+03  0.74927134523E+03  0.25500000920E-02 0.  1.
    10030    2    1    2    0    0  0.00000000000E+00  0.00000000000E+00  0.98901420596E+03  0.24875568964E+04  0.22824964870E+04 0.  0.
        5    1    3    3  502    0  0.10739017014E+04 -0.36322956499E+03  0.63754167923E+03  0.13006467868E+04  0.46999998093E+01 0.  1.
       -5    1    3    3    0  502 -0.10739017014E+04  0.36322956499E+03  0.35147252673E+03  0.11869101096E+04  0.46999998093E+01 0. -1.
</event>
<event>
 5   0  0.1825521E-06  0.2300364E+04  0.7818609E-02  0.8477778E-01
        2   -1    0    0  501    0  0.00000000000E+00  0.00000000000E+00  0.12362758737E+04  0.12362758737E+04  0.25500000920E-02 0.  1.
       -2   -1    0    0    0  501  0.00000000000E+00  0.00000000000E+00 -0.10700832810E+04  0.10700832810E+04  0.25500000920E-02 0. -1.
    10030    2    1    2    0    0  0.00000000000E+00  0.00000000000E+00  0.16619259267E+03  0.23063591547E+04  0.23003635740E+04 0.  0.
        5    1    3    3  502    0 -0.10808075657E+04  0.38542400205E+03  0.16203776634E+03  0.11588679748E+04  0.46999998093E+01 0.  1.
       -5    1    3    3    0  502  0.10808075657E+04 -0.38542400205E+03  0.41548263291E+01  0.11474911799E+04  0.46999998093E+01 0. -1.
</event>
<event>
 5   0  0.7761069E-07  0.2300615E+04  0.7818609E-02  0.8477679E-01
       -1   -1    0    0    0  501  0.00000000000E+00  0.00000000000E+00  0.93387253696E+03  0.93387253698E+03  0.50400001928E-02 0. -1.
        1   -1    0    0  501    0  0.00000000000E+00  0.00000000000E+00 -0.14169033155E+04  0.14169033155E+04  0.50400001928E-02 0.  1.
    10030    2    1    2    0    0  0.00000000000E+00  0.00000000000E+00 -0.48303077852E+03  0.23507758525E+04  0.23006147821E+04 0.  0.
        1    1    3    3  502    0 -0.92740727248E+03  0.28053398457E+03  0.39202206511E+03  0.10452104406E+04  0.50400001928E-02 0. -1.
       -1    1    3    3    0  502  0.92740727248E+03 -0.28053398457E+03 -0.87505284364E+03  0.13055654119E+04  0.50400001928E-02 0.  1.
</event>
<event>
 5   0  0.1888779E-06  0.2297701E+04  0.7818609E-02  0.8478828E-01
        2   -1    0    0  501    0  0.00000000000E+00  0.00000000000E+00  0.15704119301E+04  0.15704119301E+04  0.25500000920E-02 0. -1.
       -2   -1    0    0    0  501  0.00000000000E+00  0.00000000000E+00 -0.84045285005E+03  0.84045285006E+03  0.25500000920E-02 0.  1.
    10030    2    1    2    0    0  0.00000000000E+00  0.00000000000E+00  0.72995908008E+03  0.24108647802E+04  0.22977007485E+04 0.  0.
        4    1    3    3  502    0 -0.70726243751E+02  0.26230127865E+03  0.15362235067E+04  0.15600603956E+04  0.12699999809E+01 0. -1.
       -4    1    3    3    0  502  0.70726243751E+02 -0.26230127865E+03 -0.80626442664E+03  0.85080438462E+03  0.12699999809E+01 0.  1.
</event>
<event>
 5   0  0.8097672E-07  0.2300711E+04  0.7818609E-02  0.8477641E-01
        1   -1    0    0  501    0  0.00000000000E+00  0.00000000000E+00  0.46903113705E+03  0.46903113708E+03  0.50400001928E-02 0.  1.
       -1   -1    0    0    0  501  0.00000000000E+00  0.00000000000E+00 -0.28213848239E+04  0.28213848239E+04  0.50400001928E-02 0. -1.
    10030    2    1    2    0    0  0.00000000000E+00  0.00000000000E+00 -0.23523536868E+04  0.32904159610E+04  0.23007106137E+04 0.  0.
        3    1    3    3  502    0  0.52571888929E+03 -0.75603833073E+03 -0.19014176614E+03  0.94028092053E+03  0.10100000352E+00 0.  1.
       -3    1    3    3    0  502 -0.52571888929E+03  0.75603833073E+03 -0.21622119207E+04  0.23501350404E+04  0.10100000352E+00 0. -1.
</event>
<event>
 5   0  0.7607231E-07  0.2299481E+04  0.7818609E-02  0.8478126E-01
       -1   -1    0    0    0  501  0.00000000000E+00  0.00000000000E+00  0.10420816542E+04  0.10420816543E+04  0.50400001928E-02 0. -1.
        1   -1    0    0  501    0  0.00000000000E+00  0.00000000000E+00 -0.12685214295E+04  0.12685214295E+04  0.50400001928E-02 0.  1.
    10030    2    1    2    0    0  0.00000000000E+00  0.00000000000E+00 -0.22643977528E+03  0.23106030838E+04  0.22994807325E+04 0.  0.
        2    1    3    3  502    0 -0.55087113761E+03 -0.90793284652E+03 -0.55592078900E+03  0.11986863592E+04  0.25500000920E-02 0.  1.
       -2    1    3    3    0  502  0.55087113761E+03  0.90793284652E+03  0.32948101372E+03  0.11119167246E+04  0.25500000920E-02 0. -1.
</event>
<event>
 5   0  0.8108242E-07  0.2298393E+04  0.7818609E-02  0.8478555E-01
       -1   -1    0    0    0  501  0.00000000000E+00  0.00000000000E+00  0.11372845197E+04  0.11372845198E+04  0.50400001928E-02 0. -1.
        1   -1    0    0  501    0  0.00000000000E+00  0.00000000000E+00 -0.11612333111E+04  0.11612333111E+04  0.50400001928E-02 0.  1.
    10030    2    1    2    0    0  0.00000000000E+00  0.00000000000E+00 -0.23948791327E+02  0.22985178308E+04  0.22983930634E+04 0.  0.
        4    1    3    3  502    0 -0.92153446550E+02 -0.54498220246E+03  0.99562841017E+03  0.11387604677E+04  0.12699999809E+01 0. -1.
       -4    1    3    3    0  502  0.92153446550E+02  0.54498220246E+03 -0.10195772015E+04  0.11597573632E+04  0.12699999809E+01 0.  1.
</event>
<event>
 5   0  0.1888779E-06  0.2299932E+04  0.7818609E-02  0.8477948E-01
       -2   -1    0    0    0  501  0.00000000000E+00  0.00000000000E+00  0.92185997212E+03  0.92185997213E+03  0.25500000920E-02 0.  1.
        2   -1    0    0  501    0  0.00000000000E+00  0.00000000000E+00 -0.14345154218E+04  0.14345154218E+04  0.25500000920E-02 0. -1.
    10030    2    1    2    0    0  0.00000000000E+00  0.00000000000E+00 -0.51265544972E+03  0.23563753940E+04  0.22999324745E+04 0.  0.
        4    1    3    3  502    0 -0.59660443615E+03  0.49973268331E+03 -0.11237160764E+04  0.13668975972E+04  0.12699999809E+01 0. -1.
       -4    1    3    3    0  502  0.59660443615E+03 -0.49973268331E+03  0.61106062664E+03  0.98947779679E+03  0.12699999809E+01 0.  1.
</event>
<event>
 5   0  0.7932912E-07  0.2300654E+04  0.7818609E-02  0.8477663E-01
       -1   -1    0    0    0  501  0.00000000000E+00  0.00000000000E+00  0.14864669241E+04  0.14864669241E+04  0.50400001928E-02 0.  1.
        1   -1    0    0  501    0  0.00000000000E+00  0.00000000000E+00 -0.89019919975E+03  0.89019919977E+03  0.50400001928E-02 0. -1.
    10030    2    1    2    0    0  0.00000000000E+00  0.00000000000E+00  0.59626772431E+03  0.23766661238E+04  0.23006535300E+04 0.  0.
        5    1    3    3  502    0  0.20476677422E+03  0.88436677606E+03  0.10280152818E+04  0.13714486997E+04  0.46999998093E+01 0.  1.
       -5    1    3    3    0  502 -0.20476677422E+03 -0.88436677606E+03 -0.43174755745E+03  0.10052174241E+04  0.46999998093E+01 0. -1.
</event>
<event>
 5   0  0.7932912E-07  0.2299641E+04  0.7818609E-02  0.8478063E-01
        1   -1    0    0  501    0  0.00000000000E+00  0.00000000000E+00  0.28417377126E+04  0.28417377126E+04  0.50400001928E-02 0. -1.
       -1   -1    0    0    0  501  0.00000000000E+00  0.00000000000E+00 -0.46523882818E+03  0.46523882820E+03  0.50400001928E-02 0.  1.
    10030    2    1    2    0    0  0.00000000000E+00  0.00000000000E+00  0.23764988844E+04  0.33069765408E+04  0.22996406010E+04 0.  0.
        5    1    3    3  502    0  0.81169125954E+03 -0.24977379972E+03  0.23029257014E+04  0.24545302052E+04  0.46999998093E+01 0. -1.
       -5    1    3    3    0  502 -0.81169125954E+03  0.24977379972E+03  0.73573182967E+02  0.85244633560E+03  0.46999998093E+01 0.  1.
</event>
<event>
 5   0  0.7932912E-07  0.2299023E+04  0.7818609E-02  0.8478306E-01
       -1   -1    0    0    0  501  0.00000000000E+00  0.00000000000E+00  0.62186370129E+03  0.62186370131E+03  0.50400001928E-02 0.  1.
        1   -1    0    0  501    0  0.00000000000E+00  0.00000000000E+00 -0.21248652469E+04  0.21248652469E+04  0.50400001928E-02 0. -1.
    10030    2    1    2    0    0  0.00000000000E+00  0.00000000000E+00 -0.15030015456E+04  0.27467289482E+04  0.22990228944E+04 0.  0.
        5    1    3    3  502    0 -0.28057001132E+03 -0.45363702237E+03  0.46504971997E+03  0.70767182462E+03  0.46999998093E+01 0.  1.
       -5    1    3    3    0  502  0.28057001132E+03  0.45363702237E+03 -0.19680512656E+04  0.20390571236E+04  0.46999998093E+01 0. -1.
</event>
<event>
 5   0  0.1825521E-06  0.2301837E+04  0.7818609E-02  0.8477197E-01
       -2   -1    0    0    0  501  0.00000000000E+00  0.00000000000E+00  0.93747924793E+03  0.93747924794E+03  0.25500000920E-02 0.  1.
        2   -1    0    0  501    0  0.00000000000E+00  0.00000000000E+00 -0.14129526588E+04  0.14129526588E+04  0.25500000920E-02 0. -1.
    10030    2    1    2    0    0  0.00000000000E+00  0.00000000000E+00 -0.47547341090E+03  0.23504319068E+04  0.23018373496E+04 0.  0.
        5    1    3    3  502    0 -0.60143653268E+03  0.97312950228E+03 -0.36643226853E+03  0.12012500275E+04  0.46999998093E+01 0. -1.
       -5    1    3    3    0  502  0.60143653268E+03 -0.97312950228E+03 -0.10904114238E+03  0.11491818793E+04  0.46999998093E+01 0.  1.
</event>
<event>
 5   0  0.1744876E-06  0.2300413E+04  0.7818609E-02  0.8477758E-01
       -2   -1    0    0    0  501  0.00000000000E+00  0.00000000000E+00  0.11902800608E+04  0.11902800608E+04  0.25500000920E-02 0. -1.
        2   -1    0    0  501    0  0.00000000000E+00  0.00000000000E+00 -0.11114822659E+04  0.11114822660E+04  0.25500000920E-02 0.  1.
    10030    2    1    2    0    0  0.00000000000E+00  0.00000000000E+00  0.78797794887E+02  0.23017623268E+04  0.23004131621E+04 0.  0.
        1    1    3    3  502    0  0.12718033330E+03  0.59099578334E+03 -0.93970671911E+03  0.11173627750E+04  0.50400001928E-02 0.  1.
       -1    1    3    3    0  502 -0.12718033330E+03 -0.59099578334E+03  0.10185045140E+04  0.11843995517E+04  0.50400001928E-02 0. -1.
</event>
<event>
 5   0  0.7607231E-07  0.2297872E+04  0.7818609E-02  0.8478761E-01
        1   -1    0    0  501    0  0.00000000000E+00  0.00000000000E+00  0.15849891136E+04  0.15849891136E+04  0.50400001928E-02 0. -1.
       -1   -1    0    0    0  501  0.00000000000E+00  0.00000000000E+00 -0.83284708607E+03  0.83284708608E+03  0.50400001928E-02 0.  1.
    10030    2    1    2    0    0  0.00000000000E+00  0.00000000000E+00  0.75214202751E+03  0.24178361997E+04  0.22978716802E+04 0.  0.
        2    1    3    3  502    0  0.37427278113E+03 -0.88003140451E+03  0.10461195545E+04  0.14173572274E+04  0.25500000920E-02 0. -1.
       -2    1    3    3    0  502 -0.37427278113E+03  0.88003140451E+03 -0.29397752701E+03  0.10004789723E+04  0.25500000920E-02 0.  1.
</event>
<event>
 5   0  0.1825521E-06  0.2299769E+04  0.7818609E-02  0.8478012E-01
       -2   -1    0    0    0  501  0.00000000000E+00  0.00000000000E+00  0.61145677254E+03  0.61145677254E+03  0.25500000920E-02 0. -1.
        2   -1    0    0  501    0  0.00000000000E+00  0.00000000000E+00 -0.21624336959E+04  0.21624336959E+04  0.25500000920E-02 0.  1.
    10030    2    1    2    0    0  0.00000000000E+00  0.00000000000E+00 -0.15509769234E+04  0.27738904685E+04  0.22997693176E+04 0.  0.
        5    1    3    3  502    0  0.50841317649E+03 -0.74868175354E+03  0.80124213960E+02  0.90854295758E+03  0.46999998093E+01 0. -1.
       -5    1    3    3    0  502 -0.50841317649E+03  0.74868175354E+03 -0.16311011374E+04  0.18653475109E+04  0.46999998093E+01 0.  1.
</event>
<event>
 5   0  0.1744876E-06  0.2299479E+04  0.7818609E-02  0.8478127E-01
       -2   -1    0    0    0  501  0.00000000000E+00  0.00000000000E+00  0.87585983136E+03  0.87585983137E+03  0.25500000920E-02 0.  1.
        2   -1    0    0  501    0  0.00000000000E+00  0.00000000000E+00 -0.15092601903E+04  0.15092601903E+04  0.25500000920E-02 0. -1.
    10030    2    1    2    0    0  0.00000000000E+00  0.00000000000E+00 -0.63340035894E+03  0.23851200217E+04  0.22994785285E+04 0.  0.
        1    1    3    3  502    0 -0.67056570589E+03 -0.15971978118E+03 -0.12711514572E+04  0.14460272479E+04  0.50400001928E-02 0. -1.
       -1    1    3    3    0  502  0.67056570589E+03  0.15971978118E+03  0.63775109827E+03  0.93909277379E+03  0.50400001928E-02 0.  1.
</event>
<event>
 5   0  0.6319125E-07  0.2300065E+04  0.7818609E-02  0.8477895E-01
        3   -1    0    0  501    0  0.00000000000E+00  0.00000000000E+00  0.12043437318E+04  0.12043437360E+04  0.10100000352E+00 0. -1.
       -3   -1    0    0    0  501  0.00000000000E+00  0.00000000000E+00 -0.10981706199E+04  0.10981706246E+04  0.10100000352E+00 0.  1.
    10030    2    1    2    0    0  0.00000000000E+00  0.00000000000E+00  0.10617311184E+03  0.23025143606E+04  0.23000651406E+04 0.  0.
        3    1    3    3  502    0 -0.93612994870E+03  0.46071641092E+03 -0.43113919051E+03  0.11289286532E+04  0.10100000352E+00 0.  1.
       -3    1    3    3    0  502  0.93612994870E+03 -0.46071641092E+03  0.53731230235E+03  0.11735857074E+04  0.10100000352E+00 0. -1.
</event>
<event>
 5   0  0.1744876E-06  0.2300865E+04  0.7818609E-02  0.8477580E-01
        2   -1    0    0  501    0  0.00000000000E+00  0.00000000000E+00  0.29814244706E+04  0.29814244706E+04  0.25500000920E-02 0. -1.
       -2   -1    0    0    0  501  0.00000000000E+00  0.00000000000E+00 -0.44391366517E+03  0.44391366518E+03  0.25500000920E-02 0.  1.
    10030    2    1    2    0    0  0.00000000000E+00  0.00000000000E+00  0.25375108054E+04  0.34253381357E+04  0.23008651105E+04 0.  0.
        1    1    3    3  502    0 -0.10688958444E+04 -0.42212800945E+03  0.13470325262E+04  0.17706572252E+04  0.50400001928E-02 0.  1.
       -1    1    3    3    0  502  0.10688958444E+04  0.42212800945E+03  0.11904782792E+04  0.16546809105E+04  0.50400001928E-02 0. -1.
</event>
<event>
 5   0  0.1828646E-06  0.2299288E+04  0.7818609E-02  0.8478202E-01
       -2   -1    0    0    0  501  0.00000000000E+00  0.00000000000E+00  0.75999503391E+03  0.75999503392E+03  0.25500000920E-02 0. -1.
        2   -1    0    0  501    0  0.00000000000E+00  0.00000000000E+00 -0.17390655937E+04  0.17390655937E+04  0.25500000920E-02 0.  1.
    10030    2    1    2    0    0  0.00000000000E+00  0.00000000000E+00 -0.97907055974E+03  0.24990606276E+04  0.22992879027E+04 0.  0.
        3    1    3    3  502    0  0.34803132282E+03 -0.52305876376E+03 -0.15359771070E+04  0.16595005138E+04  0.10100000352E+00 0.  1.
       -3    1    3    3    0  502 -0.34803132282E+03  0.52305876376E+03  0.55690654725E+03  0.83956011374E+03  0.10100000352E+00 0. -1.
</event>
<event>
 5   0  0.8108242E-07  0.2300574E+04  0.7818609E-02  0.8477695E-01
       -1   -1    0    0    0  501  0.00000000000E+00  0.00000000000E+00  0.88185130131E+03  0.88185130132E+03  0.50400001928E-02 0. -1.
        1   -1    0    0  501    0  0.00000000000E+00  0.00000000000E+00 -0.15004344614E+04  0.15004344614E+04  0.50400001928E-02 0.  1.
    10030    2    1    2    0    0  0.00000000000E+00  0.00000000000E+00 -0.61858316008E+03  0.23822857627E+04  0.23005739130E+04 0.  0.
        4    1    3    3  502    0 -0.97387673706E+03 -0.47678096229E+03  0.88275179664E+02  0.10879108903E+04  0.12699999809E+01 0. -1.
       -4    1    3    3    0  502  0.97387673706E+03  0.47678096229E+03 -0.70685833975E+03  0.12943748724E+04  0.12699999809E+01 0.  1.
</event>
<event>
 5   0  0.8108242E-07  0.2305007E+04  0.7818609E-02  0.8475949E-01
       -1   -1    0    0    0  501  0.00000000000E+00  0.00000000000E+00  0.12515787583E+04  0.12515787583E+04  0.50400001928E-02 0.  1.
        1   -1    0    0  501    0  0.00000000000E+00  0.00000000000E+00 -0.10612713980E+04  0.10612713980E+04  0.50400001928E-02 0. -1.
    10030    2    1    2    0    0  0.00000000000E+00  0.00000000000E+00  0.19030736028E+03  0.23128501563E+04  0.23050073653E+04 0.  0.
        4    1    3    3  502    0  0.29067680597E+03 -0.68789510981E+03 -0.78565452431E+03  0.10839498753E+04  0.12699999809E+01 0. -1.
       -4    1    3    3    0  502 -0.29067680597E+03  0.68789510981E+03  0.97596188460E+03  0.12289002810E+04  0.12699999809E+01 0.  1.
</event>
<event>
 5   0  0.7761069E-07  0.2299781E+04  0.7818609E-02  0.8478007E-01
       -1   -1    0    0    0  501  0.00000000000E+00  0.00000000000E+00  0.78812414453E+03  0.78812414454E+03  0.50400001928E-02 0. -1.
        1   -1    0    0  501    0  0.00000000000E+00  0.00000000000E+00 -0.16777161748E+04  0.16777161748E+04  0.50400001928E-02 0.  1.
    10030    2    1    2    0    0  0.00000000000E+00  0.00000000000E+00 -0.88959203028E+03  0.24658403194E+04  0.22997814027E+04 0.  0.
        1    1    3    3  502    0  0.11053560548E+04 -0.16016180655E+03 -0.15158174855E+03  0.11271383405E+04  0.50400001928E-02 0.  1.
       -1    1    3    3    0  502 -0.11053560548E+04  0.16016180655E+03 -0.73801028172E+03  0.13387019788E+04  0.50400001928E-02 0. -1.
</event>
<event>
 5   0  0.1825521E-06  0.2299193E+04  0.7818609E-02  0.8478239E-01
       -2   -1    0    0    0  501  0.00000000000E+00  0.00000000000E+00  0.57270840813E+03  0.57270840813E+03  0.25500000920E-02 0.  1.
        2   -1    0    0  501    0  0.00000000000E+00  0.00000000000E+00 -0.23075836473E+04  0.23075836473E+04  0.25500000920E-02 0. -1.
    10030    2    1    2    0    0  0.00000000000E+00  0.00000000000E+00 -0.17348752391E+04  0.28802920554E+04  0.22991933866E+04 0.  0.
        5    1    3    3  502    0 -0.38257073603E+01 -0.12452976306E+03  0.56421382900E+03  0.57782491532E+03  0.46999998093E+01 0.  1.
       -5    1    3    3    0  502  0.38257073603E+01  0.12452976306E+03 -0.22990890681E+04  0.23024671401E+04  0.46999998093E+01 0. -1.
</event>
<event>
 5   0  0.7761069E-07  0.2299960E+04  0.7818609E-02  0.8477937E-01
        1   -1    0    0  501    0  0.00000000000E+00  0.00000000000E+00  0.18075501832E+04  0.18075501832E+04  0.50400001928E-02 0. -1.
       -1   -1    0    0    0  501  0.00000000000E+00  0.00000000000E+00 -0.73162761559E+03  0.73162761561E+03  0.50400001928E-02 0.  1.
    10030    2    1    2    0    0  0.00000000000E+00  0.00000000000E+00  0.10759225676E+04  0.25391777989E+04  0.22999596785E+04 0.  0.
        1    1    3    3  502    0 -0.51472186204E+03 -0.50071217984E+02 -0.59600658128E+03  0.78909414337E+03  0.50400001928E-02 0.  1.
       -1    1    3    3    0  502  0.51472186204E+03  0.50071217984E+02  0.16719291489E+04  0.17500836555E+04  0.50400001928E-02 0. -1.
</event>
<event>
 5   0  0.6319125E-07  0.2300871E+04  0.7818609E-02  0.8477578E-01
        3   -1    0    0  501    0  0.00000000000E+00  0.00000000000E+00  0.88758683248E+03  0.88758683823E+03  0.10100000352E+00 0. -1.
       -3   -1    0    0    0  501  0.00000000000E+00  0.00000000000E+00 -0.14911236761E+04  0.14911236795E+04  0.10100000352E+00 0.  1.
    10030    2    1    2    0    0  0.00000000000E+00  0.00000000000E+00 -0.60353684357E+03  0.23787105177E+04  0.23008709233E+04 0.  0.
        5    1    3    3  502    0  0.75702612373E+03  0.77506889900E+03 -0.70171428399E+03  0.12908312735E+04  0.46999998093E+01 0.  1.
       -5    1    3    3    0  502 -0.75702612373E+03 -0.77506889900E+03  0.98177440426E+02  0.10878792442E+04  0.46999998093E+01 0. -1.
</event>
<event>
 5   0  0.1825521E-06  0.2300028E+04  0.7818609E-02  0.8477910E-01
        2   -1    0    0  501    0  0.00000000000E+00  0.00000000000E+00  0.11789866122E+04  0.11789866122E+04  0.25500000920E-02 0. -1.
       -2   -1    0    0    0  501  0.00000000000E+00  0.00000000000E+00 -0.11217530827E+04  0.11217530827E+04  0.25500000920E-02 0.  1.
    10030    2    1    2    0    0  0.00000000000E+00  0.00000000000E+00  0.57233529470E+02  0.23007396949E+04  0.23000277100E+04 0.  0.
        5    1    3    3  502    0 -0.98239979080E+02  0.10091191962E+04 -0.51426398655E+03  0.11368650683E+04  0.46999998093E+01 0.  1.
       -5    1    3    3    0  502  0.98239979080E+02 -0.10091191962E+04  0.57149751602E+03  0.11638746266E+04  0.46999998093E+01 0. -1.
</event>
<event>
 5   0  0.1744876E-06  0.2300294E+04  0.7818609E-02  0.8477805E-01
        2   -1    0    0  501    0  0.00000000000E+00  0.00000000000E+00  0.90921932677E+03  0.90921932677E+03  0.25500000920E-02 0. -1.
       -2   -1    0    0    0  501  0.00000000000E+00  0.00000000000E+00 -0.14549169485E+04  0.14549169485E+04  0.25500000920E-02 0.  1.
    10030    2    1    2    0    0  0.00000000000E+00  0.00000000000E+00 -0.54569762174E+03  0.23641362753E+04  0.23002944233E+04 0.  0.
        1    1    3    3  502    0 -0.82738224569E+03 -0.35215729147E+03  0.46417496140E+03  0.10119459142E+04  0.50400001928E-02 0. -1.
       -1    1    3    3    0  502  0.82738224569E+03  0.35215729147E+03 -0.10098725831E+04  0.13521903611E+04  0.50400001928E-02 0.  1.
</event>
<event>
 5   0  0.1888779E-06  0.2300767E+04  0.7818609E-02  0.8477619E-01
       -2   -1    0    0    0  501  0.00000000000E+00  0.00000000000E+00  0.10564364571E+04  0.10564364571E+04  0.25500000920E-02 0.  1.
        2   -1    0    0  501    0  0.00000000000E+00  0.00000000000E+00 -0.12526848367E+04  0.12526848367E+04  0.25500000920E-02 0. -1.
    10030    2    1    2    0    0  0.00000000000E+00  0.00000000000E+00 -0.19624837959E+03  0.23091212939E+04  0.23007667686E+04 0.  0.
        4    1    3    3  502    0 -0.13328636909E+03 -0.11208646950E+04  0.12466700937E+03  0.11356259933E+04  0.12699999809E+01 0. -1.
       -4    1    3    3    0  502  0.13328636909E+03  0.11208646950E+04 -0.32091538896E+03  0.11734953005E+04  0.12699999809E+01 0.  1.
</event>
<event>
 5   0  0.1825521E-06  0.2301212E+04  0.7818609E-02  0.8477443E-01
        2   -1    0    0  501    0  0.00000000000E+00  0.00000000000E+00  0.15086044069E+04  0.15086044069E+04  0.25500000920E-02 0. -1.
       -2   -1    0    0    0  501  0.00000000000E+00  0.00000000000E+00 -0.87756246791E+03  0.87756246792E+03  0.25500000920E-02 0.  1.
    10030    2    1    2    0    0  0.00000000000E+00  0.00000000000E+00  0.63104193898E+03  0.23861668748E+04  0.23012123817E+04 0.  0.
        5    1    3    3  502    0 -0.29366480843E+03 -0.65995319372E+03 -0.61313978050E+03  0.94749127597E+03  0.46999998093E+01 0.  1.
       -5    1    3    3    0  502  0.29366480843E+03  0.65995319372E+03  0.12441817195E+04  0.14386755988E+04  0.46999998093E+01 0. -1.
</event>
<event>
 5   0  0.8108242E-07  0.2298036E+04  0.7818609E-02  0.8478696E-01
        1   -1    0    0  501    0  0.00000000000E+00  0.00000000000E+00  0.15569952425E+04  0.15569952425E+04  0.50400001928E-02 0. -1.
       -1   -1    0    0    0  501  0.00000000000E+00  0.00000000000E+00 -0.84794214252E+03  0.84794214254E+03  0.50400001928E-02 0.  1.
    10030    2    1    2    0    0  0.00000000000E+00  0.00000000000E+00  0.70905309995E+03  0.24049373850E+04  0.22980355801E+04 0.  0.
        4    1    3    3  502    0  0.51442204752E+03  0.76249915169E+03  0.10751862108E+04  0.14149424017E+04  0.12699999809E+01 0. -1.
       -4    1    3    3    0  502 -0.51442204752E+03 -0.76249915169E+03 -0.36613311082E+03  0.98999498335E+03  0.12699999809E+01 0.  1.
</event>
<event>
 5   0  0.1744876E-06  0.2301512E+04  0.7818609E-02  0.8477325E-01
       -2   -1    0    0    0  501  0.00000000000E+00  0.00000000000E+00  0.21317931055E+04  0.21317931055E+04  0.25500000920E-02 0.  1.
        2   -1    0    0  501    0  0.00000000000E+00  0.00000000000E+00 -0.62118559840E+03  0.62118559841E+03  0.25500000920E-02 0. -1.
    10030    2    1    2    0    0  0.00000000000E+00  0.00000000000E+00  0.15106075071E+04  0.27529787039E+04  0.23015118300E+04 0.  0.
        1    1    3    3  502    0  0.64475937488E+03  0.85224954314E+03  0.24473038971E+03  0.10963288279E+04  0.50400001928E-02 0. -1.
       -1    1    3    3    0  502 -0.64475937488E+03 -0.85224954314E+03  0.12658771174E+04  0.16566498760E+04  0.50400001928E-02 0.  1.
</event>
<event>
 5   0  0.8108242E-07  0.2299179E+04  0.7818609E-02  0.8478245E-01
       -1   -1    0    0    0  501  0.00000000000E+00  0.00000000000E+00  0.82914446574E+03  0.82914446576E+03  0.50400001928E-02 0. -1.
        1   -1    0    0  501    0  0.00000000000E+00  0.00000000000E+00 -0.15938784376E+04  0.15938784376E+04  0.50400001928E-02 0.  1.
    10030    2    1    2    0    0  0.00000000000E+00  0.00000000000E+00 -0.76473397185E+03  0.24230229034E+04  0.22991785365E+04 0.  0.
        4    1    3    3  502    0 -0.69095749849E+03  0.43861820948E+03 -0.12331599730E+04  0.14800315302E+04  0.12699999809E+01 0.  1.
       -4    1    3    3    0  502  0.69095749849E+03 -0.43861820948E+03  0.46842600116E+03  0.94299137317E+03  0.12699999809E+01 0. -1.
</event>
<event>
 5   0  0.7607231E-07  0.2301163E+04  0.7818609E-02  0.8477463E-01
        1   -1    0    0  501    0  0.00000000000E+00  0.00000000000E+00  0.21414586375E+04  0.21414586375E+04  0.50400001928E-02 0. -1.
       -1   -1    0    0    0  501  0.00000000000E+00  0.00000000000E+00 -0.61819455684E+03  0.61819455686E+03  0.50400001928E-02 0.  1.
    10030    2    1    2    0    0  0.00000000000E+00  0.00000000000E+00  0.15232640807E+04  0.27596531944E+04  0.23011632480E+04 0.  0.
        2    1    3    3  502    0  0.91292335368E+03 -0.66570430021E+03  0.50096068093E+03  0.12359420977E+04  0.25500000920E-02 0.  1.
       -2    1    3    3    0  502 -0.91292335368E+03  0.66570430021E+03  0.10223033998E+04  0.15237110967E+04  0.25500000920E-02 0. -1.
</event>
<event>
 5   0  0.6319125E-07  0.2301993E+04  0.7818609E-02  0.8477136E-01
       -4   -1    0    0    0  501  0.00000000000E+00  0.00000000000E+00  0.13326832572E+04  0.13326838623E+04  0.12699999809E+01 0.  1.
        4   -1    0    0  501    0  0.00000000000E+00  0.00000000000E+00 -0.99407809199E+03  0.99407890325E+03  0.12699999809E+01 0. -1.
    10030    2    1    2    0    0  0.00000000000E+00  0.00000000000E+00  0.33860516516E+03  0.23267627655E+04  0.23019929429E+04 0.  0.
        5    1    3    3  502    0 -0.25153307278E+03 -0.47537803538E+03 -0.85925086636E+03  0.10136998099E+04  0.46999998093E+01 0. -1.
       -5    1    3    3    0  502  0.25153307278E+03  0.47537803538E+03  0.11978560315E+04  0.13130629556E+04  0.46999998093E+01 0.  1.
</event>
<event>
 5   0  0.7761069E-07  0.2299835E+04  0.7818609E-02  0.8477986E-01
        1   -1    0    0  501    0  0.00000000000E+00  0.00000000000E+00  0.11158842112E+04  0.11158842112E+04  0.50400001928E-02 0. -1.
       -1   -1    0    0    0  501  0.00000000000E+00  0.00000000000E+00 -0.11849885679E+04  0.11849885679E+04  0.50400001928E-02 0.  1.
    10030    2    1    2    0    0  0.00000000000E+00  0.00000000000E+00 -0.69104356676E+02  0.23008727791E+04  0.22998348057E+04 0.  0.
        1    1    3    3  502    0  0.10262270587E+04  0.29253103858E+03 -0.46322385592E+03  0.11633111042E+04  0.50400001928E-02 0.  1.
       -1    1    3    3    0  502 -0.10262270587E+04 -0.29253103858E+03  0.39411949925E+03  0.11375616749E+04  0.50400001928E-02 0. -1.
</event>
<event>
 5   0  0.8108242E-07  0.2299989E+04  0.7818609E-02  0.8477925E-01
        1   -1    0    0  501    0  0.00000000000E+00  0.00000000000E+00  0.12794215985E+04  0.12794215985E+04  0.50400001928E-02 0.  1.
       -1   -1    0    0    0  501  0.00000000000E+00  0.00000000000E+00 -0.10336606890E+04  0.10336606890E+04  0.50400001928E-02 0. -1.
    10030    2    1    2    0    0  0.00000000000E+00  0.00000000000E+00  0.24576090954E+03  0.23130822875E+04  0.22999894008E+04 0.  0.
        4    1    3    3  502    0 -0.11360904444E+04 -0.13916060229E+03  0.23495552924E+03  0.11684489225E+04  0.12699999809E+01 0.  1.
       -4    1    3    3    0  502  0.11360904444E+04  0.13916060229E+03  0.10805380301E+02  0.11446333649E+04  0.12699999809E+01 0. -1.
</event>
<event>
 5   0  0.1888779E-06  0.2300600E+04  0.7818609E-02  0.8477685E-01
       -2   -1    0    0    0  501  0.00000000000E+00  0.00000000000E+00  0.50766327133E+03  0.50766327134E+03  0.25500000920E-02 0. -1.
        2   -1    0    0  501    0  0.00000000000E+00  0.00000000000E+00 -0.26064319207E+04  0.26064319207E+04  0.25500000920E-02 0.  1.
    10030    2    1    2    0    0  0.00000000000E+00  0.00000000000E+00 -0.20987686493E+04  0.31140951920E+04  0.23005997091E+04 0.  0.
        4    1    3    3  502    0 -0.89744912347E+03  0.71814350426E+03 -0.98820033180E+03  0.15158121686E+04  0.12699999809E+01 0. -1.
       -4    1    3    3    0  502  0.89744912347E+03 -0.71814350426E+03 -0.11105683175E+04  0.15982830234E+04  0.12699999809E+01 0.  1.
</event>
<event>
 5   0  0.1689444E-06  0.2300151E+04  0.7818609E-02  0.8477862E-01
       -2   -1    0    0    0  501  0.00000000000E+00  0.00000000000E+00  0.10354935549E+04  0.10354935549E+04  0.25500000920E-02 0. -1.
        2   -1    0    0  501    0  0.00000000000E+00  0.00000000000E+00 -0.12773360953E+04  0.12773360953E+04  0.25500000920E-02 0.  1.
    10030    2    1    2    0    0  0.00000000000E+00  0.00000000000E+00 -0.24184254041E+03  0.23128296501E+04  0.23001506856E+04 0.  0.
        2    1    3    3  502    0  0.28814796507E+03 -0.10392562576E+04 -0.52261110564E+03  0.11984177846E+04  0.25500000920E-02 0.  1.
       -2    1    3    3    0  502 -0.28814796507E+03  0.10392562576E+04  0.28076856523E+03  0.11144118655E+04  0.25500000920E-02 0. -1.
</event>
<event>
 5   0  0.8097672E-07  0.2299855E+04  0.7818609E-02  0.8477978E-01
        1   -1    0    0  501    0  0.00000000000E+00  0.00000000000E+00  0.95205235711E+03  0.95205235712E+03  0.50400001928E-02 0.  1.
       -1   -1    0    0    0  501  0.00000000000E+00  0.00000000000E+00 -0.13889285405E+04  0.13889285405E+04  0.50400001928E-02 0. -1.
    10030    2    1    2    0    0  0.00000000000E+00  0.00000000000E+00 -0.43687618339E+03  0.23409808976E+04  0.22998545092E+04 0.  0.
        3    1    3    3  502    0 -0.34078691833E+03 -0.95419367546E+03 -0.77195581429E+03  0.12737884767E+04  0.10100000352E+00 0. -1.
       -3    1    3    3    0  502  0.34078691833E+03  0.95419367546E+03  0.33507963091E+03  0.10671924209E+04  0.10100000352E+00 0.  1.
</event>
<event>
 5   0  0.1689444E-06  0.2300353E+04  0.7818609E-02  0.8477782E-01
        2   -1    0    0  501    0  0.00000000000E+00  0.00000000000E+00  0.19670940539E+04  0.19670940539E+04  0.25500000920E-02 0. -1.
       -2   -1    0    0    0  501  0.00000000000E+00  0.00000000000E+00 -0.67251815942E+03  0.67251815943E+03  0.25500000920E-02 0.  1.
    10030    2    1    2    0    0  0.00000000000E+00  0.00000000000E+00  0.12945758945E+04  0.26396122133E+04  0.23003534272E+04 0.  0.
        2    1    3    3  502    0 -0.47967134822E+03 -0.39955502463E+03  0.17557676055E+04  0.18634507518E+04  0.25500000920E-02 0. -1.
       -2    1    3    3    0  502  0.47967134822E+03  0.39955502463E+03 -0.46119171101E+03  0.77616146150E+03  0.25500000920E-02 0.  1.
</event>
<event>
 5   0  0.7932912E-07  0.2301050E+04  0.7818609E-02  0.8477507E-01
        1   -1    0    0  501    0  0.00000000000E+00  0.00000000000E+00  0.18989422207E+04  0.18989422207E+04  0.50400001928E-02 0.  1.
       -1   -1    0    0    0  501  0.00000000000E+00  0.00000000000E+00 -0.69707628098E+03  0.69707628100E+03  0.50400001928E-02 0. -1.
    10030    2    1    2    0    0  0.00000000000E+00  0.00000000000E+00  0.12018659397E+04  0.25960185017E+04  0.23010498309E+04 0.  0.
        5    1    3    3  502    0  0.54757217405E+00 -0.12003101178E+03  0.18918479869E+04  0.18956578381E+04  0.46999998093E+01 0.  1.
       -5    1    3    3    0  502 -0.54757217405E+00  0.12003101178E+03 -0.68998204721E+03  0.70036066358E+03  0.46999998093E+01 0. -1.
</event>
<event>
 5   0  0.1744876E-06  0.2299657E+04  0.7818609E-02  0.8478056E-01
       -2   -1    0    0    0  501  0.00000000000E+00  0.00000000000E+00  0.12027499460E+04  0.12027499460E+04  0.25500000920E-02 0. -1.
        2   -1    0    0  501    0  0.00000000000E+00  0.00000000000E+00 -0.10992356942E+04  0.10992356942E+04  0.25500000920E-02 0.  1.
    10030    2    1    2    0    0  0.00000000000E+00  0.00000000000E+00  0.10351425173E+03  0.23019856402E+04  0.22996570804E+04 0.  0.
        1    1    3    3  502    0  0.11447568187E+04  0.57061300781E+02  0.14340039154E+03  0.11551137772E+04  0.50400001928E-02 0.  1.
       -1    1    3    3    0  502 -0.11447568187E+04 -0.57061300781E+02 -0.39886139804E+02  0.11468718630E+04  0.50400001928E-02 0. -1.
</event>
<event>
 5   0  0.1888779E-06  0.2300106E+04  0.7818609E-02  0.8477879E-01
        2   -1    0    0  501    0  0.00000000000E+00  0.00000000000E+00  0.12424674923E+04  0.12424674923E+04  0.25500000920E-02 0.  1.
       -2   -1    0    0    0  501  0.00000000000E+00  0.00000000000E+00 -0.10645126461E+04  0.10645126461E+04  0.25500000920E-02 0. -1.
    10030    2    1    2    0    0  0.00000000000E+00  0.00000000000E+00  0.17795484621E+03  0.23069801383E+04  0.23001063956E+04 0.  0.
        4    1    3    3  502    0  0.28595404649E+03 -0.10685691400E+04  0.40457793573E+03  0.11778347264E+04  0.12699999809E+01 0.  1.
       -4    1    3    3    0  502 -0.28595404649E+03  0.10685691400E+04 -0.22662308952E+03  0.11291454119E+04  0.12699999809E+01 0. -1.
</event>
<event>
 5   0  0.8097672E-07  0.2297855E+04  0.7818609E-02  0.8478767E-01
       -1   -1    0    0    0  501  0.00000000000E+00  0.00000000000E+00  0.66488556519E+03  0.66488556521E+03  0.50400001928E-02 0. -1.
        1   -1    0    0  501    0  0.00000000000E+00  0.00000000000E+00 -0.19853561148E+04  0.19853561148E+04  0.50400001928E-02 0.  1.
    10030    2    1    2    0    0  0.00000000000E+00  0.00000000000E+00 -0.13204705496E+04  0.26502416800E+04  0.22978551934E+04 0.  0.
        3    1    3    3  502    0 -0.90308283491E+03 -0.70794836518E+03 -0.59412966754E+03  0.12921840297E+04  0.10100000352E+00 0. -1.
       -3    1    3    3    0  502  0.90308283491E+03  0.70794836518E+03 -0.72634088203E+03  0.13580576503E+04  0.10100000352E+00 0.  1.
</event>
<event>
 5   0  0.1888779E-06  0.2300060E+04  0.7818609E-02  0.8477898E-01
       -2   -1    0    0    0  501  0.00000000000E+00  0.00000000000E+00  0.14469362269E+04  0.14469362270E+04  0.25500000920E-02 0.  1.
        2   -1    0    0  501    0  0.00000000000E+00  0.00000000000E+00 -0.91404758459E+03  0.91404758459E+03  0.25500000920E-02 0. -1.
    10030    2    1    2    0    0  0.00000000000E+00  0.00000000000E+00  0.53288864236E+03  0.23609838115E+04  0.23000596195E+04 0.  0.
        4    1    3    3  502    0 -0.24922749836E+03  0.37189722162E+03  0.13538170005E+04  0.14259186419E+04  0.12699999809E+01 0.  1.
       -4    1    3    3    0  502  0.24922749836E+03 -0.37189722162E+03 -0.82092835817E+03  0.93506516967E+03  0.12699999809E+01 0. -1.
</event>
<event>
 5   0  0.1825521E-06  0.2296459E+04  0.7818609E-02  0.8479319E-01
        2   -1    0    0  501    0  0.00000000000E+00  0.00000000000E+00  0.17154938695E+04  0.17154938695E+04  0.25500000920E-02 0. -1.
       -2   -1    0    0    0  501  0.00000000000E+00  0.00000000000E+00 -0.76854296060E+03  0.76854296060E+03  0.25500000920E-02 0.  1.
    10030    2    1    2    0    0  0.00000000000E+00  0.00000000000E+00  0.94695090891E+03  0.24840368301E+04  0.22964587846E+04 0.  0.
        5    1    3    3  502    0  0.55903151188E+03  0.99498458494E+03  0.60986210874E+03  0.12940109881E+04  0.46999998093E+01 0. -1.
       -5    1    3    3    0  502 -0.55903151188E+03 -0.99498458494E+03  0.33708880017E+03  0.11900258421E+04  0.46999998093E+01 0.  1.
</event>
<event>
 5   0  0.1744876E-06  0.2301006E+04  0.7818609E-02  0.8477525E-01
       -2   -1    0    0    0  501  0.00000000000E+00  0.00000000000E+00  0.48958751575E+03  0.48958751576E+03  0.25500000920E-02 0.  1.
        2   -1    0    0  501    0  0.00000000000E+00  0.00000000000E+00 -0.27036164098E+04  0.27036164098E+04  0.25500000920E-02 0. -1.
    10030    2    1    2    0    0  0.00000000000E+00  0.00000000000E+00 -0.22140288941E+04  0.31932039256E+04  0.23010057294E+04 0.  0.
        1    1    3    3  502    0 -0.21243977489E+03  0.11167944588E+04 -0.13525167632E+04  0.17668226046E+04  0.50400001928E-02 0. -1.
       -1    1    3    3    0  502  0.21243977489E+03 -0.11167944588E+04 -0.86151213087E+03  0.14263813210E+04  0.50400001928E-02 0.  1.
</event>
<event>
 5   0  0.8108242E-07  0.2296176E+04  0.7818609E-02  0.8479431E-01
        1   -1    0    0  501    0  0.00000000000E+00  0.00000000000E+00  0.12190409505E+04  0.12190409505E+04  0.50400001928E-02 0. -1.
       -1   -1    0    0    0  501  0.00000000000E+00  0.00000000000E+00 -0.10812644756E+04  0.10812644756E+04  0.50400001928E-02 0.  1.
    10030    2    1    2    0    0  0.00000000000E+00  0.00000000000E+00  0.13777647488E+03  0.23003054261E+04  0.22961756676E+04 0.  0.
        4    1    3    3  502    0  0.26568894003E+03 -0.95939520515E+03  0.64182091895E+03  0.11844684367E+04  0.12699999809E+01 0. -1.
       -4    1    3    3    0  502 -0.26568894003E+03  0.95939520515E+03 -0.50404444408E+03  0.11158369895E+04  0.12699999809E+01 0.  1.
</event>
<event>
 5   0  0.1744876E-06  0.2309818E+04  0.7818609E-02  0.8474060E-01
        2   -1    0    0  501    0  0.00000000000E+00  0.00000000000E+00  0.14597594000E+04  0.14597594000E+04  0.25500000920E-02 0.  1.
       -2   -1    0    0    0  501  0.00000000000E+00  0.00000000000E+00 -0.91372249810E+03  0.91372249810E+03  0.25500000920E-02 0. -1.
    10030    2    1    2    0    0  0.00000000000E+00  0.00000000000E+00  0.54603690188E+03  0.23734818981E+04  0.23098181795E+04 0.  0.
        1    1    3    3  502    0 -0.63544329279E+03  0.83044774143E+03 -0.23078407863E+03  0.10708374856E+04  0.50400001928E-02 0. -1.
       -1    1    3    3    0  502  0.63544329279E+03 -0.83044774143E+03  0.77682098051E+03  0.13026444125E+04  0.50400001928E-02 0.  1.
</event>
<event>
 5   0  0.7607231E-07  0.2297517E+04  0.7818609E-02  0.8478901E-01
        1   -1    0    0  501    0  0.00000000000E+00  0.00000000000E+00  0.11453604383E+04  0.11453604383E+04  0.50400001928E-02 0. -1.
       -1   -1    0    0    0  501  0.00000000000E+00  0.00000000000E+00 -0.11521662088E+04  0.11521662088E+04  0.50400001928E-02 0.  1.
    10030    2    1    2    0    0  0.00000000000E+00  0.00000000000E+00 -0.68057704766E+01  0.22975266471E+04  0.22975165670E+04 0.  0.
        2    1    3    3  502    0 -0.23149046069E+03 -0.43804560153E+03  0.10330252296E+04  0.11456931995E+04  0.25500000920E-02 0. -1.
       -2    1    3    3    0  502  0.23149046069E+03  0.43804560153E+03 -0.10398310000E+04  0.11518334476E+04  0.25500000920E-02 0.  1.
</event>
<event>
 5   0  0.1828646E-06  0.2300799E+04  0.7818609E-02  0.8477606E-01
       -2   -1    0    0    0  501  0.00000000000E+00  0.00000000000E+00  0.86158621965E+03  0.86158621966E+03  0.25500000920E-02 0.  1.
        2   -1    0    0  501    0  0.00000000000E+00  0.00000000000E+00 -0.15360258780E+04  0.15360258780E+04  0.25500000920E-02 0. -1.
    10030    2    1    2    0    0  0.00000000000E+00  0.00000000000E+00 -0.67443965831E+03  0.23976120976E+04  0.23007987565E+04 0.  0.
        3    1    3    3  502    0 -0.10568457075E+04  0.43176129945E+03 -0.18956044474E+03  0.11572699951E+04  0.10100000352E+00 0. -1.
       -3    1    3    3    0  502  0.10568457075E+04 -0.43176129945E+03 -0.48487921357E+03  0.12403421025E+04  0.10100000352E+00 0.  1.
</event>
<event>
 5   0  0.8108242E-07  0.2299654E+04  0.7818609E-02  0.8478057E-01
       -1   -1    0    0    0  501  0.00000000000E+00  0.00000000000E+00  0.10524205411E+04  0.10524205411E+04  0.50400001928E-02 0.  1.
        1   -1    0    0  501    0  0.00000000000E+00  0.00000000000E+00 -0.12562493417E+04  0.12562493417E+04  0.50400001928E-02 0. -1.
    10030    2    1    2    0    0  0.00000000000E+00  0.00000000000E+00 -0.20382880056E+03  0.23086698828E+04  0.22996544193E+04 0.  0.
        4    1    3    3  502    0  0.54473965578E+03 -0.29377561288E+03 -0.10747622262E+04  0.12402261323E+04  0.12699999809E+01 0. -1.
       -4    1    3    3    0  502 -0.54473965578E+03  0.29377561288E+03  0.87093342567E+03  0.10684437506E+04  0.12699999809E+01 0.  1.
</event>
<event>
 5   0  0.8108242E-07  0.2299514E+04  0.7818609E-02  0.8478113E-01
        1   -1    0    0  501    0  0.00000000000E+00  0.00000000000E+00  0.10468523798E+04  0.10468523798E+04  0.50400001928E-02 0. -1.
       -1   -1    0    0    0  501  0.00000000000E+00  0.00000000000E+00 -0.12627769531E+04  0.12627769531E+04  0.50400001928E-02 0.  1.
    10030    2    1    2    0    0  0.00000000000E+00  0.00000000000E+00 -0.21592457337E+03  0.23096293329E+04  0.22995139126E+04 0.  0.
        4    1    3    3  502    0 -0.30029486539E+03 -0.65140143779E+03 -0.10104909435E+04  0.12391910261E+04  0.12699999809E+01 0.  1.
       -4    1    3    3    0  502  0.30029486539E+03  0.65140143779E+03  0.79456637012E+03  0.10704383068E+04  0.12699999809E+01 0. -1.
</event>
<event>
 5   0  0.1744876E-06  0.2299475E+04  0.7818609E-02  0.8478128E-01
       -2   -1    0    0    0  501  0.00000000000E+00  0.00000000000E+00  0.83420206444E+03  0.83420206444E+03  0.25500000920E-02 0.  1.
        2   -1    0    0  501    0  0.00000000000E+00  0.00000000000E+00 -0.15846239135E+04  0.15846239135E+04  0.25500000920E-02 0. -1.
    10030    2    1    2    0    0  0.00000000000E+00  0.00000000000E+00 -0.75042184909E+03  0.24188259780E+04  0.22994751923E+04 0.  0.
        1    1    3    3  502    0 -0.75893108644E+03 -0.84694589188E+03 -0.55311266117E+03  0.12646056119E+04  0.50400001928E-02 0. -1.
       -1    1    3    3    0  502  0.75893108644E+03  0.84694589188E+03 -0.19730918793E+03  0.11542203661E+04  0.50400001928E-02 0.  1.
</event>
<event>
 5   0  0.1888779E-06  0.2299699E+04  0.7818609E-02  0.8478040E-01
       -2   -1    0    0    0  501  0.00000000000E+00  0.00000000000E+00  0.11369891445E+04  0.11369891445E+04  0.25500000920E-02 0. -1.
        2   -1    0    0  501    0  0.00000000000E+00  0.00000000000E+00 -0.11628554691E+04  0.11628554691E+04  0.25500000920E-02 0.  1.
    10030    2    1    2    0    0  0.00000000000E+00  0.00000000000E+00 -0.25866324556E+02  0.22998446136E+04  0.22996991499E+04 0.  0.
        4    1    3    3  502    0  0.50339615828E+03  0.46013242275E+02 -0.10457750966E+04  0.11615386675E+04  0.12699999809E+01 0.  1.
       -4    1    3    3    0  502 -0.50339615828E+03 -0.46013242275E+02  0.10199087720E+04  0.11383059461E+04  0.12699999809E+01 0. -1.
</event>
<event>
 5   0  0.7932912E-07  0.2299988E+04  0.7818609E-02  0.8477926E-01
        1   -1    0    0  501    0  0.00000000000E+00  0.00000000000E+00  0.11879729939E+04  0.11879729939E+04  0.50400001928E-02 0.  1.
       -1   -1    0    0    0  501  0.00000000000E+00  0.00000000000E+00 -0.11132294205E+04  0.11132294205E+04  0.50400001928E-02 0. -1.
    10030    2    1    2    0    0  0.00000000000E+00  0.00000000000E+00  0.74743573465E+02  0.23012024144E+04  0.22999882501E+04 0.  0.
        5    1    3    3  502    0 -0.43077898759E+03  0.16214605699E+02 -0.10293199777E+04  0.11159548181E+04  0.46999998093E+01 0. -1.
       -5    1    3    3    0  502  0.43077898759E+03 -0.16214605699E+02  0.11040635512E+04  0.11852475963E+04  0.46999998093E+01 0.  1.
</event>
<event>
 5   0  0.1744876E-06  0.2300082E+04  0.7818609E-02  0.8477889E-01
        2   -1    0    0  501    0  0.00000000000E+00  0.00000000000E+00  0.16910684347E+04  0.16910684347E+04  0.25500000920E-02 0. -1.
       -2   -1    0    0    0  501  0.00000000000E+00  0.00000000000E+00 -0.78210539027E+03  0.78210539027E+03  0.25500000920E-02 0.  1.
    10030    2    1    2    0    0  0.00000000000E+00  0.00000000000E+00  0.90896304439E+03  0.24731738249E+04  0.23000815099E+04 0.  0.
        1    1    3    3  502    0 -0.12271245407E+02  0.27140500707E+03 -0.74710434797E+03  0.79496928752E+03  0.50400001928E-02 0.  1.
       -1    1    3    3    0  502  0.12271245407E+02 -0.27140500707E+03  0.16560673924E+04  0.16782045374E+04  0.50400001928E-02 0. -1.
</event>
<event>
 5   0  0.1828646E-06  0.2299963E+04  0.7818609E-02  0.8477936E-01
       -2   -1    0    0    0  501  0.00000000000E+00  0.00000000000E+00  0.16651923981E+04  0.16651923981E+04  0.25500000920E-02 0. -1.
        2   -1    0    0  501    0  0.00000000000E+00  0.00000000000E+00 -0.79417722696E+03  0.79417722696E+03  0.25500000920E-02 0.  1.
    10030    2    1    2    0    0  0.00000000000E+00  0.00000000000E+00  0.87101517114E+03  0.24593696251E+04  0.22999633746E+04 0.  0.
        3    1    3    3  502    0 -0.68063194983E+03  0.40145583325E+01 -0.55565624432E+03  0.87865228610E+03  0.10100000352E+00 0.  1.
       -3    1    3    3    0  502  0.68063194983E+03 -0.40145583325E+01  0.14266714155E+04  0.15807173390E+04  0.10100000352E+00 0. -1.
</event>
<event>
 5   0  0.7761069E-07  0.2298496E+04  0.7818609E-02  0.8478514E-01
        1   -1    0    0  501    0  0.00000000000E+00  0.00000000000E+00  0.18537786768E+04  0.18537786768E+04  0.50400001928E-02 0. -1.
       -1   -1    0    0    0  501  0.00000000000E+00  0.00000000000E+00 -0.71247506479E+03  0.71247506481E+03  0.50400001928E-02 0.  1.
    10030    2    1    2    0    0  0.00000000000E+00  0.00000000000E+00  0.11413036120E+04  0.25662537416E+04  0.22984961021E+04 0.  0.
        1    1    3    3  502    0  0.44586461507E+03 -0.22902879210E+03  0.17253024767E+04  0.17966407762E+04  0.50400001928E-02 0. -1.
       -1    1    3    3    0  502 -0.44586461507E+03  0.22902879210E+03 -0.58399886468E+03  0.76961296543E+03  0.50400001928E-02 0.  1.
</event>
<event>
 5   0  0.8108242E-07  0.2300321E+04  0.7818609E-02  0.8477795E-01
        1   -1    0    0  501    0  0.00000000000E+00  0.00000000000E+00  0.21158840239E+04  0.21158840239E+04  0.50400001928E-02 0. -1.
       -1   -1    0    0    0  501  0.00000000000E+00  0.00000000000E+00 -0.62520848312E+03  0.62520848314E+03  0.50400001928E-02 0.  1.
    10030    2    1    2    0    0  0.00000000000E+00  0.00000000000E+00  0.14906755408E+04  0.27410925071E+04  0.23003205351E+04 0.  0.
        4    1    3    3  502    0  0.11451667414E+04 -0.21084019942E+02  0.62027157415E+03  0.13025320879E+04  0.12699999809E+01 0. -1.
       -4    1    3    3    0  502 -0.11451667414E+04  0.21084019942E+02  0.87040396666E+03  0.14385604192E+04  0.12699999809E+01 0.  1.
</event>
<event>
 5   0  0.8097672E-07  0.2292569E+04  0.7818609E-02  0.8480857E-01
        1   -1    0    0  501    0  0.00000000000E+00  0.00000000000E+00  0.13863898161E+04  0.13863898161E+04  0.50400001928E-02 0.  1.
       -1   -1    0    0    0  501  0.00000000000E+00  0.00000000000E+00 -0.94776229028E+03  0.94776229030E+03  0.50400001928E-02 0. -1.
    10030    2    1    2    0    0  0.00000000000E+00  0.00000000000E+00  0.43862752583E+03  0.23341521064E+04  0.22925688538E+04 0.  0.
        3    1    3    3  502    0 -0.67952542867E+03  0.60948381599E+03 -0.48661859795E+03  0.10344191608E+04  0.10100000352E+00 0. -1.
       -3    1    3    3    0  502  0.67952542867E+03 -0.60948381599E+03  0.92524612378E+03  0.12997329456E+04  0.10100000352E+00 0.  1.
</event>
<event>
 5   0  0.7932912E-07  0.2300035E+04  0.7818609E-02  0.8477907E-01
        1   -1    0    0  501    0  0.00000000000E+00  0.00000000000E+00  0.16752968610E+04  0.16752968610E+04  0.50400001928E-02 0.  1.
       -1   -1    0    0    0  501  0.00000000000E+00  0.00000000000E+00 -0.78943650276E+03  0.78943650278E+03  0.50400001928E-02 0. -1.
    10030    2    1    2    0    0  0.00000000000E+00  0.00000000000E+00  0.88586035821E+03  0.24647333638E+04  0.23000352128E+04 0.  0.
        5    1    3    3  502    0  0.29288549858E+03  0.86271250291E+03 -0.30907795586E+03  0.96208422227E+03  0.46999998093E+01 0. -1.
       -5    1    3    3    0  502 -0.29288549858E+03 -0.86271250291E+03  0.11949383141E+04  0.15026491415E+04  0.46999998093E+01 0.  1.
</event>
<event>
 5   0  0.8097672E-07  0.2301220E+04  0.7818609E-02  0.8477440E-01
       -1   -1    0    0    0  501  0.00000000000E+00  0.00000000000E+00  0.46261868475E+03  0.46261868477E+03  0.50400001928E-02 0. -1.
        1   -1    0    0  501    0  0.00000000000E+00  0.00000000000E+00 -0.28617583647E+04  0.28617583647E+04  0.50400001928E-02 0.  1.
    10030    2    1    2    0    0  0.00000000000E+00  0.00000000000E+00 -0.23991396799E+04  0.33243770494E+04  0.23012195817E+04 0.  0.
        3    1    3    3  502    0 -0.44701519679E+03 -0.77370431289E+03 -0.22467534665E+04  0.24179210283E+04  0.10100000352E+00 0.  1.
       -3    1    3    3    0  502  0.44701519679E+03  0.77370431289E+03 -0.15238621344E+03  0.90645602111E+03  0.10100000352E+00 0. -1.
</event>
<event>
 5   0  0.1888779E-06  0.2299878E+04  0.7818609E-02  0.8477969E-01
        2   -1    0    0  501    0  0.00000000000E+00  0.00000000000E+00  0.16200582838E+04  0.16200582838E+04  0.25500000920E-02 0.  1.
       -2   -1    0    0    0  501  0.00000000000E+00  0.00000000000E+00 -0.81624173100E+03  0.81624173100E+03  0.25500000920E-02 0. -1.
    10030    2    1    2    0    0  0.00000000000E+00  0.00000000000E+00  0.80381655279E+03  0.24363000148E+04  0.22998775427E+04 0.  0.
        4    1    3    3  502    0 -0.24625126229E+02 -0.95962103231E+03 -0.26879822296E+03  0.99686158521E+03  0.12699999809E+01 0. -1.
       -4    1    3    3    0  502  0.24625126229E+02  0.95962103231E+03  0.10726147757E+04  0.14394384296E+04  0.12699999809E+01 0.  1.
</event>
<event>
 5   0  0.1744876E-06  0.2300807E+04  0.7818609E-02  0.8477603E-01
       -2   -1    0    0    0  501  0.00000000000E+00  0.00000000000E+00  0.57371669931E+03  0.57371669932E+03  0.25500000920E-02 0. -1.
        2   -1    0    0  501    0  0.00000000000E+00  0.00000000000E+00 -0.23067623735E+04  0.23067623735E+04  0.25500000920E-02 0.  1.
    10030    2    1    2    0    0  0.00000000000E+00  0.00000000000E+00 -0.17330456742E+04  0.28804790729E+04  0.23008068976E+04 0.  0.
        1    1    3    3  502    0  0.33515403376E+03 -0.83930230491E+03  0.24620975158E+02  0.90408117877E+03  0.50400001928E-02 0. -1.
       -1    1    3    3    0  502 -0.33515403376E+03  0.83930230491E+03 -0.17576666494E+04  0.19763978941E+04  0.50400001928E-02 0.  1.
</event>
<event>
 5   0  0.7607231E-07  0.2300818E+04  0.7818609E-02  0.8477599E-01
       -1   -1    0    0    0  501  0.00000000000E+00  0.00000000000E+00  0.42779749771E+03  0.42779749774E+03  0.50400001928E-02 0. -1.
        1   -1    0    0  501    0  0.00000000000E+00  0.00000000000E+00 -0.30936140405E+04  0.30936140405E+04  0.50400001928E-02 0.  1.
    10030    2    1    2    0    0  0.00000000000E+00  0.00000000000E+00 -0.26658165427E+04  0.35214115382E+04  0.23008175464E+04 0.  0.
        2    1    3    3  502    0 -0.59683652181E+02  0.56613544170E+02  0.42329016401E+03  0.43120968760E+03  0.25500000920E-02 0. -1.
       -2    1    3    3    0  502  0.59683652181E+02 -0.56613544170E+02 -0.30891067068E+04  0.30902018506E+04  0.25500000920E-02 0.  1.
</event>
<event>
 5   0  0.1825521E-06  0.2301316E+04  0.7818609E-02  0.8477402E-01
       -2   -1    0    0    0  501  0.00000000000E+00  0.00000000000E+00  0.78239264996E+03  0.78239264996E+03  0.25500000920E-02 0.  1.
        2   -1    0    0  501    0  0.00000000000E+00  0.00000000000E+00 -0.16922629137E+04  0.16922629137E+04  0.25500000920E-02 0. -1.
    10030    2    1    2    0    0  0.00000000000E+00  0.00000000000E+00 -0.90987026377E+03  0.24746555637E+04  0.23013162021E+04 0.  0.
        5    1    3    3  502    0 -0.75618794997E+03  0.10957882833E+03 -0.13800645993E+04  0.15774752371E+04  0.46999998093E+01 0. -1.
       -5    1    3    3    0  502  0.75618794997E+03 -0.10957882833E+03  0.47019433555E+03  0.89718032662E+03  0.46999998093E+01 0.  1.
</event>
<event>
 5   0  0.7607231E-07  0.2299856E+04  0.7818609E-02  0.8477978E-01
        1   -1    0    0  501    0  0.00000000000E+00  0.00000000000E+00  0.19827497624E+04  0.19827497624E+04  0.50400001928E-02 0.  1.
       -1   -1    0    0    0  501  0.00000000000E+00  0.00000000000E+00 -0.66691947075E+03  0.66691947077E+03  0.50400001928E-02 0. -1.
    10030    2    1    2    0    0  0.00000000000E+00  0.00000000000E+00  0.13158302916E+04  0.26496692332E+04  0.22998560148E+04 0.  0.
        2    1    3    3  502    0 -0.42619789870E+02 -0.11140450649E+04  0.98259866688E+03  0.14860730107E+04  0.25500000920E-02 0. -1.
       -2    1    3    3    0  502  0.42619789870E+02  0.11140450649E+04  0.33323162474E+03  0.11635962224E+04  0.25500000920E-02 0.  1.
</event>
<event>
 5   0  0.1689444E-06  0.2298420E+04  0.7818609E-02  0.8478544E-01
        2   -1    0    0  501    0  0.00000000000E+00  0.00000000000E+00  0.11373589152E+04  0.11373589152E+04  0.25500000920E-02 0. -1.
       -2   -1    0    0    0  501  0.00000000000E+00  0.00000000000E+00 -0.11611848418E+04  0.11611848418E+04  0.25500000920E-02 0.  1.
    10030    2    1    2    0    0  0.00000000000E+00  0.00000000000E+00 -0.23825926584E+02  0.22985437571E+04  0.22984202680E+04 0.  0.
        2    1    3    3  502    0 -0.40838197951E+03 -0.46948827667E+03  0.95431121374E+03  0.11392563258E+04  0.25500000920E-02 0. -1.
       -2    1    3    3    0  502  0.40838197951E+03  0.46948827667E+03 -0.97813714032E+03  0.11592874313E+04  0.25500000920E-02 0.  1.
</event>
<event>
 5   0  0.1828646E-06  0.2300102E+04  0.7818609E-02  0.8477881E-01
       -2   -1    0    0    0  501  0.00000000000E+00  0.00000000000E+00  0.14700684238E+04  0.14700684238E+04  0.25500000920E-02 0. -1.
        2   -1    0    0  501    0  0.00000000000E+00  0.00000000000E+00 -0.89969741714E+03  0.89969741715E+03  0.25500000920E-02 0.  1.
    10030    2    1    2    0    0  0.00000000000E+00  0.00000000000E+00  0.57037100667E+03  0.23697658410E+04  0.23001015316E+04 0.  0.
        3    1    3    3  502    0 -0.47206608662E+03  0.34400549034E+03 -0.73549124687E+03  0.93921965053E+03  0.10100000352E+00 0.  1.
       -3    1    3    3    0  502  0.47206608662E+03 -0.34400549034E+03  0.13058622535E+04  0.14305461904E+04  0.10100000352E+00 0. -1.
</event>
<event>
 5   0  0.6319125E-07  0.2300671E+04  0.7818609E-02  0.8477657E-01
        3   -1    0    0  501    0  0.00000000000E+00  0.00000000000E+00  0.21312192016E+04  0.21312192040E+04  0.10100000352E+00 0.  1.
       -3   -1    0    0    0  501  0.00000000000E+00  0.00000000000E+00 -0.62089869235E+03  0.62089870056E+03  0.10100000352E+00 0. -1.
    10030    2    1    2    0    0  0.00000000000E+00  0.00000000000E+00  0.15103205093E+04  0.27521179046E+04  0.23006705370E+04 0.  0.
        3    1    3    3  502    0  0.52920035135E+03 -0.84954584700E+03  0.14334205286E+04  0.17482778898E+04  0.10100000352E+00 0.  1.
       -3    1    3    3    0  502 -0.52920035135E+03  0.84954584700E+03  0.76899980705E+02  0.10038400148E+04  0.10100000352E+00 0. -1.
</event>
<event>
 5   0  0.1744876E-06  0.2299959E+04  0.7818609E-02  0.8477937E-01
       -2   -1    0    0    0  501  0.00000000000E+00  0.00000000000E+00  0.56513112904E+03  0.56513112905E+03  0.25500000920E-02 0.  1.
        2   -1    0    0  501    0  0.00000000000E+00  0.00000000000E+00 -0.23400807271E+04  0.23400807271E+04  0.25500000920E-02 0. -1.
    10030    2    1    2    0    0  0.00000000000E+00  0.00000000000E+00 -0.17749495980E+04  0.29052118561E+04  0.22999586634E+04 0.  0.
        1    1    3    3  502    0  0.41264756355E+03  0.82656811802E+03 -0.17524934899E+04  0.19810921981E+04  0.50400001928E-02 0. -1.
       -1    1    3    3    0  502 -0.41264756355E+03 -0.82656811802E+03 -0.22456108133E+02  0.92411965797E+03  0.50400001928E-02 0.  1.
</event>
<event>
 5   0  0.1888779E-06  0.2300133E+04  0.7818609E-02  0.8477869E-01
        2   -1    0    0  501    0  0.00000000000E+00  0.00000000000E+00  0.12206404686E+04  0.12206404686E+04  0.25500000920E-02 0.  1.
       -2   -1    0    0    0  501  0.00000000000E+00  0.00000000000E+00 -0.10835725971E+04  0.10835725971E+04  0.25500000920E-02 0. -1.
    10030    2    1    2    0    0  0.00000000000E+00  0.00000000000E+00  0.13706787150E+03  0.23042130657E+04  0.23001326594E+04 0.  0.
        4    1    3    3  502    0  0.33835066129E+03  0.55453078447E+03  0.10192514340E+04  0.12086606883E+04  0.12699999809E+01 0.  1.
       -4    1    3    3    0  502 -0.33835066129E+03 -0.55453078447E+03 -0.88218356246E+03  0.10955523774E+04  0.12699999809E+01 0. -1.
</event>
<event>
 5   0  0.7932912E-07  0.2299961E+04  0.7818609E-02  0.8477936E-01
        1   -1    0    0  501    0  0.00000000000E+00  0.00000000000E+00  0.16088808400E+04  0.16088808400E+04  0.50400001928E-02 0.  1.
       -1   -1    0    0    0  501  0.00000000000E+00  0.00000000000E+00 -0.82197215531E+03  0.82197215533E+03  0.50400001928E-02 0. -1.
    10030    2    1    2    0    0  0.00000000000E+00  0.00000000000E+00  0.78690868471E+03  0.24308529954E+04  0.22999610881E+04 0.  0.
        5    1    3    3  502    0 -0.10253546713E+03 -0.67477625999E+03 -0.58474280132E+03  0.89876735408E+03  0.46999998093E+01 0. -1.
       -5    1    3    3    0  502  0.10253546713E+03  0.67477625999E+03  0.13716514860E+04  0.15320856413E+04  0.46999998093E+01 0.  1.
</event>
<event>
 5   0  0.7607231E-07  0.2300276E+04  0.7818609E-02  0.8477812E-01
        1   -1    0    0  501    0  0.00000000000E+00  0.00000000000E+00  0.10594558779E+04  0.10594558779E+04  0.50400001928E-02 0. -1.
       -1   -1    0    0    0  501  0.00000000000E+00  0.00000000000E+00 -0.12485814034E+04  0.12485814034E+04  0.50400001928E-02 0.  1.
    10030    2    1    2    0    0  0.00000000000E+00  0.00000000000E+00 -0.18912552552E+03  0.23080372813E+04  0.23002755547E+04 0.  0.
        2    1    3    3  502    0 -0.23935464548E+03  0.94132487719E+03  0.52349764854E+03  0.11033734448E+04  0.25500000920E-02 0. -1.
       -2    1    3    3    0  502  0.23935464548E+03 -0.94132487719E+03 -0.71262317406E+03  0.12046638365E+04  0.25500000920E-02 0.  1.
</event>
<event>
 5   0  0.7932912E-07  0.2301080E+04  0.7818609E-02  0.8477495E-01
        1   -1    0    0  501    0  0.00000000000E+00  0.00000000000E+00  0.17936393667E+04  0.17936393667E+04  0.50400001928E-02 0. -1.
       -1   -1    0    0    0  501  0.00000000000E+00  0.00000000000E+00 -0.73802026074E+03  0.73802026075E+03  0.50400001928E-02 0.  1.
    10030    2    1    2    0    0  0.00000000000E+00  0.00000000000E+00  0.10556191060E+04  0.25316596274E+04  0.23010799144E+04 0.  0.
        5    1    3    3  502    0  0.25355848826E+03  0.10230961247E+04  0.10352206110E+04  0.14774035978E+04  0.46999998093E+01 0. -1.
       -5    1    3    3    0  502 -0.25355848826E+03 -0.10230961247E+04  0.20398494946E+02  0.10542560296E+04  0.46999998093E+01 0.  1.
</event>
<event>
 5   0  0.1828646E-06  0.2300189E+04  0.7818609E-02  0.8477847E-01
        2   -1    0    0  501    0  0.00000000000E+00  0.00000000000E+00  0.14943876641E+04  0.14943876641E+04  0.25500000920E-02 0. -1.
       -2   -1    0    0    0  501  0.00000000000E+00  0.00000000000E+00 -0.88512295652E+03  0.88512295652E+03  0.25500000920E-02 0.  1.
    10030    2    1    2    0    0  0.00000000000E+00  0.00000000000E+00  0.60926470761E+03  0.23795106206E+04  0.23001885379E+04 0.  0.
        3    1    3    3  502    0 -0.22802937676E+03  0.11251666146E+04  0.23356458708E+03  0.11715586771E+04  0.10100000352E+00 0.  1.
       -3    1    3    3    0  502  0.22802937676E+03 -0.11251666146E+04  0.37570012053E+03  0.12079519436E+04  0.10100000352E+00 0. -1.
</event>
<event>
 5   0  0.1689444E-06  0.2299560E+04  0.7818609E-02  0.8478095E-01
        2   -1    0    0  501    0  0.00000000000E+00  0.00000000000E+00  0.12015826549E+04  0.12015826549E+04  0.25500000920E-02 0. -1.
       -2   -1    0    0    0  501  0.00000000000E+00  0.00000000000E+00 -0.11002106264E+04  0.11002106264E+04  0.25500000920E-02 0.  1.
    10030    2    1    2    0    0  0.00000000000E+00  0.00000000000E+00  0.10137202856E+03  0.23017932813E+04  0.22995599626E+04 0.  0.
        2    1    3    3  502    0 -0.61494434394E+03 -0.11813274668E+03 -0.91455446469E+03  0.11083870086E+04  0.25500000920E-02 0.  1.
       -2    1    3    3    0  502  0.61494434394E+03  0.11813274668E+03  0.10159264932E+04  0.11934062727E+04  0.25500000920E-02 0. -1.
</event>
<event>
 5   0  0.1825521E-06  0.2299792E+04  0.7818609E-02  0.8478003E-01
       -2   -1    0    0    0  501  0.00000000000E+00  0.00000000000E+00  0.12288535171E+04  0.12288535171E+04  0.25500000920E-02 0.  1.
        2   -1    0    0  501    0  0.00000000000E+00  0.00000000000E+00 -0.10760114515E+04  0.10760114515E+04  0.25500000920E-02 0. -1.
    10030    2    1    2    0    0  0.00000000000E+00  0.00000000000E+00  0.15284206552E+03  0.23048649686E+04  0.22997916920E+04 0.  0.
        5    1    3    3  502    0  0.10511693262E+04  0.28419746000E+03 -0.29387097520E+03  0.11278773819E+04  0.46999998093E+01 0.  1.
       -5    1    3    3    0  502 -0.10511693262E+04 -0.28419746000E+03  0.44671304072E+03  0.11769875867E+04  0.46999998093E+01 0. -1.
</event>
<event>
 5   0  0.8108242E-07  0.2299536E+04  0.7818609E-02  0.8478104E-01
       -1   -1    0    0    0  501  0.00000000000E+00  0.00000000000E+00  0.14911999818E+04  0.14911999819E+04  0.50400001928E-02 0.  1.
        1   -1    0    0  501    0  0.00000000000E+00  0.00000000000E+00 -0.88651154437E+03  0.88651154438E+03  0.50400001928E-02 0. -1.
    10030    2    1    2    0    0  0.00000000000E+00  0.00000000000E+00  0.60468843748E+03  0.23777115262E+04  0.22995356043E+04 0.  0.
        4    1    3    3  502    0 -0.53570071765E+02 -0.11354156825E+03  0.14840907991E+04  0.14893920078E+04  0.12699999809E+01 0.  1.
       -4    1    3    3    0  502  0.53570071765E+02  0.11354156825E+03 -0.87940236158E+03  0.88831951839E+03  0.12699999809E+01 0. -1.
</event>
<event>
 5   0  0.7761069E-07  0.2299452E+04  0.7818609E-02  0.8478137E-01
        1   -1    0    0  501    0  0.00000000000E+00  0.00000000000E+00  0.16382061845E+04  0.16382061845E+04  0.50400001928E-02 0.  1.
       -1   -1    0    0    0  501  0.00000000000E+00  0.00000000000E+00 -0.80690054999E+03  0.80690055000E+03  0.50400001928E-02 0. -1.
    10030    2    1    2    0    0  0.00000000000E+00  0.00000000000E+00  0.83130563452E+03  0.24451067345E+04  0.22994516488E+04 0.  0.
        1    1    3    3  502    0 -0.82598444196E+03 -0.26251992530E+03 -0.38764837731E+03  0.94944103239E+03  0.50400001928E-02 0. -1.
       -1    1    3    3    0  502  0.82598444196E+03  0.26251992530E+03  0.12189540118E+04  0.14956657021E+04  0.50400001928E-02 0.  1.
</event>
<event>
 5   0  0.1689444E-06  0.2300337E+04  0.7818609E-02  0.8477788E-01
        2   -1    0    0  501    0  0.00000000000E+00  0.00000000000E+00  0.15634138587E+04  0.15634138587E+04  0.25500000920E-02 0.  1.
       -2   -1    0    0    0  501  0.00000000000E+00  0.00000000000E+00 -0.84615329132E+03  0.84615329132E+03  0.25500000920E-02 0. -1.
    10030    2    1    2    0    0  0.00000000000E+00  0.00000000000E+00  0.71726056734E+03  0.24095671500E+04  0.23003371772E+04 0.  0.
        2    1    3    3  502    0  0.20113670926E+03  0.47488721501E+03  0.14355103754E+04  0.15253405786E+04  0.25500000920E-02 0.  1.
       -2    1    3    3    0  502 -0.20113670926E+03 -0.47488721501E+03 -0.71824980806E+03  0.88422657140E+03  0.25500000920E-02 0. -1.
</event>
<event>
 5   0  0.6319125E-07  0.2308714E+04  0.7818609E-02  0.8474493E-01
        3   -1    0    0  501    0  0.00000000000E+00  0.00000000000E+00  0.15673914952E+04  0.15673914984E+04  0.10100000352E+00 0. -1.
       -3   -1    0    0    0  501  0.00000000000E+00  0.00000000000E+00 -0.85016428557E+03  0.85016429157E+03  0.10100000352E+00 0.  1.
    10030    2    1    2    0    0  0.00000000000E+00  0.00000000000E+00  0.71722720961E+03  0.24175557900E+04  0.23087141719E+04 0.  0.
        4    1    3    3  502    0 -0.53720170161E+03  0.82396237211E+02 -0.70781067452E+03  0.89239698116E+03  0.12699999809E+01 0.  1.
       -4    1    3    3    0  502  0.53720170161E+03 -0.82396237211E+02  0.14250378841E+04  0.15251588089E+04  0.12699999809E+01 0. -1.
</event>
<event>
 5   0  0.8108242E-07  0.2300554E+04  0.7818609E-02  0.8477703E-01
        1   -1    0    0  501    0  0.00000000000E+00  0.00000000000E+00  0.15544473756E+04  0.15544473756E+04  0.50400001928E-02 0. -1.
       -1   -1    0    0    0  501  0.00000000000E+00  0.00000000000E+00 -0.85119481927E+03  0.85119481929E+03  0.50400001928E-02 0.  1.
    10030    2    1    2    0    0  0.00000000000E+00  0.00000000000E+00  0.70325255634E+03  0.24056421949E+04  0.23005543271E+04 0.  0.
        4    1    3    3  502    0  0.56659488423E+03  0.99639768872E+03  0.45245614195E+03  0.12322971599E+04  0.12699999809E+01 0. -1.
       -4    1    3    3    0  502 -0.56659488423E+03 -0.99639768872E+03  0.25079641438E+03  0.11733450350E+04  0.12699999809E+01 0.  1.
</event>
<event>
 5   0  0.1888779E-06  0.2305039E+04  0.7818609E-02  0.8475937E-01
       -2   -1    0    0    0  501  0.00000000000E+00  0.00000000000E+00  0.69853661521E+03  0.69853661521E+03  0.25500000920E-02 0. -1.
        2   -1    0    0  501    0  0.00000000000E+00  0.00000000000E+00 -0.19015478082E+04  0.19015478082E+04  0.25500000920E-02 0.  1.
    10030    2    1    2    0    0  0.00000000000E+00  0.00000000000E+00 -0.12030111930E+04  0.26000844234E+04  0.23050386284E+04 0.  0.
        4    1    3    3  502    0  0.31737129057E+03  0.91379196899E+02  0.64401546479E+03  0.72376254773E+03  0.12699999809E+01 0. -1.
       -4    1    3    3    0  502 -0.31737129057E+03 -0.91379196899E+02 -0.18470266578E+04  0.18763218757E+04  0.12699999809E+01 0.  1.
</event>
<event>
 5   0  0.7932912E-07  0.2300182E+04  0.7818609E-02  0.8477849E-01
        1   -1    0    0  501    0  0.00000000000E+00  0.00000000000E+00  0.11493814440E+04  0.11493814440E+04  0.50400001928E-02 0.  1.
       -1   -1    0    0    0  501  0.00000000000E+00  0.00000000000E+00 -0.11508006466E+04  0.11508006466E+04  0.50400001928E-02 0. -1.
    10030    2    1    2    0    0  0.00000000000E+00  0.00000000000E+00 -0.14192026380E+01  0.23001820906E+04  0.23001816528E+04 0.  0.
        5    1    3    3  502    0 -0.84316483879E+03 -0.38546918243E+03 -0.68127815726E+03  0.11505109532E+04  0.46999998093E+01 0. -1.
       -5    1    3    3    0  502  0.84316483879E+03  0.38546918243E+03  0.67985895462E+03  0.11496711374E+04  0.46999998093E+01 0.  1.
</event>
<event>
 5   0  0.1828646E-06  0.2300517E+04  0.7818609E-02  0.8477717E-01
        2   -1    0    0  501    0  0.00000000000E+00  0.00000000000E+00  0.16249559192E+04  0.16249559192E+04  0.25500000920E-02 0. -1.
       -2   -1    0    0    0  501  0.00000000000E+00  0.00000000000E+00 -0.81423447045E+03  0.81423447045E+03  0.25500000920E-02 0.  1.
    10030    2    1    2    0    0  0.00000000000E+00  0.00000000000E+00  0.81072144880E+03  0.24391903897E+04  0.23005174395E+04 0.  0.
        3    1    3    3  502    0  0.24563002705E+03 -0.24650598372E+03  0.15678036688E+04  0.16059600444E+04  0.10100000352E+00 0. -1.
       -3    1    3    3    0  502 -0.24563002705E+03  0.24650598372E+03 -0.75708222001E+03  0.83323034526E+03  0.10100000352E+00 0.  1.
</event>
<event>
 5   0  0.1744876E-06  0.2300027E+04  0.7818609E-02  0.8477911E-01
        2   -1    0    0  501    0  0.00000000000E+00  0.00000000000E+00  0.18141815344E+04  0.18141815344E+04  0.25500000920E-02 0. -1.
       -2   -1    0    0    0  501  0.00000000000E+00  0.00000000000E+00 -0.72899584359E+03  0.72899584359E+03  0.25500000920E-02 0.  1.
    10030    2    1    2    0    0  0.00000000000E+00  0.00000000000E+00  0.10851856908E+04  0.25431773780E+04  0.23000267808E+04 0.  0.
        1    1    3    3  502    0  0.10713617752E+03  0.71046973478E+03  0.15354531672E+04  0.16952468355E+04  0.50400001928E-02 0. -1.
       -1    1    3    3    0  502 -0.10713617752E+03 -0.71046973478E+03 -0.45026747639E+03  0.84793054249E+03  0.50400001928E-02 0.  1.
</event>
<event>
 5   0  0.7761069E-07  0.2299765E+04  0.7818609E-02  0.8478014E-01
       -1   -1    0    0    0  501  0.00000000000E+00  0.00000000000E+00  0.86147758461E+03  0.86147758463E+03  0.50400001928E-02 0. -1.
        1   -1    0    0  501    0  0.00000000000E+00  0.00000000000E+00 -0.15348394715E+04  0.15348394715E+04  0.50400001928E-02 0.  1.
    10030    2    1    2    0    0  0.00000000000E+00  0.00000000000E+00 -0.67336188690E+03  0.23963170561E+04  0.22997650321E+04 0.  0.
        1    1    3    3  502    0 -0.44203727321E+03 -0.82094121165E+03 -0.10379043433E+04  0.13952013653E+04  0.50400001928E-02 0.  1.
       -1    1    3    3    0  502  0.44203727321E+03  0.82094121165E+03  0.36454245640E+03  0.10011156908E+04  0.50400001928E-02 0. -1.
</event>
<event>
 5   0  0.7607231E-07  0.2300029E+04  0.7818609E-02  0.8477909E-01
       -1   -1    0    0    0  501  0.00000000000E+00  0.00000000000E+00  0.83972324123E+03  0.83972324124E+03  0.50400001928E-02 0. -1.
        1   -1    0    0  501    0  0.00000000000E+00  0.00000000000E+00 -0.15749639959E+04  0.15749639959E+04  0.50400001928E-02 0.  1.
    10030    2    1    2    0    0  0.00000000000E+00  0.00000000000E+00 -0.73524075468E+03  0.24146872372E+04  0.23000294533E+04 0.  0.
        2    1    3    3  502    0 -0.56001064022E+03 -0.74224959671E+03 -0.10781043691E+04  0.14236767230E+04  0.25500000920E-02 0. -1.
       -2    1    3    3    0  502  0.56001064022E+03  0.74224959671E+03  0.34286361445E+03  0.99101051412E+03  0.25500000920E-02 0.  1.
</event>
<event>
 5   0  0.8108242E-07  0.2300288E+04  0.7818609E-02  0.8477807E-01
       -1   -1    0    0    0  501  0.00000000000E+00  0.00000000000E+00  0.21344708253E+04  0.21344708253E+04  0.50400001928E-02 0. -1.
        1   -1    0    0  501    0  0.00000000000E+00  0.00000000000E+00 -0.61974692705E+03  0.61974692707E+03  0.50400001928E-02 0.  1.
    10030    2    1    2    0    0  0.00000000000E+00  0.00000000000E+00  0.15147238982E+04  0.27542177524E+04  0.23002884470E+04 0.  0.
        4    1    3    3  502    0 -0.10794998613E+04 -0.35931318022E+03  0.95915552330E+03  0.14880883182E+04  0.12699999809E+01 0. -1.
       -4    1    3    3    0  502  0.10794998613E+04  0.35931318022E+03  0.55556837495E+03  0.12661294342E+04  0.12699999809E+01 0.  1.
</event>
<event>
 5   0  0.8108242E-07  0.2304290E+04  0.7818609E-02  0.8476232E-01
       -1   -1    0    0    0  501  0.00000000000E+00  0.00000000000E+00  0.91580696098E+03  0.91580696100E+03  0.50400001928E-02 0. -1.
        1   -1    0    0  501    0  0.00000000000E+00  0.00000000000E+00 -0.14494731247E+04  0.14494731247E+04  0.50400001928E-02 0.  1.
    10030    2    1    2    0    0  0.00000000000E+00  0.00000000000E+00 -0.53366616369E+03  0.23652800857E+04  0.23042895455E+04 0.  0.
        4    1    3    3  502    0 -0.63515724259E+03 -0.14194225781E+02  0.71975712511E+03  0.96004069232E+03  0.12699999809E+01 0. -1.
       -4    1    3    3    0  502  0.63515724259E+03  0.14194225781E+02 -0.12534232888E+04  0.14052393934E+04  0.12699999809E+01 0.  1.
</event>
<event>
 5   0  0.7761069E-07  0.2300735E+04  0.7818609E-02  0.8477632E-01
        1   -1    0    0  501    0  0.00000000000E+00  0.00000000000E+00  0.15086433827E+04  0.15086433827E+04  0.50400001928E-02 0. -1.
       -1   -1    0    0    0  501  0.00000000000E+00  0.00000000000E+00 -0.87717539252E+03  0.87717539254E+03  0.50400001928E-02 0.  1.
    10030    2    1    2    0    0  0.00000000000E+00  0.00000000000E+00  0.63146799014E+03  0.23858187752E+04  0.23007345361E+04 0.  0.
        1    1    3    3  502    0  0.40009498662E+03  0.10680923371E+04  0.16036798304E+03  0.11517877968E+04  0.50400001928E-02 0. -1.
       -1    1    3    3    0  502 -0.40009498662E+03 -0.10680923371E+04  0.47110000710E+03  0.12340309784E+04  0.50400001928E-02 0.  1.
</event>
<event>
 5   0  0.1825521E-06  0.2295455E+04  0.7818609E-02  0.8479715E-01
       -2   -1    0    0    0  501  0.00000000000E+00  0.00000000000E+00  0.11831199427E+04  0.11831199427E+04  0.25500000920E-02 0.  1.
        2   -1    0    0  501    0  0.00000000000E+00  0.00000000000E+00 -0.11133941300E+04  0.11133941300E+04  0.25500000920E-02 0. -1.
    10030    2    1    2    0    0  0.00000000000E+00  0.00000000000E+00  0.69725812687E+02  0.22965140728E+04  0.22954553356E+04 0.  0.
        5    1    3    3  502    0 -0.85337720742E+03 -0.34341749166E+03 -0.65179794261E+03  0.11274089230E+04  0.46999998093E+01 0. -1.
       -5    1    3    3    0  502  0.85337720742E+03  0.34341749166E+03  0.72152375530E+03  0.11691051498E+04  0.46999998093E+01 0.  1.
</event>
<event>
 5   0  0.1689444E-06  0.2306509E+04  0.7818609E-02  0.8475359E-01
        2   -1    0    0  501    0  0.00000000000E+00  0.00000000000E+00  0.18730485550E+04  0.18730485551E+04  0.25500000920E-02 0.  1.
       -2   -1    0    0    0  501  0.00000000000E+00  0.00000000000E+00 -0.71006992941E+03  0.71006992942E+03  0.25500000920E-02 0. -1.
    10030    2    1    2    0    0  0.00000000000E+00  0.00000000000E+00  0.11629786256E+04  0.25831184845E+04  0.23065085782E+04 0.  0.
        2    1    3    3  502    0 -0.38326978200E+03  0.44777912303E+03  0.16916253875E+04  0.17913677234E+04  0.25500000920E-02 0.  1.
       -2    1    3    3    0  502  0.38326978200E+03 -0.44777912303E+03 -0.52864676186E+03  0.79175076106E+03  0.25500000920E-02 0. -1.
</event>
<event>
 5   0  0.7607231E-07  0.2300309E+04  0.7818609E-02  0.8477799E-01
       -1   -1    0    0    0  501  0.00000000000E+00  0.00000000000E+00  0.59598007865E+03  0.59598007867E+03  0.50400001928E-02 0.  1.
        1   -1    0    0  501    0  0.00000000000E+00  0.00000000000E+00 -0.22196292636E+04  0.22196292636E+04  0.50400001928E-02 0. -1.
    10030    2    1    2    0    0  0.00000000000E+00  0.00000000000E+00 -0.16236491849E+04  0.28156093423E+04  0.23003085212E+04 0.  0.
        2    1    3    3  502    0  0.68355413234E+03 -0.57648787471E+03  0.73595458708E+02  0.89721837536E+03  0.25500000920E-02 0.  1.
       -2    1    3    3    0  502 -0.68355413234E+03  0.57648787471E+03 -0.16972446436E+04  0.19183909669E+04  0.25500000920E-02 0. -1.
</event>
<event>
 5   0  0.7761069E-07  0.2300374E+04  0.7818609E-02  0.8477774E-01
        1   -1    0    0  501    0  0.00000000000E+00  0.00000000000E+00  0.19291701499E+04  0.19291701499E+04  0.50400001928E-02 0.  1.
       -1   -1    0    0    0  501  0.00000000000E+00  0.00000000000E+00 -0.68575073499E+03  0.68575073501E+03  0.50400001928E-02 0. -1.
    10030    2    1    2    0    0  0.00000000000E+00  0.00000000000E+00  0.12434194149E+04  0.26149208849E+04  0.23003737507E+04 0.  0.
        1    1    3    3  502    0  0.10401742035E+04 -0.34345691945E+03  0.10203867368E+04  0.14970351104E+04  0.50400001928E-02 0.  1.
       -1    1    3    3    0  502 -0.10401742035E+04  0.34345691945E+03  0.22303267810E+03  0.11178857745E+04  0.50400001928E-02 0. -1.
</event>
<event>
 5   0  0.8097672E-07  0.2300109E+04  0.7818609E-02  0.8477878E-01
       -1   -1    0    0    0  501  0.00000000000E+00  0.00000000000E+00  0.12433651621E+04  0.12433651621E+04  0.50400001928E-02 0.  1.
        1   -1    0    0  501    0  0.00000000000E+00  0.00000000000E+00 -0.10637463046E+04  0.10637463047E+04  0.50400001928E-02 0. -1.
    10030    2    1    2    0    0  0.00000000000E+00  0.00000000000E+00  0.17961885743E+03  0.23071114667E+04  0.23001087770E+04 0.  0.
        3    1    3    3  502    0  0.50306260418E+03  0.53519001378E+03 -0.79782814538E+03  0.10844492124E+04  0.10100000352E+00 0. -1.
       -3    1    3    3    0  502 -0.50306260418E+03 -0.53519001378E+03  0.97744700281E+03  0.12226622543E+04  0.10100000352E+00 0.  1.
</event>
<event>
 5   0  0.7761069E-07  0.2299734E+04  0.7818609E-02  0.8478026E-01
        1   -1    0    0  501    0  0.00000000000E+00  0.00000000000E+00  0.41634579855E+03  0.41634579858E+03  0.50400001928E-02 0. -1.
       -1   -1    0    0    0  501  0.00000000000E+00  0.00000000000E+00 -0.31757124299E+04  0.31757124299E+04  0.50400001928E-02 0.  1.
    10030    2    1    2    0    0  0.00000000000E+00  0.00000000000E+00 -0.27593666314E+04  0.35920582285E+04  0.22997343565E+04 0.  0.
        1    1    3    3  502    0 -0.56551290501E+03  0.86674252919E+03 -0.59692128238E+03  0.11947227607E+04  0.50400001928E-02 0. -1.
       -1    1    3    3    0  502  0.56551290501E+03 -0.86674252919E+03 -0.21624453490E+04  0.23973354678E+04  0.50400001928E-02 0.  1.
</event>
<event>
 5   0  0.8108242E-07  0.2299765E+04  0.7818609E-02  0.8478014E-01
       -1   -1    0    0    0  501  0.00000000000E+00  0.00000000000E+00  0.11280321625E+04  0.11280321625E+04  0.50400001928E-02 0.  1.
        1   -1    0    0  501    0  0.00000000000E+00  0.00000000000E+00 -0.11721560601E+04  0.11721560602E+04  0.50400001928E-02 0. -1.
    10030    2    1    2    0    0  0.00000000000E+00  0.00000000000E+00 -0.44123897611E+02  0.23001882227E+04  0.22997649753E+04 0.  0.
        4    1    3    3  502    0 -0.27311047157E+03 -0.11168759228E+04 -0.69937871328E+01  0.11498050628E+04  0.12699999809E+01 0. -1.
       -4    1    3    3    0  502  0.27311047157E+03  0.11168759228E+04 -0.37130110479E+02  0.11503831599E+04  0.12699999809E+01 0.  1.
</event>
<event>
 5   0  0.8108242E-07  0.2301518E+04  0.7818609E-02  0.8477323E-01
        1   -1    0    0  501    0  0.00000000000E+00  0.00000000000E+00  0.15195661938E+04  0.15195661938E+04  0.50400001928E-02 0.  1.
       -1   -1    0    0    0  501  0.00000000000E+00  0.00000000000E+00 -0.87146345645E+03  0.87146345646E+03  0.50400001928E-02 0. -1.
    10030    2    1    2    0    0  0.00000000000E+00  0.00000000000E+00  0.64810273737E+03  0.23910296503E+04  0.23015181143E+04 0.  0.
        4    1    3    3  502    0  0.89941893109E+03  0.10457426610E+03  0.10618512127E+04  0.13954998393E+04  0.12699999809E+01 0.  1.
       -4    1    3    3    0  502 -0.89941893109E+03 -0.10457426610E+03 -0.41374847536E+03  0.99552981095E+03  0.12699999809E+01 0. -1.
</event>
<event>
 5   0  0.8097672E-07  0.2301354E+04  0.7818609E-02  0.8477387E-01
       -1   -1    0    0    0  501  0.00000000000E+00  0.00000000000E+00  0.64309788468E+03  0.64309788470E+03  0.50400001928E-02 0. -1.
        1   -1    0    0  501    0  0.00000000000E+00  0.00000000000E+00 -0.20588742943E+04  0.20588742943E+04  0.50400001928E-02 0.  1.
    10030    2    1    2    0    0  0.00000000000E+00  0.00000000000E+00 -0.14157764096E+04  0.27019721790E+04  0.23013541261E+04 0.  0.
        3    1    3    3  502    0 -0.16065694879E+03 -0.97839427966E+03 -0.22290575702E+02  0.99174739809E+03  0.10100000352E+00 0. -1.
       -3    1    3    3    0  502  0.16065694879E+03  0.97839427966E+03 -0.13934858339E+04  0.17102247809E+04  0.10100000352E+00 0.  1.
</event>
<event>
 5   0  0.1689444E-06  0.2299666E+04  0.7818609E-02  0.8478053E-01
       -2   -1    0    0    0  501  0.00000000000E+00  0.00000000000E+00  0.78656545102E+03  0.78656545102E+03  0.25500000920E-02 0. -1.
        2   -1    0    0  501    0  0.00000000000E+00  0.00000000000E+00 -0.16808717135E+04  0.16808717135E+04  0.25500000920E-02 0.  1.
    10030    2    1    2    0    0  0.00000000000E+00  0.00000000000E+00 -0.89430626247E+03  0.24674371645E+04  0.22996657300E+04 0.  0.
        2    1    3    3  502    0 -0.18134325512E+03  0.44391103711E+03 -0.15684668941E+04  0.16401313310E+04  0.25500000920E-02 0.  1.
       -2    1    3    3    0  502  0.18134325512E+03 -0.44391103711E+03  0.67416063158E+03  0.82730583355E+03  0.25500000920E-02 0. -1.
</event>
<event>
 5   0  0.7932912E-07  0.2299399E+04  0.7818609E-02  0.8478158E-01
        1   -1    0    0  501    0  0.00000000000E+00  0.00000000000E+00  0.12082906475E+04  0.12082906475E+04  0.50400001928E-02 0. -1.
       -1   -1    0    0    0  501  0.00000000000E+00  0.00000000000E+00 -0.10939493200E+04  0.10939493200E+04  0.50400001928E-02 0.  1.
    10030    2    1    2    0    0  0.00000000000E+00  0.00000000000E+00  0.11434132755E+03  0.23022399675E+04  0.22993988190E+04 0.  0.
        5    1    3    3  502    0  0.11426354646E+04  0.11050997446E+03 -0.58227545277E+01  0.11479913998E+04  0.46999998093E+01 0. -1.
       -5    1    3    3    0  502 -0.11426354646E+04 -0.11050997446E+03  0.12016408208E+03  0.11542485677E+04  0.46999998093E+01 0.  1.
</event>
<event>
 5   0  0.1744876E-06  0.2300312E+04  0.7818609E-02  0.8477798E-01
       -2   -1    0    0    0  501  0.00000000000E+00  0.00000000000E+00  0.63064037744E+03  0.63064037744E+03  0.25500000920E-02 0.  1.
        2   -1    0    0  501    0  0.00000000000E+00  0.00000000000E+00 -0.20976445470E+04  0.20976445470E+04  0.25500000920E-02 0. -1.
    10030    2    1    2    0    0  0.00000000000E+00  0.00000000000E+00 -0.14670041695E+04  0.27282849244E+04  0.23003124560E+04 0.  0.
        1    1    3    3  502    0  0.91656545347E+03 -0.48052576004E+03 -0.13827276873E+03  0.10440864883E+04  0.50400001928E-02 0.  1.
       -1    1    3    3    0  502 -0.91656545347E+03  0.48052576004E+03 -0.13287314008E+04  0.16841984361E+04  0.50400001928E-02 0. -1.
</event>
<event>
 5   0  0.8097672E-07  0.2299492E+04  0.7818609E-02  0.8478121E-01
        1   -1    0    0  501    0  0.00000000000E+00  0.00000000000E+00  0.11905801148E+04  0.11905801148E+04  0.50400001928E-02 0.  1.
       -1   -1    0    0    0  501  0.00000000000E+00  0.00000000000E+00 -0.11103124789E+04  0.11103124789E+04  0.50400001928E-02 0. -1.
    10030    2    1    2    0    0  0.00000000000E+00  0.00000000000E+00  0.80267635857E+02  0.23008925937E+04  0.22994920819E+04 0.  0.
        3    1    3    3  502    0  0.31656113906E+03 -0.10250367300E+04  0.45391281804E+03  0.11648811567E+04  0.10100000352E+00 0.  1.
       -3    1    3    3    0  502 -0.31656113906E+03  0.10250367300E+04 -0.37364518219E+03  0.11360114370E+04  0.10100000352E+00 0. -1.
</event>
<event>
 5   0  0.1744876E-06  0.2312686E+04  0.7818609E-02  0.8472936E-01
        2   -1    0    0  501    0  0.00000000000E+00  0.00000000000E+00  0.72641537154E+03  0.72641537155E+03  0.25500000920E-02 0.  1.
       -2   -1    0    0    0  501  0.00000000000E+00  0.00000000000E+00 -0.18407225923E+04  0.18407225923E+04  0.25500000920E-02 0. -1.
    10030    2    1    2    0    0  0.00000000000E+00  0.00000000000E+00 -0.11143072207E+04  0.25671379638E+04  0.23126860451E+04 0.  0.
        1    1    3    3  502    0  0.53808544582E+03  0.40146234398E+03  0.48793376794E+03  0.82993211924E+03  0.50400001928E-02 0.  1.
       -1    1    3    3    0  502 -0.53808544582E+03 -0.40146234398E+03 -0.16022409887E+04  0.17372058446E+04  0.50400001928E-02 0. -1.
</event>
<event>
 5   0  0.7761069E-07  0.2298340E+04  0.7818609E-02  0.8478576E-01
        1   -1    0    0  501    0  0.00000000000E+00  0.00000000000E+00  0.19069538443E+04  0.19069538443E+04  0.50400001928E-02 0.  1.
       -1   -1    0    0    0  501  0.00000000000E+00  0.00000000000E+00 -0.69251392341E+03  0.69251392343E+03  0.50400001928E-02 0. -1.
    10030    2    1    2    0    0  0.00000000000E+00  0.00000000000E+00  0.12144399209E+04  0.25994677677E+04  0.22983403477E+04 0.  0.
        1    1    3    3  502    0  0.57557794145E+03  0.52579858685E+03  0.15621367015E+04  0.17458594431E+04  0.50400001928E-02 0.  1.
       -1    1    3    3    0  502 -0.57557794145E+03 -0.52579858685E+03 -0.34769678067E+03  0.85360832466E+03  0.50400001928E-02 0. -1.
</event>
<event>
 5   0  0.1825521E-06  0.2300030E+04  0.7818609E-02  0.8477909E-01
        2   -1    0    0  501    0  0.00000000000E+00  0.00000000000E+00  0.17715555191E+04  0.17715555191E+04  0.25500000920E-02 0. -1.
       -2   -1    0    0    0  501  0.00000000000E+00  0.00000000000E+00 -0.74653832780E+03  0.74653832780E+03  0.25500000920E-02 0.  1.
    10030    2    1    2    0    0  0.00000000000E+00  0.00000000000E+00  0.10250171913E+04  0.25180938469E+04  0.23000296475E+04 0.  0.
        5    1    3    3  502    0 -0.49213067055E+03  0.66994810107E+03  0.13825128080E+04  0.16131914980E+04  0.46999998093E+01 0. -1.
       -5    1    3    3    0  502  0.49213067055E+03 -0.66994810107E+03 -0.35749561670E+03  0.90490234887E+03  0.46999998093E+01 0.  1.
</event>
<event>
 5   0  0.7607231E-07  0.2301015E+04  0.7818609E-02  0.8477521E-01
       -1   -1    0    0    0  501  0.00000000000E+00  0.00000000000E+00  0.81983061025E+03  0.81983061026E+03  0.50400001928E-02 0.  1.
        1   -1    0    0  501    0  0.00000000000E+00  0.00000000000E+00 -0.16145623865E+04  0.16145623865E+04  0.50400001928E-02 0. -1.
    10030    2    1    2    0    0  0.00000000000E+00  0.00000000000E+00 -0.79473177628E+03  0.24343929968E+04  0.23010151383E+04 0.  0.
        2    1    3    3  502    0  0.37685001204E+03  0.67432259850E+03 -0.12993953590E+04  0.15116729796E+04  0.25500000920E-02 0. -1.
       -2    1    3    3    0  502 -0.37685001204E+03 -0.67432259850E+03  0.50466358268E+03  0.92272001718E+03  0.25500000920E-02 0.  1.
</event>
<event>
 5   0  0.1828646E-06  0.2297770E+04  0.7818609E-02  0.8478801E-01
       -2   -1    0    0    0  501  0.00000000000E+00  0.00000000000E+00  0.86471300376E+03  0.86471300377E+03  0.25500000920E-02 0.  1.
        2   -1    0    0  501    0  0.00000000000E+00  0.00000000000E+00 -0.15264446268E+04  0.15264446268E+04  0.25500000920E-02 0. -1.
    10030    2    1    2    0    0  0.00000000000E+00  0.00000000000E+00 -0.66173162307E+03  0.23911576306E+04  0.22977698043E+04 0.  0.
        3    1    3    3  502    0  0.10818819649E+04  0.13686838166E+03  0.45402436891E+02  0.10914499216E+04  0.10100000352E+00 0.  1.
       -3    1    3    3    0  502 -0.10818819649E+04 -0.13686838166E+03 -0.70713405996E+03  0.12997077090E+04  0.10100000352E+00 0. -1.
</event>
<event>
 5   0  0.1689444E-06  0.2299340E+04  0.7818609E-02  0.8478181E-01
        2   -1    0    0  501    0  0.00000000000E+00  0.00000000000E+00  0.17639737438E+04  0.17639737438E+04  0.25500000920E-02 0.  1.
       -2   -1    0    0    0  501  0.00000000000E+00  0.00000000000E+00 -0.74929772876E+03  0.74929772877E+03  0.25500000920E-02 0. -1.
    10030    2    1    2    0    0  0.00000000000E+00  0.00000000000E+00  0.10146760150E+04  0.25132714725E+04  0.22993403574E+04 0.  0.
        2    1    3    3  502    0 -0.10104836554E+04  0.11881377339E+03 -0.77767948818E+02  0.10204125560E+04  0.25500000920E-02 0. -1.
       -2    1    3    3    0  502  0.10104836554E+04 -0.11881377339E+03  0.10924439638E+04  0.14928589165E+04  0.25500000920E-02 0.  1.
</event>
<event>
 5   0  0.7607231E-07  0.2299500E+04  0.7818609E-02  0.8478118E-01
        1   -1    0    0  501    0  0.00000000000E+00  0.00000000000E+00  0.16465401007E+04  0.16465401008E+04  0.50400001928E-02 0.  1.
       -1   -1    0    0    0  501  0.00000000000E+00  0.00000000000E+00 -0.80285044774E+03  0.80285044776E+03  0.50400001928E-02 0. -1.
    10030    2    1    2    0    0  0.00000000000E+00  0.00000000000E+00  0.84368965300E+03  0.24493905485E+04  0.22995003432E+04 0.  0.
        2    1    3    3  502    0 -0.76190201444E+03 -0.62450514735E+03  0.10532968054E+04  0.14421981553E+04  0.25500000920E-02 0.  1.
       -2    1    3    3    0  502  0.76190201444E+03  0.62450514735E+03 -0.20960715243E+03  0.10071923933E+04  0.25500000920E-02 0. -1.
</event>
<event>
 5   0  0.1825521E-06  0.2299617E+04  0.7818609E-02  0.8478072E-01
       -2   -1    0    0    0  501  0.00000000000E+00  0.00000000000E+00  0.13627539694E+04  0.13627539694E+04  0.25500000920E-02 0.  1.
        2   -1    0    0  501    0  0.00000000000E+00  0.00000000000E+00 -0.97013794378E+03  0.97013794379E+03  0.25500000920E-02 0. -1.
    10030    2    1    2    0    0  0.00000000000E+00  0.00000000000E+00  0.39261602564E+03  0.23328919132E+04  0.22996167801E+04 0.  0.
        5    1    3    3  502    0 -0.31544139032E+03 -0.73910309431E+03  0.10305579602E+04  0.13068467599E+04  0.46999998093E+01 0.  1.
       -5    1    3    3    0  502  0.31544139032E+03  0.73910309431E+03 -0.63794193451E+03  0.10260451533E+04  0.46999998093E+01 0. -1.
</event>
<event>
 5   0  0.1825521E-06  0.2300534E+04  0.7818609E-02  0.8477710E-01
       -2   -1    0    0    0  501  0.00000000000E+00  0.00000000000E+00  0.63588631199E+03  0.63588631200E+03  0.25500000920E-02 0. -1.
        2   -1    0    0  501    0  0.00000000000E+00  0.00000000000E+00 -0.20807409898E+04  0.20807409898E+04  0.25500000920E-02 0.  1.
    10030    2    1    2    0    0  0.00000000000E+00  0.00000000000E+00 -0.14448546778E+04  0.27166273018E+04  0.23005344720E+04 0.  0.
        5    1    3    3  502    0  0.23217777532E+03  0.68554454892E+03 -0.17781092209E+04  0.19197844513E+04  0.46999998093E+01 0.  1.
       -5    1    3    3    0  502 -0.23217777532E+03 -0.68554454892E+03  0.33325454311E+03  0.79684285051E+03  0.46999998093E+01 0. -1.
</event>
<event>
 5   0  0.1828646E-06  0.2299913E+04  0.7818609E-02  0.8477955E-01
       -2   -1    0    0    0  501  0.00000000000E+00  0.00000000000E+00  0.96781032602E+03  0.96781032602E+03  0.25500000920E-02 0. -1.
        2   -1    0    0  501    0  0.00000000000E+00  0.00000000000E+00 -0.13663839390E+04  0.13663839390E+04  0.25500000920E-02 0.  1.
    10030    2    1    2    0    0  0.00000000000E+00  0.00000000000E+00 -0.39857361300E+03  0.23341942651E+04  0.22999134640E+04 0.  0.
        3    1    3    3  502    0 -0.40340593166E+03  0.73855632296E+03 -0.99467647224E+03  0.13029133058E+04  0.10100000352E+00 0.  1.
       -3    1    3    3    0  502  0.40340593166E+03 -0.73855632296E+03  0.59610285923E+03  0.10312809592E+04  0.10100000352E+00 0. -1.
</event>
<event>
 5   0  0.1744876E-06  0.2299576E+04  0.7818609E-02  0.8478088E-01
        2   -1    0    0  501    0  0.00000000000E+00  0.00000000000E+00  0.19503580000E+04  0.19503580000E+04  0.25500000920E-02 0.  1.
       -2   -1    0    0    0  501  0.00000000000E+00  0.00000000000E+00 -0.67783038996E+03  0.67783038996E+03  0.25500000920E-02 0. -1.
    10030    2    1    2    0    0  0.00000000000E+00  0.00000000000E+00  0.12725276100E+04  0.26281883899E+04  0.22995755467E+04 0.  0.
        1    1    3    3  502    0  0.68892355657E+03  0.83228111103E+03  0.18673227714E+03  0.10964380776E+04  0.50400001928E-02 0. -1.
       -1    1    3    3    0  502 -0.68892355657E+03 -0.83228111103E+03  0.10857953329E+04  0.15317503124E+04  0.50400001928E-02 0.  1.
</event>
<event>
 5   0  0.7932912E-07  0.2300668E+04  0.7818609E-02  0.8477658E-01
        1   -1    0    0  501    0  0.00000000000E+00  0.00000000000E+00  0.93299561314E+03  0.93299561316E+03  0.50400001928E-02 0. -1.
       -1   -1    0    0    0  501  0.00000000000E+00  0.00000000000E+00 -0.14183008624E+04  0.14183008625E+04  0.50400001928E-02 0.  1.
    10030    2    1    2    0    0  0.00000000000E+00  0.00000000000E+00 -0.48530524930E+03  0.23512964756E+04  0.23006681489E+04 0.  0.
        5    1    3    3  502    0 -0.41845818190E+03 -0.26995704922E+03 -0.13024202041E+04  0.13943832101E+04  0.46999998093E+01 0.  1.
       -5    1    3    3    0  502  0.41845818190E+03  0.26995704922E+03  0.81711495481E+03  0.95691326555E+03  0.46999998093E+01 0. -1.
</event>
<event>
 5   0  0.7761069E-07  0.2299393E+04  0.7818609E-02  0.8478160E-01
        1   -1    0    0  501    0  0.00000000000E+00  0.00000000000E+00  0.10847084929E+04  0.10847084929E+04  0.50400001928E-02 0. -1.
       -1   -1    0    0    0  501  0.00000000000E+00  0.00000000000E+00 -0.12185783017E+04  0.12185783017E+04  0.50400001928E-02 0.  1.
    10030    2    1    2    0    0  0.00000000000E+00  0.00000000000E+00 -0.13386980880E+03  0.23032867945E+04  0.22993931661E+04 0.  0.
        1    1    3    3  502    0  0.76022300308E+03  0.81070573345E+03  0.22787525670E+03  0.11345086748E+04  0.50400001928E-02 0.  1.
       -1    1    3    3    0  502 -0.76022300308E+03 -0.81070573345E+03 -0.36174506550E+03  0.11687781197E+04  0.50400001928E-02 0. -1.
</event>
<event>
 5   0  0.1689444E-06  0.2303129E+04  0.7818609E-02  0.8476688E-01
       -2   -1    0    0    0  501  0.00000000000E+00  0.00000000000E+00  0.85585312326E+03  0.85585312326E+03  0.25500000920E-02 0.  1.
        2   -1    0    0  501    0  0.00000000000E+00  0.00000000000E+00 -0.15494495355E+04  0.15494495355E+04  0.25500000920E-02 0. -1.
    10030    2    1    2    0    0  0.00000000000E+00  0.00000000000E+00 -0.69359641220E+03  0.24053026587E+04  0.23031293705E+04 0.  0.
        2    1    3    3  502    0 -0.97112091030E+03 -0.26884926185E+03 -0.92897354567E+03  0.13705282181E+04  0.25500000920E-02 0. -1.
       -2    1    3    3    0  502  0.97112091030E+03  0.26884926185E+03  0.23537713347E+03  0.10347744406E+04  0.25500000920E-02 0.  1.
</event>
<event>
 5   0  0.7607231E-07  0.2300843E+04  0.7818609E-02  0.8477589E-01
        1   -1    0    0  501    0  0.00000000000E+00  0.00000000000E+00  0.10903876432E+04  0.10903876432E+04  0.50400001928E-02 0. -1.
       -1   -1    0    0    0  501  0.00000000000E+00  0.00000000000E+00 -0.12137603985E+04  0.12137603985E+04  0.50400001928E-02 0.  1.
    10030    2    1    2    0    0  0.00000000000E+00  0.00000000000E+00 -0.12337275530E+03  0.23041480416E+04  0.23008427502E+04 0.  0.
        2    1    3    3  502    0  0.60345119694E+03 -0.97372898108E+03  0.44143552757E+02  0.11464074882E+04  0.25500000920E-02 0. -1.
       -2    1    3    3    0  502 -0.60345119694E+03  0.97372898108E+03 -0.16751630806E+03  0.11577405535E+04  0.25500000920E-02 0.  1.
</event>
<event>
 5   0  0.1744876E-06  0.2300108E+04  0.7818609E-02  0.8477878E-01
       -2   -1    0    0    0  501  0.00000000000E+00  0.00000000000E+00  0.49025285379E+03  0.49025285380E+03  0.25500000920E-02 0. -1.
        2   -1    0    0  501    0  0.00000000000E+00  0.00000000000E+00 -0.26978417299E+04  0.26978417299E+04  0.25500000920E-02 0.  1.
    10030    2    1    2    0    0  0.00000000000E+00  0.00000000000E+00 -0.22075888761E+04  0.31880945836E+04  0.23001083515E+04 0.  0.
        1    1    3    3  502    0  0.53306645947E+03  0.42719746630E+03  0.17856990646E+03  0.70607700497E+03  0.50400001928E-02 0. -1.
       -1    1    3    3    0  502 -0.53306645947E+03 -0.42719746630E+03 -0.23861587825E+04  0.24820175787E+04  0.50400001928E-02 0.  1.
</event>
<event>
 5   0  0.1825521E-06  0.2300697E+04  0.7818609E-02  0.8477646E-01
       -2   -1    0    0    0  501  0.00000000000E+00  0.00000000000E+00  0.92615404891E+03  0.92615404891E+03  0.25500000920E-02 0.  1.
        2   -1    0    0  501    0  0.00000000000E+00  0.00000000000E+00 -0.14288139030E+04  0.14288139030E+04  0.25500000920E-02 0. -1.
    10030    2    1    2    0    0  0.00000000000E+00  0.00000000000E+00 -0.50265985413E+03  0.23549679520E+04  0.23006970956E+04 0.  0.
        5    1    3    3  502    0 -0.46593116858E+03  0.50984464428E+03 -0.11929461720E+04  0.13784687426E+04  0.46999998093E+01 0. -1.
       -5    1    3    3    0  502  0.46593116858E+03 -0.50984464428E+03  0.69028631787E+03  0.97649920931E+03  0.46999998093E+01 0.  1.
</event>
<event>
 5   0  0.8097672E-07  0.2295139E+04  0.7818609E-02  0.8479840E-01
       -1   -1    0    0    0  501  0.00000000000E+00  0.00000000000E+00  0.11646213105E+04  0.11646213106E+04  0.50400001928E-02 0.  1.
        1   -1    0    0  501    0  0.00000000000E+00  0.00000000000E+00 -0.11307678058E+04  0.11307678058E+04  0.50400001928E-02 0. -1.
    10030    2    1    2    0    0  0.00000000000E+00  0.00000000000E+00  0.33853504725E+02  0.22953891164E+04  0.22951394589E+04 0.  0.
        3    1    3    3  502    0 -0.74775610459E+03 -0.41992057216E+03  0.77953431640E+03  0.11589418620E+04  0.10100000352E+00 0.  1.
       -3    1    3    3    0  502  0.74775610459E+03  0.41992057216E+03 -0.74568081167E+03  0.11364472544E+04  0.10100000352E+00 0. -1.
</event>
<event>
 5   0  0.7932912E-07  0.2302448E+04  0.7818609E-02  0.8476957E-01
       -1   -1    0    0    0  501  0.00000000000E+00  0.00000000000E+00  0.10608202835E+04  0.10608202835E+04  0.50400001928E-02 0. -1.
        1   -1    0    0  501    0  0.00000000000E+00  0.00000000000E+00 -0.12493318758E+04  0.12493318759E+04  0.50400001928E-02 0.  1.
    10030    2    1    2    0    0  0.00000000000E+00  0.00000000000E+00 -0.18851159233E+03  0.23101521594E+04  0.23024479102E+04 0.  0.
        5    1    3    3  502    0  0.24255732597E+03  0.81909775792E+03  0.68003837409E+03  0.10918926109E+04  0.46999998093E+01 0. -1.
       -5    1    3    3    0  502 -0.24255732597E+03 -0.81909775792E+03 -0.86854996642E+03  0.12182595485E+04  0.46999998093E+01 0.  1.
</event>
<event>
 5   0  0.1744876E-06  0.2299499E+04  0.7818609E-02  0.8478119E-01
       -2   -1    0    0    0  501  0.00000000000E+00  0.00000000000E+00  0.11218868559E+04  0.11218868559E+04  0.25500000920E-02 0.  1.
        2   -1    0    0  501    0  0.00000000000E+00  0.00000000000E+00 -0.11783040870E+04  0.11783040870E+04  0.25500000920E-02 0. -1.
    10030    2    1    2    0    0  0.00000000000E+00  0.00000000000E+00 -0.56417231123E+02  0.23001909430E+04  0.22994989607E+04 0.  0.
        1    1    3    3  502    0  0.17131276292E+03  0.89824879895E+03 -0.72535801117E+03  0.11671945904E+04  0.50400001928E-02 0. -1.
       -1    1    3    3    0  502 -0.17131276292E+03 -0.89824879895E+03  0.66894078005E+03  0.11329963525E+04  0.50400001928E-02 0.  1.
</event>
<event>
 5   0  0.1888779E-06  0.2300017E+04  0.7818609E-02  0.8477915E-01
        2   -1    0    0  501    0  0.00000000000E+00  0.00000000000E+00  0.12055822776E+04  0.12055822776E+04  0.25500000920E-02 0.  1.
       -2   -1    0    0    0  501  0.00000000000E+00  0.00000000000E+00 -0.10969960848E+04  0.10969960848E+04  0.25500000920E-02 0. -1.
    10030    2    1    2    0    0  0.00000000000E+00  0.00000000000E+00  0.10858619279E+03  0.23025783624E+04  0.23000165551E+04 0.  0.
        4    1    3    3  502    0  0.77759593504E+02 -0.11161185529E+04 -0.21199235389E+03  0.11387315529E+04  0.12699999809E+01 0. -1.
       -4    1    3    3    0  502 -0.77759593504E+02  0.11161185529E+04  0.32057854668E+03  0.11638468095E+04  0.12699999809E+01 0.  1.
</event>
<event>
 5   0  0.6319125E-07  0.2305142E+04  0.7818609E-02  0.8475896E-01
        4   -1    0    0  501    0  0.00000000000E+00  0.00000000000E+00  0.93516588458E+03  0.93516674694E+03  0.12699999809E+01 0. -1.
       -4   -1    0    0    0  501  0.00000000000E+00  0.00000000000E+00 -0.14205162478E+04  0.14205168155E+04  0.12699999809E+01 0.  1.
    10030    2    1    2    0    0  0.00000000000E+00  0.00000000000E+00 -0.48535036325E+03  0.23556835625E+04  0.23051420936E+04 0.  0.
        1    1    3    3  502    0 -0.36096441992E+03  0.42324689830E+03  0.78890626494E+03  0.96530116765E+03  0.50400001928E-02 0. -1.
       -1    1    3    3    0  502  0.36096441992E+03 -0.42324689830E+03 -0.12742566282E+04  0.13903823948E+04  0.50400001928E-02 0.  1.
</event>
<event>
 5   0  0.8108242E-07  0.2299645E+04  0.7818609E-02  0.8478061E-01
       -1   -1    0    0    0  501  0.00000000000E+00  0.00000000000E+00  0.77599108882E+03  0.77599108883E+03  0.50400001928E-02 0.  1.
        1   -1    0    0  501    0  0.00000000000E+00  0.00000000000E+00 -0.17037459806E+04  0.17037459806E+04  0.50400001928E-02 0. -1.
    10030    2    1    2    0    0  0.00000000000E+00  0.00000000000E+00 -0.92775489181E+03  0.24797370695E+04  0.22996449279E+04 0.  0.
        4    1    3    3  502    0  0.42461507249E+03 -0.60940843271E+03  0.48259241354E+03  0.88576162039E+03  0.12699999809E+01 0.  1.
       -4    1    3    3    0  502 -0.42461507249E+03  0.60940843271E+03 -0.14103473054E+04  0.15939754491E+04  0.12699999809E+01 0. -1.
</event>
<event>
 5   0  0.1828646E-06  0.2299366E+04  0.7818609E-02  0.8478171E-01
       -2   -1    0    0    0  501  0.00000000000E+00  0.00000000000E+00  0.11753945070E+04  0.11753945070E+04  0.25500000920E-02 0. -1.
        2   -1    0    0  501    0  0.00000000000E+00  0.00000000000E+00 -0.11245342360E+04  0.11245342360E+04  0.25500000920E-02 0.  1.
    10030    2    1    2    0    0  0.00000000000E+00  0.00000000000E+00  0.50860271068E+02  0.22999287430E+04  0.22993663161E+04 0.  0.
        3    1    3    3  502    0 -0.15367426341E+03  0.10537197242E+04  0.45893009569E+03  0.11595507230E+04  0.10100000352E+00 0. -1.
       -3    1    3    3    0  502  0.15367426341E+03 -0.10537197242E+04 -0.40806982462E+03  0.11403780199E+04  0.10100000352E+00 0.  1.
</event>
<event>
 5   0  0.7761069E-07  0.2307364E+04  0.7818609E-02  0.8475023E-01
       -1   -1    0    0    0  501  0.00000000000E+00  0.00000000000E+00  0.11811031965E+04  0.11811031965E+04  0.50400001928E-02 0. -1.
        1   -1    0    0  501    0  0.00000000000E+00  0.00000000000E+00 -0.11268973890E+04  0.11268973890E+04  0.50400001928E-02 0.  1.
    10030    2    1    2    0    0  0.00000000000E+00  0.00000000000E+00  0.54205807489E+02  0.23080005856E+04  0.23073639577E+04 0.  0.
        1    1    3    3  502    0  0.78763949365E+03 -0.83782704410E+03 -0.65938783519E+02  0.11518151115E+04  0.50400001928E-02 0. -1.
       -1    1    3    3    0  502 -0.78763949365E+03  0.83782704410E+03  0.12014459101E+03  0.11561854741E+04  0.50400001928E-02 0.  1.
</event>
<event>
 5   0  0.1828646E-06  0.2298751E+04  0.7818609E-02  0.8478414E-01
        2   -1    0    0  501    0  0.00000000000E+00  0.00000000000E+00  0.23070793296E+04  0.23070793297E+04  0.25500000920E-02 0. -1.
       -2   -1    0    0    0  501  0.00000000000E+00  0.00000000000E+00 -0.57261321861E+03  0.57261321861E+03  0.25500000920E-02 0.  1.
    10030    2    1    2    0    0  0.00000000000E+00  0.00000000000E+00  0.17344661110E+04  0.28796925483E+04  0.22987510701E+04 0.  0.
        3    1    3    3  502    0  0.39822667008E+03 -0.17946455557E+03 -0.46458740456E+03  0.63767819012E+03  0.10100000352E+00 0.  1.
       -3    1    3    3    0  502 -0.39822667008E+03  0.17946455557E+03  0.21990535156E+04  0.22420143582E+04  0.10100000352E+00 0. -1.
</event>
<event>
 5   0  0.7607231E-07  0.2300090E+04  0.7818609E-02  0.8477886E-01
       -1   -1    0    0    0  501  0.00000000000E+00  0.00000000000E+00  0.10201241151E+04  0.10201241151E+04  0.50400001928E-02 0. -1.
        1   -1    0    0  501    0  0.00000000000E+00  0.00000000000E+00 -0.12965126934E+04  0.12965126934E+04  0.50400001928E-02 0.  1.
    10030    2    1    2    0    0  0.00000000000E+00  0.00000000000E+00 -0.27638857825E+03  0.23166368085E+04  0.23000903148E+04 0.  0.
        2    1    3    3  502    0  0.77591809995E+03 -0.84831422640E+03 -0.16870976150E+03  0.11619590820E+04  0.25500000920E-02 0.  1.
       -2    1    3    3    0  502 -0.77591809995E+03  0.84831422640E+03 -0.10767881675E+03  0.11546777265E+04  0.25500000920E-02 0. -1.
</event>
<event>
 5   0  0.1744876E-06  0.2299748E+04  0.7818609E-02  0.8478020E-01
       -2   -1    0    0    0  501  0.00000000000E+00  0.00000000000E+00  0.69358148789E+03  0.69358148789E+03  0.25500000920E-02 0. -1.
        2   -1    0    0  501    0  0.00000000000E+00  0.00000000000E+00 -0.19063517875E+04  0.19063517875E+04  0.25500000920E-02 0.  1.
    10030    2    1    2    0    0  0.00000000000E+00  0.00000000000E+00 -0.12127702996E+04  0.25999332754E+04  0.22997480812E+04 0.  0.
        1    1    3    3  502    0  0.75457394882E+03 -0.10610675634E+03 -0.15799344771E+04  0.17540904879E+04  0.50400001928E-02 0.  1.
       -1    1    3    3    0  502 -0.75457394882E+03  0.10610675634E+03  0.36716417742E+03  0.84584278751E+03  0.50400001928E-02 0. -1.
</event>
<event>
 5   0  0.1689444E-06  0.2299630E+04  0.7818609E-02  0.8478067E-01
       -2   -1    0    0    0  501  0.00000000000E+00  0.00000000000E+00  0.98436721556E+03  0.98436721556E+03  0.25500000920E-02 0.  1.
        2   -1    0    0  501    0  0.00000000000E+00  0.00000000000E+00 -0.13430709898E+04  0.13430709898E+04  0.25500000920E-02 0. -1.
    10030    2    1    2    0    0  0.00000000000E+00  0.00000000000E+00 -0.35870377421E+03  0.23274382053E+04  0.22996304490E+04 0.  0.
        2    1    3    3  502    0  0.87894529969E+02  0.20022967815E+02 -0.13394889745E+04  0.13425189311E+04  0.25500000920E-02 0. -1.
       -2    1    3    3    0  502 -0.87894529969E+02 -0.20022967815E+02  0.98078520027E+03  0.98491927421E+03  0.25500000920E-02 0.  1.
</event>
<event>
 5   0  0.6319125E-07  0.2310198E+04  0.7818609E-02  0.8473911E-01
        3   -1    0    0  501    0  0.00000000000E+00  0.00000000000E+00  0.10814529757E+04  0.10814529804E+04  0.10100000352E+00 0. -1.
       -3   -1    0    0    0  501  0.00000000000E+00  0.00000000000E+00 -0.12337598010E+04  0.12337598051E+04  0.10100000352E+00 0.  1.
    10030    2    1    2    0    0  0.00000000000E+00  0.00000000000E+00 -0.15230682526E+03  0.23152127855E+04  0.23101975832E+04 0.  0.
        2    1    3    3  502    0 -0.27850149484E+02  0.68456819129E+03 -0.10081421627E+04  0.12189174950E+04  0.25500000920E-02 0.  1.
       -2    1    3    3    0  502  0.27850149484E+02 -0.68456819129E+03  0.85583533741E+03  0.10962952906E+04  0.25500000920E-02 0. -1.
</event>
<event>
 5   0  0.8108242E-07  0.2300011E+04  0.7818609E-02  0.8477917E-01
        1   -1    0    0  501    0  0.00000000000E+00  0.00000000000E+00  0.16158814714E+04  0.16158814714E+04  0.50400001928E-02 0.  1.
       -1   -1    0    0    0  501  0.00000000000E+00  0.00000000000E+00 -0.81844648728E+03  0.81844648730E+03  0.50400001928E-02 0. -1.
    10030    2    1    2    0    0  0.00000000000E+00  0.00000000000E+00  0.79743498408E+03  0.24343279587E+04  0.23000108818E+04 0.  0.
        4    1    3    3  502    0 -0.10056604249E+04 -0.50919944852E+03  0.63977673217E+03  0.12961299505E+04  0.12699999809E+01 0. -1.
       -4    1    3    3    0  502  0.10056604249E+04  0.50919944852E+03  0.15765825192E+03  0.11381980082E+04  0.12699999809E+01 0.  1.
</event>
<event>
 5   0  0.6319125E-07  0.2301267E+04  0.7818609E-02  0.8477422E-01
       -3   -1    0    0    0  501  0.00000000000E+00  0.00000000000E+00  0.82416523625E+03  0.82416524244E+03  0.10100000352E+00 0.  1.
        3   -1    0    0  501    0  0.00000000000E+00  0.00000000000E+00 -0.16064220388E+04  0.16064220420E+04  0.10100000352E+00 0. -1.
    10030    2    1    2    0    0  0.00000000000E+00  0.00000000000E+00 -0.78225680255E+03  0.24305872844E+04  0.23012667907E+04 0.  0.
        3    1    3    3  502    0 -0.46467881511E+03 -0.76891940810E+03 -0.11504099998E+04  0.14596597669E+04  0.10100000352E+00 0. -1.
       -3    1    3    3    0  502  0.46467881511E+03  0.76891940810E+03  0.36815319724E+03  0.97092751748E+03  0.10100000352E+00 0.  1.
</event>
<event>
 5   0  0.1888779E-06  0.2298910E+04  0.7818609E-02  0.8478351E-01
        2   -1    0    0  501    0  0.00000000000E+00  0.00000000000E+00  0.15014706427E+04  0.15014706427E+04  0.25500000920E-02 0. -1.
       -2   -1    0    0    0  501  0.00000000000E+00  0.00000000000E+00 -0.87996809019E+03  0.87996809020E+03  0.25500000920E-02 0.  1.
    10030    2    1    2    0    0  0.00000000000E+00  0.00000000000E+00  0.62150255254E+03  0.23814387329E+04  0.22989095276E+04 0.  0.
        4    1    3    3  502    0  0.91338301572E+03 -0.49881994666E+03 -0.19477900342E+03  0.10587872051E+04  0.12699999809E+01 0. -1.
       -4    1    3    3    0  502 -0.91338301572E+03  0.49881994666E+03  0.81628155596E+03  0.13226515278E+04  0.12699999809E+01 0.  1.
</event>
<event>
 5   0  0.1825521E-06  0.2301572E+04  0.7818609E-02  0.8477301E-01
       -2   -1    0    0    0  501  0.00000000000E+00  0.00000000000E+00  0.13428972589E+04  0.13428972589E+04  0.25500000920E-02 0.  1.
        2   -1    0    0  501    0  0.00000000000E+00  0.00000000000E+00 -0.98615807306E+03  0.98615807306E+03  0.25500000920E-02 0. -1.
    10030    2    1    2    0    0  0.00000000000E+00  0.00000000000E+00  0.35673918585E+03  0.23290553320E+04  0.23015724826E+04 0.  0.
        5    1    3    3  502    0  0.46238225290E+03  0.86992541053E+02 -0.88437160533E+03  0.10017486093E+04  0.46999998093E+01 0. -1.
       -5    1    3    3    0  502 -0.46238225290E+03 -0.86992541053E+02  0.12411107912E+04  0.13273067226E+04  0.46999998093E+01 0.  1.
</event>
<event>
 5   0  0.7761069E-07  0.2300025E+04  0.7818609E-02  0.8477911E-01
       -1   -1    0    0    0  501  0.00000000000E+00  0.00000000000E+00  0.12140195560E+04  0.12140195560E+04  0.50400001928E-02 0.  1.
        1   -1    0    0  501    0  0.00000000000E+00  0.00000000000E+00 -0.10893801043E+04  0.10893801043E+04  0.50400001928E-02 0. -1.
    10030    2    1    2    0    0  0.00000000000E+00  0.00000000000E+00  0.12463945166E+03  0.23033996603E+04  0.23000250003E+04 0.  0.
        1    1    3    3  502    0  0.69586159377E+03 -0.28195601263E+03  0.93469264835E+03  0.11989048743E+04  0.50400001928E-02 0.  1.
       -1    1    3    3    0  502 -0.69586159377E+03  0.28195601263E+03 -0.81005319669E+03  0.11044947860E+04  0.50400001928E-02 0. -1.
</event>
<event>
 5   0  0.1888779E-06  0.2300152E+04  0.7818609E-02  0.8477861E-01
        2   -1    0    0  501    0  0.00000000000E+00  0.00000000000E+00  0.12886547804E+04  0.12886547804E+04  0.25500000920E-02 0.  1.
       -2   -1    0    0    0  501  0.00000000000E+00  0.00000000000E+00 -0.10263995178E+04  0.10263995178E+04  0.25500000920E-02 0. -1.
    10030    2    1    2    0    0  0.00000000000E+00  0.00000000000E+00  0.26225526256E+03  0.23150542982E+04  0.23001518604E+04 0.  0.
        4    1    3    3  502    0 -0.29062163829E+03 -0.95904152249E+03 -0.43684353606E+03  0.10931859249E+04  0.12699999809E+01 0. -1.
       -4    1    3    3    0  502  0.29062163829E+03  0.95904152249E+03  0.69909879863E+03  0.12218683733E+04  0.12699999809E+01 0.  1.
</event>
<event>
 5   0  0.6319125E-07  0.2298367E+04  0.7818609E-02  0.8478565E-01
       -3   -1    0    0    0  501  0.00000000000E+00  0.00000000000E+00  0.53902328261E+03  0.53902329207E+03  0.10100000352E+00 0.  1.
        3   -1    0    0  501    0  0.00000000000E+00  0.00000000000E+00 -0.24500283573E+04  0.24500283594E+04  0.10100000352E+00 0. -1.
    10030    2    1    2    0    0  0.00000000000E+00  0.00000000000E+00 -0.19110050747E+04  0.29890516514E+04  0.22983666765E+04 0.  0.
        3    1    3    3  502    0 -0.95905033801E+03 -0.74152902857E+02 -0.17732192046E+04  0.20173206392E+04  0.10100000352E+00 0. -1.
       -3    1    3    3    0  502  0.95905033801E+03  0.74152902857E+02 -0.13778587010E+03  0.97173101218E+03  0.10100000352E+00 0.  1.
</event>
<event>
 5   0  0.8097672E-07  0.2299921E+04  0.7818609E-02  0.8477952E-01
        1   -1    0    0  501    0  0.00000000000E+00  0.00000000000E+00  0.19832601833E+04  0.19832601833E+04  0.50400001928E-02 0. -1.
       -1   -1    0    0    0  501  0.00000000000E+00  0.00000000000E+00 -0.66678574795E+03  0.66678574796E+03  0.50400001928E-02 0.  1.
    10030    2    1    2    0    0  0.00000000000E+00  0.00000000000E+00  0.13164744354E+04  0.26500459313E+04  0.22999214115E+04 0.  0.
        3    1    3    3  502    0 -0.22633205602E+03 -0.22403289575E+03 -0.61496367504E+03  0.69252961654E+03  0.10100000352E+00 0.  1.
       -3    1    3    3    0  502  0.22633205602E+03  0.22403289575E+03  0.19314381104E+04  0.19575163147E+04  0.10100000352E+00 0. -1.
</event>
<event>
 5   0  0.7607231E-07  0.2299688E+04  0.7818609E-02  0.8478044E-01
        1   -1    0    0  501    0  0.00000000000E+00  0.00000000000E+00  0.14153494597E+04  0.14153494597E+04  0.50400001928E-02 0.  1.
       -1   -1    0    0    0  501  0.00000000000E+00  0.00000000000E+00 -0.93414495528E+03  0.93414495530E+03  0.50400001928E-02 0. -1.
    10030    2    1    2    0    0  0.00000000000E+00  0.00000000000E+00  0.48120450444E+03  0.23494944150E+04  0.22996882900E+04 0.  0.
        2    1    3    3  502    0 -0.29084226600E+02  0.10231579454E+04 -0.29461721993E+03  0.10651278702E+04  0.25500000920E-02 0. -1.
       -2    1    3    3    0  502  0.29084226600E+02 -0.10231579454E+04  0.77582172437E+03  0.12843665449E+04  0.25500000920E-02 0.  1.
</event>
<event>
 5   0  0.7607231E-07  0.2303470E+04  0.7818609E-02  0.8476554E-01
       -1   -1    0    0    0  501  0.00000000000E+00  0.00000000000E+00  0.49779090830E+03  0.49779090832E+03  0.50400001928E-02 0.  1.
        1   -1    0    0  501    0  0.00000000000E+00  0.00000000000E+00 -0.26647607473E+04  0.26647607473E+04  0.50400001928E-02 0. -1.
    10030    2    1    2    0    0  0.00000000000E+00  0.00000000000E+00 -0.21669698390E+04  0.31625516556E+04  0.23034701412E+04 0.  0.
        2    1    3    3  502    0  0.34055389808E+03  0.90040543921E+03 -0.21538594228E+03  0.98645730602E+03  0.25500000920E-02 0.  1.
       -2    1    3    3    0  502 -0.34055389808E+03 -0.90040543921E+03 -0.19515838967E+04  0.21760943496E+04  0.25500000920E-02 0. -1.
</event>
<event>
 5   0  0.7761069E-07  0.2299522E+04  0.7818609E-02  0.8478110E-01
        1   -1    0    0  501    0  0.00000000000E+00  0.00000000000E+00  0.16089922807E+04  0.16089922807E+04  0.50400001928E-02 0. -1.
       -1   -1    0    0    0  501  0.00000000000E+00  0.00000000000E+00 -0.82160136479E+03  0.82160136481E+03  0.50400001928E-02 0.  1.
    10030    2    1    2    0    0  0.00000000000E+00  0.00000000000E+00  0.78739091589E+03  0.24305936455E+04  0.22995219101E+04 0.  0.
        1    1    3    3  502    0  0.92228254550E+01  0.83764376721E+03  0.12261241264E+04  0.14849621257E+04  0.50400001928E-02 0. -1.
       -1    1    3    3    0  502 -0.92228254550E+01 -0.83764376721E+03 -0.43873321053E+03  0.94563151983E+03  0.50400001928E-02 0.  1.
</event>
<event>
 5   0  0.7932912E-07  0.2299567E+04  0.7818609E-02  0.8478092E-01
        1   -1    0    0  501    0  0.00000000000E+00  0.00000000000E+00  0.77554410919E+03  0.77554410921E+03  0.50400001928E-02 0.  1.
       -1   -1    0    0    0  501  0.00000000000E+00  0.00000000000E+00 -0.17046116519E+04  0.17046116519E+04  0.50400001928E-02 0. -1.
    10030    2    1    2    0    0  0.00000000000E+00  0.00000000000E+00 -0.92906754274E+03  0.24801557612E+04  0.22995665028E+04 0.  0.
        5    1    3    3  502    0  0.44707630954E+01  0.22887107508E+03 -0.16797752592E+04  0.16953079273E+04  0.46999998093E+01 0. -1.
       -5    1    3    3    0  502 -0.44707630954E+01 -0.22887107508E+03  0.75070771650E+03  0.78484783388E+03  0.46999998093E+01 0.  1.
</event>
<event>
 5   0  0.7607231E-07  0.2298479E+04  0.7818609E-02  0.8478521E-01
        1   -1    0    0  501    0  0.00000000000E+00  0.00000000000E+00  0.13135176500E+04  0.13135176500E+04  0.50400001928E-02 0. -1.
       -1   -1    0    0    0  501  0.00000000000E+00  0.00000000000E+00 -0.10055074332E+04  0.10055074333E+04  0.50400001928E-02 0.  1.
    10030    2    1    2    0    0  0.00000000000E+00  0.00000000000E+00  0.30801021671E+03  0.23190250832E+04  0.22984792892E+04 0.  0.
        2    1    3    3  502    0 -0.18513759558E+03 -0.70050484731E+03 -0.74602762051E+03  0.10399712405E+04  0.25500000920E-02 0.  1.
       -2    1    3    3    0  502  0.18513759558E+03  0.70050484731E+03  0.10540378372E+04  0.12790538428E+04  0.25500000920E-02 0. -1.
</event>
<event>
 5   0  0.1689444E-06  0.2299154E+04  0.7818609E-02  0.8478255E-01
       -2   -1    0    0    0  501  0.00000000000E+00  0.00000000000E+00  0.80798264999E+03  0.80798265000E+03  0.25500000920E-02 0. -1.
        2   -1    0    0  501    0  0.00000000000E+00  0.00000000000E+00 -0.16355882614E+04  0.16355882614E+04  0.25500000920E-02 0.  1.
    10030    2    1    2    0    0  0.00000000000E+00  0.00000000000E+00 -0.82760561140E+03  0.24435709114E+04  0.22991537032E+04 0.  0.
        2    1    3    3  502    0 -0.38467238033E+03  0.94110123180E+03  0.15644631685E+03  0.10286495121E+04  0.25500000920E-02 0. -1.
       -2    1    3    3    0  502  0.38467238033E+03 -0.94110123180E+03 -0.98405192826E+03  0.14149213993E+04  0.25500000920E-02 0.  1.
</event>
<event>
 5   0  0.1888779E-06  0.2297798E+04  0.7818609E-02  0.8478790E-01
        2   -1    0    0  501    0  0.00000000000E+00  0.00000000000E+00  0.16662447001E+04  0.16662447001E+04  0.25500000920E-02 0.  1.
       -2   -1    0    0    0  501  0.00000000000E+00  0.00000000000E+00 -0.79218202801E+03  0.79218202802E+03  0.25500000920E-02 0. -1.
    10030    2    1    2    0    0  0.00000000000E+00  0.00000000000E+00  0.87406267206E+03  0.24584267281E+04  0.22977981684E+04 0.  0.
        4    1    3    3  502    0 -0.10789359937E+04  0.13072094495E+02  0.85919510452E+03  0.13793083770E+04  0.12699999809E+01 0.  1.
       -4    1    3    3    0  502  0.10789359937E+04 -0.13072094495E+02  0.14867567539E+02  0.10791183511E+04  0.12699999809E+01 0. -1.
</event>
<event>
 5   0  0.1744876E-06  0.2299879E+04  0.7818609E-02  0.8477969E-01
        2   -1    0    0  501    0  0.00000000000E+00  0.00000000000E+00  0.10025060168E+04  0.10025060168E+04  0.25500000920E-02 0.  1.
       -2   -1    0    0    0  501  0.00000000000E+00  0.00000000000E+00 -0.13190552957E+04  0.13190552957E+04  0.25500000920E-02 0. -1.
    10030    2    1    2    0    0  0.00000000000E+00  0.00000000000E+00 -0.31654927891E+03  0.23215613125E+04  0.22998790146E+04 0.  0.
        1    1    3    3  502    0  0.27080044907E+03 -0.85783992827E+03  0.56481564907E+03  0.10621859269E+04  0.50400001928E-02 0.  1.
       -1    1    3    3    0  502 -0.27080044907E+03  0.85783992827E+03 -0.88136492798E+03  0.12593753857E+04  0.50400001928E-02 0. -1.
</event>
<event>
 5   0  0.8108242E-07  0.2300475E+04  0.7818609E-02  0.8477734E-01
        1   -1    0    0  501    0  0.00000000000E+00  0.00000000000E+00  0.15754383352E+04  0.15754383352E+04  0.50400001928E-02 0.  1.
       -1   -1    0    0    0  501  0.00000000000E+00  0.00000000000E+00 -0.83979561482E+03  0.83979561484E+03  0.50400001928E-02 0. -1.
    10030    2    1    2    0    0  0.00000000000E+00  0.00000000000E+00  0.73564272033E+03  0.24152339500E+04  0.23004749121E+04 0.  0.
        4    1    3    3  502    0  0.20270286454E+02  0.66655695545E+03  0.13517688669E+04  0.15073120917E+04  0.12699999809E+01 0.  1.
       -4    1    3    3    0  502 -0.20270286454E+02 -0.66655695545E+03 -0.61612614657E+03  0.90792185829E+03  0.12699999809E+01 0. -1.
</event>
<event>
 5   0  0.8108242E-07  0.2299520E+04  0.7818609E-02  0.8478111E-01
       -1   -1    0    0    0  501  0.00000000000E+00  0.00000000000E+00  0.12276292057E+04  0.12276292057E+04  0.50400001928E-02 0.  1.
        1   -1    0    0  501    0  0.00000000000E+00  0.00000000000E+00 -0.10768296709E+04  0.10768296709E+04  0.50400001928E-02 0. -1.
    10030    2    1    2    0    0  0.00000000000E+00  0.00000000000E+00  0.15079953476E+03  0.23044588766E+04  0.22995195616E+04 0.  0.
        4    1    3    3  502    0  0.91191495751E+03 -0.62254652896E+03  0.39670170933E+03  0.11732548442E+04  0.12699999809E+01 0.  1.
       -4    1    3    3    0  502 -0.91191495751E+03  0.62254652896E+03 -0.24590217457E+03  0.11312040324E+04  0.12699999809E+01 0. -1.
</event>
<event>
 5   0  0.1825521E-06  0.2300920E+04  0.7818609E-02  0.8477559E-01
       -2   -1    0    0    0  501  0.00000000000E+00  0.00000000000E+00  0.55027004317E+03  0.55027004318E+03  0.25500000920E-02 0. -1.
        2   -1    0    0  501    0  0.00000000000E+00  0.00000000000E+00 -0.24052879191E+04  0.24052879191E+04  0.25500000920E-02 0.  1.
    10030    2    1    2    0    0  0.00000000000E+00  0.00000000000E+00 -0.18550178759E+04  0.29555579622E+04  0.23009197179E+04 0.  0.
        5    1    3    3  502    0  0.89838813146E+02  0.70735807572E+03 -0.20872097175E+04  0.22056502339E+04  0.46999998093E+01 0.  1.
       -5    1    3    3    0  502 -0.89838813146E+02 -0.70735807572E+03  0.23219184162E+03  0.74990772829E+03  0.46999998093E+01 0. -1.
</event>
<event>
 5   0  0.7932912E-07  0.2303579E+04  0.7818609E-02  0.8476511E-01
       -1   -1    0    0    0  501  0.00000000000E+00  0.00000000000E+00  0.12729561762E+04  0.12729561762E+04  0.50400001928E-02 0.  1.
        1   -1    0    0  501    0  0.00000000000E+00  0.00000000000E+00 -0.10421563421E+04  0.10421563421E+04  0.50400001928E-02 0. -1.
    10030    2    1    2    0    0  0.00000000000E+00  0.00000000000E+00  0.23079983409E+03  0.23151125183E+04  0.23035792604E+04 0.  0.
        5    1    3    3  502    0 -0.39416773403E+03  0.73300677069E+03 -0.68478367472E+03  0.10777837907E+04  0.46999998093E+01 0. -1.
       -5    1    3    3    0  502  0.39416773403E+03 -0.73300677069E+03  0.91558350882E+03  0.12373287276E+04  0.46999998093E+01 0.  1.
</event>
<event>
 5   0  0.7932912E-07  0.2299415E+04  0.7818609E-02  0.8478152E-01
       -1   -1    0    0    0  501  0.00000000000E+00  0.00000000000E+00  0.12887751140E+04  0.12887751140E+04  0.50400001928E-02 0.  1.
        1   -1    0    0  501    0  0.00000000000E+00  0.00000000000E+00 -0.10256462984E+04  0.10256462984E+04  0.50400001928E-02 0. -1.
    10030    2    1    2    0    0  0.00000000000E+00  0.00000000000E+00  0.26312881556E+03  0.23144214124E+04  0.22994150779E+04 0.  0.
        5    1    3    3  502    0 -0.10138910809E+04  0.47741765389E+03 -0.12682596105E+03  0.11278340545E+04  0.46999998093E+01 0. -1.
       -5    1    3    3    0  502  0.10138910809E+04 -0.47741765389E+03  0.38995477662E+03  0.11865873579E+04  0.46999998093E+01 0.  1.
</event>
<event>
 5   0  0.1689444E-06  0.2300328E+04  0.7818609E-02  0.8477792E-01
        2   -1    0    0  501    0  0.00000000000E+00  0.00000000000E+00  0.16704519783E+04  0.16704519783E+04  0.25500000920E-02 0.  1.
       -2   -1    0    0    0  501  0.00000000000E+00  0.00000000000E+00 -0.79192770209E+03  0.79192770210E+03  0.25500000920E-02 0. -1.
    10030    2    1    2    0    0  0.00000000000E+00  0.00000000000E+00  0.87852427620E+03  0.24623796804E+04  0.23003279737E+04 0.  0.
        2    1    3    3  502    0 -0.90633388177E+03 -0.23919565834E+03  0.11527146296E+04  0.14857343926E+04  0.25500000920E-02 0.  1.
       -2    1    3    3    0  502  0.90633388177E+03  0.23919565834E+03 -0.27419035338E+03  0.97664528776E+03  0.25500000920E-02 0. -1.
</event>
<event>
 5   0  0.8097672E-07  0.2300681E+04  0.7818609E-02  0.8477653E-01
        1   -1    0    0  501    0  0.00000000000E+00  0.00000000000E+00  0.21882887125E+04  0.21882887125E+04  0.50400001928E-02 0. -1.
       -1   -1    0    0    0  501  0.00000000000E+00  0.00000000000E+00 -0.60471149230E+03  0.60471149233E+03  0.50400001928E-02 0.  1.
    10030    2    1    2    0    0  0.00000000000E+00  0.00000000000E+00  0.15835772202E+04  0.27930002048E+04  0.23006810583E+04 0.  0.
        3    1    3    3  502    0 -0.10626916427E+04 -0.59178989530E+02  0.26197250733E+03  0.10961045959E+04  0.10100000352E+00 0.  1.
       -3    1    3    3    0  502  0.10626916427E+04  0.59178989530E+02  0.13216047128E+04  0.16968956089E+04  0.10100000352E+00 0. -1.
</event>
<event>
 5   0  0.1828646E-06  0.2299321E+04  0.7818609E-02  0.8478189E-01
        2   -1    0    0  501    0  0.00000000000E+00  0.00000000000E+00  0.13969104434E+04  0.13969104434E+04  0.25500000920E-02 0. -1.
       -2   -1    0    0    0  501  0.00000000000E+00  0.00000000000E+00 -0.94617335149E+03  0.94617335150E+03  0.25500000920E-02 0.  1.
    10030    2    1    2    0    0  0.00000000000E+00  0.00000000000E+00  0.45073709192E+03  0.23430837949E+04  0.22993211485E+04 0.  0.
        3    1    3    3  502    0  0.36733609945E+03 -0.79172107360E+03  0.98791659694E+03  0.13182326354E+04  0.10100000352E+00 0. -1.
       -3    1    3    3    0  502 -0.36733609945E+03  0.79172107360E+03 -0.53717950502E+03  0.10248511595E+04  0.10100000352E+00 0.  1.
</event>
<event>
 5   0  0.6319125E-07  0.2300560E+04  0.7818609E-02  0.8477700E-01
       -3   -1    0    0    0  501  0.00000000000E+00  0.00000000000E+00  0.19007358115E+04  0.19007358142E+04  0.10100000352E+00 0.  1.
        3   -1    0    0  501    0  0.00000000000E+00  0.00000000000E+00 -0.69612206383E+03  0.69612207116E+03  0.10100000352E+00 0. -1.
    10030    2    1    2    0    0  0.00000000000E+00  0.00000000000E+00  0.12046137477E+04  0.25968578854E+04  0.23005600613E+04 0.  0.
        5    1    3    3  502    0  0.82855509311E+03  0.90418359259E+02  0.14971513604E+04  0.17135236526E+04  0.46999998093E+01 0.  1.
       -5    1    3    3    0  502 -0.82855509311E+03 -0.90418359259E+02 -0.29253761269E+03  0.88333423281E+03  0.46999998093E+01 0. -1.
</event>
<event>
 5   0  0.1888779E-06  0.2299694E+04  0.7818609E-02  0.8478042E-01
        2   -1    0    0  501    0  0.00000000000E+00  0.00000000000E+00  0.65281903894E+03  0.65281903894E+03  0.25500000920E-02 0.  1.
       -2   -1    0    0    0  501  0.00000000000E+00  0.00000000000E+00 -0.20252906036E+04  0.20252906036E+04  0.25500000920E-02 0. -1.
    10030    2    1    2    0    0  0.00000000000E+00  0.00000000000E+00 -0.13724715646E+04  0.26781096425E+04  0.22996941235E+04 0.  0.
        4    1    3    3  502    0 -0.84330776011E+02  0.18525799707E+02  0.64903777734E+03  0.65475685132E+03  0.12699999809E+01 0.  1.
       -4    1    3    3    0  502  0.84330776011E+02 -0.18525799707E+02 -0.20215093420E+04  0.20233527912E+04  0.12699999809E+01 0. -1.
</event>
<event>
 5   0  0.1888779E-06  0.2302174E+04  0.7818609E-02  0.8477064E-01
        2   -1    0    0  501    0  0.00000000000E+00  0.00000000000E+00  0.12252113669E+04  0.12252113669E+04  0.25500000920E-02 0.  1.
       -2   -1    0    0    0  501  0.00000000000E+00  0.00000000000E+00 -0.10814470040E+04  0.10814470040E+04  0.25500000920E-02 0. -1.
    10030    2    1    2    0    0  0.00000000000E+00  0.00000000000E+00  0.14376436293E+03  0.23066583709E+04  0.23021738961E+04 0.  0.
        4    1    3    3  502    0 -0.31595762575E+03 -0.19132452562E+03  0.11642192397E+04  0.12214099829E+04  0.12699999809E+01 0.  1.
       -4    1    3    3    0  502  0.31595762575E+03  0.19132452562E+03 -0.10204548767E+04  0.10852483880E+04  0.12699999809E+01 0. -1.
</event>
<event>
 5   0  0.7607231E-07  0.2300969E+04  0.7818609E-02  0.8477539E-01
        1   -1    0    0  501    0  0.00000000000E+00  0.00000000000E+00  0.81552889817E+03  0.81552889819E+03  0.50400001928E-02 0. -1.
       -1   -1    0    0    0  501  0.00000000000E+00  0.00000000000E+00 -0.16230131612E+04  0.16230131612E+04  0.50400001928E-02 0.  1.
    10030    2    1    2    0    0  0.00000000000E+00  0.00000000000E+00 -0.80748426301E+03  0.24385420594E+04  0.23009686092E+04 0.  0.
        2    1    3    3  502    0 -0.19559415740E+03  0.10248831809E+04 -0.91746296148E+03  0.13893814792E+04  0.25500000920E-02 0.  1.
       -2    1    3    3    0  502  0.19559415740E+03 -0.10248831809E+04  0.10997869848E+03  0.10491605802E+04  0.25500000920E-02 0. -1.
</event>
<event>
 5   0  0.1744876E-06  0.2299989E+04  0.7818609E-02  0.8477925E-01
       -2   -1    0    0    0  501  0.00000000000E+00  0.00000000000E+00  0.89694268719E+03  0.89694268720E+03  0.25500000920E-02 0. -1.
        2   -1    0    0  501    0  0.00000000000E+00  0.00000000000E+00 -0.14744390955E+04  0.14744390955E+04  0.25500000920E-02 0.  1.
    10030    2    1    2    0    0  0.00000000000E+00  0.00000000000E+00 -0.57749640835E+03  0.23713817827E+04  0.22999890126E+04 0.  0.
        1    1    3    3  502    0  0.17014839248E+03 -0.70849464352E+03  0.62857207086E+03  0.96229828205E+03  0.50400001928E-02 0. -1.
       -1    1    3    3    0  502 -0.17014839248E+03  0.70849464352E+03 -0.12060684792E+04  0.14090835007E+04  0.50400001928E-02 0.  1.
</event>
<event>
 5   0  0.7761069E-07  0.2298143E+04  0.7818609E-02  0.8478654E-01
       -1   -1    0    0    0  501  0.00000000000E+00  0.00000000000E+00  0.13368629819E+04  0.13368629820E+04  0.50400001928E-02 0.  1.
        1   -1    0    0  501    0  0.00000000000E+00  0.00000000000E+00 -0.98765915987E+03  0.98765915989E+03  0.50400001928E-02 0. -1.
    10030    2    1    2    0    0  0.00000000000E+00  0.00000000000E+00  0.34920382207E+03  0.23245221418E+04  0.22981427020E+04 0.  0.
        1    1    3    3  502    0 -0.23437775290E+03  0.27613377497E+03 -0.92841174827E+03  0.99655966559E+03  0.50400001928E-02 0. -1.
       -1    1    3    3    0  502  0.23437775290E+03 -0.27613377497E+03  0.12776155703E+04  0.13279624762E+04  0.50400001928E-02 0.  1.
</event>
<event>
 5   0  0.7932912E-07  0.2298872E+04  0.7818609E-02  0.8478366E-01
       -1   -1    0    0    0  501  0.00000000000E+00  0.00000000000E+00  0.15236707693E+04  0.15236707693E+04  0.50400001928E-02 0.  1.
        1   -1    0    0  501    0  0.00000000000E+00  0.00000000000E+00 -0.86711886737E+03  0.86711886738E+03  0.50400001928E-02 0. -1.
    10030    2    1    2    0    0  0.00000000000E+00  0.00000000000E+00  0.65655190195E+03  0.23907896367E+04  0.22988724817E+04 0.  0.
        5    1    3    3  502    0  0.17373438990E+03  0.50069165287E+03 -0.73245928446E+03  0.90409870196E+03  0.46999998093E+01 0. -1.
       -5    1    3    3    0  502 -0.17373438990E+03 -0.50069165287E+03  0.13890111864E+04  0.14866909348E+04  0.46999998093E+01 0.  1.
</event>
<event>
 5   0  0.1744876E-06  0.2297731E+04  0.7818609E-02  0.8478816E-01
        2   -1    0    0  501    0  0.00000000000E+00  0.00000000000E+00  0.10519057404E+04  0.10519057404E+04  0.25500000920E-02 0.  1.
       -2   -1    0    0    0  501  0.00000000000E+00  0.00000000000E+00 -0.12547622051E+04  0.12547622051E+04  0.25500000920E-02 0. -1.
    10030    2    1    2    0    0  0.00000000000E+00  0.00000000000E+00 -0.20285646466E+03  0.23066679455E+04  0.22977306773E+04 0.  0.
        1    1    3    3  502    0 -0.10311197167E+04  0.38955027805E+03  0.22376735623E+03  0.11247351328E+04  0.50400001928E-02 0.  1.
       -1    1    3    3    0  502  0.10311197167E+04 -0.38955027805E+03 -0.42662382089E+03  0.11819328127E+04  0.50400001928E-02 0. -1.
</event>
<event>
 5   0  0.7932912E-07  0.2299856E+04  0.7818609E-02  0.8477978E-01
       -1   -1    0    0    0  501  0.00000000000E+00  0.00000000000E+00  0.74046080948E+03  0.74046080950E+03  0.50400001928E-02 0. -1.
        1   -1    0    0  501    0  0.00000000000E+00  0.00000000000E+00 -0.17858261459E+04  0.17858261459E+04  0.50400001928E-02 0.  1.
    10030    2    1    2    0    0  0.00000000000E+00  0.00000000000E+00 -0.10453653364E+04  0.25262869554E+04  0.22998558856E+04 0.  0.
        5    1    3    3  502    0  0.69497656974E+03 -0.41392916275E+03  0.37508625163E+03  0.89165103623E+03  0.46999998093E+01 0. -1.
       -5    1    3    3    0  502 -0.69497656974E+03  0.41392916275E+03 -0.14204515880E+04  0.16346359192E+04  0.46999998093E+01 0.  1.
</event>
<event>
 5   0  0.8097672E-07  0.2300101E+04  0.7818609E-02  0.8477881E-01
        1   -1    0    0  501    0  0.00000000000E+00  0.00000000000E+00  0.17651596604E+04  0.17651596604E+04  0.50400001928E-02 0. -1.
       -1   -1    0    0    0  501  0.00000000000E+00  0.00000000000E+00 -0.74928948820E+03  0.74928948822E+03  0.50400001928E-02 0.  1.
    10030    2    1    2    0    0  0.00000000000E+00  0.00000000000E+00  0.10158701722E+04  0.25144491486E+04  0.23001005009E+04 0.  0.
        3    1    3    3  502    0  0.83405174270E+03  0.73509220864E+03  0.18620858029E+03  0.11272428799E+04  0.10100000352E+00 0.  1.
       -3    1    3    3    0  502 -0.83405174270E+03 -0.73509220864E+03  0.82966159188E+03  0.13872062687E+04  0.10100000352E+00 0. -1.
</event>
<event>
 5   0  0.8108242E-07  0.2300400E+04  0.7818609E-02  0.8477764E-01
        1   -1    0    0  501    0  0.00000000000E+00  0.00000000000E+00  0.96818820327E+03  0.96818820329E+03  0.50400001928E-02 0. -1.
       -1   -1    0    0    0  501  0.00000000000E+00  0.00000000000E+00 -0.13664280773E+04  0.13664280773E+04  0.50400001928E-02 0.  1.
    10030    2    1    2    0    0  0.00000000000E+00  0.00000000000E+00 -0.39823987405E+03  0.23346162806E+04  0.23003995697E+04 0.  0.
        4    1    3    3  502    0  0.65722390316E+03 -0.87420252979E+03  0.16224457651E+03  0.11056664223E+04  0.12699999809E+01 0. -1.
       -4    1    3    3    0  502 -0.65722390316E+03  0.87420252979E+03 -0.56048445056E+03  0.12289498583E+04  0.12699999809E+01 0.  1.
</event>
<event>
 5   0  0.1825521E-06  0.2299651E+04  0.7818609E-02  0.8478059E-01
        2   -1    0    0  501    0  0.00000000000E+00  0.00000000000E+00  0.14913504905E+04  0.14913504905E+04  0.25500000920E-02 0.  1.
       -2   -1    0    0    0  501  0.00000000000E+00  0.00000000000E+00 -0.88651120060E+03  0.88651120061E+03  0.25500000920E-02 0. -1.
    10030    2    1    2    0    0  0.00000000000E+00  0.00000000000E+00  0.60483928993E+03  0.23778616911E+04  0.22996512030E+04 0.  0.
        5    1    3    3  502    0  0.10675476811E+04  0.21237856312E+03 -0.80742165479E+02  0.10914687778E+04  0.46999998093E+01 0. -1.
       -5    1    3    3    0  502 -0.10675476811E+04 -0.21237856312E+03  0.68558145541E+03  0.12863929134E+04  0.46999998093E+01 0.  1.
</event>
<event>
 5   0  0.1744876E-06  0.2299654E+04  0.7818609E-02  0.8478057E-01
       -2   -1    0    0    0  501  0.00000000000E+00  0.00000000000E+00  0.12090168518E+04  0.12090168518E+04  0.25500000920E-02 0. -1.
        2   -1    0    0  501    0  0.00000000000E+00  0.00000000000E+00 -0.10935351237E+04  0.10935351237E+04  0.25500000920E-02 0.  1.
    10030    2    1    2    0    0  0.00000000000E+00  0.00000000000E+00  0.11548172807E+03  0.23025519756E+04  0.22996542285E+04 0.  0.
        1    1    3    3  502    0 -0.65985170169E+03  0.40358334106E+03 -0.79410648053E+03  0.11085526076E+04  0.50400001928E-02 0.  1.
       -1    1    3    3    0  502  0.65985170169E+03 -0.40358334106E+03  0.90958820860E+03  0.11939993679E+04  0.50400001928E-02 0. -1.
</event>
<event>
 5   0  0.7607231E-07  0.2299540E+04  0.7818609E-02  0.8478102E-01
        1   -1    0    0  501    0  0.00000000000E+00  0.00000000000E+00  0.24593529114E+04  0.24593529114E+04  0.50400001928E-02 0.  1.
       -1   -1    0    0    0  501  0.00000000000E+00  0.00000000000E+00 -0.53752810468E+03  0.53752810471E+03  0.50400001928E-02 0. -1.
    10030    2    1    2    0    0  0.00000000000E+00  0.00000000000E+00  0.19218248067E+04  0.29968810161E+04  0.22995402230E+04 0.  0.
        2    1    3    3  502    0  0.43301280214E+03  0.59521309557E+03 -0.19023092725E+03  0.76024109441E+03  0.25500000920E-02 0. -1.
       -2    1    3    3    0  502 -0.43301280214E+03 -0.59521309557E+03  0.21120557340E+04  0.22366399217E+04  0.25500000920E-02 0.  1.
</event>
<event>
 5   0  0.7932912E-07  0.2299214E+04  0.7818609E-02  0.8478231E-01
        1   -1    0    0  501    0  0.00000000000E+00  0.00000000000E+00  0.13040935062E+04  0.13040935062E+04  0.50400001928E-02 0. -1.
       -1   -1    0    0    0  501  0.00000000000E+00  0.00000000000E+00 -0.10134209943E+04  0.10134209943E+04  0.50400001928E-02 0.  1.
    10030    2    1    2    0    0  0.00000000000E+00  0.00000000000E+00  0.29067251188E+03  0.23175145006E+04  0.22992135506E+04 0.  0.
        5    1    3    3  502    0 -0.10710941896E+04 -0.27052363094E+03  0.46590522277E+03  0.11989643717E+04  0.46999998093E+01 0. -1.
       -5    1    3    3    0  502  0.10710941896E+04  0.27052363094E+03 -0.17523271089E+03  0.11185501289E+04  0.46999998093E+01 0.  1.
</event>
<event>
 5   0  0.1828646E-06  0.2301567E+04  0.7818609E-02  0.8477303E-01
        2   -1    0    0  501    0  0.00000000000E+00  0.00000000000E+00  0.30159778355E+04  0.30159778355E+04  0.25500000920E-02 0. -1.
       -2   -1    0    0    0  501  0.00000000000E+00  0.00000000000E+00 -0.43909573819E+03  0.43909573820E+03  0.25500000920E-02 0.  1.
    10030    2    1    2    0    0  0.00000000000E+00  0.00000000000E+00  0.25768820973E+04  0.34550735737E+04  0.23015673043E+04 0.  0.
        3    1    3    3  502    0  0.37763674377E+03 -0.21881199166E+03  0.28869117573E+04  0.29197170587E+04  0.10100000352E+00 0. -1.
       -3    1    3    3    0  502 -0.37763674377E+03  0.21881199166E+03 -0.31002965999E+03  0.53535651506E+03  0.10100000352E+00 0.  1.
</event>
<event>
 5   0  0.1744876E-06  0.2301461E+04  0.7818609E-02  0.8477345E-01
        2   -1    0    0  501    0  0.00000000000E+00  0.00000000000E+00  0.14995431353E+04  0.14995431353E+04  0.25500000920E-02 0. -1.
       -2   -1    0    0    0  501  0.00000000000E+00  0.00000000000E+00 -0.88305595679E+03  0.88305595679E+03  0.25500000920E-02 0.  1.
    10030    2    1    2    0    0  0.00000000000E+00  0.00000000000E+00  0.61648717853E+03  0.23825990921E+04  0.23014608388E+04 0.  0.
        1    1    3    3  502    0 -0.88970927929E+03 -0.87423893041E+01  0.10637113616E+04  0.13867735547E+04  0.50400001928E-02 0. -1.
       -1    1    3    3    0  502  0.88970927929E+03  0.87423893041E+01 -0.44722418312E+03  0.99582553744E+03  0.50400001928E-02 0.  1.
</event>
<event>
 5   0  0.7932912E-07  0.2301079E+04  0.7818609E-02  0.8477496E-01
       -1   -1    0    0    0  501  0.00000000000E+00  0.00000000000E+00  0.86344761015E+03  0.86344761017E+03  0.50400001928E-02 0. -1.
        1   -1    0    0  501    0  0.00000000000E+00  0.00000000000E+00 -0.15330885611E+04  0.15330885611E+04  0.50400001928E-02 0.  1.
    10030    2    1    2    0    0  0.00000000000E+00  0.00000000000E+00 -0.66964095091E+03  0.23965361712E+04  0.23010794460E+04 0.  0.
        5    1    3    3  502    0  0.19554609548E+03  0.69343330539E+02  0.84379317430E+03  0.86893945931E+03  0.46999998093E+01 0. -1.
       -5    1    3    3    0  502 -0.19554609548E+03 -0.69343330539E+02 -0.15134341252E+04  0.15275967119E+04  0.46999998093E+01 0.  1.
</event>
<event>
 5   0  0.7607231E-07  0.2299079E+04  0.7818609E-02  0.8478284E-01
       -1   -1    0    0    0  501  0.00000000000E+00  0.00000000000E+00  0.60661807881E+03  0.60661807883E+03  0.50400001928E-02 0. -1.
        1   -1    0    0  501    0  0.00000000000E+00  0.00000000000E+00 -0.21783741368E+04  0.21783741368E+04  0.50400001928E-02 0.  1.
    10030    2    1    2    0    0  0.00000000000E+00  0.00000000000E+00 -0.15717560580E+04  0.27849922157E+04  0.22990790624E+04 0.  0.
        2    1    3    3  502    0  0.70009587698E+02  0.10937365307E+04 -0.12059920124E+04  0.16295943284E+04  0.25500000920E-02 0.  1.
       -2    1    3    3    0  502 -0.70009587698E+02 -0.10937365307E+04 -0.36576404557E+03  0.11553978873E+04  0.25500000920E-02 0. -1.
</event>
<event>
 5   0  0.7932912E-07  0.2317365E+04  0.7818609E-02  0.8471106E-01
       -1   -1    0    0    0  501  0.00000000000E+00  0.00000000000E+00  0.91924372856E+03  0.91924372857E+03  0.50400001928E-02 0.  1.
        1   -1    0    0  501    0  0.00000000000E+00  0.00000000000E+00 -0.14604892164E+04  0.14604892164E+04  0.50400001928E-02 0. -1.
    10030    2    1    2    0    0  0.00000000000E+00  0.00000000000E+00 -0.54124548787E+03  0.23797329450E+04  0.23173653599E+04 0.  0.
        5    1    3    3  502    0  0.64146495634E+02  0.41742457376E+03  0.83738056862E+03  0.93786265219E+03  0.46999998093E+01 0.  1.
       -5    1    3    3    0  502 -0.64146495634E+02 -0.41742457376E+03 -0.13786260565E+04  0.14418702928E+04  0.46999998093E+01 0. -1.
</event>
<event>
 5   0  0.7607231E-07  0.2298027E+04  0.7818609E-02  0.8478700E-01
       -1   -1    0    0    0  501  0.00000000000E+00  0.00000000000E+00  0.12269664297E+04  0.12269664297E+04  0.50400001928E-02 0. -1.
        1   -1    0    0  501    0  0.00000000000E+00  0.00000000000E+00 -0.10760128751E+04  0.10760128751E+04  0.50400001928E-02 0.  1.
    10030    2    1    2    0    0  0.00000000000E+00  0.00000000000E+00  0.15095355463E+03  0.23029793048E+04  0.22980266976E+04 0.  0.
        2    1    3    3  502    0 -0.25707420796E+03 -0.22354933185E+03 -0.10242350791E+04  0.10794067581E+04  0.25500000920E-02 0.  1.
       -2    1    3    3    0  502  0.25707420796E+03  0.22354933185E+03  0.11751886337E+04  0.12235725467E+04  0.25500000920E-02 0. -1.
</event>
<event>
 5   0  0.7932912E-07  0.2297840E+04  0.7818609E-02  0.8478773E-01
       -1   -1    0    0    0  501  0.00000000000E+00  0.00000000000E+00  0.25268529124E+04  0.25268529124E+04  0.50400001928E-02 0. -1.
        1   -1    0    0  501    0  0.00000000000E+00  0.00000000000E+00 -0.52239569392E+03  0.52239569395E+03  0.50400001928E-02 0.  1.
    10030    2    1    2    0    0  0.00000000000E+00  0.00000000000E+00  0.20044572185E+04  0.30492486064E+04  0.22978399254E+04 0.  0.
        5    1    3    3  502    0 -0.39031990057E+03  0.19352951637E+02 -0.43147335111E+03  0.58216449929E+03  0.46999998093E+01 0.  1.
       -5    1    3    3    0  502  0.39031990057E+03 -0.19352951637E+02  0.24359305696E+04  0.24670841071E+04  0.46999998093E+01 0. -1.
</event>
<event>
 5   0  0.7607231E-07  0.2299964E+04  0.7818609E-02  0.8477935E-01
       -1   -1    0    0    0  501  0.00000000000E+00  0.00000000000E+00  0.99330660077E+03  0.99330660078E+03  0.50400001928E-02 0.  1.
        1   -1    0    0  501    0  0.00000000000E+00  0.00000000000E+00 -0.13313701413E+04  0.13313701413E+04  0.50400001928E-02 0. -1.
    10030    2    1    2    0    0  0.00000000000E+00  0.00000000000E+00 -0.33806354048E+03  0.23246767420E+04  0.22999641296E+04 0.  0.
        2    1    3    3  502    0 -0.29000762992E+03 -0.49642704513E+03  0.83761853619E+03  0.10159473651E+04  0.25500000920E-02 0.  1.
       -2    1    3    3    0  502  0.29000762992E+03  0.49642704513E+03 -0.11756820767E+04  0.13087293769E+04  0.25500000920E-02 0. -1.
</event>
<event>
 5   0  0.1828646E-06  0.2300877E+04  0.7818609E-02  0.8477576E-01
        2   -1    0    0  501    0  0.00000000000E+00  0.00000000000E+00  0.11177683775E+04  0.11177683775E+04  0.25500000920E-02 0.  1.
       -2   -1    0    0    0  501  0.00000000000E+00  0.00000000000E+00 -0.11840632027E+04  0.11840632027E+04  0.25500000920E-02 0. -1.
    10030    2    1    2    0    0  0.00000000000E+00  0.00000000000E+00 -0.66294825207E+02  0.23018315803E+04  0.23008767069E+04 0.  0.
        3    1    3    3  502    0 -0.42790735229E+03  0.10427124515E+04 -0.26379555137E+03  0.11575586645E+04  0.10100000352E+00 0. -1.
       -3    1    3    3    0  502  0.42790735229E+03 -0.10427124515E+04  0.19750072617E+03  0.11442729158E+04  0.10100000352E+00 0.  1.
</event>
<event>
 5   0  0.1689444E-06  0.2297922E+04  0.7818609E-02  0.8478741E-01
        2   -1    0    0  501    0  0.00000000000E+00  0.00000000000E+00  0.23597910423E+04  0.23597910423E+04  0.25500000920E-02 0.  1.
       -2   -1    0    0    0  501  0.00000000000E+00  0.00000000000E+00 -0.55941851881E+03  0.55941851881E+03  0.25500000920E-02 0. -1.
    10030    2    1    2    0    0  0.00000000000E+00  0.00000000000E+00  0.18003725235E+04  0.29192095611E+04  0.22979215040E+04 0.  0.
        2    1    3    3  502    0  0.10881420636E+04 -0.34999772255E+03  0.75225908436E+03  0.13683732262E+04  0.25500000920E-02 0.  1.
       -2    1    3    3    0  502 -0.10881420636E+04  0.34999772255E+03  0.10481134392E+04  0.15508363349E+04  0.25500000920E-02 0. -1.
</event>
<event>
 5   0  0.1744876E-06  0.2299320E+04  0.7818609E-02  0.8478189E-01
       -2   -1    0    0    0  501  0.00000000000E+00  0.00000000000E+00  0.65339052077E+03  0.65339052077E+03  0.25500000920E-02 0. -1.
        2   -1    0    0  501    0  0.00000000000E+00  0.00000000000E+00 -0.20228600705E+04  0.20228600705E+04  0.25500000920E-02 0.  1.
    10030    2    1    2    0    0  0.00000000000E+00  0.00000000000E+00 -0.13694695497E+04  0.26762505913E+04  0.22993195471E+04 0.  0.
        1    1    3    3  502    0 -0.93746722515E+03  0.63012977906E+03 -0.93385218165E+03  0.14656016628E+04  0.50400001928E-02 0.  1.
       -1    1    3    3    0  502  0.93746722515E+03 -0.63012977906E+03 -0.43561736807E+03  0.12106489285E+04  0.50400001928E-02 0. -1.
</event>
<event>
 5   0  0.7607231E-07  0.2299716E+04  0.7818609E-02  0.8478033E-01
       -1   -1    0    0    0  501  0.00000000000E+00  0.00000000000E+00  0.80429295178E+03  0.80429295179E+03  0.50400001928E-02 0.  1.
        1   -1    0    0  501    0  0.00000000000E+00  0.00000000000E+00 -0.16438958798E+04  0.16438958798E+04  0.50400001928E-02 0. -1.
    10030    2    1    2    0    0  0.00000000000E+00  0.00000000000E+00 -0.83960292803E+03  0.24481888316E+04  0.22997163909E+04 0.  0.
        2    1    3    3  502    0  0.49092550442E+03  0.10375701131E+04 -0.49211549405E+03  0.12488944110E+04  0.25500000920E-02 0. -1.
       -2    1    3    3    0  502 -0.49092550442E+03 -0.10375701131E+04 -0.34748743397E+03  0.11992944206E+04  0.25500000920E-02 0.  1.
</event>
<event>
 5   0  0.1888779E-06  0.2300835E+04  0.7818609E-02  0.8477592E-01
        2   -1    0    0  501    0  0.00000000000E+00  0.00000000000E+00  0.15662314057E+04  0.15662314057E+04  0.25500000920E-02 0. -1.
       -2   -1    0    0    0  501  0.00000000000E+00  0.00000000000E+00 -0.84499648638E+03  0.84499648638E+03  0.25500000920E-02 0.  1.
    10030    2    1    2    0    0  0.00000000000E+00  0.00000000000E+00  0.72123491934E+03  0.24112278921E+04  0.23008346613E+04 0.  0.
        4    1    3    3  502    0 -0.75119666059E+03  0.34555078639E+03 -0.47760685213E+03  0.95488831125E+03  0.12699999809E+01 0.  1.
       -4    1    3    3    0  502  0.75119666059E+03 -0.34555078639E+03  0.11988417715E+04  0.14563395809E+04  0.12699999809E+01 0. -1.
</event>
<event>
 5   0  0.7761069E-07  0.2300146E+04  0.7818609E-02  0.8477863E-01
        1   -1    0    0  501    0  0.00000000000E+00  0.00000000000E+00  0.13086543014E+04  0.13086543015E+04  0.50400001928E-02 0. -1.
       -1   -1    0    0    0  501  0.00000000000E+00  0.00000000000E+00 -0.10107085323E+04  0.10107085323E+04  0.50400001928E-02 0.  1.
    10030    2    1    2    0    0  0.00000000000E+00  0.00000000000E+00  0.29794576917E+03  0.23193628337E+04  0.23001461417E+04 0.  0.
        1    1    3    3  502    0 -0.59202550828E+03  0.81223423277E+01  0.11431654204E+04  0.12873955699E+04  0.50400001928E-02 0. -1.
       -1    1    3    3    0  502  0.59202550828E+03 -0.81223423277E+01 -0.84521965121E+03  0.10319672639E+04  0.50400001928E-02 0.  1.
</event>
<event>
 5   0  0.7607231E-07  0.2298824E+04  0.7818609E-02  0.8478385E-01
       -1   -1    0    0    0  501  0.00000000000E+00  0.00000000000E+00  0.12388736915E+04  0.12388736915E+04  0.50400001928E-02 0.  1.
        1   -1    0    0  501    0  0.00000000000E+00  0.00000000000E+00 -0.10664101072E+04  0.10664101072E+04  0.50400001928E-02 0. -1.
    10030    2    1    2    0    0  0.00000000000E+00  0.00000000000E+00  0.17246358432E+03  0.23052837986E+04  0.22988235479E+04 0.  0.
        2    1    3    3  502    0  0.16649035724E+03 -0.84247811092E+02  0.12235842676E+04  0.12377298545E+04  0.25500000920E-02 0.  1.
       -2    1    3    3    0  502 -0.16649035724E+03  0.84247811092E+02 -0.10511206833E+04  0.10675539441E+04  0.25500000920E-02 0. -1.
</event>
<event>
 5   0  0.1828646E-06  0.2300039E+04  0.7818609E-02  0.8477906E-01
       -2   -1    0    0    0  501  0.00000000000E+00  0.00000000000E+00  0.93076645812E+03  0.93076645812E+03  0.25500000920E-02 0.  1.
        2   -1    0    0  501    0  0.00000000000E+00  0.00000000000E+00 -0.14209200869E+04  0.14209200869E+04  0.25500000920E-02 0. -1.
    10030    2    1    2    0    0  0.00000000000E+00  0.00000000000E+00 -0.49015362881E+03  0.23516865451E+04  0.23000389184E+04 0.  0.
        3    1    3    3  502    0  0.42333611845E+03 -0.34833503749E+03 -0.12787146983E+04  0.13912807256E+04  0.10100000352E+00 0. -1.
       -3    1    3    3    0  502 -0.42333611845E+03  0.34833503749E+03  0.78856106950E+03  0.96040581946E+03  0.10100000352E+00 0.  1.
</event>
<event>
 5   0  0.7932912E-07  0.2300434E+04  0.7818609E-02  0.8477750E-01
        1   -1    0    0  501    0  0.00000000000E+00  0.00000000000E+00  0.90561270723E+03  0.90561270724E+03  0.50400001928E-02 0.  1.
       -1   -1    0    0    0  501  0.00000000000E+00  0.00000000000E+00 -0.14608885626E+04  0.14608885626E+04  0.50400001928E-02 0. -1.
    10030    2    1    2    0    0  0.00000000000E+00  0.00000000000E+00 -0.55527585536E+03  0.23665012698E+04  0.23004340861E+04 0.  0.
        5    1    3    3  502    0  0.73644979454E+03  0.43004821710E+03  0.51632916880E+03  0.99695419627E+03  0.46999998093E+01 0.  1.
       -5    1    3    3    0  502 -0.73644979454E+03 -0.43004821710E+03 -0.10716050242E+04  0.13695470736E+04  0.46999998093E+01 0. -1.
</event>
<event>
 5   0  0.1828646E-06  0.2298305E+04  0.7818609E-02  0.8478590E-01
       -2   -1    0    0    0  501  0.00000000000E+00  0.00000000000E+00  0.18378759828E+04  0.18378759828E+04  0.25500000920E-02 0. -1.
        2   -1    0    0  501    0  0.00000000000E+00  0.00000000000E+00 -0.71852026395E+03  0.71852026395E+03  0.25500000920E-02 0.  1.
    10030    2    1    2    0    0  0.00000000000E+00  0.00000000000E+00  0.11193557189E+04  0.25563962468E+04  0.22983047111E+04 0.  0.
        3    1    3    3  502    0  0.16301855652E+03 -0.10803198350E+04  0.16346740638E+03  0.11047115455E+04  0.10100000352E+00 0. -1.
       -3    1    3    3    0  502 -0.16301855652E+03  0.10803198350E+04  0.95588831252E+03  0.14516847013E+04  0.10100000352E+00 0.  1.
</event>
<event>
 5   0  0.8108242E-07  0.2299794E+04  0.7818609E-02  0.8478002E-01
        1   -1    0    0  501    0  0.00000000000E+00  0.00000000000E+00  0.10876717379E+04  0.10876717379E+04  0.50400001928E-02 0. -1.
       -1   -1    0    0    0  501  0.00000000000E+00  0.00000000000E+00 -0.12156817259E+04  0.12156817259E+04  0.50400001928E-02 0.  1.
    10030    2    1    2    0    0  0.00000000000E+00  0.00000000000E+00 -0.12800998795E+03  0.23033534638E+04  0.22997936043E+04 0.  0.
        4    1    3    3  502    0 -0.36060071788E+03 -0.10408194416E+04  0.26654079830E+03  0.11333064889E+04  0.12699999809E+01 0. -1.
       -4    1    3    3    0  502  0.36060071788E+03  0.10408194416E+04 -0.39455078625E+03  0.11700469749E+04  0.12699999809E+01 0.  1.
</event>
<event>
 5   0  0.7932912E-07  0.2300619E+04  0.7818609E-02  0.8477677E-01
        1   -1    0    0  501    0  0.00000000000E+00  0.00000000000E+00  0.63383204402E+03  0.63383204404E+03  0.50400001928E-02 0.  1.
       -1   -1    0    0    0  501  0.00000000000E+00  0.00000000000E+00 -0.20876379993E+04  0.20876379993E+04  0.50400001928E-02 0. -1.
    10030    2    1    2    0    0  0.00000000000E+00  0.00000000000E+00 -0.14538059553E+04  0.27214700434E+04  0.23006189257E+04 0.  0.
        5    1    3    3  502    0  0.71606497112E+03 -0.66456170386E+03 -0.85243141362E+01  0.97697802177E+03  0.46999998093E+01 0.  1.
       -5    1    3    3    0  502 -0.71606497112E+03  0.66456170386E+03 -0.14452816412E+04  0.17444920216E+04  0.46999998093E+01 0. -1.
</event>
<event>
 5   0  0.1828646E-06  0.2300114E+04  0.7818609E-02  0.8477876E-01
        2   -1    0    0  501    0  0.00000000000E+00  0.00000000000E+00  0.10908743883E+04  0.10908743883E+04  0.25500000920E-02 0.  1.
       -2   -1    0    0    0  501  0.00000000000E+00  0.00000000000E+00 -0.12124503401E+04  0.12124503401E+04  0.25500000920E-02 0. -1.
    10030    2    1    2    0    0  0.00000000000E+00  0.00000000000E+00 -0.12157595176E+03  0.23033247284E+04  0.23001139304E+04 0.  0.
        3    1    3    3  502    0 -0.98324408286E+03 -0.16212108396E+03  0.51410298841E+03  0.11213180036E+04  0.10100000352E+00 0.  1.
       -3    1    3    3    0  502  0.98324408286E+03  0.16212108396E+03 -0.63567894018E+03  0.11820067248E+04  0.10100000352E+00 0. -1.
</event>
<event>
 5   0  0.7761069E-07  0.2299700E+04  0.7818609E-02  0.8478039E-01
        1   -1    0    0  501    0  0.00000000000E+00  0.00000000000E+00  0.15258076791E+04  0.15258076792E+04  0.50400001928E-02 0. -1.
       -1   -1    0    0    0  501  0.00000000000E+00  0.00000000000E+00 -0.86652802059E+03  0.86652802060E+03  0.50400001928E-02 0.  1.
    10030    2    1    2    0    0  0.00000000000E+00  0.00000000000E+00  0.65927965856E+03  0.23923356998E+04  0.22997000744E+04 0.  0.
        1    1    3    3  502    0  0.24228783144E+03 -0.95182989270E+03  0.95161303478E+03  0.13675711703E+04  0.50400001928E-02 0. -1.
       -1    1    3    3    0  502 -0.24228783144E+03  0.95182989270E+03 -0.29233337623E+03  0.10247645294E+04  0.50400001928E-02 0.  1.
</event>
<event>
 5   0  0.1825521E-06  0.2300626E+04  0.7818609E-02  0.8477674E-01
        2   -1    0    0  501    0  0.00000000000E+00  0.00000000000E+00  0.69700044511E+03  0.69700044512E+03  0.25500000920E-02 0. -1.
       -2   -1    0    0    0  501  0.00000000000E+00  0.00000000000E+00 -0.18984486739E+04  0.18984486739E+04  0.25500000920E-02 0.  1.
    10030    2    1    2    0    0  0.00000000000E+00  0.00000000000E+00 -0.12014482288E+04  0.25954491190E+04  0.23006256286E+04 0.  0.
        5    1    3    3  502    0  0.58206255058E+03 -0.80329945599E+03 -0.12576816248E+04  0.16018339452E+04  0.46999998093E+01 0.  1.
       -5    1    3    3    0  502 -0.58206255058E+03  0.80329945599E+03  0.56233395983E+02  0.99361517380E+03  0.46999998093E+01 0. -1.
</event>
<event>
 5   0  0.7607231E-07  0.2300938E+04  0.7818609E-02  0.8477551E-01
       -1   -1    0    0    0  501  0.00000000000E+00  0.00000000000E+00  0.18910796943E+04  0.18910796943E+04  0.50400001928E-02 0. -1.
        1   -1    0    0  501    0  0.00000000000E+00  0.00000000000E+00 -0.69990630881E+03  0.69990630883E+03  0.50400001928E-02 0.  1.
    10030    2    1    2    0    0  0.00000000000E+00  0.00000000000E+00  0.11911733855E+04  0.25909860031E+04  0.23009377293E+04 0.  0.
        2    1    3    3  502    0  0.36369407349E+03 -0.89077517237E+03 -0.11465496256E+03  0.96896829011E+03  0.25500000920E-02 0.  1.
       -2    1    3    3    0  502 -0.36369407349E+03  0.89077517237E+03  0.13058283481E+04  0.16220177130E+04  0.25500000920E-02 0. -1.
</event>
<event>
 5   0  0.8097672E-07  0.2298840E+04  0.7818609E-02  0.8478379E-01
        1   -1    0    0  501    0  0.00000000000E+00  0.00000000000E+00  0.25400939135E+04  0.25400939135E+04  0.50400001928E-02 0.  1.
       -1   -1    0    0    0  501  0.00000000000E+00  0.00000000000E+00 -0.52012508558E+03  0.52012508561E+03  0.50400001928E-02 0. -1.
    10030    2    1    2    0    0  0.00000000000E+00  0.00000000000E+00  0.20199688279E+04  0.30602189991E+04  0.22988401982E+04 0.  0.
        3    1    3    3  502    0  0.83611265762E+03 -0.76687917601E+03  0.76460062302E+03  0.13681382130E+04  0.10100000352E+00 0.  1.
       -3    1    3    3    0  502 -0.83611265762E+03  0.76687917601E+03  0.12553682049E+04  0.16920807862E+04  0.10100000352E+00 0. -1.
</event>
<event>
 5   0  0.7932912E-07  0.2301399E+04  0.7818609E-02  0.8477370E-01
        1   -1    0    0  501    0  0.00000000000E+00  0.00000000000E+00  0.95731617383E+03  0.95731617385E+03  0.50400001928E-02 0.  1.
       -1   -1    0    0    0  501  0.00000000000E+00  0.00000000000E+00 -0.13831471753E+04  0.13831471753E+04  0.50400001928E-02 0. -1.
    10030    2    1    2    0    0  0.00000000000E+00  0.00000000000E+00 -0.42583100150E+03  0.23404633492E+04  0.23013988457E+04 0.  0.
        5    1    3    3  502    0 -0.80741031920E+03 -0.85732773198E+02  0.61629310587E+03  0.10193629453E+04  0.46999998093E+01 0.  1.
       -5    1    3    3    0  502  0.80741031920E+03  0.85732773198E+02 -0.10421241074E+04  0.13211004039E+04  0.46999998093E+01 0. -1.
</event>
<event>
 5   0  0.1689444E-06  0.2300999E+04  0.7818609E-02  0.8477527E-01
        2   -1    0    0  501    0  0.00000000000E+00  0.00000000000E+00  0.13013031536E+04  0.13013031536E+04  0.25500000920E-02 0. -1.
       -2   -1    0    0    0  501  0.00000000000E+00  0.00000000000E+00 -0.10171720763E+04  0.10171720763E+04  0.25500000920E-02 0.  1.
    10030    2    1    2    0    0  0.00000000000E+00  0.00000000000E+00  0.28413107733E+03  0.23184752299E+04  0.23009991140E+04 0.  0.
        2    1    3    3  502    0 -0.51527937194E+03  0.10086228425E+04 -0.61499480634E+02  0.11342905517E+04  0.25500000920E-02 0.  1.
       -2    1    3    3    0  502  0.51527937194E+03 -0.10086228425E+04  0.34563055797E+03  0.11841846782E+04  0.25500000920E-02 0. -1.
</event>
<event>
 5   0  0.1744876E-06  0.2299933E+04  0.7818609E-02  0.8477947E-01
       -2   -1    0    0    0  501  0.00000000000E+00  0.00000000000E+00  0.88049398384E+03  0.88049398385E+03  0.25500000920E-02 0. -1.
        2   -1    0    0  501    0  0.00000000000E+00  0.00000000000E+00 -0.15019105381E+04  0.15019105381E+04  0.25500000920E-02 0.  1.
    10030    2    1    2    0    0  0.00000000000E+00  0.00000000000E+00 -0.62141655430E+03  0.23824045220E+04  0.22999332104E+04 0.  0.
        1    1    3    3  502    0  0.90499947334E+03  0.28199669864E+03  0.36369583633E+03  0.10152934779E+04  0.50400001928E-02 0. -1.
       -1    1    3    3    0  502 -0.90499947334E+03 -0.28199669864E+03 -0.98511239062E+03  0.13671110441E+04  0.50400001928E-02 0.  1.
</event>
<event>
 5   0  0.7761069E-07  0.2300221E+04  0.7818609E-02  0.8477834E-01
        1   -1    0    0  501    0  0.00000000000E+00  0.00000000000E+00  0.10826680661E+04  0.10826680662E+04  0.50400001928E-02 0. -1.
       -1   -1    0    0    0  501  0.00000000000E+00  0.00000000000E+00 -0.12217545290E+04  0.12217545290E+04  0.50400001928E-02 0.  1.
    10030    2    1    2    0    0  0.00000000000E+00  0.00000000000E+00 -0.13908646289E+03  0.23044225952E+04  0.23002213922E+04 0.  0.
        1    1    3    3  502    0 -0.63451302729E+03 -0.29885860272E+03 -0.98270754099E+03  0.12073265330E+04  0.50400001928E-02 0.  1.
       -1    1    3    3    0  502  0.63451302729E+03  0.29885860272E+03  0.84362107810E+03  0.10970960622E+04  0.50400001928E-02 0. -1.
</event>
<event>
 5   0  0.8097672E-07  0.2300151E+04  0.7818609E-02  0.8477862E-01
       -1   -1    0    0    0  501  0.00000000000E+00  0.00000000000E+00  0.77826936895E+03  0.77826936897E+03  0.50400001928E-02 0.  1.
        1   -1    0    0  501    0  0.00000000000E+00  0.00000000000E+00 -0.16995058673E+04  0.16995058673E+04  0.50400001928E-02 0. -1.
    10030    2    1    2    0    0  0.00000000000E+00  0.00000000000E+00 -0.92123649834E+03  0.24777752363E+04  0.23001507419E+04 0.  0.
        3    1    3    3  502    0 -0.71849541116E+03 -0.29071342618E+03 -0.13758923383E+04  0.15791864009E+04  0.10100000352E+00 0. -1.
       -3    1    3    3    0  502  0.71849541116E+03  0.29071342618E+03  0.45465583996E+03  0.89858883536E+03  0.10100000352E+00 0.  1.
</event>
<event>
 5   0  0.8097672E-07  0.2304098E+04  0.7818609E-02  0.8476307E-01
        1   -1    0    0  501    0  0.00000000000E+00  0.00000000000E+00  0.16256035955E+04  0.16256035955E+04  0.50400001928E-02 0. -1.
       -1   -1    0    0    0  501  0.00000000000E+00  0.00000000000E+00 -0.81644537689E+03  0.81644537691E+03  0.50400001928E-02 0.  1.
    10030    2    1    2    0    0  0.00000000000E+00  0.00000000000E+00  0.80915821864E+03  0.24420489724E+04  0.23040976891E+04 0.  0.
        3    1    3    3  502    0  0.11410242161E+04 -0.11251960735E+03  0.28551622889E+03  0.11815737179E+04  0.10100000352E+00 0.  1.
       -3    1    3    3    0  502 -0.11410242161E+04  0.11251960735E+03  0.52364198975E+03  0.12604752545E+04  0.10100000352E+00 0. -1.
</event>
<event>
 5   0  0.7607231E-07  0.2300401E+04  0.7818609E-02  0.8477763E-01
        1   -1    0    0  501    0  0.00000000000E+00  0.00000000000E+00  0.15956080894E+04  0.15956080894E+04  0.50400001928E-02 0.  1.
       -1   -1    0    0    0  501  0.00000000000E+00  0.00000000000E+00 -0.82912639451E+03  0.82912639453E+03  0.50400001928E-02 0. -1.
    10030    2    1    2    0    0  0.00000000000E+00  0.00000000000E+00  0.76648169489E+03  0.24247344839E+04  0.23004006453E+04 0.  0.
        2    1    3    3  502    0 -0.84516243244E+03  0.16685916681E+03  0.11865472234E+04  0.14663000485E+04  0.25500000920E-02 0.  1.
       -2    1    3    3    0  502  0.84516243244E+03 -0.16685916681E+03 -0.42006552855E+03  0.95843443544E+03  0.25500000920E-02 0. -1.
</event>
<event>
 5   0  0.1744876E-06  0.2299891E+04  0.7818609E-02  0.8477964E-01
        2   -1    0    0  501    0  0.00000000000E+00  0.00000000000E+00  0.98444507488E+03  0.98444507488E+03  0.25500000920E-02 0. -1.
       -2   -1    0    0    0  501  0.00000000000E+00  0.00000000000E+00 -0.13432695303E+04  0.13432695303E+04  0.25500000920E-02 0.  1.
    10030    2    1    2    0    0  0.00000000000E+00  0.00000000000E+00 -0.35882445542E+03  0.23277146052E+04  0.22998913656E+04 0.  0.
        1    1    3    3  502    0 -0.99317808455E+03 -0.14086457418E+02  0.40705790620E+03  0.10734511050E+04  0.50400001928E-02 0. -1.
       -1    1    3    3    0  502  0.99317808455E+03  0.14086457418E+02 -0.76588236162E+03  0.12542635001E+04  0.50400001928E-02 0.  1.
</event>
<event>
 5   0  0.1828646E-06  0.2301003E+04  0.7818609E-02  0.8477526E-01
        2   -1    0    0  501    0  0.00000000000E+00  0.00000000000E+00  0.11808408313E+04  0.11808408313E+04  0.25500000920E-02 0. -1.
       -2   -1    0    0    0  501  0.00000000000E+00  0.00000000000E+00 -0.11209418442E+04  0.11209418442E+04  0.25500000920E-02 0.  1.
    10030    2    1    2    0    0  0.00000000000E+00  0.00000000000E+00  0.59898987108E+02  0.23017826755E+04  0.23010031718E+04 0.  0.
        3    1    3    3  502    0  0.25098572443E+03 -0.76215140518E+03 -0.79482074485E+03  0.11294284506E+04  0.10100000352E+00 0.  1.
       -3    1    3    3    0  502 -0.25098572443E+03  0.76215140518E+03  0.85471973196E+03  0.11723542249E+04  0.10100000352E+00 0. -1.
</event>
<event>
 5   0  0.8097672E-07  0.2301547E+04  0.7818609E-02  0.8477311E-01
       -1   -1    0    0    0  501  0.00000000000E+00  0.00000000000E+00  0.80886554778E+03  0.80886554780E+03  0.50400001928E-02 0. -1.
        1   -1    0    0  501    0  0.00000000000E+00  0.00000000000E+00 -0.16372063968E+04  0.16372063968E+04  0.50400001928E-02 0.  1.
    10030    2    1    2    0    0  0.00000000000E+00  0.00000000000E+00 -0.82834084901E+03  0.24460719446E+04  0.23015471744E+04 0.  0.
        3    1    3    3  502    0 -0.10501385736E+04 -0.15364199275E+03 -0.88694437248E+03  0.13831367307E+04  0.10100000352E+00 0.  1.
       -3    1    3    3    0  502  0.10501385736E+04  0.15364199275E+03  0.58603523465E+02  0.10629352139E+04  0.10100000352E+00 0. -1.
</event>
<event>
 5   0  0.1888779E-06  0.2299935E+04  0.7818609E-02  0.8477947E-01
       -2   -1    0    0    0  501  0.00000000000E+00  0.00000000000E+00  0.96938772921E+03  0.96938772921E+03  0.25500000920E-02 0.  1.
        2   -1    0    0  501    0  0.00000000000E+00  0.00000000000E+00 -0.13641857731E+04  0.13641857731E+04  0.25500000920E-02 0. -1.
    10030    2    1    2    0    0  0.00000000000E+00  0.00000000000E+00 -0.39479804387E+03  0.23335735023E+04  0.22999347372E+04 0.  0.
        4    1    3    3  502    0 -0.47113749973E+03 -0.96239910217E+03 -0.62092577708E+03  0.12384397478E+04  0.12699999809E+01 0. -1.
       -4    1    3    3    0  502  0.47113749973E+03  0.96239910217E+03  0.22612773321E+03  0.10951337544E+04  0.12699999809E+01 0.  1.
</event>
<event>
 5   0  0.8097672E-07  0.2301588E+04  0.7818609E-02  0.8477295E-01
       -1   -1    0    0    0  501  0.00000000000E+00  0.00000000000E+00  0.19584543496E+04  0.19584543496E+04  0.50400001928E-02 0.  1.
        1   -1    0    0  501    0  0.00000000000E+00  0.00000000000E+00 -0.67621007926E+03  0.67621007928E+03  0.50400001928E-02 0. -1.
    10030    2    1    2    0    0  0.00000000000E+00  0.00000000000E+00  0.12822442704E+04  0.26346644289E+04  0.23015877746E+04 0.  0.
        3    1    3    3  502    0 -0.69606264578E+03  0.26563188856E+03  0.16451255808E+04  0.18059628163E+04  0.10100000352E+00 0.  1.
       -3    1    3    3    0  502  0.69606264578E+03 -0.26563188856E+03 -0.36288131043E+03  0.82870161261E+03  0.10100000352E+00 0. -1.
</event>
<event>
 5   0  0.8097672E-07  0.2299717E+04  0.7818609E-02  0.8478033E-01
       -1   -1    0    0    0  501  0.00000000000E+00  0.00000000000E+00  0.13712479901E+04  0.13712479901E+04  0.50400001928E-02 0.  1.
        1   -1    0    0  501    0  0.00000000000E+00  0.00000000000E+00 -0.96421276013E+03  0.96421276015E+03  0.50400001928E-02 0. -1.
    10030    2    1    2    0    0  0.00000000000E+00  0.00000000000E+00  0.40703522996E+03  0.23354607503E+04  0.22997172082E+04 0.  0.
        3    1    3    3  502    0 -0.68724307782E+03  0.87125916692E+03  0.50949642410E+03  0.12210578202E+04  0.10100000352E+00 0.  1.
       -3    1    3    3    0  502  0.68724307782E+03 -0.87125916692E+03 -0.10246119415E+03  0.11144029300E+04  0.10100000352E+00 0. -1.
</event>
<event>
 5   0  0.1828646E-06  0.2299219E+04  0.7818609E-02  0.8478229E-01
        2   -1    0    0  501    0  0.00000000000E+00  0.00000000000E+00  0.11023082818E+04  0.11023082818E+04  0.25500000920E-02 0. -1.
       -2   -1    0    0    0  501  0.00000000000E+00  0.00000000000E+00 -0.11989406915E+04  0.11989406915E+04  0.25500000920E-02 0.  1.
    10030    2    1    2    0    0  0.00000000000E+00  0.00000000000E+00 -0.96632409624E+02  0.23012489733E+04  0.22992192185E+04 0.  0.
        3    1    3    3  502    0  0.38241150335E+03 -0.89071507050E+03 -0.66691550157E+03  0.11766002682E+04  0.10100000352E+00 0.  1.
       -3    1    3    3    0  502 -0.38241150335E+03  0.89071507050E+03  0.57028309194E+03  0.11246487051E+04  0.10100000352E+00 0. -1.
</event>
<event>
 5   0  0.8108242E-07  0.2299538E+04  0.7818609E-02  0.8478103E-01
       -1   -1    0    0    0  501  0.00000000000E+00  0.00000000000E+00  0.26066256868E+04  0.26066256868E+04  0.50400001928E-02 0. -1.
        1   -1    0    0  501    0  0.00000000000E+00  0.00000000000E+00 -0.50715713645E+03  0.50715713647E+03  0.50400001928E-02 0.  1.
    10030    2    1    2    0    0  0.00000000000E+00  0.00000000000E+00  0.20994685504E+04  0.31137828233E+04  0.22995380572E+04 0.  0.
        4    1    3    3  502    0 -0.65156639872E+03 -0.68997965096E+03  0.19287012830E+04  0.21495350526E+04  0.12699999809E+01 0. -1.
       -4    1    3    3    0  502  0.65156639872E+03  0.68997965096E+03  0.17076726739E+03  0.96424777064E+03  0.12699999809E+01 0.  1.
</event>
<event>
 5   0  0.8097672E-07  0.2299544E+04  0.7818609E-02  0.8478101E-01
       -1   -1    0    0    0  501  0.00000000000E+00  0.00000000000E+00  0.48363399014E+03  0.48363399016E+03  0.50400001928E-02 0. -1.
        1   -1    0    0  501    0  0.00000000000E+00  0.00000000000E+00 -0.27334208397E+04  0.27334208397E+04  0.50400001928E-02 0.  1.
    10030    2    1    2    0    0  0.00000000000E+00  0.00000000000E+00 -0.22497868495E+04  0.32170548298E+04  0.22995436308E+04 0.  0.
        3    1    3    3  502    0 -0.19624831794E+03  0.40737011907E+01  0.46001975577E+03  0.50014816128E+03  0.10100000352E+00 0. -1.
       -3    1    3    3    0  502  0.19624831794E+03 -0.40737011907E+01 -0.27098066053E+04  0.27169066686E+04  0.10100000352E+00 0.  1.
</event>
<event>
 5   0  0.1689444E-06  0.2299837E+04  0.7818609E-02  0.8477985E-01
       -2   -1    0    0    0  501  0.00000000000E+00  0.00000000000E+00  0.90055970053E+03  0.90055970053E+03  0.25500000920E-02 0.  1.
        2   -1    0    0  501    0  0.00000000000E+00  0.00000000000E+00 -0.14683236749E+04  0.14683236749E+04  0.25500000920E-02 0. -1.
    10030    2    1    2    0    0  0.00000000000E+00  0.00000000000E+00 -0.56776397440E+03  0.23688833755E+04  0.22998374977E+04 0.  0.
        2    1    3    3  502    0  0.58118897209E+03  0.77003317047E+03  0.36066943379E+03  0.10299583222E+04  0.25500000920E-02 0.  1.
       -2    1    3    3    0  502 -0.58118897209E+03 -0.77003317047E+03 -0.92843340819E+03  0.13389250533E+04  0.25500000920E-02 0. -1.
</event>
<event>
 5   0  0.8108242E-07  0.2299510E+04  0.7818609E-02  0.8478114E-01
       -1   -1    0    0    0  501  0.00000000000E+00  0.00000000000E+00  0.11871319368E+04  0.11871319368E+04  0.50400001928E-02 0. -1.
        1   -1    0    0  501    0  0.00000000000E+00  0.00000000000E+00 -0.11135550221E+04  0.11135550221E+04  0.50400001928E-02 0.  1.
    10030    2    1    2    0    0  0.00000000000E+00  0.00000000000E+00  0.73576914730E+02  0.23006869589E+04  0.22995101479E+04 0.  0.
        4    1    3    3  502    0 -0.55417269108E+01 -0.11491392008E+04  0.74002969917E+02  0.11515336148E+04  0.12699999809E+01 0.  1.
       -4    1    3    3    0  502  0.55417269108E+01  0.11491392008E+04 -0.42605518725E+00  0.11491533440E+04  0.12699999809E+01 0. -1.
</event>
<event>
 5   0  0.1744876E-06  0.2304058E+04  0.7818609E-02  0.8476323E-01
       -2   -1    0    0    0  501  0.00000000000E+00  0.00000000000E+00  0.15845704378E+04  0.15845704378E+04  0.25500000920E-02 0.  1.
        2   -1    0    0  501    0  0.00000000000E+00  0.00000000000E+00 -0.83755856984E+03  0.83755856985E+03  0.25500000920E-02 0. -1.
    10030    2    1    2    0    0  0.00000000000E+00  0.00000000000E+00  0.74701186796E+03  0.24221290077E+04  0.23040577681E+04 0.  0.
        1    1    3    3  502    0  0.95708329808E+03 -0.27041626135E+03 -0.23769798000E+03  0.10225623324E+04  0.50400001928E-02 0. -1.
       -1    1    3    3    0  502 -0.95708329808E+03  0.27041626135E+03  0.98470984796E+03  0.13995666753E+04  0.50400001928E-02 0.  1.
</event>
<event>
 5   0  0.7607231E-07  0.2303293E+04  0.7818609E-02  0.8476624E-01
        1   -1    0    0  501    0  0.00000000000E+00  0.00000000000E+00  0.18689837227E+04  0.18689837227E+04  0.50400001928E-02 0. -1.
       -1   -1    0    0    0  501  0.00000000000E+00  0.00000000000E+00 -0.70963152439E+03  0.70963152441E+03  0.50400001928E-02 0.  1.
    10030    2    1    2    0    0  0.00000000000E+00  0.00000000000E+00  0.11593521983E+04  0.25786152471E+04  0.23032930932E+04 0.  0.
        2    1    3    3  502    0 -0.73800066946E+03 -0.70413759944E+03 -0.18866493137E+02  0.10202012996E+04  0.25500000920E-02 0.  1.
       -2    1    3    3    0  502  0.73800066946E+03  0.70413759944E+03  0.11782186915E+04  0.15584139476E+04  0.25500000920E-02 0. -1.
</event>
<event>
 5   0  0.8108242E-07  0.2300064E+04  0.7818609E-02  0.8477896E-01
        1   -1    0    0  501    0  0.00000000000E+00  0.00000000000E+00  0.14987184639E+04  0.14987184639E+04  0.50400001928E-02 0.  1.
       -1   -1    0    0    0  501  0.00000000000E+00  0.00000000000E+00 -0.88246974240E+03  0.88246974242E+03  0.50400001928E-02 0. -1.
    10030    2    1    2    0    0  0.00000000000E+00  0.00000000000E+00  0.61624872146E+03  0.23811882063E+04  0.23000640832E+04 0.  0.
        4    1    3    3  502    0  0.74550403422E+03  0.37488888868E+03  0.11273982079E+04  0.14026212161E+04  0.12699999809E+01 0.  1.
       -4    1    3    3    0  502 -0.74550403422E+03 -0.37488888868E+03 -0.51114948641E+03  0.97856699017E+03  0.12699999809E+01 0. -1.
</event>
<event>
 5   0  0.1828646E-06  0.2300103E+04  0.7818609E-02  0.8477881E-01
        2   -1    0    0  501    0  0.00000000000E+00  0.00000000000E+00  0.14986522472E+04  0.14986522472E+04  0.25500000920E-02 0. -1.
       -2   -1    0    0    0  501  0.00000000000E+00  0.00000000000E+00 -0.88253846178E+03  0.88253846178E+03  0.25500000920E-02 0.  1.
    10030    2    1    2    0    0  0.00000000000E+00  0.00000000000E+00  0.61611378546E+03  0.23811907090E+04  0.23001028229E+04 0.  0.
        3    1    3    3  502    0  0.26054525640E+03 -0.10392310559E+04 -0.12469070864E+03  0.10786254221E+04  0.10100000352E+00 0.  1.
       -3    1    3    3    0  502 -0.26054525640E+03  0.10392310559E+04  0.74080449409E+03  0.13025652870E+04  0.10100000352E+00 0. -1.
</event>
<event>
 5   0  0.8097672E-07  0.2298821E+04  0.7818609E-02  0.8478386E-01
        1   -1    0    0  501    0  0.00000000000E+00  0.00000000000E+00  0.11079003123E+04  0.11079003123E+04  0.50400001928E-02 0.  1.
       -1   -1    0    0    0  501  0.00000000000E+00  0.00000000000E+00 -0.11924763541E+04  0.11924763541E+04  0.50400001928E-02 0. -1.
    10030    2    1    2    0    0  0.00000000000E+00  0.00000000000E+00 -0.84576041787E+02  0.23003766664E+04  0.22988213720E+04 0.  0.
        3    1    3    3  502    0 -0.47239621774E+03 -0.10478066039E+04 -0.32898212370E+02  0.11498431059E+04  0.10100000352E+00 0. -1.
       -3    1    3    3    0  502  0.47239621774E+03  0.10478066039E+04 -0.51677829416E+02  0.11505335605E+04  0.10100000352E+00 0.  1.
</event>
<event>
 5   0  0.1689444E-06  0.2300060E+04  0.7818609E-02  0.8477897E-01
       -2   -1    0    0    0  501  0.00000000000E+00  0.00000000000E+00  0.69260398331E+03  0.69260398331E+03  0.25500000920E-02 0.  1.
        2   -1    0    0  501    0  0.00000000000E+00  0.00000000000E+00 -0.19095605227E+04  0.19095605227E+04  0.25500000920E-02 0. -1.
    10030    2    1    2    0    0  0.00000000000E+00  0.00000000000E+00 -0.12169565393E+04  0.26021645060E+04  0.23000601943E+04 0.  0.
        2    1    3    3  502    0 -0.47553404938E+03 -0.55565444653E+03 -0.16125662295E+04  0.17706649431E+04  0.25500000920E-02 0. -1.
       -2    1    3    3    0  502  0.47553404938E+03  0.55565444653E+03  0.39560969019E+03  0.83149956287E+03  0.25500000920E-02 0.  1.
</event>
<event>
 5   0  0.1828646E-06  0.2300339E+04  0.7818609E-02  0.8477787E-01
        2   -1    0    0  501    0  0.00000000000E+00  0.00000000000E+00  0.88696224763E+03  0.88696224764E+03  0.25500000920E-02 0. -1.
       -2   -1    0    0    0  501  0.00000000000E+00  0.00000000000E+00 -0.14914844485E+04  0.14914844485E+04  0.25500000920E-02 0.  1.
    10030    2    1    2    0    0  0.00000000000E+00  0.00000000000E+00 -0.60452220090E+03  0.23784466962E+04  0.23003394522E+04 0.  0.
        3    1    3    3  502    0  0.62692424735E+03 -0.43792203843E+03  0.58602610996E+03  0.96345022467E+03  0.10100000352E+00 0. -1.
       -3    1    3    3    0  502 -0.62692424735E+03  0.43792203843E+03 -0.11905483109E+04  0.14149964715E+04  0.10100000352E+00 0.  1.
</event>
<event>
 5   0  0.1689444E-06  0.2299009E+04  0.7818609E-02  0.8478312E-01
        2   -1    0    0  501    0  0.00000000000E+00  0.00000000000E+00  0.12543870856E+04  0.12543870857E+04  0.25500000920E-02 0.  1.
       -2   -1    0    0    0  501  0.00000000000E+00  0.00000000000E+00 -0.10533914830E+04  0.10533914830E+04  0.25500000920E-02 0. -1.
    10030    2    1    2    0    0  0.00000000000E+00  0.00000000000E+00  0.20099560266E+03  0.23077785686E+04  0.22990090669E+04 0.  0.
        2    1    3    3  502    0  0.63452100280E+03 -0.63997164150E+02  0.10605182370E+04  0.12375021095E+04  0.25500000920E-02 0.  1.
       -2    1    3    3    0  502 -0.63452100280E+03  0.63997164150E+02 -0.85952263434E+03  0.10702764591E+04  0.25500000920E-02 0. -1.
</event>
<event>
 5   0  0.1689444E-06  0.2299778E+04  0.7818609E-02  0.8478009E-01
        2   -1    0    0  501    0  0.00000000000E+00  0.00000000000E+00  0.23410180971E+04  0.23410180971E+04  0.25500000920E-02 0. -1.
       -2   -1    0    0    0  501  0.00000000000E+00  0.00000000000E+00 -0.56481604417E+03  0.56481604417E+03  0.25500000920E-02 0.  1.
    10030    2    1    2    0    0  0.00000000000E+00  0.00000000000E+00  0.17762020530E+04  0.29058341413E+04  0.22997778858E+04 0.  0.
        2    1    3    3  502    0 -0.10659015660E+04  0.88865617474E+02  0.35471650994E+03  0.11268837779E+04  0.25500000920E-02 0.  1.
       -2    1    3    3    0  502  0.10659015660E+04 -0.88865617474E+02  0.14214855430E+04  0.17789503634E+04  0.25500000920E-02 0. -1.
</event>
<event>
 5   0  0.7932912E-07  0.2299650E+04  0.7818609E-02  0.8478059E-01
        1   -1    0    0  501    0  0.00000000000E+00  0.00000000000E+00  0.10740934070E+04  0.10740934070E+04  0.50400001928E-02 0. -1.
       -1   -1    0    0    0  501  0.00000000000E+00  0.00000000000E+00 -0.12308958730E+04  0.12308958730E+04  0.50400001928E-02 0.  1.
    10030    2    1    2    0    0  0.00000000000E+00  0.00000000000E+00 -0.15680246596E+03  0.23049892800E+04  0.22996496619E+04 0.  0.
        5    1    3    3  502    0 -0.83022961028E+03  0.21845048700E+03 -0.84507807463E+03  0.12046496849E+04  0.46999998093E+01 0.  1.
       -5    1    3    3    0  502  0.83022961028E+03 -0.21845048700E+03  0.68827560866E+03  0.11003395951E+04  0.46999998093E+01 0. -1.
</event>
<event>
 5   0  0.8108242E-07  0.2300146E+04  0.7818609E-02  0.8477864E-01
       -1   -1    0    0    0  501  0.00000000000E+00  0.00000000000E+00  0.67888205583E+03  0.67888205584E+03  0.50400001928E-02 0.  1.
        1   -1    0    0  501    0  0.00000000000E+00  0.00000000000E+00 -0.19483021039E+04  0.19483021039E+04  0.50400001928E-02 0. -1.
    10030    2    1    2    0    0  0.00000000000E+00  0.00000000000E+00 -0.12694200481E+04  0.26271841598E+04  0.23001455064E+04 0.  0.
        4    1    3    3  502    0  0.87856004778E+03 -0.68322942741E+03 -0.96573690341E+03  0.14735398154E+04  0.12699999809E+01 0.  1.
       -4    1    3    3    0  502 -0.87856004778E+03  0.68322942741E+03 -0.30368314467E+03  0.11536443444E+04  0.12699999809E+01 0. -1.
</event>
<event>
 5   0  0.1689444E-06  0.2300109E+04  0.7818609E-02  0.8477878E-01
       -2   -1    0    0    0  501  0.00000000000E+00  0.00000000000E+00  0.99075621491E+03  0.99075621492E+03  0.25500000920E-02 0.  1.
        2   -1    0    0  501    0  0.00000000000E+00  0.00000000000E+00 -0.13349658421E+04  0.13349658421E+04  0.25500000920E-02 0. -1.
    10030    2    1    2    0    0  0.00000000000E+00  0.00000000000E+00 -0.34420962721E+03  0.23257220570E+04  0.23001093059E+04 0.  0.
        2    1    3    3  502    0 -0.20364804247E+03 -0.19157573549E+03  0.95586738910E+03  0.99591980258E+03  0.25500000920E-02 0.  1.
       -2    1    3    3    0  502  0.20364804247E+03  0.19157573549E+03 -0.13000770163E+04  0.13298022545E+04  0.25500000920E-02 0. -1.
</event>
<event>
 5   0  0.1689444E-06  0.2300247E+04  0.7818609E-02  0.8477824E-01
        2   -1    0    0  501    0  0.00000000000E+00  0.00000000000E+00  0.23181164984E+04  0.23181164984E+04  0.25500000920E-02 0.  1.
       -2   -1    0    0    0  501  0.00000000000E+00  0.00000000000E+00 -0.57062856757E+03  0.57062856757E+03  0.25500000920E-02 0. -1.
    10030    2    1    2    0    0  0.00000000000E+00  0.00000000000E+00  0.17474879308E+04  0.28887450660E+04  0.23002465059E+04 0.  0.
        2    1    3    3  502    0 -0.72515564988E+03  0.43496403797E+03  0.18527681362E+04  0.20366134139E+04  0.25500000920E-02 0.  1.
       -2    1    3    3    0  502  0.72515564988E+03 -0.43496403797E+03 -0.10528020539E+03  0.85213165212E+03  0.25500000920E-02 0. -1.
</event>
<event>
 5   0  0.6319125E-07  0.2299203E+04  0.7818609E-02  0.8478236E-01
       -3   -1    0    0    0  501  0.00000000000E+00  0.00000000000E+00  0.15598181687E+04  0.15598181720E+04  0.10100000352E+00 0.  1.
        3   -1    0    0  501    0  0.00000000000E+00  0.00000000000E+00 -0.84726749876E+03  0.84726750478E+03  0.10100000352E+00 0. -1.
    10030    2    1    2    0    0  0.00000000000E+00  0.00000000000E+00  0.71255066993E+03  0.24070856767E+04  0.22992026874E+04 0.  0.
        4    1    3    3  502    0 -0.43378511395E+03 -0.79528128496E+03  0.10972563051E+04  0.14228896160E+04  0.12699999809E+01 0.  1.
       -4    1    3    3    0  502  0.43378511395E+03  0.79528128496E+03 -0.38470563520E+03  0.98419606073E+03  0.12699999809E+01 0. -1.
</event>
<event>
 5   0  0.1828646E-06  0.2298233E+04  0.7818609E-02  0.8478618E-01
        2   -1    0    0  501    0  0.00000000000E+00  0.00000000000E+00  0.77367984152E+03  0.77367984153E+03  0.25500000920E-02 0.  1.
       -2   -1    0    0    0  501  0.00000000000E+00  0.00000000000E+00 -0.17067385255E+04  0.17067385255E+04  0.25500000920E-02 0. -1.
    10030    2    1    2    0    0  0.00000000000E+00  0.00000000000E+00 -0.93305868395E+03  0.24804183670E+04  0.22982334015E+04 0.  0.
        3    1    3    3  502    0 -0.49442335415E+03 -0.73824000999E+03 -0.12530040848E+04  0.15360572945E+04  0.10100000352E+00 0. -1.
       -3    1    3    3    0  502  0.49442335415E+03  0.73824000999E+03  0.31994540081E+03  0.94436107246E+03  0.10100000352E+00 0.  1.
</event>
<event>
 5   0  0.6319125E-07  0.2300550E+04  0.7818609E-02  0.8477704E-01
        4   -1    0    0  501    0  0.00000000000E+00  0.00000000000E+00  0.81721617639E+03  0.81721716322E+03  0.12699999809E+01 0.  1.
       -4   -1    0    0    0  501  0.00000000000E+00  0.00000000000E+00 -0.16190705817E+04  0.16190710798E+04  0.12699999809E+01 0. -1.
    10030    2    1    2    0    0  0.00000000000E+00  0.00000000000E+00 -0.80185440531E+03  0.24362882430E+04  0.23005499159E+04 0.  0.
        3    1    3    3  502    0 -0.13353079390E+03 -0.16121361924E+03  0.79687545794E+03  0.82391189433E+03  0.10100000352E+00 0.  1.
       -3    1    3    3    0  502  0.13353079390E+03  0.16121361924E+03 -0.15987298632E+04  0.16123763487E+04  0.10100000352E+00 0. -1.
</event>
<event>
 5   0  0.7761069E-07  0.2300914E+04  0.7818609E-02  0.8477561E-01
       -1   -1    0    0    0  501  0.00000000000E+00  0.00000000000E+00  0.15718963901E+04  0.15718963901E+04  0.50400001928E-02 0. -1.
        1   -1    0    0  501    0  0.00000000000E+00  0.00000000000E+00 -0.84200937728E+03  0.84200937730E+03  0.50400001928E-02 0.  1.
    10030    2    1    2    0    0  0.00000000000E+00  0.00000000000E+00  0.72988701285E+03  0.24139057674E+04  0.23009141667E+04 0.  0.
        1    1    3    3  502    0 -0.10258257988E+04  0.50893304809E+03  0.48091653131E+03  0.12420193747E+04  0.50400001928E-02 0.  1.
       -1    1    3    3    0  502  0.10258257988E+04 -0.50893304809E+03  0.24897048154E+03  0.11718863928E+04  0.50400001928E-02 0. -1.
</event>
<event>
 5   0  0.1689444E-06  0.2300274E+04  0.7818609E-02  0.8477813E-01
        2   -1    0    0  501    0  0.00000000000E+00  0.00000000000E+00  0.88417653984E+03  0.88417653985E+03  0.25500000920E-02 0. -1.
       -2   -1    0    0    0  501  0.00000000000E+00  0.00000000000E+00 -0.14960985908E+04  0.14960985908E+04  0.25500000920E-02 0.  1.
    10030    2    1    2    0    0  0.00000000000E+00  0.00000000000E+00 -0.61192205094E+03  0.23802751306E+04  0.23002741361E+04 0.  0.
        2    1    3    3  502    0 -0.70807482866E+03 -0.90407393456E+03 -0.23973814208E+03  0.11731129608E+04  0.25500000920E-02 0. -1.
       -2    1    3    3    0  502  0.70807482866E+03  0.90407393456E+03 -0.37218390887E+03  0.12071621698E+04  0.25500000920E-02 0.  1.
</event>
<event>
 5   0  0.1828646E-06  0.2299444E+04  0.7818609E-02  0.8478140E-01
        2   -1    0    0  501    0  0.00000000000E+00  0.00000000000E+00  0.18999975368E+04  0.18999975368E+04  0.25500000920E-02 0.  1.
       -2   -1    0    0    0  501  0.00000000000E+00  0.00000000000E+00 -0.69571717399E+03  0.69571717399E+03  0.25500000920E-02 0. -1.
    10030    2    1    2    0    0  0.00000000000E+00  0.00000000000E+00  0.12042803629E+04  0.25957147108E+04  0.22994442084E+04 0.  0.
        3    1    3    3  502    0 -0.70816052111E+03  0.90570444600E+03  0.61151975438E+03  0.13022090029E+04  0.10100000352E+00 0. -1.
       -3    1    3    3    0  502  0.70816052111E+03 -0.90570444600E+03  0.59276060847E+03  0.12935057079E+04  0.10100000352E+00 0.  1.
</event>
<event>
 5   0  0.6319125E-07  0.2298975E+04  0.7818609E-02  0.8478325E-01
       -4   -1    0    0    0  501  0.00000000000E+00  0.00000000000E+00  0.12633976558E+04  0.12633982941E+04  0.12699999809E+01 0. -1.
        4   -1    0    0  501    0  0.00000000000E+00  0.00000000000E+00 -0.10458466904E+04  0.10458474615E+04  0.12699999809E+01 0.  1.
    10030    2    1    2    0    0  0.00000000000E+00  0.00000000000E+00  0.21755096541E+03  0.23092457556E+04  0.22989753233E+04 0.  0.
        1    1    3    3  502    0  0.56974269229E+03 -0.50165808296E+03  0.97579687286E+03  0.12363038076E+04  0.50400001928E-02 0. -1.
       -1    1    3    3    0  502 -0.56974269229E+03  0.50165808296E+03 -0.75824590745E+03  0.10729419480E+04  0.50400001928E-02 0.  1.
</event>
<event>
 5   0  0.7932912E-07  0.2300032E+04  0.7818609E-02  0.8477908E-01
        1   -1    0    0  501    0  0.00000000000E+00  0.00000000000E+00  0.71243972123E+03  0.71243972125E+03  0.50400001928E-02 0. -1.
       -1   -1    0    0    0  501  0.00000000000E+00  0.00000000000E+00 -0.18563490304E+04  0.18563490304E+04  0.50400001928E-02 0.  1.
    10030    2    1    2    0    0  0.00000000000E+00  0.00000000000E+00 -0.11439093091E+04  0.25687887516E+04  0.23000319874E+04 0.  0.
        5    1    3    3  502    0  0.14650411997E+03  0.99917452874E+03 -0.11864262348E+04  0.15580251913E+04  0.46999998093E+01 0. -1.
       -5    1    3    3    0  502 -0.14650411997E+03 -0.99917452874E+03  0.42516925616E+02  0.10107635604E+04  0.46999998093E+01 0.  1.
</event>
<event>
 5   0  0.1888779E-06  0.2286130E+04  0.7818609E-02  0.8483410E-01
        2   -1    0    0  501    0  0.00000000000E+00  0.00000000000E+00  0.20618964406E+04  0.20618964406E+04  0.25500000920E-02 0.  1.
       -2   -1    0    0    0  501  0.00000000000E+00  0.00000000000E+00 -0.63368750135E+03  0.63368750136E+03  0.25500000920E-02 0. -1.
    10030    2    1    2    0    0  0.00000000000E+00  0.00000000000E+00  0.14282089393E+04  0.26955839420E+04  0.22861303581E+04 0.  0.
        4    1    3    3  502    0 -0.11714813742E+02 -0.79037982656E+03  0.16876746707E+04  0.18636214514E+04  0.12699999809E+01 0.  1.
       -4    1    3    3    0  502  0.11714813742E+02  0.79037982656E+03 -0.25946573140E+03  0.83196249060E+03  0.12699999809E+01 0. -1.
</event>
<event>
 5   0  0.8097672E-07  0.2299473E+04  0.7818609E-02  0.8478129E-01
        1   -1    0    0  501    0  0.00000000000E+00  0.00000000000E+00  0.78044408563E+03  0.78044408564E+03  0.50400001928E-02 0. -1.
       -1   -1    0    0    0  501  0.00000000000E+00  0.00000000000E+00 -0.16937722836E+04  0.16937722836E+04  0.50400001928E-02 0.  1.
    10030    2    1    2    0    0  0.00000000000E+00  0.00000000000E+00 -0.91332819798E+03  0.24742163693E+04  0.22994734712E+04 0.  0.
        3    1    3    3  502    0 -0.10100623802E+04 -0.18907204860E+03 -0.10115261437E+04  0.14419290555E+04  0.10100000352E+00 0.  1.
       -3    1    3    3    0  502  0.10100623802E+04  0.18907204860E+03  0.98197945677E+02  0.10322873138E+04  0.10100000352E+00 0. -1.
</event>
<event>
 5   0  0.7607231E-07  0.2298458E+04  0.7818609E-02  0.8478529E-01
        1   -1    0    0  501    0  0.00000000000E+00  0.00000000000E+00  0.15370716131E+04  0.15370716131E+04  0.50400001928E-02 0. -1.
       -1   -1    0    0    0  501  0.00000000000E+00  0.00000000000E+00 -0.85924937801E+03  0.85924937802E+03  0.50400001928E-02 0.  1.
    10030    2    1    2    0    0  0.00000000000E+00  0.00000000000E+00  0.67782223511E+03  0.23963209912E+04  0.22984584639E+04 0.  0.
        2    1    3    3  502    0  0.45448319572E+03 -0.49822780865E+03  0.13090919944E+04  0.14725854048E+04  0.25500000920E-02 0. -1.
       -2    1    3    3    0  502 -0.45448319572E+03  0.49822780865E+03 -0.63126975931E+03  0.92373558637E+03  0.25500000920E-02 0.  1.
</event>
<event>
 5   0  0.1689444E-06  0.2299574E+04  0.7818609E-02  0.8478089E-01
       -2   -1    0    0    0  501  0.00000000000E+00  0.00000000000E+00  0.12838262566E+04  0.12838262566E+04  0.25500000920E-02 0. -1.
        2   -1    0    0  501    0  0.00000000000E+00  0.00000000000E+00 -0.10297418279E+04  0.10297418279E+04  0.25500000920E-02 0.  1.
    10030    2    1    2    0    0  0.00000000000E+00  0.00000000000E+00  0.25408442867E+03  0.23135680845E+04  0.22995735224E+04 0.  0.
        2    1    3    3  502    0  0.10594995185E+04 -0.12351106670E+03 -0.30477299178E+03  0.11093605319E+04  0.25500000920E-02 0.  1.
       -2    1    3    3    0  502 -0.10594995185E+04  0.12351106670E+03  0.55885742045E+03  0.12042075526E+04  0.25500000920E-02 0. -1.
</event>
<event>
 5   0  0.1828646E-06  0.2299914E+04  0.7818609E-02  0.8477955E-01
       -2   -1    0    0    0  501  0.00000000000E+00  0.00000000000E+00  0.94168413758E+03  0.94168413758E+03  0.25500000920E-02 0. -1.
        2   -1    0    0  501    0  0.00000000000E+00  0.00000000000E+00 -0.14042939067E+04  0.14042939067E+04  0.25500000920E-02 0.  1.
    10030    2    1    2    0    0  0.00000000000E+00  0.00000000000E+00 -0.46260976913E+03  0.23459780443E+04  0.22999141692E+04 0.  0.
        3    1    3    3  502    0 -0.13929343398E+03  0.77803014039E+03  0.62068930119E+03  0.10049819794E+04  0.10100000352E+00 0. -1.
       -3    1    3    3    0  502  0.13929343398E+03 -0.77803014039E+03 -0.10832990703E+04  0.13409960649E+04  0.10100000352E+00 0.  1.
</event>
<event>
 5   0  0.8108242E-07  0.2313772E+04  0.7818609E-02  0.8472511E-01
        1   -1    0    0  501    0  0.00000000000E+00  0.00000000000E+00  0.12984062076E+04  0.12984062076E+04  0.50400001928E-02 0. -1.
       -1   -1    0    0    0  501  0.00000000000E+00  0.00000000000E+00 -0.10307904322E+04  0.10307904322E+04  0.50400001928E-02 0.  1.
    10030    2    1    2    0    0  0.00000000000E+00  0.00000000000E+00  0.26761577538E+03  0.23291966397E+04  0.23137715495E+04 0.  0.
        4    1    3    3  502    0 -0.44754197020E+03 -0.92159756517E+03 -0.40712646888E+03  0.11024470335E+04  0.12699999809E+01 0.  1.
       -4    1    3    3    0  502  0.44754197020E+03  0.92159756517E+03  0.67474224427E+03  0.12267496062E+04  0.12699999809E+01 0. -1.
</event>
<event>
 5   0  0.1828646E-06  0.2300515E+04  0.7818609E-02  0.8477718E-01
       -2   -1    0    0    0  501  0.00000000000E+00  0.00000000000E+00  0.21230301778E+04  0.21230301778E+04  0.25500000920E-02 0.  1.
        2   -1    0    0  501    0  0.00000000000E+00  0.00000000000E+00 -0.62320949090E+03  0.62320949091E+03  0.25500000920E-02 0. -1.
    10030    2    1    2    0    0  0.00000000000E+00  0.00000000000E+00  0.14998206869E+04  0.27462396687E+04  0.23005152086E+04 0.  0.
        3    1    3    3  502    0  0.46514670835E+03  0.58101607247E+03 -0.29702352009E+03  0.80135143255E+03  0.10100000352E+00 0. -1.
       -3    1    3    3    0  502 -0.46514670835E+03 -0.58101607247E+03  0.17968442070E+04  0.19448882362E+04  0.10100000352E+00 0.  1.
</event>
<event>
 5   0  0.8097672E-07  0.2300409E+04  0.7818609E-02  0.8477760E-01
        1   -1    0    0  501    0  0.00000000000E+00  0.00000000000E+00  0.12574603160E+04  0.12574603160E+04  0.50400001928E-02 0. -1.
       -1   -1    0    0    0  501  0.00000000000E+00  0.00000000000E+00 -0.10520968142E+04  0.10520968142E+04  0.50400001928E-02 0.  1.
    10030    2    1    2    0    0  0.00000000000E+00  0.00000000000E+00  0.20536350178E+03  0.23095571302E+04  0.23004086528E+04 0.  0.
        3    1    3    3  502    0 -0.89521007877E+03 -0.72085083153E+03  0.58427252805E+02  0.11508434996E+04  0.10100000352E+00 0. -1.
       -3    1    3    3    0  502  0.89521007877E+03  0.72085083153E+03  0.14693624897E+03  0.11587136307E+04  0.10100000352E+00 0.  1.
</event>
<event>
 5   0  0.1689444E-06  0.2300874E+04  0.7818609E-02  0.8477577E-01
       -2   -1    0    0    0  501  0.00000000000E+00  0.00000000000E+00  0.17244028678E+04  0.17244028678E+04  0.25500000920E-02 0. -1.
        2   -1    0    0  501    0  0.00000000000E+00  0.00000000000E+00 -0.76751485166E+03  0.76751485167E+03  0.25500000920E-02 0.  1.
    10030    2    1    2    0    0  0.00000000000E+00  0.00000000000E+00  0.95688801610E+03  0.24919177194E+04  0.23008735830E+04 0.  0.
        2    1    3    3  502    0 -0.38141698245E+02 -0.81497500060E+03  0.13568789154E+04  0.15832749072E+04  0.25500000920E-02 0. -1.
       -2    1    3    3    0  502  0.38141698245E+02  0.81497500060E+03 -0.39999089927E+03  0.90864281225E+03  0.25500000920E-02 0.  1.
</event>
<event>
 5   0  0.1828646E-06  0.2300032E+04  0.7818609E-02  0.8477908E-01
       -2   -1    0    0    0  501  0.00000000000E+00  0.00000000000E+00  0.63878390091E+03  0.63878390091E+03  0.25500000920E-02 0. -1.
        2   -1    0    0  501    0  0.00000000000E+00  0.00000000000E+00 -0.20703979724E+04  0.20703979724E+04  0.25500000920E-02 0.  1.
    10030    2    1    2    0    0  0.00000000000E+00  0.00000000000E+00 -0.14316140715E+04  0.27091818733E+04  0.23000320809E+04 0.  0.
        3    1    3    3  502    0 -0.41762727911E+03  0.10604003686E+04 -0.53456751607E+03  0.12588184641E+04  0.10100000352E+00 0. -1.
       -3    1    3    3    0  502  0.41762727911E+03 -0.10604003686E+04 -0.89704655545E+03  0.14503634093E+04  0.10100000352E+00 0.  1.
</event>
<event>
 5   0  0.1744876E-06  0.2299483E+04  0.7818609E-02  0.8478125E-01
        2   -1    0    0  501    0  0.00000000000E+00  0.00000000000E+00  0.17902037791E+04  0.17902037791E+04  0.25500000920E-02 0.  1.
       -2   -1    0    0    0  501  0.00000000000E+00  0.00000000000E+00 -0.73841054211E+03  0.73841054212E+03  0.25500000920E-02 0. -1.
    10030    2    1    2    0    0  0.00000000000E+00  0.00000000000E+00  0.10517932370E+04  0.25286143212E+04  0.22994828488E+04 0.  0.
        1    1    3    3  502    0 -0.94862661822E+03 -0.17820131117E+03  0.12128509509E+04  0.15500501918E+04  0.50400001928E-02 0.  1.
       -1    1    3    3    0  502  0.94862661822E+03  0.17820131117E+03 -0.16105771390E+03  0.97856412939E+03  0.50400001928E-02 0. -1.
</event>
<event>
 5   0  0.7761069E-07  0.2300561E+04  0.7818609E-02  0.8477700E-01
        1   -1    0    0  501    0  0.00000000000E+00  0.00000000000E+00  0.93384785581E+03  0.93384785583E+03  0.50400001928E-02 0.  1.
       -1   -1    0    0    0  501  0.00000000000E+00  0.00000000000E+00 -0.14168745616E+04  0.14168745616E+04  0.50400001928E-02 0. -1.
    10030    2    1    2    0    0  0.00000000000E+00  0.00000000000E+00 -0.48302670577E+03  0.23507224174E+04  0.23005610371E+04 0.  0.
        1    1    3    3  502    0 -0.41864943423E+03  0.90212870247E+03 -0.83207868456E+03  0.12967106392E+04  0.50400001928E-02 0. -1.
       -1    1    3    3    0  502  0.41864943423E+03 -0.90212870247E+03  0.34905197879E+03  0.10540117782E+04  0.50400001928E-02 0.  1.
</event>
<event>
 5   0  0.1828646E-06  0.2296470E+04  0.7818609E-02  0.8479314E-01
       -2   -1    0    0    0  501  0.00000000000E+00  0.00000000000E+00  0.87839224283E+03  0.87839224283E+03  0.25500000920E-02 0. -1.
        2   -1    0    0  501    0  0.00000000000E+00  0.00000000000E+00 -0.15009739113E+04  0.15009739113E+04  0.25500000920E-02 0.  1.
    10030    2    1    2    0    0  0.00000000000E+00  0.00000000000E+00 -0.62258166850E+03  0.23793661542E+04  0.22964701961E+04 0.  0.
        3    1    3    3  502    0 -0.63881107182E+03 -0.73832633447E+03  0.31487407053E+03  0.10258416311E+04  0.10100000352E+00 0.  1.
       -3    1    3    3    0  502  0.63881107182E+03  0.73832633447E+03 -0.93745573903E+03  0.13535245230E+04  0.10100000352E+00 0. -1.
</event>
<event>
 5   0  0.8108242E-07  0.2300281E+04  0.7818609E-02  0.8477810E-01
        1   -1    0    0  501    0  0.00000000000E+00  0.00000000000E+00  0.15581424042E+04  0.15581424042E+04  0.50400001928E-02 0. -1.
       -1   -1    0    0    0  501  0.00000000000E+00  0.00000000000E+00 -0.84897470213E+03  0.84897470214E+03  0.50400001928E-02 0.  1.
    10030    2    1    2    0    0  0.00000000000E+00  0.00000000000E+00  0.70916770205E+03  0.24071171063E+04  0.23002812728E+04 0.  0.
        4    1    3    3  502    0 -0.55025065745E+03  0.62526483584E+03  0.11845734611E+04  0.14480841822E+04  0.12699999809E+01 0. -1.
       -4    1    3    3    0  502  0.55025065745E+03 -0.62526483584E+03 -0.47540575907E+03  0.95903292415E+03  0.12699999809E+01 0.  1.
</event>
<event>
 5   0  0.1825521E-06  0.2300813E+04  0.7818609E-02  0.8477601E-01
        2   -1    0    0  501    0  0.00000000000E+00  0.00000000000E+00  0.12095695748E+04  0.12095695748E+04  0.25500000920E-02 0. -1.
       -2   -1    0    0    0  501  0.00000000000E+00  0.00000000000E+00 -0.10941368453E+04  0.10941368453E+04  0.25500000920E-02 0.  1.
    10030    2    1    2    0    0  0.00000000000E+00  0.00000000000E+00  0.11543272956E+03  0.23037064201E+04  0.23008125858E+04 0.  0.
        5    1    3    3  502    0 -0.30776377732E+03  0.66849739844E+03  0.94302596799E+03  0.11962137688E+04  0.46999998093E+01 0. -1.
       -5    1    3    3    0  502  0.30776377732E+03 -0.66849739844E+03 -0.82759323843E+03  0.11074926513E+04  0.46999998093E+01 0.  1.
</event>
<event>
 5   0  0.8108242E-07  0.2299401E+04  0.7818609E-02  0.8478157E-01
       -1   -1    0    0    0  501  0.00000000000E+00  0.00000000000E+00  0.49099959554E+03  0.49099959557E+03  0.50400001928E-02 0.  1.
        1   -1    0    0  501    0  0.00000000000E+00  0.00000000000E+00 -0.26920831545E+04  0.26920831545E+04  0.50400001928E-02 0. -1.
    10030    2    1    2    0    0  0.00000000000E+00  0.00000000000E+00 -0.22010835589E+04  0.31830827501E+04  0.22994014352E+04 0.  0.
        4    1    3    3  502    0 -0.39035749795E+03 -0.80648520078E+03 -0.10325019685E+03  0.90191993621E+03  0.12699999809E+01 0.  1.
       -4    1    3    3    0  502  0.39035749795E+03  0.80648520078E+03 -0.20978333621E+04  0.22811628139E+04  0.12699999809E+01 0. -1.
</event>
<event>
 5   0  0.8097672E-07  0.2299650E+04  0.7818609E-02  0.8478059E-01
       -1   -1    0    0    0  501  0.00000000000E+00  0.00000000000E+00  0.40288937232E+03  0.40288937236E+03  0.50400001928E-02 0.  1.
        1   -1    0    0  501    0  0.00000000000E+00  0.00000000000E+00 -0.32815408806E+04  0.32815408806E+04  0.50400001928E-02 0. -1.
    10030    2    1    2    0    0  0.00000000000E+00  0.00000000000E+00 -0.28786515083E+04  0.36844302530E+04  0.22996503610E+04 0.  0.
        3    1    3    3  502    0 -0.51084556943E+03  0.63459490317E+03 -0.27393796923E+04  0.28579494390E+04  0.10100000352E+00 0. -1.
       -3    1    3    3    0  502  0.51084556943E+03 -0.63459490317E+03 -0.13927181596E+03  0.82648081397E+03  0.10100000352E+00 0.  1.
</event>
<event>
 5   0  0.1744876E-06  0.2299697E+04  0.7818609E-02  0.8478040E-01
       -2   -1    0    0    0  501  0.00000000000E+00  0.00000000000E+00  0.78342844833E+03  0.78342844833E+03  0.25500000920E-02 0.  1.
        2   -1    0    0  501    0  0.00000000000E+00  0.00000000000E+00 -0.16876487822E+04  0.16876487822E+04  0.25500000920E-02 0. -1.
    10030    2    1    2    0    0  0.00000000000E+00  0.00000000000E+00 -0.90422033391E+03  0.24710772306E+04  0.22996974295E+04 0.  0.
        1    1    3    3  502    0 -0.33710075340E+03  0.10992919912E+04 -0.44297565807E+03  0.12321961019E+04  0.50400001928E-02 0.  1.
       -1    1    3    3    0  502  0.33710075340E+03 -0.10992919912E+04 -0.46124467584E+03  0.12388811287E+04  0.50400001928E-02 0. -1.
</event>
<event>
 5   0  0.1888779E-06  0.2301259E+04  0.7818609E-02  0.8477425E-01
        2   -1    0    0  501    0  0.00000000000E+00  0.00000000000E+00  0.21394643072E+04  0.21394643072E+04  0.25500000920E-02 0.  1.
       -2   -1    0    0    0  501  0.00000000000E+00  0.00000000000E+00 -0.61882209203E+03  0.61882209204E+03  0.25500000920E-02 0. -1.
    10030    2    1    2    0    0  0.00000000000E+00  0.00000000000E+00  0.15206422151E+04  0.27582863992E+04  0.23012585934E+04 0.  0.
        4    1    3    3  502    0 -0.20975411378E+03 -0.35277205203E+03  0.20487461155E+04  0.20894514035E+04  0.12699999809E+01 0.  1.
       -4    1    3    3    0  502  0.20975411378E+03  0.35277205203E+03 -0.52810390038E+03  0.66883499568E+03  0.12699999809E+01 0. -1.
</event>
<event>
 5   0  0.1828646E-06  0.2299954E+04  0.7818609E-02  0.8477939E-01
       -2   -1    0    0    0  501  0.00000000000E+00  0.00000000000E+00  0.77610860993E+03  0.77610860993E+03  0.25500000920E-02 0.  1.
        2   -1    0    0  501    0  0.00000000000E+00  0.00000000000E+00 -0.17039462555E+04  0.17039462555E+04  0.25500000920E-02 0. -1.
    10030    2    1    2    0    0  0.00000000000E+00  0.00000000000E+00 -0.92783764555E+03  0.24800548654E+04  0.22999542254E+04 0.  0.
        3    1    3    3  502    0  0.30172797551E+03 -0.20547920029E+03  0.71197190921E+03  0.80010341998E+03  0.10100000352E+00 0.  1.
       -3    1    3    3    0  502 -0.30172797551E+03  0.20547920029E+03 -0.16398095548E+04  0.16799514454E+04  0.10100000352E+00 0. -1.
</event>
<event>
 5   0  0.7607231E-07  0.2300120E+04  0.7818609E-02  0.8477874E-01
       -1   -1    0    0    0  501  0.00000000000E+00  0.00000000000E+00  0.65718376155E+03  0.65718376157E+03  0.50400001928E-02 0. -1.
        1   -1    0    0  501    0  0.00000000000E+00  0.00000000000E+00 -0.20125842762E+04  0.20125842762E+04  0.50400001928E-02 0.  1.
    10030    2    1    2    0    0  0.00000000000E+00  0.00000000000E+00 -0.13554005146E+04  0.26697680377E+04  0.23001197404E+04 0.  0.
        2    1    3    3  502    0 -0.15332963317E+03 -0.20409071695E+03 -0.19792857924E+04  0.19956791438E+04  0.25500000920E-02 0.  1.
       -2    1    3    3    0  502  0.15332963317E+03  0.20409071695E+03  0.62388527774E+03  0.67408889394E+03  0.25500000920E-02 0. -1.
</event>
<event>
 5   0  0.7607231E-07  0.2300322E+04  0.7818609E-02  0.8477794E-01
        1   -1    0    0  501    0  0.00000000000E+00  0.00000000000E+00  0.89981335954E+03  0.89981335956E+03  0.50400001928E-02 0.  1.
       -1   -1    0    0    0  501  0.00000000000E+00  0.00000000000E+00 -0.14701612993E+04  0.14701612993E+04  0.50400001928E-02 0. -1.
    10030    2    1    2    0    0  0.00000000000E+00  0.00000000000E+00 -0.57034793979E+03  0.23699746589E+04  0.23003223929E+04 0.  0.
        2    1    3    3  502    0 -0.35100275201E+03 -0.10948180736E+04 -0.25192879037E+03  0.11769866871E+04  0.25500000920E-02 0. -1.
       -2    1    3    3    0  502  0.35100275201E+03  0.10948180736E+04 -0.31841914941E+03  0.11929879718E+04  0.25500000920E-02 0.  1.
</event>
<event>
 5   0  0.1825521E-06  0.2298021E+04  0.7818609E-02  0.8478702E-01
       -2   -1    0    0    0  501  0.00000000000E+00  0.00000000000E+00  0.15136160140E+04  0.15136160140E+04  0.25500000920E-02 0. -1.
        2   -1    0    0  501    0  0.00000000000E+00  0.00000000000E+00 -0.87223243495E+03  0.87223243495E+03  0.25500000920E-02 0.  1.
    10030    2    1    2    0    0  0.00000000000E+00  0.00000000000E+00  0.64138357907E+03  0.23858484490E+04  0.22980208715E+04 0.  0.
        5    1    3    3  502    0 -0.16200685362E+03  0.29018267905E+03 -0.82123121679E+03  0.88594300565E+03  0.46999998093E+01 0.  1.
       -5    1    3    3    0  502  0.16200685362E+03 -0.29018267905E+03  0.14626147959E+04  0.14999054433E+04  0.46999998093E+01 0. -1.
</event>
<event>
 5   0  0.7761069E-07  0.2297985E+04  0.7818609E-02  0.8478716E-01
        1   -1    0    0  501    0  0.00000000000E+00  0.00000000000E+00  0.13238103247E+04  0.13238103247E+04  0.50400001928E-02 0.  1.
       -1   -1    0    0    0  501  0.00000000000E+00  0.00000000000E+00 -0.99726067275E+03  0.99726067276E+03  0.50400001928E-02 0. -1.
    10030    2    1    2    0    0  0.00000000000E+00  0.00000000000E+00  0.32654965199E+03  0.23210709975E+04  0.22979851828E+04 0.  0.
        1    1    3    3  502    0 -0.10140150617E+04 -0.53696101661E+03  0.22413206431E+03  0.11690974557E+04  0.50400001928E-02 0.  1.
       -1    1    3    3    0  502  0.10140150617E+04  0.53696101661E+03  0.10241758768E+03  0.11519735418E+04  0.50400001928E-02 0. -1.
</event>
<event>
 5   0  0.1744876E-06  0.2302776E+04  0.7818609E-02  0.8476828E-01
       -2   -1    0    0    0  501  0.00000000000E+00  0.00000000000E+00  0.51694608981E+03  0.51694608981E+03  0.25500000920E-02 0.  1.
        2   -1    0    0  501    0  0.00000000000E+00  0.00000000000E+00 -0.25644720749E+04  0.25644720749E+04  0.25500000920E-02 0. -1.
    10030    2    1    2    0    0  0.00000000000E+00  0.00000000000E+00 -0.20475259851E+04  0.30814181647E+04  0.23027755527E+04 0.  0.
        1    1    3    3  502    0 -0.28571664007E+03  0.11077295355E+04 -0.11982088874E+04  0.16566240552E+04  0.50400001928E-02 0.  1.
       -1    1    3    3    0  502  0.28571664007E+03 -0.11077295355E+04 -0.84931709769E+03  0.14247941096E+04  0.50400001928E-02 0. -1.
</event>
<event>
 5   0  0.7607231E-07  0.2298666E+04  0.7818609E-02  0.8478447E-01
        1   -1    0    0  501    0  0.00000000000E+00  0.00000000000E+00  0.10807420267E+04  0.10807420267E+04  0.50400001928E-02 0.  1.
       -1   -1    0    0    0  501  0.00000000000E+00  0.00000000000E+00 -0.12222768670E+04  0.12222768670E+04  0.50400001928E-02 0. -1.
    10030    2    1    2    0    0  0.00000000000E+00  0.00000000000E+00 -0.14153484032E+03  0.23030188937E+04  0.22986656812E+04 0.  0.
        2    1    3    3  502    0  0.64268966958E+03  0.93199555254E+03  0.12785093672E+03  0.11393031130E+04  0.25500000920E-02 0.  1.
       -2    1    3    3    0  502 -0.64268966958E+03 -0.93199555254E+03 -0.26938577704E+03  0.11637157807E+04  0.25500000920E-02 0. -1.
</event>
<event>
 5   0  0.8108242E-07  0.2298890E+04  0.7818609E-02  0.8478359E-01
        1   -1    0    0  501    0  0.00000000000E+00  0.00000000000E+00  0.22022087519E+04  0.22022087519E+04  0.50400001928E-02 0. -1.
       -1   -1    0    0    0  501  0.00000000000E+00  0.00000000000E+00 -0.59995388790E+03  0.59995388792E+03  0.50400001928E-02 0.  1.
    10030    2    1    2    0    0  0.00000000000E+00  0.00000000000E+00  0.16022548640E+04  0.28021626398E+04  0.22988899083E+04 0.  0.
        4    1    3    3  502    0 -0.65094944965E+03  0.92895198181E+03  0.57460790567E+03  0.12715592116E+04  0.12699999809E+01 0. -1.
       -4    1    3    3    0  502  0.65094944965E+03 -0.92895198181E+03  0.10276469583E+04  0.15306034282E+04  0.12699999809E+01 0.  1.
</event>
<event>
 5   0  0.7932912E-07  0.2299770E+04  0.7818609E-02  0.8478012E-01
        1   -1    0    0  501    0  0.00000000000E+00  0.00000000000E+00  0.10925385130E+04  0.10925385130E+04  0.50400001928E-02 0.  1.
       -1   -1    0    0    0  501  0.00000000000E+00  0.00000000000E+00 -0.12102411222E+04  0.12102411222E+04  0.50400001928E-02 0. -1.
    10030    2    1    2    0    0  0.00000000000E+00  0.00000000000E+00 -0.11770260923E+03  0.23027796352E+04  0.22997695850E+04 0.  0.
        5    1    3    3  502    0 -0.14117312676E+02  0.10254625484E+02  0.10923963277E+04  0.10925457805E+04  0.46999998093E+01 0.  1.
       -5    1    3    3    0  502  0.14117312676E+02 -0.10254625484E+02 -0.12100989369E+04  0.12102338547E+04  0.46999998093E+01 0. -1.
</event>
<event>
 5   0  0.1888779E-06  0.2295416E+04  0.7818609E-02  0.8479731E-01
       -2   -1    0    0    0  501  0.00000000000E+00  0.00000000000E+00  0.12742432574E+04  0.12742432574E+04  0.25500000920E-02 0.  1.
        2   -1    0    0  501    0  0.00000000000E+00  0.00000000000E+00 -0.10337381179E+04  0.10337381179E+04  0.25500000920E-02 0. -1.
    10030    2    1    2    0    0  0.00000000000E+00  0.00000000000E+00  0.24050513954E+03  0.23079813753E+04  0.22954161511E+04 0.  0.
        4    1    3    3  502    0 -0.13770353872E+03 -0.10403520662E+04 -0.34698195811E+03  0.11053021209E+04  0.12699999809E+01 0. -1.
       -4    1    3    3    0  502  0.13770353872E+03  0.10403520662E+04  0.58748709765E+03  0.12026792544E+04  0.12699999809E+01 0.  1.
</event>
<event>
 5   0  0.7932912E-07  0.2300487E+04  0.7818609E-02  0.8477729E-01
        1   -1    0    0  501    0  0.00000000000E+00  0.00000000000E+00  0.16143029751E+04  0.16143029751E+04  0.50400001928E-02 0.  1.
       -1   -1    0    0    0  501  0.00000000000E+00  0.00000000000E+00 -0.81958633154E+03  0.81958633156E+03  0.50400001928E-02 0. -1.
    10030    2    1    2    0    0  0.00000000000E+00  0.00000000000E+00  0.79471664357E+03  0.24338893067E+04  0.23004874730E+04 0.  0.
        5    1    3    3  502    0 -0.11057245166E+03  0.65692961611E+03 -0.59470310742E+03  0.89301548899E+03  0.46999998093E+01 0. -1.
       -5    1    3    3    0  502  0.11057245166E+03 -0.65692961611E+03  0.13894197510E+04  0.15408738177E+04  0.46999998093E+01 0.  1.
</event>
<event>
 5   0  0.1689444E-06  0.2300306E+04  0.7818609E-02  0.8477800E-01
       -2   -1    0    0    0  501  0.00000000000E+00  0.00000000000E+00  0.12785936704E+04  0.12785936704E+04  0.25500000920E-02 0. -1.
        2   -1    0    0  501    0  0.00000000000E+00  0.00000000000E+00 -0.10346150903E+04  0.10346150903E+04  0.25500000920E-02 0.  1.
    10030    2    1    2    0    0  0.00000000000E+00  0.00000000000E+00  0.24397858015E+03  0.23132087607E+04  0.23003063324E+04 0.  0.
        2    1    3    3  502    0  0.65272105205E+03 -0.64544079968E+03  0.81885072364E+03  0.12301036970E+04  0.25500000920E-02 0. -1.
       -2    1    3    3    0  502 -0.65272105205E+03  0.64544079968E+03 -0.57487214350E+03  0.10831050637E+04  0.25500000920E-02 0.  1.
</event>
<event>
 5   0  0.7607231E-07  0.2298920E+04  0.7818609E-02  0.8478347E-01
        1   -1    0    0  501    0  0.00000000000E+00  0.00000000000E+00  0.16358116536E+04  0.16358116536E+04  0.50400001928E-02 0.  1.
       -1   -1    0    0    0  501  0.00000000000E+00  0.00000000000E+00 -0.80770808489E+03  0.80770808490E+03  0.50400001928E-02 0. -1.
    10030    2    1    2    0    0  0.00000000000E+00  0.00000000000E+00  0.82810356872E+03  0.24435197385E+04  0.22989200056E+04 0.  0.
        2    1    3    3  502    0 -0.33936318079E+03 -0.53568511821E+03  0.14330678378E+04  0.15671022118E+04  0.25500000920E-02 0.  1.
       -2    1    3    3    0  502  0.33936318079E+03  0.53568511821E+03 -0.60496426908E+03  0.87641752676E+03  0.25500000920E-02 0. -1.
</event>
<event>
 5   0  0.7761069E-07  0.2299676E+04  0.7818609E-02  0.8478049E-01
       -1   -1    0    0    0  501  0.00000000000E+00  0.00000000000E+00  0.76452371161E+03  0.76452371163E+03  0.50400001928E-02 0.  1.
        1   -1    0    0  501    0  0.00000000000E+00  0.00000000000E+00 -0.17293475444E+04  0.17293475445E+04  0.50400001928E-02 0. -1.
    10030    2    1    2    0    0  0.00000000000E+00  0.00000000000E+00 -0.96482383284E+03  0.24938712561E+04  0.22996758062E+04 0.  0.
        1    1    3    3  502    0  0.67815888151E+03  0.92343074356E+03 -0.58812940582E+03  0.12878353950E+04  0.50400001928E-02 0. -1.
       -1    1    3    3    0  502 -0.67815888151E+03 -0.92343074356E+03 -0.37669442702E+03  0.12060358610E+04  0.50400001928E-02 0.  1.
</event>
<event>
 5   0  0.1689444E-06  0.2305783E+04  0.7818609E-02  0.8475645E-01
       -2   -1    0    0    0  501  0.00000000000E+00  0.00000000000E+00  0.82446716179E+03  0.82446716179E+03  0.25500000920E-02 0. -1.
        2   -1    0    0  501    0  0.00000000000E+00  0.00000000000E+00 -0.16121424266E+04  0.16121424266E+04  0.25500000920E-02 0.  1.
    10030    2    1    2    0    0  0.00000000000E+00  0.00000000000E+00 -0.78767526481E+03  0.24366095884E+04  0.23057827225E+04 0.  0.
        2    1    3    3  502    0 -0.57685977769E+03 -0.66532652652E+03 -0.11801902564E+04  0.14725065811E+04  0.25500000920E-02 0.  1.
       -2    1    3    3    0  502  0.57685977769E+03  0.66532652652E+03  0.39251499162E+03  0.96410300729E+03  0.25500000920E-02 0. -1.
</event>
<event>
 5   0  0.1888779E-06  0.2301685E+04  0.7818609E-02  0.8477257E-01
       -2   -1    0    0    0  501  0.00000000000E+00  0.00000000000E+00  0.63182420989E+03  0.63182420989E+03  0.25500000920E-02 0. -1.
        2   -1    0    0  501    0  0.00000000000E+00  0.00000000000E+00 -0.20962134960E+04  0.20962134960E+04  0.25500000920E-02 0.  1.
    10030    2    1    2    0    0  0.00000000000E+00  0.00000000000E+00 -0.14643892861E+04  0.27280377059E+04  0.23016849792E+04 0.  0.
        4    1    3    3  502    0  0.24187693653E+03  0.71455905430E+03 -0.17622844129E+04  0.19169629781E+04  0.12699999809E+01 0.  1.
       -4    1    3    3    0  502 -0.24187693653E+03 -0.71455905430E+03  0.29789512684E+03  0.81107472776E+03  0.12699999809E+01 0. -1.
</event>
<event>
 5   0  0.7607231E-07  0.2297888E+04  0.7818609E-02  0.8478754E-01
        1   -1    0    0  501    0  0.00000000000E+00  0.00000000000E+00  0.14636138839E+04  0.14636138840E+04  0.50400001928E-02 0. -1.
       -1   -1    0    0    0  501  0.00000000000E+00  0.00000000000E+00 -0.90192700342E+03  0.90192700343E+03  0.50400001928E-02 0.  1.
    10030    2    1    2    0    0  0.00000000000E+00  0.00000000000E+00  0.56168688052E+03  0.23655408874E+04  0.22978884956E+04 0.  0.
        2    1    3    3  502    0 -0.18818549937E+03  0.10328370483E+04  0.76139150660E+03  0.12968743874E+04  0.25500000920E-02 0. -1.
       -2    1    3    3    0  502  0.18818549937E+03 -0.10328370483E+04 -0.19970462608E+03  0.10686665000E+04  0.25500000920E-02 0.  1.
</event>
<event>
 5   0  0.7761069E-07  0.2300915E+04  0.7818609E-02  0.8477560E-01
       -1   -1    0    0    0  501  0.00000000000E+00  0.00000000000E+00  0.82685542862E+03  0.82685542864E+03  0.50400001928E-02 0.  1.
        1   -1    0    0  501    0  0.00000000000E+00  0.00000000000E+00 -0.16007060672E+04  0.16007060672E+04  0.50400001928E-02 0. -1.
    10030    2    1    2    0    0  0.00000000000E+00  0.00000000000E+00 -0.77385063853E+03  0.24275614958E+04  0.23009150365E+04 0.  0.
        1    1    3    3  502    0  0.27830543703E+03 -0.81926129217E+03 -0.11868874129E+04  0.14687902206E+04  0.50400001928E-02 0. -1.
       -1    1    3    3    0  502 -0.27830543703E+03  0.81926129217E+03  0.41303677439E+03  0.95877127520E+03  0.50400001928E-02 0.  1.
</event>
<event>
 5   0  0.8108242E-07  0.2300009E+04  0.7818609E-02  0.8477917E-01
        1   -1    0    0  501    0  0.00000000000E+00  0.00000000000E+00  0.11637005883E+04  0.11637005883E+04  0.50400001928E-02 0. -1.
       -1   -1    0    0    0  501  0.00000000000E+00  0.00000000000E+00 -0.11364698206E+04  0.11364698206E+04  0.50400001928E-02 0.  1.
    10030    2    1    2    0    0  0.00000000000E+00  0.00000000000E+00  0.27230767759E+02  0.23001704089E+04  0.23000092164E+04 0.  0.
        4    1    3    3  502    0 -0.35039037976E+03  0.52847431980E+03  0.97308371699E+03  0.11614439539E+04  0.12699999809E+01 0. -1.
       -4    1    3    3    0  502  0.35039037976E+03 -0.52847431980E+03 -0.94585294923E+03  0.11387264550E+04  0.12699999809E+01 0.  1.
</event>
<event>
 5   0  0.1888779E-06  0.2300098E+04  0.7818609E-02  0.8477882E-01
       -2   -1    0    0    0  501  0.00000000000E+00  0.00000000000E+00  0.55981700121E+03  0.55981700122E+03  0.25500000920E-02 0.  1.
        2   -1    0    0  501    0  0.00000000000E+00  0.00000000000E+00 -0.23625810737E+04  0.23625810737E+04  0.25500000920E-02 0. -1.
    10030    2    1    2    0    0  0.00000000000E+00  0.00000000000E+00 -0.18027640725E+04  0.29223980749E+04  0.23000983038E+04 0.  0.
        4    1    3    3  502    0 -0.11969982834E+03 -0.92468194253E+03 -0.45999659228E+02  0.93353217689E+03  0.12699999809E+01 0.  1.
       -4    1    3    3    0  502  0.11969982834E+03  0.92468194253E+03 -0.17567644133E+04  0.19888658980E+04  0.12699999809E+01 0. -1.
</event>
<event>
 5   0  0.8097672E-07  0.2300087E+04  0.7818609E-02  0.8477887E-01
       -1   -1    0    0    0  501  0.00000000000E+00  0.00000000000E+00  0.10586925958E+04  0.10586925959E+04  0.50400001928E-02 0.  1.
        1   -1    0    0  501    0  0.00000000000E+00  0.00000000000E+00 -0.12492769877E+04  0.12492769877E+04  0.50400001928E-02 0. -1.
    10030    2    1    2    0    0  0.00000000000E+00  0.00000000000E+00 -0.19058439187E+03  0.23079695836E+04  0.23000872132E+04 0.  0.
        3    1    3    3  502    0  0.31430866877E+02 -0.80430530914E+03 -0.91951164175E+03  0.12220460708E+04  0.10100000352E+00 0. -1.
       -3    1    3    3    0  502 -0.31430866877E+02  0.80430530914E+03  0.72892724989E+03  0.10859235127E+04  0.10100000352E+00 0.  1.
</event>
<event>
 5   0  0.7761069E-07  0.2305515E+04  0.7818609E-02  0.8475750E-01
        1   -1    0    0  501    0  0.00000000000E+00  0.00000000000E+00  0.99303491424E+03  0.99303491425E+03  0.50400001928E-02 0. -1.
       -1   -1    0    0    0  501  0.00000000000E+00  0.00000000000E+00 -0.13381704711E+04  0.13381704711E+04  0.50400001928E-02 0.  1.
    10030    2    1    2    0    0  0.00000000000E+00  0.00000000000E+00 -0.34513555690E+03  0.23312053854E+04  0.23055151260E+04 0.  0.
        1    1    3    3  502    0  0.70822762875E+03 -0.63856634596E+03 -0.82747052024E+03  0.12625612121E+04  0.50400001928E-02 0.  1.
       -1    1    3    3    0  502 -0.70822762875E+03  0.63856634596E+03  0.48233496334E+03  0.10686441733E+04  0.50400001928E-02 0. -1.
</event>
<event>
 5   0  0.7761069E-07  0.2298778E+04  0.7818609E-02  0.8478403E-01
        1   -1    0    0  501    0  0.00000000000E+00  0.00000000000E+00  0.14811996841E+04  0.14811996841E+04  0.50400001928E-02 0.  1.
       -1   -1    0    0    0  501  0.00000000000E+00  0.00000000000E+00 -0.89190905987E+03  0.89190905989E+03  0.50400001928E-02 0. -1.
    10030    2    1    2    0    0  0.00000000000E+00  0.00000000000E+00  0.58929062424E+03  0.23731087440E+04  0.22987782997E+04 0.  0.
        1    1    3    3  502    0 -0.82624382298E+03  0.71413804911E+03  0.66459498592E+03  0.12784203157E+04  0.50400001928E-02 0. -1.
       -1    1    3    3    0  502  0.82624382298E+03 -0.71413804911E+03 -0.75304361677E+02  0.10946884283E+04  0.50400001928E-02 0.  1.
</event>
<event>
 5   0  0.1888779E-06  0.2303983E+04  0.7818609E-02  0.8476352E-01
       -2   -1    0    0    0  501  0.00000000000E+00  0.00000000000E+00  0.88199152811E+03  0.88199152812E+03  0.25500000920E-02 0.  1.
        2   -1    0    0  501    0  0.00000000000E+00  0.00000000000E+00 -0.15046452837E+04  0.15046452837E+04  0.25500000920E-02 0. -1.
    10030    2    1    2    0    0  0.00000000000E+00  0.00000000000E+00 -0.62265375555E+03  0.23866368118E+04  0.23039829800E+04 0.  0.
        4    1    3    3  502    0 -0.54888474740E+03  0.41701514163E+03  0.64477260166E+03  0.94387997914E+03  0.12699999809E+01 0.  1.
       -4    1    3    3    0  502  0.54888474740E+03 -0.41701514163E+03 -0.12674263572E+04  0.14427568326E+04  0.12699999809E+01 0. -1.
</event>
<event>
 5   0  0.1828646E-06  0.2300060E+04  0.7818609E-02  0.8477897E-01
       -2   -1    0    0    0  501  0.00000000000E+00  0.00000000000E+00  0.66113599554E+03  0.66113599554E+03  0.25500000920E-02 0. -1.
        2   -1    0    0  501    0  0.00000000000E+00  0.00000000000E+00 -0.20004493066E+04  0.20004493066E+04  0.25500000920E-02 0.  1.
    10030    2    1    2    0    0  0.00000000000E+00  0.00000000000E+00 -0.13393133111E+04  0.26615853022E+04  0.23000600374E+04 0.  0.
        3    1    3    3  502    0  0.94502258053E+03  0.31469539004E+03 -0.44355290976E+01  0.99605248373E+03  0.10100000352E+00 0. -1.
       -3    1    3    3    0  502 -0.94502258053E+03 -0.31469539004E+03 -0.13348777820E+04  0.16655328184E+04  0.10100000352E+00 0.  1.
</event>
<event>
 5   0  0.1825521E-06  0.2300193E+04  0.7818609E-02  0.8477845E-01
       -2   -1    0    0    0  501  0.00000000000E+00  0.00000000000E+00  0.72511497544E+03  0.72511497544E+03  0.25500000920E-02 0. -1.
        2   -1    0    0  501    0  0.00000000000E+00  0.00000000000E+00 -0.18241554053E+04  0.18241554053E+04  0.25500000920E-02 0.  1.
    10030    2    1    2    0    0  0.00000000000E+00  0.00000000000E+00 -0.10990404299E+04  0.25492703808E+04  0.23001933848E+04 0.  0.
        5    1    3    3  502    0 -0.85485661302E+03  0.52330614341E+03  0.75528258180E+02  0.10051645419E+04  0.46999998093E+01 0. -1.
       -5    1    3    3    0  502  0.85485661302E+03 -0.52330614341E+03 -0.11745686881E+04  0.15441058388E+04  0.46999998093E+01 0.  1.
</event>
<event>
 5   0  0.1828646E-06  0.2301360E+04  0.7818609E-02  0.8477385E-01
        2   -1    0    0  501    0  0.00000000000E+00  0.00000000000E+00  0.15837212858E+04  0.15837212858E+04  0.25500000920E-02 0. -1.
       -2   -1    0    0    0  501  0.00000000000E+00  0.00000000000E+00 -0.83604604021E+03  0.83604604021E+03  0.25500000920E-02 0.  1.
    10030    2    1    2    0    0  0.00000000000E+00  0.00000000000E+00  0.74767524559E+03  0.24197673260E+04  0.23013595198E+04 0.  0.
        3    1    3    3  502    0 -0.58038734646E+03  0.53777977019E+03  0.12522918463E+04  0.14813140895E+04  0.10100000352E+00 0. -1.
       -3    1    3    3    0  502  0.58038734646E+03 -0.53777977019E+03 -0.50461660075E+03  0.93845323651E+03  0.10100000352E+00 0.  1.
</event>
<event>
 5   0  0.7932912E-07  0.2299147E+04  0.7818609E-02  0.8478258E-01
        1   -1    0    0  501    0  0.00000000000E+00  0.00000000000E+00  0.24099640691E+04  0.24099640691E+04  0.50400001928E-02 0.  1.
       -1   -1    0    0    0  501  0.00000000000E+00  0.00000000000E+00 -0.54835622632E+03  0.54835622634E+03  0.50400001928E-02 0. -1.
    10030    2    1    2    0    0  0.00000000000E+00  0.00000000000E+00  0.18616078428E+04  0.29583202954E+04  0.22991466265E+04 0.  0.
        5    1    3    3  502    0  0.22826005096E+03  0.46947556677E+03 -0.38703862956E+03  0.64986994809E+03  0.46999998093E+01 0. -1.
       -5    1    3    3    0  502 -0.22826005096E+03 -0.46947556677E+03  0.22486464723E+04  0.23084503474E+04  0.46999998093E+01 0.  1.
</event>
<event>
 5   0  0.1825521E-06  0.2301053E+04  0.7818609E-02  0.8477506E-01
        2   -1    0    0  501    0  0.00000000000E+00  0.00000000000E+00  0.21359659672E+04  0.21359659672E+04  0.25500000920E-02 0.  1.
       -2   -1    0    0    0  501  0.00000000000E+00  0.00000000000E+00 -0.61972465435E+03  0.61972465435E+03  0.25500000920E-02 0. -1.
    10030    2    1    2    0    0  0.00000000000E+00  0.00000000000E+00  0.15162413129E+04  0.27556906216E+04  0.23010526033E+04 0.  0.
        5    1    3    3  502    0  0.59387380098E+03  0.98538451639E+03  0.76346890212E+03  0.13807880327E+04  0.46999998093E+01 0.  1.
       -5    1    3    3    0  502 -0.59387380098E+03 -0.98538451639E+03  0.75277241078E+03  0.13749025889E+04  0.46999998093E+01 0. -1.
</event>
<event>
 5   0  0.1689444E-06  0.2299840E+04  0.7818609E-02  0.8477984E-01
        2   -1    0    0  501    0  0.00000000000E+00  0.00000000000E+00  0.75481960486E+03  0.75481960487E+03  0.25500000920E-02 0. -1.
       -2   -1    0    0    0  501  0.00000000000E+00  0.00000000000E+00 -0.17518310742E+04  0.17518310742E+04  0.25500000920E-02 0.  1.
    10030    2    1    2    0    0  0.00000000000E+00  0.00000000000E+00 -0.99701146933E+03  0.25066506791E+04  0.22998403764E+04 0.  0.
        2    1    3    3  502    0 -0.32155169152E+02  0.87204479430E+03  0.31771572343E+03  0.92867613251E+03  0.25500000920E-02 0. -1.
       -2    1    3    3    0  502  0.32155169152E+02 -0.87204479430E+03 -0.13147271928E+04  0.15779745466E+04  0.25500000920E-02 0.  1.
</event>
<event>
 5   0  0.1825521E-06  0.2299797E+04  0.7818609E-02  0.8478001E-01
        2   -1    0    0  501    0  0.00000000000E+00  0.00000000000E+00  0.11707813876E+04  0.11707813876E+04  0.25500000920E-02 0.  1.
       -2   -1    0    0    0  501  0.00000000000E+00  0.00000000000E+00 -0.11293879277E+04  0.11293879277E+04  0.25500000920E-02 0. -1.
    10030    2    1    2    0    0  0.00000000000E+00  0.00000000000E+00  0.41393459918E+02  0.23001693153E+04  0.22997968302E+04 0.  0.
        5    1    3    3  502    0  0.98812984559E+03 -0.58798028818E+03  0.96105288480E+01  0.11498851522E+04  0.46999998093E+01 0. -1.
       -5    1    3    3    0  502 -0.98812984559E+03  0.58798028818E+03  0.31782931070E+02  0.11502841630E+04  0.46999998093E+01 0.  1.
</event>
<event>
 5   0  0.7761069E-07  0.2291174E+04  0.7818609E-02  0.8481409E-01
        1   -1    0    0  501    0  0.00000000000E+00  0.00000000000E+00  0.10973832021E+04  0.10973832022E+04  0.50400001928E-02 0.  1.
       -1   -1    0    0    0  501  0.00000000000E+00  0.00000000000E+00 -0.11959079793E+04  0.11959079793E+04  0.50400001928E-02 0. -1.
    10030    2    1    2    0    0  0.00000000000E+00  0.00000000000E+00 -0.98524777118E+02  0.22932911814E+04  0.22911737846E+04 0.  0.
        1    1    3    3  502    0 -0.37614551300E+03 -0.76752500831E+03 -0.81271838908E+03  0.11794453210E+04  0.50400001928E-02 0. -1.
       -1    1    3    3    0  502  0.37614551300E+03  0.76752500831E+03  0.71419361196E+03  0.11138458604E+04  0.50400001928E-02 0.  1.
</event>
<event>
 5   0  0.1689444E-06  0.2298998E+04  0.7818609E-02  0.8478316E-01
        2   -1    0    0  501    0  0.00000000000E+00  0.00000000000E+00  0.21043735082E+04  0.21043735082E+04  0.25500000920E-02 0. -1.
       -2   -1    0    0    0  501  0.00000000000E+00  0.00000000000E+00 -0.62790541730E+03  0.62790541731E+03  0.25500000920E-02 0.  1.
    10030    2    1    2    0    0  0.00000000000E+00  0.00000000000E+00  0.14764680909E+04  0.27322789255E+04  0.22989976301E+04 0.  0.
        2    1    3    3  502    0 -0.86725826361E+03  0.51788698369E+02 -0.15630111042E+03  0.88275081546E+03  0.25500000920E-02 0.  1.
       -2    1    3    3    0  502  0.86725826361E+03 -0.51788698369E+02  0.16327692013E+04  0.18495281101E+04  0.25500000920E-02 0. -1.
</event>
<event>
 5   0  0.7932912E-07  0.2300443E+04  0.7818609E-02  0.8477746E-01
        1   -1    0    0  501    0  0.00000000000E+00  0.00000000000E+00  0.13677326060E+04  0.13677326060E+04  0.50400001928E-02 0.  1.
       -1   -1    0    0    0  501  0.00000000000E+00  0.00000000000E+00 -0.96730132142E+03  0.96730132143E+03  0.50400001928E-02 0. -1.
    10030    2    1    2    0    0  0.00000000000E+00  0.00000000000E+00  0.40043128455E+03  0.23350339274E+04  0.23004430505E+04 0.  0.
        5    1    3    3  502    0 -0.24777105335E+00 -0.13195896781E+03  0.13600140133E+04  0.13664089567E+04  0.46999998093E+01 0.  1.
       -5    1    3    3    0  502  0.24777105335E+00  0.13195896781E+03 -0.95958272875E+03  0.96862497071E+03  0.46999998093E+01 0. -1.
</event>
<event>
 5   0  0.8097672E-07  0.2299932E+04  0.7818609E-02  0.8477948E-01
       -1   -1    0    0    0  501  0.00000000000E+00  0.00000000000E+00  0.87767101575E+03  0.87767101576E+03  0.50400001928E-02 0.  1.
        1   -1    0    0  501    0  0.00000000000E+00  0.00000000000E+00 -0.15067393519E+04  0.15067393520E+04  0.50400001928E-02 0. -1.
    10030    2    1    2    0    0  0.00000000000E+00  0.00000000000E+00 -0.62906833620E+03  0.23844103677E+04  0.22999317012E+04 0.  0.
        3    1    3    3  502    0 -0.30928273342E+03  0.10240209162E+04  0.12304342642E+03  0.10767610417E+04  0.10100000352E+00 0.  1.
       -3    1    3    3    0  502  0.30928273342E+03 -0.10240209162E+04 -0.75211176262E+03  0.13076493260E+04  0.10100000352E+00 0. -1.
</event>
<event>
 5   0  0.1888779E-06  0.2300303E+04  0.7818609E-02  0.8477802E-01
       -2   -1    0    0    0  501  0.00000000000E+00  0.00000000000E+00  0.55805811262E+03  0.55805811262E+03  0.25500000920E-02 0. -1.
        2   -1    0    0  501    0  0.00000000000E+00  0.00000000000E+00 -0.23704492242E+04  0.23704492242E+04  0.25500000920E-02 0.  1.
    10030    2    1    2    0    0  0.00000000000E+00  0.00000000000E+00 -0.18123911116E+04  0.29285073368E+04  0.23003029541E+04 0.  0.
        4    1    3    3  502    0 -0.74990502773E+03 -0.71308822305E+03 -0.15452778138E+04  0.18597681305E+04  0.12699999809E+01 0. -1.
       -4    1    3    3    0  502  0.74990502773E+03  0.71308822305E+03 -0.26711329783E+03  0.10687392064E+04  0.12699999809E+01 0.  1.
</event>
<event>
 5   0  0.8097672E-07  0.2300994E+04  0.7818609E-02  0.8477529E-01
       -1   -1    0    0    0  501  0.00000000000E+00  0.00000000000E+00  0.11717022061E+04  0.11717022061E+04  0.50400001928E-02 0.  1.
        1   -1    0    0  501    0  0.00000000000E+00  0.00000000000E+00 -0.11296754918E+04  0.11296754919E+04  0.50400001928E-02 0. -1.
    10030    2    1    2    0    0  0.00000000000E+00  0.00000000000E+00  0.42026714290E+02  0.23013776980E+04  0.23009939296E+04 0.  0.
        3    1    3    3  502    0 -0.11267875336E+04  0.41186236793E+02 -0.20770972821E+03  0.11465120119E+04  0.10100000352E+00 0. -1.
       -3    1    3    3    0  502  0.11267875336E+04 -0.41186236793E+02  0.24973644250E+03  0.11548656861E+04  0.10100000352E+00 0.  1.
</event>
<event>
 5   0  0.8108242E-07  0.2299814E+04  0.7818609E-02  0.8477995E-01
       -1   -1    0    0    0  501  0.00000000000E+00  0.00000000000E+00  0.11565771510E+04  0.11565771510E+04  0.50400001928E-02 0.  1.
        1   -1    0    0  501    0  0.00000000000E+00  0.00000000000E+00 -0.11432749991E+04  0.11432749991E+04  0.50400001928E-02 0. -1.
    10030    2    1    2    0    0  0.00000000000E+00  0.00000000000E+00  0.13302151910E+02  0.22998521501E+04  0.22998136805E+04 0.  0.
        4    1    3    3  502    0  0.10877023871E+04 -0.26325263047E+03 -0.25771237857E+03  0.11483970190E+04  0.12699999809E+01 0. -1.
       -4    1    3    3    0  502 -0.10877023871E+04  0.26325263047E+03  0.27101453048E+03  0.11514551311E+04  0.12699999809E+01 0.  1.
</event>
<event>
 5   0  0.8097672E-07  0.2301680E+04  0.7818609E-02  0.8477259E-01
        1   -1    0    0  501    0  0.00000000000E+00  0.00000000000E+00  0.10611721970E+04  0.10611721970E+04  0.50400001928E-02 0.  1.
       -1   -1    0    0    0  501  0.00000000000E+00  0.00000000000E+00 -0.12480849961E+04  0.12480849961E+04  0.50400001928E-02 0. -1.
    10030    2    1    2    0    0  0.00000000000E+00  0.00000000000E+00 -0.18691279911E+03  0.23092571931E+04  0.23016803404E+04 0.  0.
        3    1    3    3  502    0 -0.30392622128E+03 -0.16175345871E+03 -0.11952050841E+04  0.12438048612E+04  0.10100000352E+00 0. -1.
       -3    1    3    3    0  502  0.30392622128E+03  0.16175345871E+03  0.10082922850E+04  0.10654523319E+04  0.10100000352E+00 0.  1.
</event>
<event>
 5   0  0.1828646E-06  0.2300576E+04  0.7818609E-02  0.8477694E-01
       -2   -1    0    0    0  501  0.00000000000E+00  0.00000000000E+00  0.91113500054E+03  0.91113500054E+03  0.25500000920E-02 0. -1.
        2   -1    0    0  501    0  0.00000000000E+00  0.00000000000E+00 -0.14522140207E+04  0.14522140207E+04  0.25500000920E-02 0.  1.
    10030    2    1    2    0    0  0.00000000000E+00  0.00000000000E+00 -0.54107902020E+03  0.23633490213E+04  0.23005764691E+04 0.  0.
        3    1    3    3  502    0  0.77932472662E+03  0.20293212772E+03 -0.11143122189E+04  0.13748527955E+04  0.10100000352E+00 0.  1.
       -3    1    3    3    0  502 -0.77932472662E+03 -0.20293212772E+03  0.57323319872E+03  0.98849622574E+03  0.10100000352E+00 0. -1.
</event>
<event>
 5   0  0.8108242E-07  0.2303284E+04  0.7818609E-02  0.8476627E-01
       -1   -1    0    0    0  501  0.00000000000E+00  0.00000000000E+00  0.59174867478E+03  0.59174867480E+03  0.50400001928E-02 0.  1.
        1   -1    0    0  501    0  0.00000000000E+00  0.00000000000E+00 -0.22412881140E+04  0.22412881140E+04  0.50400001928E-02 0. -1.
    10030    2    1    2    0    0  0.00000000000E+00  0.00000000000E+00 -0.16495394392E+04  0.28330367888E+04  0.23032839784E+04 0.  0.
        4    1    3    3  502    0  0.10484085702E+04  0.10150706376E+03 -0.25204248954E+03  0.10830472028E+04  0.12699999809E+01 0. -1.
       -4    1    3    3    0  502 -0.10484085702E+04 -0.10150706376E+03 -0.13974969497E+04  0.17499895860E+04  0.12699999809E+01 0.  1.
</event>
<event>
 5   0  0.7932912E-07  0.2302351E+04  0.7818609E-02  0.8476995E-01
        1   -1    0    0  501    0  0.00000000000E+00  0.00000000000E+00  0.11712494344E+04  0.11712494345E+04  0.50400001928E-02 0. -1.
       -1   -1    0    0    0  501  0.00000000000E+00  0.00000000000E+00 -0.11314454604E+04  0.11314454604E+04  0.50400001928E-02 0.  1.
    10030    2    1    2    0    0  0.00000000000E+00  0.00000000000E+00  0.39803974061E+02  0.23026948949E+04  0.23023508470E+04 0.  0.
        5    1    3    3  502    0  0.71122020865E+02  0.11439149402E+04  0.12754257164E+03  0.11532081034E+04  0.46999998093E+01 0. -1.
       -5    1    3    3    0  502 -0.71122020865E+02 -0.11439149402E+04 -0.87738597580E+02  0.11494867914E+04  0.46999998093E+01 0.  1.
</event>
<event>
 5   0  0.1825521E-06  0.2300204E+04  0.7818609E-02  0.8477841E-01
        2   -1    0    0  501    0  0.00000000000E+00  0.00000000000E+00  0.10158595031E+04  0.10158595031E+04  0.25500000920E-02 0. -1.
       -2   -1    0    0    0  501  0.00000000000E+00  0.00000000000E+00 -0.13020839916E+04  0.13020839916E+04  0.25500000920E-02 0.  1.
    10030    2    1    2    0    0  0.00000000000E+00  0.00000000000E+00 -0.28622448849E+03  0.23179434947E+04  0.23002038142E+04 0.  0.
        5    1    3    3  502    0  0.42632097836E+03  0.97615325423E+03  0.29392309427E+03  0.11050057139E+04  0.46999998093E+01 0. -1.
       -5    1    3    3    0  502 -0.42632097836E+03 -0.97615325423E+03 -0.58014758276E+03  0.12129377808E+04  0.46999998093E+01 0.  1.
</event>
<event>
 5   0  0.7932912E-07  0.2306633E+04  0.7818609E-02  0.8475310E-01
       -1   -1    0    0    0  501  0.00000000000E+00  0.00000000000E+00  0.27528063856E+04  0.27528063856E+04  0.50400001928E-02 0. -1.
        1   -1    0    0  501    0  0.00000000000E+00  0.00000000000E+00 -0.48319378842E+03  0.48319378844E+03  0.50400001928E-02 0.  1.
    10030    2    1    2    0    0  0.00000000000E+00  0.00000000000E+00  0.22696125972E+04  0.32360001741E+04  0.23066329975E+04 0.  0.
        5    1    3    3  502    0 -0.56473925576E+03  0.95198518258E+03  0.68040474560E+03  0.12992993969E+04  0.46999998093E+01 0.  1.
       -5    1    3    3    0  502  0.56473925576E+03 -0.95198518258E+03  0.15892078516E+04  0.19367007772E+04  0.46999998093E+01 0. -1.
</event>
<event>
 5   0  0.1888779E-06  0.2297724E+04  0.7818609E-02  0.8478819E-01
       -2   -1    0    0    0  501  0.00000000000E+00  0.00000000000E+00  0.12805433811E+04  0.12805433811E+04  0.25500000920E-02 0.  1.
        2   -1    0    0  501    0  0.00000000000E+00  0.00000000000E+00 -0.10307213894E+04  0.10307213894E+04  0.25500000920E-02 0. -1.
    10030    2    1    2    0    0  0.00000000000E+00  0.00000000000E+00  0.24982199171E+03  0.23112647706E+04  0.22977236153E+04 0.  0.
        4    1    3    3  502    0  0.54700175558E+03 -0.92120985137E+03 -0.29231449175E+03  0.11105349548E+04  0.12699999809E+01 0. -1.
       -4    1    3    3    0  502 -0.54700175558E+03  0.92120985137E+03  0.54213648346E+03  0.12007298158E+04  0.12699999809E+01 0.  1.
</event>
<event>
 5   0  0.7607231E-07  0.2299252E+04  0.7818609E-02  0.8478216E-01
        1   -1    0    0  501    0  0.00000000000E+00  0.00000000000E+00  0.13830360661E+04  0.13830360662E+04  0.50400001928E-02 0. -1.
       -1   -1    0    0    0  501  0.00000000000E+00  0.00000000000E+00 -0.95560739685E+03  0.95560739686E+03  0.50400001928E-02 0.  1.
    10030    2    1    2    0    0  0.00000000000E+00  0.00000000000E+00  0.42742866930E+03  0.23386434630E+04  0.22992516130E+04 0.  0.
        2    1    3    3  502    0 -0.36726256555E+03 -0.10258383159E+04  0.58661991740E+03  0.12374768563E+04  0.25500000920E-02 0. -1.
       -2    1    3    3    0  502  0.36726256555E+03  0.10258383159E+04 -0.15919124811E+03  0.11011666067E+04  0.25500000920E-02 0.  1.
</event>
<event>
 5   0  0.7607231E-07  0.2299968E+04  0.7818609E-02  0.8477934E-01
        1   -1    0    0  501    0  0.00000000000E+00  0.00000000000E+00  0.19088899286E+04  0.19088899286E+04  0.50400001928E-02 0.  1.
       -1   -1    0    0    0  501  0.00000000000E+00  0.00000000000E+00 -0.69279179484E+03  0.69279179486E+03  0.50400001928E-02 0. -1.
    10030    2    1    2    0    0  0.00000000000E+00  0.00000000000E+00  0.12160981337E+04  0.26016817234E+04  0.22999680692E+04 0.  0.
        2    1    3    3  502    0 -0.74095369242E+03  0.85509649925E+03  0.37550694007E+03  0.11921442276E+04  0.25500000920E-02 0. -1.
       -2    1    3    3    0  502  0.74095369242E+03 -0.85509649925E+03  0.84059119367E+03  0.14095374959E+04  0.25500000920E-02 0.  1.
</event>
<event>
 5   0  0.7761069E-07  0.2299553E+04  0.7818609E-02  0.8478097E-01
        1   -1    0    0  501    0  0.00000000000E+00  0.00000000000E+00  0.14926367109E+04  0.14926367109E+04  0.50400001928E-02 0.  1.
       -1   -1    0    0    0  501  0.00000000000E+00  0.00000000000E+00 -0.88567173328E+03  0.88567173330E+03  0.50400001928E-02 0. -1.
    10030    2    1    2    0    0  0.00000000000E+00  0.00000000000E+00  0.60696497759E+03  0.23783084442E+04  0.22995531243E+04 0.  0.
        1    1    3    3  502    0  0.17352875078E+03 -0.89349269060E+03 -0.42310512318E+03  0.10037227510E+04  0.50400001928E-02 0. -1.
       -1    1    3    3    0  502 -0.17352875078E+03  0.89349269060E+03  0.10300701008E+04  0.13745856932E+04  0.50400001928E-02 0.  1.
</event>
<event>
 5   0  0.1744876E-06  0.2299809E+04  0.7818609E-02  0.8477996E-01
        2   -1    0    0  501    0  0.00000000000E+00  0.00000000000E+00  0.13097988758E+04  0.13097988758E+04  0.25500000920E-02 0. -1.
       -2   -1    0    0    0  501  0.00000000000E+00  0.00000000000E+00 -0.10095295025E+04  0.10095295025E+04  0.25500000920E-02 0.  1.
    10030    2    1    2    0    0  0.00000000000E+00  0.00000000000E+00  0.30026937330E+03  0.23193283782E+04  0.22998092159E+04 0.  0.
        1    1    3    3  502    0  0.79855070395E+03 -0.49766037529E+03 -0.51648345008E+03  0.10733611835E+04  0.50400001928E-02 0.  1.
       -1    1    3    3    0  502 -0.79855070395E+03  0.49766037529E+03  0.81675282338E+03  0.12459671948E+04  0.50400001928E-02 0. -1.
</event>
<event>
 5   0  0.7607231E-07  0.2300370E+04  0.7818609E-02  0.8477775E-01
        1   -1    0    0  501    0  0.00000000000E+00  0.00000000000E+00  0.15443639140E+04  0.15443639140E+04  0.50400001928E-02 0. -1.
       -1   -1    0    0    0  501  0.00000000000E+00  0.00000000000E+00 -0.85661508611E+03  0.85661508613E+03  0.50400001928E-02 0.  1.
    10030    2    1    2    0    0  0.00000000000E+00  0.00000000000E+00  0.68774882792E+03  0.24009790002E+04  0.23003699070E+04 0.  0.
        2    1    3    3  502    0  0.42709420115E+03  0.10613212119E+04  0.46786944769E+03  0.12360072781E+04  0.25500000920E-02 0. -1.
       -2    1    3    3    0  502 -0.42709420115E+03 -0.10613212119E+04  0.21987938023E+03  0.11649717221E+04  0.25500000920E-02 0.  1.
</event>
<event>
 5   0  0.7607231E-07  0.2300528E+04  0.7818609E-02  0.8477713E-01
        1   -1    0    0  501    0  0.00000000000E+00  0.00000000000E+00  0.16891684754E+04  0.16891684754E+04  0.50400001928E-02 0. -1.
       -1   -1    0    0    0  501  0.00000000000E+00  0.00000000000E+00 -0.78328894612E+03  0.78328894613E+03  0.50400001928E-02 0.  1.
    10030    2    1    2    0    0  0.00000000000E+00  0.00000000000E+00  0.90587952929E+03  0.24724574215E+04  0.23005277611E+04 0.  0.
        2    1    3    3  502    0  0.45251632348E+02 -0.33784918651E+03  0.16336411786E+04  0.16688239222E+04  0.25500000920E-02 0. -1.
       -2    1    3    3    0  502 -0.45251632348E+02  0.33784918651E+03 -0.72776164929E+03  0.80363349932E+03  0.25500000920E-02 0.  1.
</event>
<event>
 5   0  0.1825521E-06  0.2299803E+04  0.7818609E-02  0.8477999E-01
       -2   -1    0    0    0  501  0.00000000000E+00  0.00000000000E+00  0.14144270622E+04  0.14144270622E+04  0.25500000920E-02 0.  1.
        2   -1    0    0  501    0  0.00000000000E+00  0.00000000000E+00 -0.93484754812E+03  0.93484754812E+03  0.25500000920E-02 0. -1.
    10030    2    1    2    0    0  0.00000000000E+00  0.00000000000E+00  0.47957951408E+03  0.23492746103E+04  0.22998031838E+04 0.  0.
        5    1    3    3  502    0  0.10140233184E+04 -0.20678254375E+03 -0.27224037461E+03  0.10701117803E+04  0.46999998093E+01 0.  1.
       -5    1    3    3    0  502 -0.10140233184E+04  0.20678254375E+03  0.75181988870E+03  0.12791628300E+04  0.46999998093E+01 0. -1.
</event>
<event>
 5   0  0.1888779E-06  0.2300071E+04  0.7818609E-02  0.8477893E-01
        2   -1    0    0  501    0  0.00000000000E+00  0.00000000000E+00  0.97908395187E+03  0.97908395187E+03  0.25500000920E-02 0.  1.
       -2   -1    0    0    0  501  0.00000000000E+00  0.00000000000E+00 -0.13508357590E+04  0.13508357590E+04  0.25500000920E-02 0. -1.
    10030    2    1    2    0    0  0.00000000000E+00  0.00000000000E+00 -0.37175180717E+03  0.23299197109E+04  0.23000709670E+04 0.  0.
        4    1    3    3  502    0  0.29361908852E+03 -0.93706548286E+03 -0.79220532976E+03  0.12617031290E+04  0.12699999809E+01 0. -1.
       -4    1    3    3    0  502 -0.29361908852E+03  0.93706548286E+03  0.42045352259E+03  0.10682165819E+04  0.12699999809E+01 0.  1.
</event>
<event>
 5   0  0.7607231E-07  0.2299632E+04  0.7818609E-02  0.8478066E-01
       -1   -1    0    0    0  501  0.00000000000E+00  0.00000000000E+00  0.87470135848E+03  0.87470135849E+03  0.50400001928E-02 0. -1.
        1   -1    0    0  501    0  0.00000000000E+00  0.00000000000E+00 -0.15114605656E+04  0.15114605656E+04  0.50400001928E-02 0.  1.
    10030    2    1    2    0    0  0.00000000000E+00  0.00000000000E+00 -0.63675920713E+03  0.23861619241E+04  0.22996318054E+04 0.  0.
        2    1    3    3  502    0 -0.10241892573E+04  0.40444923723E+03 -0.66179175785E+03  0.12847222077E+04  0.25500000920E-02 0. -1.
       -2    1    3    3    0  502  0.10241892573E+04 -0.40444923723E+03  0.25032550713E+02  0.11014397164E+04  0.25500000920E-02 0.  1.
</event>
<event>
 5   0  0.7761069E-07  0.2298888E+04  0.7818609E-02  0.8478359E-01
        1   -1    0    0  501    0  0.00000000000E+00  0.00000000000E+00  0.54136569151E+03  0.54136569153E+03  0.50400001928E-02 0.  1.
       -1   -1    0    0    0  501  0.00000000000E+00  0.00000000000E+00 -0.24405353020E+04  0.24405353020E+04  0.50400001928E-02 0. -1.
    10030    2    1    2    0    0  0.00000000000E+00  0.00000000000E+00 -0.18991696105E+04  0.29819009936E+04  0.22988884979E+04 0.  0.
        1    1    3    3  502    0 -0.49428132951E+03  0.60063643409E+03 -0.20472640886E+04  0.21900612793E+04  0.50400001928E-02 0. -1.
       -1    1    3    3    0  502  0.49428132951E+03 -0.60063643409E+03  0.14809447804E+03  0.79183971428E+03  0.50400001928E-02 0.  1.
</event>
<event>
 5   0  0.8097672E-07  0.2297189E+04  0.7818609E-02  0.8479030E-01
        1   -1    0    0  501    0  0.00000000000E+00  0.00000000000E+00  0.17623867281E+04  0.17623867281E+04  0.50400001928E-02 0. -1.
       -1   -1    0    0    0  501  0.00000000000E+00  0.00000000000E+00 -0.74856979720E+03  0.74856979722E+03  0.50400001928E-02 0.  1.
    10030    2    1    2    0    0  0.00000000000E+00  0.00000000000E+00  0.10138169309E+04  0.25109565253E+04  0.22971891308E+04 0.  0.
        3    1    3    3  502    0 -0.10142688215E+04 -0.29409426411E+03  0.13170323250E+02  0.10561279024E+04  0.10100000352E+00 0.  1.
       -3    1    3    3    0  502  0.10142688215E+04  0.29409426411E+03  0.10006466076E+04  0.14548286229E+04  0.10100000352E+00 0. -1.
</event>
<event>
 5   0  0.1689444E-06  0.2302367E+04  0.7818609E-02  0.8476988E-01
       -2   -1    0    0    0  501  0.00000000000E+00  0.00000000000E+00  0.61571095038E+03  0.61571095039E+03  0.25500000920E-02 0. -1.
        2   -1    0    0  501    0  0.00000000000E+00  0.00000000000E+00 -0.21523474395E+04  0.21523474395E+04  0.25500000920E-02 0.  1.
    10030    2    1    2    0    0  0.00000000000E+00  0.00000000000E+00 -0.15366364892E+04  0.27680583899E+04  0.23023673795E+04 0.  0.
        2    1    3    3  502    0 -0.37947434858E+03  0.22081974488E+03  0.51109957131E+03  0.67378402531E+03  0.25500000920E-02 0. -1.
       -2    1    3    3    0  502  0.37947434858E+03 -0.22081974488E+03 -0.20477360605E+04  0.20942743646E+04  0.25500000920E-02 0.  1.
</event>
<event>
 5   0  0.7761069E-07  0.2299649E+04  0.7818609E-02  0.8478059E-01
        1   -1    0    0  501    0  0.00000000000E+00  0.00000000000E+00  0.96728376359E+03  0.96728376360E+03  0.50400001928E-02 0.  1.
       -1   -1    0    0    0  501  0.00000000000E+00  0.00000000000E+00 -0.13668136548E+04  0.13668136548E+04  0.50400001928E-02 0. -1.
    10030    2    1    2    0    0  0.00000000000E+00  0.00000000000E+00 -0.39952989121E+03  0.23340974184E+04  0.22996492395E+04 0.  0.
        1    1    3    3  502    0 -0.10812109985E+04  0.37219022239E+03 -0.32221152057E+03  0.11880080172E+04  0.50400001928E-02 0.  1.
       -1    1    3    3    0  502  0.10812109985E+04 -0.37219022239E+03 -0.77318370647E+02  0.11460894012E+04  0.50400001928E-02 0. -1.
</event>
<event>
 5   0  0.1825521E-06  0.2298152E+04  0.7818609E-02  0.8478650E-01
       -2   -1    0    0    0  501  0.00000000000E+00  0.00000000000E+00  0.70312637755E+03  0.70312637756E+03  0.25500000920E-02 0.  1.
        2   -1    0    0  501    0  0.00000000000E+00  0.00000000000E+00 -0.18778645775E+04  0.18778645775E+04  0.25500000920E-02 0. -1.
    10030    2    1    2    0    0  0.00000000000E+00  0.00000000000E+00 -0.11747381999E+04  0.25809909550E+04  0.22981524039E+04 0.  0.
        5    1    3    3  502    0 -0.68397877058E+03 -0.59172851836E+03  0.20865413087E+03  0.92818545258E+03  0.46999998093E+01 0.  1.
       -5    1    3    3    0  502  0.68397877058E+03  0.59172851836E+03 -0.13833923308E+04  0.16528055025E+04  0.46999998093E+01 0. -1.
</event>
<event>
 5   0  0.8097672E-07  0.2300094E+04  0.7818609E-02  0.8477884E-01
        1   -1    0    0  501    0  0.00000000000E+00  0.00000000000E+00  0.13094193232E+04  0.13094193232E+04  0.50400001928E-02 0.  1.
       -1   -1    0    0    0  501  0.00000000000E+00  0.00000000000E+00 -0.10100718387E+04  0.10100718387E+04  0.50400001928E-02 0. -1.
    10030    2    1    2    0    0  0.00000000000E+00  0.00000000000E+00  0.29934748451E+03  0.23194911618E+04  0.23000935488E+04 0.  0.
        3    1    3    3  502    0 -0.65745896116E+03  0.21952311731E+03  0.10751084590E+04  0.12791797737E+04  0.10100000352E+00 0.  1.
       -3    1    3    3    0  502  0.65745896116E+03 -0.21952311731E+03 -0.77576097446E+03  0.10403113882E+04  0.10100000352E+00 0. -1.
</event>
<event>
 5   0  0.1689444E-06  0.2300017E+04  0.7818609E-02  0.8477914E-01
       -2   -1    0    0    0  501  0.00000000000E+00  0.00000000000E+00  0.10041072664E+04  0.10041072664E+04  0.25500000920E-02 0. -1.
        2   -1    0    0  501    0  0.00000000000E+00  0.00000000000E+00 -0.13171103500E+04  0.13171103500E+04  0.25500000920E-02 0.  1.
    10030    2    1    2    0    0  0.00000000000E+00  0.00000000000E+00 -0.31300308364E+03  0.23212176164E+04  0.23000174547E+04 0.  0.
        2    1    3    3  502    0 -0.36703639275E+03  0.15335689163E+03 -0.12454681629E+04  0.13074498058E+04  0.25500000920E-02 0.  1.
       -2    1    3    3    0  502  0.36703639275E+03 -0.15335689163E+03  0.93246507924E+03  0.10137678106E+04  0.25500000920E-02 0. -1.
</event>
<event>
 5   0  0.6319125E-07  0.2301458E+04  0.7818609E-02  0.8477347E-01
       -3   -1    0    0    0  501  0.00000000000E+00  0.00000000000E+00  0.87298212357E+03  0.87298212941E+03  0.10100000352E+00 0. -1.
        3   -1    0    0  501    0  0.00000000000E+00  0.00000000000E+00 -0.15168427970E+04  0.15168428003E+04  0.10100000352E+00 0.  1.
    10030    2    1    2    0    0  0.00000000000E+00  0.00000000000E+00 -0.64386067338E+03  0.23898249297E+04  0.23014575008E+04 0.  0.
        4    1    3    3  502    0  0.84324504741E+02 -0.26569400198E+03  0.83739209171E+03  0.88257070705E+03  0.12699999809E+01 0. -1.
       -4    1    3    3    0  502 -0.84324504741E+02  0.26569400198E+03 -0.14812527651E+04  0.15072542227E+04  0.12699999809E+01 0.  1.
</event>
<event>
 5   0  0.1825521E-06  0.2301162E+04  0.7818609E-02  0.8477463E-01
        2   -1    0    0  501    0  0.00000000000E+00  0.00000000000E+00  0.18964149810E+04  0.18964149810E+04  0.25500000920E-02 0.  1.
       -2   -1    0    0    0  501  0.00000000000E+00  0.00000000000E+00 -0.69807300398E+03  0.69807300398E+03  0.25500000920E-02 0. -1.
    10030    2    1    2    0    0  0.00000000000E+00  0.00000000000E+00  0.11983419770E+04  0.25944879849E+04  0.23011615350E+04 0.  0.
        5    1    3    3  502    0  0.96586297264E+03 -0.38818489205E+03  0.46555698409E+02  0.10420020707E+04  0.46999998093E+01 0. -1.
       -5    1    3    3    0  502 -0.96586297264E+03  0.38818489205E+03  0.11517862786E+04  0.15524859142E+04  0.46999998093E+01 0.  1.
</event>
<event>
 5   0  0.7761069E-07  0.2299578E+04  0.7818609E-02  0.8478087E-01
       -1   -1    0    0    0  501  0.00000000000E+00  0.00000000000E+00  0.16911030949E+04  0.16911030949E+04  0.50400001928E-02 0.  1.
        1   -1    0    0  501    0  0.00000000000E+00  0.00000000000E+00 -0.78174723747E+03  0.78174723748E+03  0.50400001928E-02 0. -1.
    10030    2    1    2    0    0  0.00000000000E+00  0.00000000000E+00  0.90935585739E+03  0.24728503324E+04  0.22995783724E+04 0.  0.
        1    1    3    3  502    0 -0.56091111094E+03 -0.98783458281E+03  0.26359001022E+03  0.11661552773E+04  0.50400001928E-02 0. -1.
       -1    1    3    3    0  502  0.56091111094E+03  0.98783458281E+03  0.64576584717E+03  0.13066950550E+04  0.50400001928E-02 0.  1.
</event>
<event>
 5   0  0.7607231E-07  0.2299062E+04  0.7818609E-02  0.8478291E-01
       -1   -1    0    0    0  501  0.00000000000E+00  0.00000000000E+00  0.68639416549E+03  0.68639416551E+03  0.50400001928E-02 0.  1.
        1   -1    0    0  501    0  0.00000000000E+00  0.00000000000E+00 -0.19251649788E+04  0.19251649788E+04  0.50400001928E-02 0. -1.
    10030    2    1    2    0    0  0.00000000000E+00  0.00000000000E+00 -0.12387708133E+04  0.26115591444E+04  0.22990624255E+04 0.  0.
        2    1    3    3  502    0 -0.11089285614E+04 -0.10290177994E+03 -0.94289571164E+03  0.14592339270E+04  0.25500000920E-02 0.  1.
       -2    1    3    3    0  502  0.11089285614E+04  0.10290177994E+03 -0.29587510170E+03  0.11523252173E+04  0.25500000920E-02 0. -1.
</event>
<event>
 5   0  0.1828646E-06  0.2300368E+04  0.7818609E-02  0.8477776E-01
       -2   -1    0    0    0  501  0.00000000000E+00  0.00000000000E+00  0.11518574686E+04  0.11518574686E+04  0.25500000920E-02 0.  1.
        2   -1    0    0  501    0  0.00000000000E+00  0.00000000000E+00 -0.11485128162E+04  0.11485128162E+04  0.25500000920E-02 0. -1.
    10030    2    1    2    0    0  0.00000000000E+00  0.00000000000E+00  0.33446524064E+01  0.23003702849E+04  0.23003678534E+04 0.  0.
        3    1    3    3  502    0 -0.51639447267E+03  0.85079356081E+03  0.57822312466E+03  0.11510234257E+04  0.10100000352E+00 0.  1.
       -3    1    3    3    0  502  0.51639447267E+03 -0.85079356081E+03 -0.57487847226E+03  0.11493468591E+04  0.10100000352E+00 0. -1.
</event>
<event>
 5   0  0.7932912E-07  0.2299244E+04  0.7818609E-02  0.8478219E-01
       -1   -1    0    0    0  501  0.00000000000E+00  0.00000000000E+00  0.71253775573E+03  0.71253775575E+03  0.50400001928E-02 0.  1.
        1   -1    0    0  501    0  0.00000000000E+00  0.00000000000E+00 -0.18548215026E+04  0.18548215026E+04  0.50400001928E-02 0. -1.
    10030    2    1    2    0    0  0.00000000000E+00  0.00000000000E+00 -0.11422837469E+04  0.25673592584E+04  0.22992436589E+04 0.  0.
        5    1    3    3  502    0 -0.75354068981E+03  0.73265114332E+03 -0.10913037405E+04  0.15151129374E+04  0.46999998093E+01 0. -1.
       -5    1    3    3    0  502  0.75354068981E+03 -0.73265114332E+03 -0.50980006402E+02  0.10522463210E+04  0.46999998093E+01 0.  1.
</event>
<event>
 5   0  0.1744876E-06  0.2297775E+04  0.7818609E-02  0.8478799E-01
       -2   -1    0    0    0  501  0.00000000000E+00  0.00000000000E+00  0.83350303569E+03  0.83350303569E+03  0.25500000920E-02 0. -1.
        2   -1    0    0  501    0  0.00000000000E+00  0.00000000000E+00 -0.15836089928E+04  0.15836089928E+04  0.25500000920E-02 0.  1.
    10030    2    1    2    0    0  0.00000000000E+00  0.00000000000E+00 -0.75010595712E+03  0.24171120285E+04  0.22977753614E+04 0.  0.
        1    1    3    3  502    0 -0.72097891261E+03  0.31091393627E+03  0.50723509278E+03  0.93475424983E+03  0.50400001928E-02 0. -1.
       -1    1    3    3    0  502  0.72097891261E+03 -0.31091393627E+03 -0.12573410499E+04  0.14823577787E+04  0.50400001928E-02 0.  1.
</event>
<event>
 5   0  0.7761069E-07  0.2300687E+04  0.7818609E-02  0.8477650E-01
        1   -1    0    0  501    0  0.00000000000E+00  0.00000000000E+00  0.67271130565E+03  0.67271130567E+03  0.50400001928E-02 0.  1.
       -1   -1    0    0    0  501  0.00000000000E+00  0.00000000000E+00 -0.19671002696E+04  0.19671002696E+04  0.50400001928E-02 0. -1.
    10030    2    1    2    0    0  0.00000000000E+00  0.00000000000E+00 -0.12943889639E+04  0.26398115753E+04  0.23006873675E+04 0.  0.
        1    1    3    3  502    0 -0.34383544452E+03 -0.10517958645E+04 -0.10078386629E+04  0.14967418361E+04  0.50400001928E-02 0. -1.
       -1    1    3    3    0  502  0.34383544452E+03  0.10517958645E+04 -0.28655030107E+03  0.11430697392E+04  0.50400001928E-02 0.  1.
</event>
<event>
 5   0  0.1689444E-06  0.2300005E+04  0.7818609E-02  0.8477919E-01
       -2   -1    0    0    0  501  0.00000000000E+00  0.00000000000E+00  0.10084114755E+04  0.10084114755E+04  0.25500000920E-02 0. -1.
        2   -1    0    0  501    0  0.00000000000E+00  0.00000000000E+00 -0.13114747282E+04  0.13114747283E+04  0.25500000920E-02 0.  1.
    10030    2    1    2    0    0  0.00000000000E+00  0.00000000000E+00 -0.30306325278E+03  0.23198862037E+04  0.23000053615E+04 0.  0.
        2    1    3    3  502    0 -0.10847180787E+04 -0.20036430017E+03  0.17646688068E+03  0.11170943215E+04  0.25500000920E-02 0. -1.
       -2    1    3    3    0  502  0.10847180787E+04  0.20036430017E+03 -0.47953013346E+03  0.12027918822E+04  0.25500000920E-02 0.  1.
</event>
<event>
 5   0  0.8097672E-07  0.2299708E+04  0.7818609E-02  0.8478036E-01
        1   -1    0    0  501    0  0.00000000000E+00  0.00000000000E+00  0.15339370895E+04  0.15339370895E+04  0.50400001928E-02 0.  1.
       -1   -1    0    0    0  501  0.00000000000E+00  0.00000000000E+00 -0.86194135137E+03  0.86194135139E+03  0.50400001928E-02 0. -1.
    10030    2    1    2    0    0  0.00000000000E+00  0.00000000000E+00  0.67199573815E+03  0.23958784409E+04  0.22997076405E+04 0.  0.
        3    1    3    3  502    0  0.79325059102E+03  0.59259645332E+03  0.94503580141E+03  0.13687621169E+04  0.10100000352E+00 0.  1.
       -3    1    3    3    0  502 -0.79325059102E+03 -0.59259645332E+03 -0.27304006325E+03  0.10271163240E+04  0.10100000352E+00 0. -1.
</event>
<event>
 5   0  0.1888779E-06  0.2300602E+04  0.7818609E-02  0.8477684E-01
        2   -1    0    0  501    0  0.00000000000E+00  0.00000000000E+00  0.17913339425E+04  0.17913339425E+04  0.25500000920E-02 0. -1.
       -2   -1    0    0    0  501  0.00000000000E+00  0.00000000000E+00 -0.73866307165E+03  0.73866307165E+03  0.25500000920E-02 0.  1.
    10030    2    1    2    0    0  0.00000000000E+00  0.00000000000E+00  0.10526708708E+04  0.25299970141E+04  0.23006018624E+04 0.  0.
        4    1    3    3  502    0  0.39761194467E+03  0.10730152642E+04  0.39745980737E+03  0.12113764597E+04  0.12699999809E+01 0.  1.
       -4    1    3    3    0  502 -0.39761194467E+03 -0.10730152642E+04  0.65521106345E+03  0.13186205544E+04  0.12699999809E+01 0. -1.
</event>
<event>
 5   0  0.1744876E-06  0.2299168E+04  0.7818609E-02  0.8478249E-01
       -2   -1    0    0    0  501  0.00000000000E+00  0.00000000000E+00  0.78637390824E+03  0.78637390824E+03  0.25500000920E-02 0.  1.
        2   -1    0    0  501    0  0.00000000000E+00  0.00000000000E+00 -0.16805529592E+04  0.16805529592E+04  0.25500000920E-02 0. -1.
    10030    2    1    2    0    0  0.00000000000E+00  0.00000000000E+00 -0.89417905092E+03  0.24669268674E+04  0.22991676742E+04 0.  0.
        1    1    3    3  502    0  0.56737684988E+03  0.18154437187E+03  0.60784215543E+03  0.85108573874E+03  0.50400001928E-02 0.  1.
       -1    1    3    3    0  502 -0.56737684988E+03 -0.18154437187E+03 -0.15020212064E+04  0.16158411287E+04  0.50400001928E-02 0. -1.
</event>
<event>
 5   0  0.8097672E-07  0.2300689E+04  0.7818609E-02  0.8477649E-01
        1   -1    0    0  501    0  0.00000000000E+00  0.00000000000E+00  0.73250412911E+03  0.73250412912E+03  0.50400001928E-02 0. -1.
       -1   -1    0    0    0  501  0.00000000000E+00  0.00000000000E+00 -0.18065328584E+04  0.18065328584E+04  0.50400001928E-02 0.  1.
    10030    2    1    2    0    0  0.00000000000E+00  0.00000000000E+00 -0.10740287293E+04  0.25390369875E+04  0.23006892690E+04 0.  0.
        3    1    3    3  502    0 -0.28589459341E+03 -0.48378199051E+03 -0.16447501403E+04  0.17380977438E+04  0.10100000352E+00 0.  1.
       -3    1    3    3    0  502  0.28589459341E+03  0.48378199051E+03  0.57072141102E+03  0.80093924369E+03  0.10100000352E+00 0. -1.
</event>
<event>
 5   0  0.7932912E-07  0.2299718E+04  0.7818609E-02  0.8478032E-01
        1   -1    0    0  501    0  0.00000000000E+00  0.00000000000E+00  0.13576951574E+04  0.13576951575E+04  0.50400001928E-02 0. -1.
       -1   -1    0    0    0  501  0.00000000000E+00  0.00000000000E+00 -0.97383815791E+03  0.97383815792E+03  0.50400001928E-02 0.  1.
    10030    2    1    2    0    0  0.00000000000E+00  0.00000000000E+00  0.38385699954E+03  0.23315333154E+04  0.22997176793E+04 0.  0.
        5    1    3    3  502    0  0.44139280604E+03  0.23479746677E+03 -0.85786566086E+03  0.99293153928E+03  0.46999998093E+01 0.  1.
       -5    1    3    3    0  502 -0.44139280604E+03 -0.23479746677E+03  0.12417226604E+04  0.13386017761E+04  0.46999998093E+01 0. -1.
</event>
<event>
 5   0  0.8097672E-07  0.2299719E+04  0.7818609E-02  0.8478032E-01
       -1   -1    0    0    0  501  0.00000000000E+00  0.00000000000E+00  0.63292441825E+03  0.63292441827E+03  0.50400001928E-02 0. -1.
        1   -1    0    0  501    0  0.00000000000E+00  0.00000000000E+00 -0.20889962270E+04  0.20889962270E+04  0.50400001928E-02 0.  1.
    10030    2    1    2    0    0  0.00000000000E+00  0.00000000000E+00 -0.14560718088E+04  0.27219206453E+04  0.22997188713E+04 0.  0.
        3    1    3    3  502    0 -0.53342369740E+03  0.24146770474E+03 -0.18993276064E+04  0.19875343670E+04  0.10100000352E+00 0.  1.
       -3    1    3    3    0  502  0.53342369740E+03 -0.24146770474E+03  0.44325579765E+03  0.73438627828E+03  0.10100000352E+00 0. -1.
</event>
<event>
 5   0  0.7932912E-07  0.2299447E+04  0.7818609E-02  0.8478139E-01
       -1   -1    0    0    0  501  0.00000000000E+00  0.00000000000E+00  0.76398189464E+03  0.76398189466E+03  0.50400001928E-02 0.  1.
        1   -1    0    0  501    0  0.00000000000E+00  0.00000000000E+00 -0.17302294724E+04  0.17302294724E+04  0.50400001928E-02 0. -1.
    10030    2    1    2    0    0  0.00000000000E+00  0.00000000000E+00 -0.96624757777E+03  0.24942113671E+04  0.22994468818E+04 0.  0.
        5    1    3    3  502    0 -0.36431070551E+03 -0.41295754452E+03 -0.15778579110E+04  0.16712013347E+04  0.46999998093E+01 0. -1.
       -5    1    3    3    0  502  0.36431070551E+03  0.41295754452E+03  0.61161033323E+03  0.82301003240E+03  0.46999998093E+01 0.  1.
</event>
<event>
 5   0  0.1689444E-06  0.2302883E+04  0.7818609E-02  0.8476785E-01
        2   -1    0    0  501    0  0.00000000000E+00  0.00000000000E+00  0.98351456733E+03  0.98351456733E+03  0.25500000920E-02 0. -1.
       -2   -1    0    0    0  501  0.00000000000E+00  0.00000000000E+00 -0.13480403400E+04  0.13480403400E+04  0.25500000920E-02 0.  1.
    10030    2    1    2    0    0  0.00000000000E+00  0.00000000000E+00 -0.36452577262E+03  0.23315549073E+04  0.23028828122E+04 0.  0.
        2    1    3    3  502    0  0.67531451208E+03  0.88226971838E+03  0.12377155919E+03  0.11179306531E+04  0.25500000920E-02 0.  1.
       -2    1    3    3    0  502 -0.67531451208E+03 -0.88226971838E+03 -0.48829733181E+03  0.12136242542E+04  0.25500000920E-02 0. -1.
</event>
<event>
 5   0  0.8097672E-07  0.2299378E+04  0.7818609E-02  0.8478166E-01
        1   -1    0    0  501    0  0.00000000000E+00  0.00000000000E+00  0.21274499176E+04  0.21274499176E+04  0.50400001928E-02 0. -1.
       -1   -1    0    0    0  501  0.00000000000E+00  0.00000000000E+00 -0.62130006313E+03  0.62130006315E+03  0.50400001928E-02 0.  1.
    10030    2    1    2    0    0  0.00000000000E+00  0.00000000000E+00  0.15061498544E+04  0.27487499807E+04  0.22993779751E+04 0.  0.
        3    1    3    3  502    0  0.52876816250E+03 -0.34307849396E+03 -0.39633534314E+03  0.74456721464E+03  0.10100000352E+00 0.  1.
       -3    1    3    3    0  502 -0.52876816250E+03  0.34307849396E+03  0.19024851976E+04  0.20041827661E+04  0.10100000352E+00 0. -1.
</event>
<event>
 5   0  0.1744876E-06  0.2300033E+04  0.7818609E-02  0.8477908E-01
        2   -1    0    0  501    0  0.00000000000E+00  0.00000000000E+00  0.13416957340E+04  0.13416957340E+04  0.25500000920E-02 0. -1.
       -2   -1    0    0    0  501  0.00000000000E+00  0.00000000000E+00 -0.98572081651E+03  0.98572081651E+03  0.25500000920E-02 0.  1.
    10030    2    1    2    0    0  0.00000000000E+00  0.00000000000E+00  0.35597491744E+03  0.23274165505E+04  0.23000325340E+04 0.  0.
        1    1    3    3  502    0  0.50063197544E+03 -0.76815768987E+03  0.88039800688E+03  0.12711409292E+04  0.50400001928E-02 0. -1.
       -1    1    3    3    0  502 -0.50063197544E+03  0.76815768987E+03 -0.52442308944E+03  0.10562756213E+04  0.50400001928E-02 0.  1.
</event>
<event>
 5   0  0.1888779E-06  0.2300380E+04  0.7818609E-02  0.8477771E-01
       -2   -1    0    0    0  501  0.00000000000E+00  0.00000000000E+00  0.10673246395E+04  0.10673246395E+04  0.25500000920E-02 0. -1.
        2   -1    0    0  501    0  0.00000000000E+00  0.00000000000E+00 -0.12394889661E+04  0.12394889661E+04  0.25500000920E-02 0.  1.
    10030    2    1    2    0    0  0.00000000000E+00  0.00000000000E+00 -0.17216432664E+03  0.23068136056E+04  0.23003800676E+04 0.  0.
        4    1    3    3  502    0 -0.30769384023E+03  0.56950785686E+02 -0.11959822798E+04  0.12362419334E+04  0.12699999809E+01 0.  1.
       -4    1    3    3    0  502  0.30769384023E+03 -0.56950785686E+02  0.10238179532E+04  0.10705716722E+04  0.12699999809E+01 0. -1.
</event>
<event>
 5   0  0.8097672E-07  0.2300445E+04  0.7818609E-02  0.8477746E-01
        1   -1    0    0  501    0  0.00000000000E+00  0.00000000000E+00  0.11574082084E+04  0.11574082084E+04  0.50400001928E-02 0. -1.
       -1   -1    0    0    0  501  0.00000000000E+00  0.00000000000E+00 -0.11430817867E+04  0.11430817867E+04  0.50400001928E-02 0.  1.
    10030    2    1    2    0    0  0.00000000000E+00  0.00000000000E+00  0.14326421691E+02  0.23004899951E+04  0.23004453854E+04 0.  0.
        3    1    3    3  502    0  0.80013089391E+02 -0.41099823081E+03 -0.10641607851E+04  0.11435732713E+04  0.10100000352E+00 0.  1.
       -3    1    3    3    0  502 -0.80013089391E+02  0.41099823081E+03  0.10784872068E+04  0.11569167237E+04  0.10100000352E+00 0. -1.
</event>
<event>
 5   0  0.1828646E-06  0.2299136E+04  0.7818609E-02  0.8478262E-01
       -2   -1    0    0    0  501  0.00000000000E+00  0.00000000000E+00  0.67128069584E+03  0.67128069584E+03  0.25500000920E-02 0. -1.
        2   -1    0    0  501    0  0.00000000000E+00  0.00000000000E+00 -0.19686353548E+04  0.19686353548E+04  0.25500000920E-02 0.  1.
    10030    2    1    2    0    0  0.00000000000E+00  0.00000000000E+00 -0.12973546590E+04  0.26399160506E+04  0.22991362820E+04 0.  0.
        3    1    3    3  502    0  0.23490181169E+03  0.10745272609E+04 -0.10324634991E+04  0.15085650741E+04  0.10100000352E+00 0. -1.
       -3    1    3    3    0  502 -0.23490181169E+03 -0.10745272609E+04 -0.26489115982E+03  0.11313509766E+04  0.10100000352E+00 0.  1.
</event>
<event>
 5   0  0.1744876E-06  0.2299968E+04  0.7818609E-02  0.8477934E-01
        2   -1    0    0  501    0  0.00000000000E+00  0.00000000000E+00  0.15952667579E+04  0.15952667579E+04  0.25500000920E-02 0. -1.
       -2   -1    0    0    0  501  0.00000000000E+00  0.00000000000E+00 -0.82899180417E+03  0.82899180417E+03  0.25500000920E-02 0.  1.
    10030    2    1    2    0    0  0.00000000000E+00  0.00000000000E+00  0.76627495373E+03  0.24242585621E+04  0.22999678848E+04 0.  0.
        1    1    3    3  502    0 -0.63894979245E+03  0.39038158348E+03 -0.53684606696E+03  0.92133507348E+03  0.50400001928E-02 0.  1.
       -1    1    3    3    0  502  0.63894979245E+03 -0.39038158348E+03  0.13031210207E+04  0.15029234886E+04  0.50400001928E-02 0. -1.
</event>
<event>
 5   0  0.7607231E-07  0.2300216E+04  0.7818609E-02  0.8477836E-01
        1   -1    0    0  501    0  0.00000000000E+00  0.00000000000E+00  0.14398184588E+04  0.14398184588E+04  0.50400001928E-02 0.  1.
       -1   -1    0    0    0  501  0.00000000000E+00  0.00000000000E+00 -0.91869103225E+03  0.91869103226E+03  0.50400001928E-02 0. -1.
    10030    2    1    2    0    0  0.00000000000E+00  0.00000000000E+00  0.52112742656E+03  0.23585094911E+04  0.23002159083E+04 0.  0.
        2    1    3    3  502    0 -0.47856029093E+03  0.29058156245E+03  0.12906584388E+04  0.14068606193E+04  0.25500000920E-02 0.  1.
       -2    1    3    3    0  502  0.47856029093E+03 -0.29058156245E+03 -0.76953101220E+03  0.95164887182E+03  0.25500000920E-02 0. -1.
</event>
<event>
 5   0  0.7932912E-07  0.2300236E+04  0.7818609E-02  0.8477828E-01
       -1   -1    0    0    0  501  0.00000000000E+00  0.00000000000E+00  0.10660005867E+04  0.10660005867E+04  0.50400001928E-02 0.  1.
        1   -1    0    0  501    0  0.00000000000E+00  0.00000000000E+00 -0.12408728860E+04  0.12408728860E+04  0.50400001928E-02 0. -1.
    10030    2    1    2    0    0  0.00000000000E+00  0.00000000000E+00 -0.17487229925E+03  0.23068734727E+04  0.23002358353E+04 0.  0.
        5    1    3    3  502    0  0.73350863969E+03 -0.20491616080E+03  0.77686484978E+03  0.10879184906E+04  0.46999998093E+01 0.  1.
       -5    1    3    3    0  502 -0.73350863969E+03  0.20491616080E+03 -0.95173714903E+03  0.12189549821E+04  0.46999998093E+01 0. -1.
</event>
<event>
 5   0  0.7761069E-07  0.2299998E+04  0.7818609E-02  0.8477922E-01
       -1   -1    0    0    0  501  0.00000000000E+00  0.00000000000E+00  0.76693287988E+03  0.76693287989E+03  0.50400001928E-02 0. -1.
        1   -1    0    0  501    0  0.00000000000E+00  0.00000000000E+00 -0.17243988712E+04  0.17243988712E+04  0.50400001928E-02 0.  1.
    10030    2    1    2    0    0  0.00000000000E+00  0.00000000000E+00 -0.95746599135E+03  0.24913317511E+04  0.22999984282E+04 0.  0.
        1    1    3    3  502    0  0.26494617356E+03 -0.10285913349E+04 -0.95619871229E+03  0.14291649963E+04  0.50400001928E-02 0.  1.
       -1    1    3    3    0  502 -0.26494617356E+03  0.10285913349E+04 -0.12672790608E+01  0.10621667549E+04  0.50400001928E-02 0. -1.
</event>
<event>
 5   0  0.1825521E-06  0.2312093E+04  0.7818609E-02  0.8473168E-01
        2   -1    0    0  501    0  0.00000000000E+00  0.00000000000E+00  0.14982542965E+04  0.14982542965E+04  0.25500000920E-02 0. -1.
       -2   -1    0    0    0  501  0.00000000000E+00  0.00000000000E+00 -0.89200068916E+03  0.89200068916E+03  0.25500000920E-02 0.  1.
    10030    2    1    2    0    0  0.00000000000E+00  0.00000000000E+00  0.60625360733E+03  0.23902549856E+04  0.23120933069E+04 0.  0.
        5    1    3    3  502    0 -0.87786870926E+02 -0.48227503249E+03 -0.77922668788E+03  0.92060418356E+03  0.46999998093E+01 0.  1.
       -5    1    3    3    0  502  0.87786870926E+02  0.48227503249E+03  0.13854802952E+04  0.14696508021E+04  0.46999998093E+01 0. -1.
</event>
<event>
 5   0  0.1828646E-06  0.2298285E+04  0.7818609E-02  0.8478598E-01
       -2   -1    0    0    0  501  0.00000000000E+00  0.00000000000E+00  0.63800678346E+03  0.63800678347E+03  0.25500000920E-02 0. -1.
        2   -1    0    0  501    0  0.00000000000E+00  0.00000000000E+00 -0.20697714904E+04  0.20697714904E+04  0.25500000920E-02 0.  1.
    10030    2    1    2    0    0  0.00000000000E+00  0.00000000000E+00 -0.14317647069E+04  0.27077782739E+04  0.22982847962E+04 0.  0.
        3    1    3    3  502    0  0.10759891681E+04 -0.36740464982E+03 -0.51947911711E+03  0.12500389713E+04  0.10100000352E+00 0. -1.
       -3    1    3    3    0  502 -0.10759891681E+04  0.36740464982E+03 -0.91228558983E+03  0.14577393025E+04  0.10100000352E+00 0.  1.
</event>
<event>
 5   0  0.1888779E-06  0.2293040E+04  0.7818609E-02  0.8480671E-01
        2   -1    0    0  501    0  0.00000000000E+00  0.00000000000E+00  0.74483470327E+03  0.74483470327E+03  0.25500000920E-02 0.  1.
       -2   -1    0    0    0  501  0.00000000000E+00  0.00000000000E+00 -0.17648312731E+04  0.17648312731E+04  0.25500000920E-02 0. -1.
    10030    2    1    2    0    0  0.00000000000E+00  0.00000000000E+00 -0.10199965698E+04  0.25096659764E+04  0.22930395353E+04 0.  0.
        4    1    3    3  502    0  0.44545376946E+03  0.60873381742E+03  0.43500657580E+03  0.87075728828E+03  0.12699999809E+01 0.  1.
       -4    1    3    3    0  502 -0.44545376946E+03 -0.60873381742E+03 -0.14550031456E+04  0.16389086881E+04  0.12699999809E+01 0. -1.
</event>
<event>
 5   0  0.1828646E-06  0.2299829E+04  0.7818609E-02  0.8477988E-01
        2   -1    0    0  501    0  0.00000000000E+00  0.00000000000E+00  0.11814163025E+04  0.11814163025E+04  0.25500000920E-02 0.  1.
       -2   -1    0    0    0  501  0.00000000000E+00  0.00000000000E+00 -0.11192531158E+04  0.11192531158E+04  0.25500000920E-02 0. -1.
    10030    2    1    2    0    0  0.00000000000E+00  0.00000000000E+00  0.62163186721E+02  0.23006694184E+04  0.22998294526E+04 0.  0.
        3    1    3    3  502    0  0.20992332722E+03 -0.66665430130E+03  0.94454603207E+03  0.11750161606E+04  0.10100000352E+00 0.  1.
       -3    1    3    3    0  502 -0.20992332722E+03  0.66665430130E+03 -0.88238284535E+03  0.11256532578E+04  0.10100000352E+00 0. -1.
</event>
<event>
 5   0  0.7932912E-07  0.2300579E+04  0.7818609E-02  0.8477693E-01
        1   -1    0    0  501    0  0.00000000000E+00  0.00000000000E+00  0.13324998556E+04  0.13324998556E+04  0.50400001928E-02 0.  1.
       -1   -1    0    0    0  501  0.00000000000E+00  0.00000000000E+00 -0.99299502520E+03  0.99299502521E+03  0.50400001928E-02 0. -1.
    10030    2    1    2    0    0  0.00000000000E+00  0.00000000000E+00  0.33950483038E+03  0.23254948808E+04  0.23005788208E+04 0.  0.
        5    1    3    3  502    0  0.10782962519E+04  0.15963885894E+03 -0.20156268731E+03  0.11085382173E+04  0.46999998093E+01 0. -1.
       -5    1    3    3    0  502 -0.10782962519E+04 -0.15963885894E+03  0.54106751769E+03  0.12169566635E+04  0.46999998093E+01 0.  1.
</event>
<event>
 5   0  0.8108242E-07  0.2300337E+04  0.7818609E-02  0.8477788E-01
        1   -1    0    0  501    0  0.00000000000E+00  0.00000000000E+00  0.14281727734E+04  0.14281727734E+04  0.50400001928E-02 0.  1.
       -1   -1    0    0    0  501  0.00000000000E+00  0.00000000000E+00 -0.92627960840E+03  0.92627960842E+03  0.50400001928E-02 0. -1.
    10030    2    1    2    0    0  0.00000000000E+00  0.00000000000E+00  0.50189316503E+03  0.23544523819E+04  0.23003367730E+04 0.  0.
        4    1    3    3  502    0 -0.74228434398E+03 -0.75999606200E+03  0.70211760250E+03  0.12734012731E+04  0.12699999809E+01 0.  1.
       -4    1    3    3    0  502  0.74228434398E+03  0.75999606200E+03 -0.20022443747E+03  0.10810511088E+04  0.12699999809E+01 0. -1.
</event>
<event>
 5   0  0.7932912E-07  0.2300171E+04  0.7818609E-02  0.8477854E-01
        1   -1    0    0  501    0  0.00000000000E+00  0.00000000000E+00  0.15425445761E+04  0.15425445761E+04  0.50400001928E-02 0.  1.
       -1   -1    0    0    0  501  0.00000000000E+00  0.00000000000E+00 -0.85747715144E+03  0.85747715146E+03  0.50400001928E-02 0. -1.
    10030    2    1    2    0    0  0.00000000000E+00  0.00000000000E+00  0.68506742463E+03  0.24000217275E+04  0.23001710624E+04 0.  0.
        5    1    3    3  502    0 -0.10860251295E+04 -0.30426215632E+03  0.10771173041E+03  0.11329827663E+04  0.46999998093E+01 0. -1.
       -5    1    3    3    0  502  0.10860251295E+04  0.30426215632E+03  0.57735569422E+03  0.12670389613E+04  0.46999998093E+01 0.  1.
</event>
<event>
 5   0  0.8108242E-07  0.2299233E+04  0.7818609E-02  0.8478224E-01
        1   -1    0    0  501    0  0.00000000000E+00  0.00000000000E+00  0.14561064973E+04  0.14561064973E+04  0.50400001928E-02 0. -1.
       -1   -1    0    0    0  501  0.00000000000E+00  0.00000000000E+00 -0.90763830132E+03  0.90763830133E+03  0.50400001928E-02 0.  1.
    10030    2    1    2    0    0  0.00000000000E+00  0.00000000000E+00  0.54846819593E+03  0.23637447986E+04  0.22992329397E+04 0.  0.
        4    1    3    3  502    0  0.60054598252E+03 -0.56934250314E+03  0.10946282737E+04  0.13722314066E+04  0.12699999809E+01 0. -1.
       -4    1    3    3    0  502 -0.60054598252E+03  0.56934250314E+03 -0.54616007772E+03  0.99151339195E+03  0.12699999809E+01 0.  1.
</event>
<event>
 5   0  0.1828646E-06  0.2300368E+04  0.7818609E-02  0.8477776E-01
       -2   -1    0    0    0  501  0.00000000000E+00  0.00000000000E+00  0.23436700100E+04  0.23436700100E+04  0.25500000920E-02 0.  1.
        2   -1    0    0  501    0  0.00000000000E+00  0.00000000000E+00 -0.56446647090E+03  0.56446647091E+03  0.25500000920E-02 0. -1.
    10030    2    1    2    0    0  0.00000000000E+00  0.00000000000E+00  0.17792035391E+04  0.29081364809E+04  0.23003679180E+04 0.  0.
        3    1    3    3  502    0  0.35199261642E+03 -0.27621869101E+02 -0.49426174629E+03  0.60741785758E+03  0.10100000352E+00 0. -1.
       -3    1    3    3    0  502 -0.35199261642E+03  0.27621869101E+02  0.22734652853E+04  0.23007186233E+04  0.10100000352E+00 0.  1.
</event>
<event>
 5   0  0.8097672E-07  0.2299207E+04  0.7818609E-02  0.8478234E-01
       -1   -1    0    0    0  501  0.00000000000E+00  0.00000000000E+00  0.67384514684E+03  0.67384514686E+03  0.50400001928E-02 0. -1.
        1   -1    0    0  501    0  0.00000000000E+00  0.00000000000E+00 -0.19612641304E+04  0.19612641304E+04  0.50400001928E-02 0.  1.
    10030    2    1    2    0    0  0.00000000000E+00  0.00000000000E+00 -0.12874189836E+04  0.26351092773E+04  0.22992070946E+04 0.  0.
        3    1    3    3  502    0 -0.53600737367E+02 -0.20766552008E+03 -0.19381322587E+04  0.19499627354E+04  0.10100000352E+00 0.  1.
       -3    1    3    3    0  502  0.53600737367E+02  0.20766552008E+03  0.65071327508E+03  0.68514654187E+03  0.10100000352E+00 0. -1.
</event>
<event>
 5   0  0.1825521E-06  0.2298942E+04  0.7818609E-02  0.8478338E-01
        2   -1    0    0  501    0  0.00000000000E+00  0.00000000000E+00  0.29242069775E+04  0.29242069775E+04  0.25500000920E-02 0. -1.
       -2   -1    0    0    0  501  0.00000000000E+00  0.00000000000E+00 -0.45184338349E+03  0.45184338349E+03  0.25500000920E-02 0.  1.
    10030    2    1    2    0    0  0.00000000000E+00  0.00000000000E+00  0.24723635940E+04  0.33760503609E+04  0.22989419955E+04 0.  0.
        5    1    3    3  502    0 -0.37218019138E+03 -0.48118974105E+03  0.26684250434E+04  0.27368916610E+04  0.46999998093E+01 0. -1.
       -5    1    3    3    0  502  0.37218019138E+03  0.48118974105E+03 -0.19606144946E+03  0.63915869994E+03  0.46999998093E+01 0.  1.
</event>
<event>
 5   0  0.1828646E-06  0.2297948E+04  0.7818609E-02  0.8478731E-01
        2   -1    0    0  501    0  0.00000000000E+00  0.00000000000E+00  0.88155376052E+03  0.88155376052E+03  0.25500000920E-02 0. -1.
       -2   -1    0    0    0  501  0.00000000000E+00  0.00000000000E+00 -0.14975162314E+04  0.14975162314E+04  0.25500000920E-02 0.  1.
    10030    2    1    2    0    0  0.00000000000E+00  0.00000000000E+00 -0.61596247084E+03  0.23790699919E+04  0.22979478368E+04 0.  0.
        3    1    3    3  502    0 -0.72270289464E+03 -0.88658777095E+03 -0.19550099516E+03  0.11604128571E+04  0.10100000352E+00 0. -1.
       -3    1    3    3    0  502  0.72270289464E+03  0.88658777095E+03 -0.42046147568E+03  0.12186571348E+04  0.10100000352E+00 0.  1.
</event>
<event>
 5   0  0.8097672E-07  0.2300365E+04  0.7818609E-02  0.8477777E-01
        1   -1    0    0  501    0  0.00000000000E+00  0.00000000000E+00  0.20561789709E+04  0.20561789709E+04  0.50400001928E-02 0.  1.
       -1   -1    0    0    0  501  0.00000000000E+00  0.00000000000E+00 -0.64338765669E+03  0.64338765671E+03  0.50400001928E-02 0. -1.
    10030    2    1    2    0    0  0.00000000000E+00  0.00000000000E+00  0.14127913142E+04  0.26995666276E+04  0.23003653361E+04 0.  0.
        3    1    3    3  502    0 -0.65160225287E+03  0.14270786505E+03 -0.39320972999E+03  0.77431578355E+03  0.10100000352E+00 0. -1.
       -3    1    3    3    0  502  0.65160225287E+03 -0.14270786505E+03  0.18060010442E+04  0.19252508440E+04  0.10100000352E+00 0.  1.
</event>
<event>
 5   0  0.1888779E-06  0.2299851E+04  0.7818609E-02  0.8477980E-01
       -2   -1    0    0    0  501  0.00000000000E+00  0.00000000000E+00  0.13327137274E+04  0.13327137274E+04  0.25500000920E-02 0. -1.
        2   -1    0    0  501    0  0.00000000000E+00  0.00000000000E+00 -0.99220721365E+03  0.99220721365E+03  0.25500000920E-02 0.  1.
    10030    2    1    2    0    0  0.00000000000E+00  0.00000000000E+00  0.34050651379E+03  0.23249209411E+04  0.22998505813E+04 0.  0.
        4    1    3    3  502    0 -0.67123548326E+03  0.22791041008E+03  0.10855659810E+04  0.12965166181E+04  0.12699999809E+01 0. -1.
       -4    1    3    3    0  502  0.67123548326E+03 -0.22791041008E+03 -0.74505946720E+03  0.10284043230E+04  0.12699999809E+01 0.  1.
</event>
<event>
 5   0  0.1825521E-06  0.2298445E+04  0.7818609E-02  0.8478534E-01
        2   -1    0    0  501    0  0.00000000000E+00  0.00000000000E+00  0.12315684103E+04  0.12315684103E+04  0.25500000920E-02 0.  1.
       -2   -1    0    0    0  501  0.00000000000E+00  0.00000000000E+00 -0.10723826668E+04  0.10723826668E+04  0.25500000920E-02 0. -1.
    10030    2    1    2    0    0  0.00000000000E+00  0.00000000000E+00  0.15918574353E+03  0.23039510771E+04  0.22984452277E+04 0.  0.
        5    1    3    3  502    0 -0.36502831928E+03 -0.38492768655E+03  0.11014835666E+04  0.12225805230E+04  0.46999998093E+01 0.  1.
       -5    1    3    3    0  502  0.36502831928E+03  0.38492768655E+03 -0.94229782310E+03  0.10813705541E+04  0.46999998093E+01 0. -1.
</event>
<event>
 5   0  0.7607231E-07  0.2299626E+04  0.7818609E-02  0.8478068E-01
       -1   -1    0    0    0  501  0.00000000000E+00  0.00000000000E+00  0.11436278907E+04  0.11436278907E+04  0.50400001928E-02 0.  1.
        1   -1    0    0  501    0  0.00000000000E+00  0.00000000000E+00 -0.11560318655E+04  0.11560318655E+04  0.50400001928E-02 0. -1.
    10030    2    1    2    0    0  0.00000000000E+00  0.00000000000E+00 -0.12403974839E+02  0.22996597562E+04  0.22996263035E+04 0.  0.
        2    1    3    3  502    0 -0.42767111699E+03 -0.61831392069E+03 -0.87618912252E+03  0.11545224412E+04  0.25500000920E-02 0. -1.
       -2    1    3    3    0  502  0.42767111699E+03  0.61831392069E+03  0.86378514769E+03  0.11451373150E+04  0.25500000920E-02 0.  1.
</event>
<event>
 5   0  0.8108242E-07  0.2299815E+04  0.7818609E-02  0.8477994E-01
        1   -1    0    0  501    0  0.00000000000E+00  0.00000000000E+00  0.22626367750E+04  0.22626367750E+04  0.50400001928E-02 0. -1.
       -1   -1    0    0    0  501  0.00000000000E+00  0.00000000000E+00 -0.58440078619E+03  0.58440078621E+03  0.50400001928E-02 0.  1.
    10030    2    1    2    0    0  0.00000000000E+00  0.00000000000E+00  0.16782359888E+04  0.28470375612E+04  0.22998145232E+04 0.  0.
        4    1    3    3  502    0 -0.15500715516E+03 -0.11287177890E+04  0.10319114808E+04  0.15371642666E+04  0.12699999809E+01 0.  1.
       -4    1    3    3    0  502  0.15500715516E+03  0.11287177890E+04  0.64632450804E+03  0.13098732946E+04  0.12699999809E+01 0. -1.
</event>
<event>
 5   0  0.8097672E-07  0.2300903E+04  0.7818609E-02  0.8477565E-01
       -1   -1    0    0    0  501  0.00000000000E+00  0.00000000000E+00  0.97574229819E+03  0.97574229820E+03  0.50400001928E-02 0. -1.
        1   -1    0    0  501    0  0.00000000000E+00  0.00000000000E+00 -0.13564428189E+04  0.13564428189E+04  0.50400001928E-02 0.  1.
    10030    2    1    2    0    0  0.00000000000E+00  0.00000000000E+00 -0.38070052072E+03  0.23321851171E+04  0.23009029823E+04 0.  0.
        3    1    3    3  502    0 -0.16815515946E+03  0.43617832486E+03 -0.12558368803E+04  0.13400201375E+04  0.10100000352E+00 0.  1.
       -3    1    3    3    0  502  0.16815515946E+03 -0.43617832486E+03  0.87513635959E+03  0.99216497963E+03  0.10100000352E+00 0. -1.
</event>
<event>
 5   0  0.7932912E-07  0.2299430E+04  0.7818609E-02  0.8478146E-01
       -1   -1    0    0    0  501  0.00000000000E+00  0.00000000000E+00  0.90946724252E+03  0.90946724253E+03  0.50400001928E-02 0.  1.
        1   -1    0    0  501    0  0.00000000000E+00  0.00000000000E+00 -0.14534275962E+04  0.14534275962E+04  0.50400001928E-02 0. -1.
    10030    2    1    2    0    0  0.00000000000E+00  0.00000000000E+00 -0.54396035372E+03  0.23628948388E+04  0.22994301800E+04 0.  0.
        5    1    3    3  502    0 -0.63952216721E+03  0.82498312423E+03 -0.76719064582E+03  0.12954494721E+04  0.46999998093E+01 0. -1.
       -5    1    3    3    0  502  0.63952216721E+03 -0.82498312423E+03  0.22323029210E+03  0.10674453667E+04  0.46999998093E+01 0.  1.
</event>
<event>
 5   0  0.1744876E-06  0.2299676E+04  0.7818609E-02  0.8478049E-01
        2   -1    0    0  501    0  0.00000000000E+00  0.00000000000E+00  0.83275454744E+03  0.83275454744E+03  0.25500000920E-02 0.  1.
       -2   -1    0    0    0  501  0.00000000000E+00  0.00000000000E+00 -0.15876558249E+04  0.15876558249E+04  0.25500000920E-02 0. -1.
    10030    2    1    2    0    0  0.00000000000E+00  0.00000000000E+00 -0.75490127743E+03  0.24204103723E+04  0.22996761580E+04 0.  0.
        1    1    3    3  502    0  0.13219789115E+03  0.80282166298E+03 -0.12325894761E+04  0.14769142567E+04  0.50400001928E-02 0. -1.
       -1    1    3    3    0  502 -0.13219789115E+03 -0.80282166298E+03  0.47768819869E+03  0.94349611561E+03  0.50400001928E-02 0.  1.
</event>
<event>
 5   0  0.7761069E-07  0.2299622E+04  0.7818609E-02  0.8478070E-01
        1   -1    0    0  501    0  0.00000000000E+00  0.00000000000E+00  0.18944193629E+04  0.18944193629E+04  0.50400001928E-02 0. -1.
       -1   -1    0    0    0  501  0.00000000000E+00  0.00000000000E+00 -0.69787347958E+03  0.69787347960E+03  0.50400001928E-02 0.  1.
    10030    2    1    2    0    0  0.00000000000E+00  0.00000000000E+00  0.11965458833E+04  0.25922928425E+04  0.22996217364E+04 0.  0.
        1    1    3    3  502    0 -0.30312242658E+03 -0.67757101924E+03 -0.39159484108E+03  0.83924502453E+03  0.50400001928E-02 0.  1.
       -1    1    3    3    0  502  0.30312242658E+03  0.67757101924E+03  0.15881407244E+04  0.17530478180E+04  0.50400001928E-02 0. -1.
</event>
<event>
 5   0  0.1744876E-06  0.2299466E+04  0.7818609E-02  0.8478131E-01
       -2   -1    0    0    0  501  0.00000000000E+00  0.00000000000E+00  0.67147631941E+03  0.67147631941E+03  0.25500000920E-02 0.  1.
        2   -1    0    0  501    0  0.00000000000E+00  0.00000000000E+00 -0.19686271850E+04  0.19686271850E+04  0.25500000920E-02 0. -1.
    10030    2    1    2    0    0  0.00000000000E+00  0.00000000000E+00 -0.12971508656E+04  0.26401035044E+04  0.22994664916E+04 0.  0.
        1    1    3    3  502    0 -0.50670289275E+03 -0.58521084050E+03  0.32745413896E+03  0.84050327930E+03  0.50400001928E-02 0.  1.
       -1    1    3    3    0  502  0.50670289275E+03  0.58521084050E+03 -0.16246050045E+04  0.17996002251E+04  0.50400001928E-02 0. -1.
</event>
<event>
 5   0  0.8097672E-07  0.2299692E+04  0.7818609E-02  0.8478043E-01
        1   -1    0    0  501    0  0.00000000000E+00  0.00000000000E+00  0.20011611313E+04  0.20011611313E+04  0.50400001928E-02 0. -1.
       -1   -1    0    0    0  501  0.00000000000E+00  0.00000000000E+00 -0.66068940782E+03  0.66068940784E+03  0.50400001928E-02 0.  1.
    10030    2    1    2    0    0  0.00000000000E+00  0.00000000000E+00  0.13404717234E+04  0.26618505391E+04  0.22996921210E+04 0.  0.
        3    1    3    3  502    0 -0.89336364675E+03 -0.68829193711E+03  0.41063586567E+03  0.12001942428E+04  0.10100000352E+00 0.  1.
       -3    1    3    3    0  502  0.89336364675E+03  0.68829193711E+03  0.92983585776E+03  0.14616562963E+04  0.10100000352E+00 0. -1.
</event>
<event>
 5   0  0.7607231E-07  0.2299526E+04  0.7818609E-02  0.8478108E-01
        1   -1    0    0  501    0  0.00000000000E+00  0.00000000000E+00  0.14044821869E+04  0.14044821869E+04  0.50400001928E-02 0.  1.
       -1   -1    0    0    0  501  0.00000000000E+00  0.00000000000E+00 -0.94123987432E+03  0.94123987433E+03  0.50400001928E-02 0. -1.
    10030    2    1    2    0    0  0.00000000000E+00  0.00000000000E+00  0.46324231256E+03  0.23457220612E+04  0.22995257225E+04 0.  0.
        2    1    3    3  502    0 -0.42185757465E+03 -0.21905888581E+02  0.13224546022E+04  0.13882830606E+04  0.25500000920E-02 0.  1.
       -2    1    3    3    0  502  0.42185757465E+03  0.21905888581E+02 -0.85921228968E+03  0.95743900066E+03  0.25500000920E-02 0. -1.
</event>
<event>
 5   0  0.7932912E-07  0.2300203E+04  0.7818609E-02  0.8477841E-01
        1   -1    0    0  501    0  0.00000000000E+00  0.00000000000E+00  0.15411654948E+04  0.15411654948E+04  0.50400001928E-02 0. -1.
       -1   -1    0    0    0  501  0.00000000000E+00  0.00000000000E+00 -0.85826804707E+03  0.85826804708E+03  0.50400001928E-02 0.  1.
    10030    2    1    2    0    0  0.00000000000E+00  0.00000000000E+00  0.68289744772E+03  0.23994335419E+04  0.23002026862E+04 0.  0.
        5    1    3    3  502    0 -0.56222397862E+03 -0.46380402077E+03  0.12694922886E+04  0.14638451874E+04  0.46999998093E+01 0. -1.
       -5    1    3    3    0  502  0.56222397862E+03  0.46380402077E+03 -0.58659484085E+03  0.93558835452E+03  0.46999998093E+01 0.  1.
</event>
<event>
 5   0  0.1825521E-06  0.2299296E+04  0.7818609E-02  0.8478199E-01
       -2   -1    0    0    0  501  0.00000000000E+00  0.00000000000E+00  0.10645241862E+04  0.10645241862E+04  0.25500000920E-02 0. -1.
        2   -1    0    0  501    0  0.00000000000E+00  0.00000000000E+00 -0.12415785692E+04  0.12415785692E+04  0.25500000920E-02 0.  1.
    10030    2    1    2    0    0  0.00000000000E+00  0.00000000000E+00 -0.17705438297E+03  0.23061027554E+04  0.22992959061E+04 0.  0.
        5    1    3    3  502    0  0.49264074491E+03  0.16916783557E+03  0.93937544469E+03  0.10741326623E+04  0.46999998093E+01 0. -1.
       -5    1    3    3    0  502 -0.49264074491E+03 -0.16916783557E+03 -0.11164298277E+04  0.12319700931E+04  0.46999998093E+01 0.  1.
</event>
<event>
 5   0  0.1825521E-06  0.2300146E+04  0.7818609E-02  0.8477864E-01
       -2   -1    0    0    0  501  0.00000000000E+00  0.00000000000E+00  0.94354015006E+03  0.94354015006E+03  0.25500000920E-02 0. -1.
        2   -1    0    0  501    0  0.00000000000E+00  0.00000000000E+00 -0.14018140261E+04  0.14018140261E+04  0.25500000920E-02 0.  1.
    10030    2    1    2    0    0  0.00000000000E+00  0.00000000000E+00 -0.45827387602E+03  0.23453541761E+04  0.23001459228E+04 0.  0.
        5    1    3    3  502    0 -0.63842523794E+03  0.79290517758E+03 -0.77478104281E+03  0.12792940082E+04  0.46999998093E+01 0.  1.
       -5    1    3    3    0  502  0.63842523794E+03 -0.79290517758E+03  0.31650716679E+03  0.10660601680E+04  0.46999998093E+01 0. -1.
</event>
<event>
 5   0  0.1825521E-06  0.2301225E+04  0.7818609E-02  0.8477438E-01
       -2   -1    0    0    0  501  0.00000000000E+00  0.00000000000E+00  0.10521209515E+04  0.10521209515E+04  0.25500000920E-02 0.  1.
        2   -1    0    0  501    0  0.00000000000E+00  0.00000000000E+00 -0.12583242236E+04  0.12583242236E+04  0.25500000920E-02 0. -1.
    10030    2    1    2    0    0  0.00000000000E+00  0.00000000000E+00 -0.20620327218E+03  0.23104451751E+04  0.23012251341E+04 0.  0.
        5    1    3    3  502    0  0.11496564999E+04 -0.63402743640E+01 -0.14951370753E+03  0.11593647854E+04  0.46999998093E+01 0.  1.
       -5    1    3    3    0  502 -0.11496564999E+04  0.63402743640E+01 -0.56689564644E+02  0.11510803897E+04  0.46999998093E+01 0. -1.
</event>
<event>
 5   0  0.8108242E-07  0.2300394E+04  0.7818609E-02  0.8477766E-01
        1   -1    0    0  501    0  0.00000000000E+00  0.00000000000E+00  0.80041327141E+03  0.80041327142E+03  0.50400001928E-02 0.  1.
       -1   -1    0    0    0  501  0.00000000000E+00  0.00000000000E+00 -0.16528376936E+04  0.16528376936E+04  0.50400001928E-02 0. -1.
    10030    2    1    2    0    0  0.00000000000E+00  0.00000000000E+00 -0.85242442221E+03  0.24532509650E+04  0.23003940754E+04 0.  0.
        4    1    3    3  502    0 -0.89367791392E+03 -0.69953367264E+03 -0.62556682540E+03  0.12958946867E+04  0.12699999809E+01 0.  1.
       -4    1    3    3    0  502  0.89367791392E+03  0.69953367264E+03 -0.22685759681E+03  0.11573562784E+04  0.12699999809E+01 0. -1.
</event>
<event>
 5   0  0.1689444E-06  0.2300807E+04  0.7818609E-02  0.8477603E-01
        2   -1    0    0  501    0  0.00000000000E+00  0.00000000000E+00  0.88383113422E+03  0.88383113422E+03  0.25500000920E-02 0.  1.
       -2   -1    0    0    0  501  0.00000000000E+00  0.00000000000E+00 -0.14973761393E+04  0.14973761393E+04  0.25500000920E-02 0. -1.
    10030    2    1    2    0    0  0.00000000000E+00  0.00000000000E+00 -0.61354500509E+03  0.23812072735E+04  0.23008065121E+04 0.  0.
        2    1    3    3  502    0  0.95964788573E+03  0.48775705280E+03  0.11310982029E+03  0.10824162040E+04  0.25500000920E-02 0.  1.
       -2    1    3    3    0  502 -0.95964788573E+03 -0.48775705280E+03 -0.72665482539E+03  0.12987910696E+04  0.25500000920E-02 0. -1.
</event>
<event>
 5   0  0.1828646E-06  0.2301199E+04  0.7818609E-02  0.8477449E-01
        2   -1    0    0  501    0  0.00000000000E+00  0.00000000000E+00  0.16339430991E+04  0.16339430991E+04  0.25500000920E-02 0. -1.
       -2   -1    0    0    0  501  0.00000000000E+00  0.00000000000E+00 -0.81023557483E+03  0.81023557483E+03  0.25500000920E-02 0.  1.
    10030    2    1    2    0    0  0.00000000000E+00  0.00000000000E+00  0.82370752429E+03  0.24441786740E+04  0.23011986669E+04 0.  0.
        3    1    3    3  502    0  0.73343303056E+03  0.79066745425E+03 -0.14059893917E+02  0.10785530698E+04  0.10100000352E+00 0.  1.
       -3    1    3    3    0  502 -0.73343303056E+03 -0.79066745425E+03  0.83776741821E+03  0.13656256042E+04  0.10100000352E+00 0. -1.
</event>
<event>
 5   0  0.7761069E-07  0.2299614E+04  0.7818609E-02  0.8478073E-01
       -1   -1    0    0    0  501  0.00000000000E+00  0.00000000000E+00  0.13146239803E+04  0.13146239804E+04  0.50400001928E-02 0. -1.
        1   -1    0    0  501    0  0.00000000000E+00  0.00000000000E+00 -0.10056535197E+04  0.10056535197E+04  0.50400001928E-02 0.  1.
    10030    2    1    2    0    0  0.00000000000E+00  0.00000000000E+00  0.30897046068E+03  0.23202775000E+04  0.22996140832E+04 0.  0.
        1    1    3    3  502    0  0.41801187745E+03  0.42073538156E+03 -0.83940607009E+03  0.10277911955E+04  0.50400001928E-02 0.  1.
       -1    1    3    3    0  502 -0.41801187745E+03 -0.42073538156E+03  0.11483765308E+04  0.12924863045E+04  0.50400001928E-02 0. -1.
</event>
<event>
 5   0  0.1828646E-06  0.2298431E+04  0.7818609E-02  0.8478540E-01
       -2   -1    0    0    0  501  0.00000000000E+00  0.00000000000E+00  0.92185458840E+03  0.92185458840E+03  0.25500000920E-02 0.  1.
        2   -1    0    0  501    0  0.00000000000E+00  0.00000000000E+00 -0.14326515700E+04  0.14326515700E+04  0.25500000920E-02 0. -1.
    10030    2    1    2    0    0  0.00000000000E+00  0.00000000000E+00 -0.51079698160E+03  0.23545061584E+04  0.22984311374E+04 0.  0.
        3    1    3    3  502    0 -0.43243240890E+02 -0.42966058070E+03 -0.13463781264E+04  0.14139350275E+04  0.10100000352E+00 0. -1.
       -3    1    3    3    0  502  0.43243240890E+02  0.42966058070E+03  0.83558114482E+03  0.94057113090E+03  0.10100000352E+00 0.  1.
</event>
<event>
 5   0  0.8108242E-07  0.2300372E+04  0.7818609E-02  0.8477774E-01
       -1   -1    0    0    0  501  0.00000000000E+00  0.00000000000E+00  0.10563146384E+04  0.10563146385E+04  0.50400001928E-02 0.  1.
        1   -1    0    0  501    0  0.00000000000E+00  0.00000000000E+00 -0.12523998140E+04  0.12523998140E+04  0.50400001928E-02 0. -1.
    10030    2    1    2    0    0  0.00000000000E+00  0.00000000000E+00 -0.19608517554E+03  0.23087144525E+04  0.23003723670E+04 0.  0.
        4    1    3    3  502    0 -0.70721531360E+03  0.49164228719E+03  0.66699530267E+03  0.10893805511E+04  0.12699999809E+01 0.  1.
       -4    1    3    3    0  502  0.70721531360E+03 -0.49164228719E+03 -0.86308047821E+03  0.12193339014E+04  0.12699999809E+01 0. -1.
</event>
<event>
 5   0  0.1825521E-06  0.2299942E+04  0.7818609E-02  0.8477944E-01
       -2   -1    0    0    0  501  0.00000000000E+00  0.00000000000E+00  0.12417341062E+04  0.12417341062E+04  0.25500000920E-02 0. -1.
        2   -1    0    0  501    0  0.00000000000E+00  0.00000000000E+00 -0.10649894881E+04  0.10649894881E+04  0.25500000920E-02 0.  1.
    10030    2    1    2    0    0  0.00000000000E+00  0.00000000000E+00  0.17674461808E+03  0.23067235942E+04  0.22999424080E+04 0.  0.
        5    1    3    3  502    0 -0.58403343522E+03  0.25327140886E+03 -0.87214140312E+03  0.10797657973E+04  0.46999998093E+01 0.  1.
       -5    1    3    3    0  502  0.58403343522E+03 -0.25327140886E+03  0.10488860212E+04  0.12269577969E+04  0.46999998093E+01 0. -1.
</event>
<event>
 5   0  0.8097672E-07  0.2300678E+04  0.7818609E-02  0.8477654E-01
       -1   -1    0    0    0  501  0.00000000000E+00  0.00000000000E+00  0.11915481662E+04  0.11915481662E+04  0.50400001928E-02 0.  1.
        1   -1    0    0  501    0  0.00000000000E+00  0.00000000000E+00 -0.11105546444E+04  0.11105546444E+04  0.50400001928E-02 0. -1.
    10030    2    1    2    0    0  0.00000000000E+00  0.00000000000E+00  0.80993521760E+02  0.23021028106E+04  0.23006775958E+04 0.  0.
        3    1    3    3  502    0  0.26366391387E+02 -0.99984877504E+03 -0.52808634227E+03  0.11310472822E+04  0.10100000352E+00 0. -1.
       -3    1    3    3    0  502 -0.26366391387E+02  0.99984877504E+03  0.60907986403E+03  0.11710555284E+04  0.10100000352E+00 0.  1.
</event>
<event>
 5   0  0.1689444E-06  0.2299874E+04  0.7818609E-02  0.8477971E-01
       -2   -1    0    0    0  501  0.00000000000E+00  0.00000000000E+00  0.15787611227E+04  0.15787611227E+04  0.25500000920E-02 0.  1.
        2   -1    0    0  501    0  0.00000000000E+00  0.00000000000E+00 -0.83759004531E+03  0.83759004531E+03  0.25500000920E-02 0. -1.
    10030    2    1    2    0    0  0.00000000000E+00  0.00000000000E+00  0.74117107744E+03  0.24163511681E+04  0.22998735620E+04 0.  0.
        2    1    3    3  502    0  0.88647030229E+03  0.42352245385E+03 -0.25730463634E+03  0.10155818734E+04  0.25500000920E-02 0. -1.
       -2    1    3    3    0  502 -0.88647030229E+03 -0.42352245385E+03  0.99847571378E+03  0.14007692946E+04  0.25500000920E-02 0.  1.
</event>
<event>
 5   0  0.7932912E-07  0.2299342E+04  0.7818609E-02  0.8478181E-01
        1   -1    0    0  501    0  0.00000000000E+00  0.00000000000E+00  0.96372569160E+03  0.96372569161E+03  0.50400001928E-02 0.  1.
       -1   -1    0    0    0  501  0.00000000000E+00  0.00000000000E+00 -0.13714934278E+04  0.13714934278E+04  0.50400001928E-02 0. -1.
    10030    2    1    2    0    0  0.00000000000E+00  0.00000000000E+00 -0.40776773616E+03  0.23352191194E+04  0.22993420382E+04 0.  0.
        5    1    3    3  502    0 -0.54356471872E+03 -0.96943665295E+03 -0.50249769243E+03  0.12197524537E+04  0.46999998093E+01 0. -1.
       -5    1    3    3    0  502  0.54356471872E+03  0.96943665295E+03  0.94729956263E+02  0.11154666656E+04  0.46999998093E+01 0.  1.
</event>
<event>
 5   0  0.7607231E-07  0.2297140E+04  0.7818609E-02  0.8479050E-01
        1   -1    0    0  501    0  0.00000000000E+00  0.00000000000E+00  0.14994276680E+04  0.14994276680E+04  0.50400001928E-02 0. -1.
       -1   -1    0    0    0  501  0.00000000000E+00  0.00000000000E+00 -0.87981100887E+03  0.87981100888E+03  0.50400001928E-02 0.  1.
    10030    2    1    2    0    0  0.00000000000E+00  0.00000000000E+00  0.61961665915E+03  0.23792386769E+04  0.22971399342E+04 0.  0.
        2    1    3    3  502    0  0.49702258300E+03  0.42188962485E+03  0.12892207909E+04  0.14446842393E+04  0.25500000920E-02 0. -1.
       -2    1    3    3    0  502 -0.49702258300E+03 -0.42188962485E+03 -0.66960413176E+03  0.93455443761E+03  0.25500000920E-02 0.  1.
</event>
<event>
 5   0  0.7932912E-07  0.2300375E+04  0.7818609E-02  0.8477773E-01
       -1   -1    0    0    0  501  0.00000000000E+00  0.00000000000E+00  0.14596993335E+04  0.14596993335E+04  0.50400001928E-02 0.  1.
        1   -1    0    0  501    0  0.00000000000E+00  0.00000000000E+00 -0.90630367520E+03  0.90630367522E+03  0.50400001928E-02 0. -1.
    10030    2    1    2    0    0  0.00000000000E+00  0.00000000000E+00  0.55339565825E+03  0.23660030087E+04  0.23003746396E+04 0.  0.
        5    1    3    3  502    0 -0.51350920778E+03  0.69879951930E+03  0.10538308055E+04  0.13647688197E+04  0.46999998093E+01 0.  1.
       -5    1    3    3    0  502  0.51350920778E+03 -0.69879951930E+03 -0.50043514720E+03  0.10012341890E+04  0.46999998093E+01 0. -1.
</event>
<event>
 5   0  0.1828646E-06  0.2300256E+04  0.7818609E-02  0.8477820E-01
        2   -1    0    0  501    0  0.00000000000E+00  0.00000000000E+00  0.13039764871E+04  0.13039764871E+04  0.25500000920E-02 0.  1.
       -2   -1    0    0    0  501  0.00000000000E+00  0.00000000000E+00 -0.10144313752E+04  0.10144313752E+04  0.25500000920E-02 0. -1.
    10030    2    1    2    0    0  0.00000000000E+00  0.00000000000E+00  0.28954511194E+03  0.23184078623E+04  0.23002562127E+04 0.  0.
        3    1    3    3  502    0 -0.17434725629E+03  0.80021379168E+03 -0.66909911890E+03  0.10575597947E+04  0.10100000352E+00 0. -1.
       -3    1    3    3    0  502  0.17434725629E+03 -0.80021379168E+03  0.95864423083E+03  0.12608480676E+04  0.10100000352E+00 0.  1.
</event>
<event>
 5   0  0.7932912E-07  0.2300782E+04  0.7818609E-02  0.8477613E-01
       -1   -1    0    0    0  501  0.00000000000E+00  0.00000000000E+00  0.11425779434E+04  0.11425779434E+04  0.50400001928E-02 0. -1.
        1   -1    0    0  501    0  0.00000000000E+00  0.00000000000E+00 -0.11582571375E+04  0.11582571375E+04  0.50400001928E-02 0.  1.
    10030    2    1    2    0    0  0.00000000000E+00  0.00000000000E+00 -0.15679194128E+02  0.23008350809E+04  0.23007816568E+04 0.  0.
        5    1    3    3  502    0 -0.59387700118E+03 -0.46471358011E+03  0.86093161214E+03  0.11444972411E+04  0.46999998093E+01 0. -1.
       -5    1    3    3    0  502  0.59387700118E+03  0.46471358011E+03 -0.87661080626E+03  0.11563378398E+04  0.46999998093E+01 0.  1.
</event>
<event>
 5   0  0.1744876E-06  0.2299804E+04  0.7818609E-02  0.8477998E-01
        2   -1    0    0  501    0  0.00000000000E+00  0.00000000000E+00  0.24239593284E+04  0.24239593284E+04  0.25500000920E-02 0.  1.
       -2   -1    0    0    0  501  0.00000000000E+00  0.00000000000E+00 -0.54550206469E+03  0.54550206470E+03  0.25500000920E-02 0. -1.
    10030    2    1    2    0    0  0.00000000000E+00  0.00000000000E+00  0.18784572637E+04  0.29694613931E+04  0.22998041815E+04 0.  0.
        1    1    3    3  502    0 -0.66220941993E+03 -0.86541358846E+03  0.46514776731E+03  0.11848309755E+04  0.50400001928E-02 0. -1.
       -1    1    3    3    0  502  0.66220941993E+03  0.86541358846E+03  0.14133094964E+04  0.17846304176E+04  0.50400001928E-02 0.  1.
</event>
<event>
 5   0  0.1825521E-06  0.2298911E+04  0.7818609E-02  0.8478351E-01
       -2   -1    0    0    0  501  0.00000000000E+00  0.00000000000E+00  0.15645200850E+04  0.15645200850E+04  0.25500000920E-02 0. -1.
        2   -1    0    0  501    0  0.00000000000E+00  0.00000000000E+00 -0.84450687191E+03  0.84450687192E+03  0.25500000920E-02 0.  1.
    10030    2    1    2    0    0  0.00000000000E+00  0.00000000000E+00  0.72001321309E+03  0.24090269569E+04  0.22989110144E+04 0.  0.
        5    1    3    3  502    0 -0.20290264705E+03 -0.54460133889E+03 -0.67919335784E+03  0.89391599708E+03  0.46999998093E+01 0.  1.
       -5    1    3    3    0  502  0.20290264705E+03  0.54460133889E+03  0.13992065709E+04  0.15151109598E+04  0.46999998093E+01 0. -1.
</event>
<event>
 5   0  0.1825521E-06  0.2299449E+04  0.7818609E-02  0.8478138E-01
       -2   -1    0    0    0  501  0.00000000000E+00  0.00000000000E+00  0.86066536794E+03  0.86066536794E+03  0.25500000920E-02 0. -1.
        2   -1    0    0  501    0  0.00000000000E+00  0.00000000000E+00 -0.15358658743E+04  0.15358658743E+04  0.25500000920E-02 0.  1.
    10030    2    1    2    0    0  0.00000000000E+00  0.00000000000E+00 -0.67520050637E+03  0.23965312422E+04  0.22994491234E+04 0.  0.
        5    1    3    3  502    0 -0.91277466720E+02  0.10146140771E+03  0.85218314779E+03  0.86305515500E+03  0.46999998093E+01 0. -1.
       -5    1    3    3    0  502  0.91277466720E+02 -0.10146140771E+03 -0.15273836542E+04  0.15334760873E+04  0.46999998093E+01 0.  1.
</event>
<event>
 5   0  0.7932912E-07  0.2300254E+04  0.7818609E-02  0.8477821E-01
       -1   -1    0    0    0  501  0.00000000000E+00  0.00000000000E+00  0.80413968761E+03  0.80413968763E+03  0.50400001928E-02 0.  1.
        1   -1    0    0  501    0  0.00000000000E+00  0.00000000000E+00 -0.16449773131E+04  0.16449773131E+04  0.50400001928E-02 0. -1.
    10030    2    1    2    0    0  0.00000000000E+00  0.00000000000E+00 -0.84083762549E+03  0.24491170007E+04  0.23002535014E+04 0.  0.
        5    1    3    3  502    0  0.46171276239E+03  0.23696962832E+03 -0.15132119176E+04  0.15997392529E+04  0.46999998093E+01 0. -1.
       -5    1    3    3    0  502 -0.46171276239E+03 -0.23696962832E+03  0.67237429215E+03  0.84937774779E+03  0.46999998093E+01 0.  1.
</event>
<event>
 5   0  0.7932912E-07  0.2300015E+04  0.7818609E-02  0.8477915E-01
       -1   -1    0    0    0  501  0.00000000000E+00  0.00000000000E+00  0.95929574545E+03  0.95929574546E+03  0.50400001928E-02 0. -1.
        1   -1    0    0  501    0  0.00000000000E+00  0.00000000000E+00 -0.13786332194E+04  0.13786332194E+04  0.50400001928E-02 0.  1.
    10030    2    1    2    0    0  0.00000000000E+00  0.00000000000E+00 -0.41933747396E+03  0.23379289649E+04  0.23000147669E+04 0.  0.
        5    1    3    3  502    0 -0.26580324799E+02 -0.20927837097E+03 -0.13587865978E+04  0.13750734739E+04  0.46999998093E+01 0.  1.
       -5    1    3    3    0  502  0.26580324799E+02  0.20927837097E+03  0.93944912385E+03  0.96285549099E+03  0.46999998093E+01 0. -1.
</event>
<event>
 5   0  0.1825521E-06  0.2302735E+04  0.7818609E-02  0.8476843E-01
        2   -1    0    0  501    0  0.00000000000E+00  0.00000000000E+00  0.10169564475E+04  0.10169564475E+04  0.25500000920E-02 0.  1.
       -2   -1    0    0    0  501  0.00000000000E+00  0.00000000000E+00 -0.13035439092E+04  0.13035439092E+04  0.25500000920E-02 0. -1.
    10030    2    1    2    0    0  0.00000000000E+00  0.00000000000E+00 -0.28658746177E+03  0.23205003567E+04  0.23027352284E+04 0.  0.
        5    1    3    3  502    0  0.42470373868E+03  0.90930425064E+03  0.42534483134E+03  0.10900219270E+04  0.46999998093E+01 0.  1.
       -5    1    3    3    0  502 -0.42470373868E+03 -0.90930425064E+03 -0.71193229311E+03  0.12304784297E+04  0.46999998093E+01 0. -1.
</event>
<event>
 5   0  0.8108242E-07  0.2299436E+04  0.7818609E-02  0.8478144E-01
        1   -1    0    0  501    0  0.00000000000E+00  0.00000000000E+00  0.18550232001E+04  0.18550232001E+04  0.50400001928E-02 0.  1.
       -1   -1    0    0    0  501  0.00000000000E+00  0.00000000000E+00 -0.71257926845E+03  0.71257926847E+03  0.50400001928E-02 0. -1.
    10030    2    1    2    0    0  0.00000000000E+00  0.00000000000E+00  0.11424439316E+04  0.25676024685E+04  0.22994356481E+04 0.  0.
        4    1    3    3  502    0  0.39175966215E+03 -0.10480557370E+04  0.86655341798E+03  0.14152077232E+04  0.12699999809E+01 0.  1.
       -4    1    3    3    0  502 -0.39175966215E+03  0.10480557370E+04  0.27589051363E+03  0.11523947453E+04  0.12699999809E+01 0. -1.
</event>
<event>
 5   0  0.1744876E-06  0.2299618E+04  0.7818609E-02  0.8478072E-01
        2   -1    0    0  501    0  0.00000000000E+00  0.00000000000E+00  0.20377175768E+04  0.20377175768E+04  0.25500000920E-02 0.  1.
       -2   -1    0    0    0  501  0.00000000000E+00  0.00000000000E+00 -0.64879463839E+03  0.64879463840E+03  0.25500000920E-02 0. -1.
    10030    2    1    2    0    0  0.00000000000E+00  0.00000000000E+00  0.13889229384E+04  0.26865122152E+04  0.22996175668E+04 0.  0.
        1    1    3    3  502    0 -0.30222926896E+03  0.18932028284E+03 -0.58254923334E+03  0.68304341722E+03  0.50400001928E-02 0. -1.
       -1    1    3    3    0  502  0.30222926896E+03 -0.18932028284E+03  0.19714721718E+04  0.20034687980E+04  0.50400001928E-02 0.  1.
</event>
<event>
 5   0  0.7932912E-07  0.2298639E+04  0.7818609E-02  0.8478458E-01
       -1   -1    0    0    0  501  0.00000000000E+00  0.00000000000E+00  0.57973131770E+03  0.57973131772E+03  0.50400001928E-02 0.  1.
        1   -1    0    0  501    0  0.00000000000E+00  0.00000000000E+00 -0.22785302532E+04  0.22785302532E+04  0.50400001928E-02 0. -1.
    10030    2    1    2    0    0  0.00000000000E+00  0.00000000000E+00 -0.16987989355E+04  0.28582615709E+04  0.22986390288E+04 0.  0.
        5    1    3    3  502    0  0.10091709539E+04  0.31134115319E+03 -0.28563969387E+03  0.10940619053E+04  0.46999998093E+01 0.  1.
       -5    1    3    3    0  502 -0.10091709539E+04 -0.31134115319E+03 -0.14131592416E+04  0.17641996656E+04  0.46999998093E+01 0. -1.
</event>
<event>
 5   0  0.7761069E-07  0.2299721E+04  0.7818609E-02  0.8478031E-01
        1   -1    0    0  501    0  0.00000000000E+00  0.00000000000E+00  0.11471506379E+04  0.11471506380E+04  0.50400001928E-02 0. -1.
       -1   -1    0    0    0  501  0.00000000000E+00  0.00000000000E+00 -0.11525763044E+04  0.11525763044E+04  0.50400001928E-02 0.  1.
    10030    2    1    2    0    0  0.00000000000E+00  0.00000000000E+00 -0.54256664755E+01  0.22997269424E+04  0.22997205421E+04 0.  0.
        1    1    3    3  502    0 -0.17282252667E+02 -0.24085908841E+03  0.11215086312E+04  0.11472111343E+04  0.50400001928E-02 0. -1.
       -1    1    3    3    0  502  0.17282252667E+02  0.24085908841E+03 -0.11269342977E+04  0.11525158081E+04  0.50400001928E-02 0.  1.
</event>
<event>
 5   0  0.7761069E-07  0.2303678E+04  0.7818609E-02  0.8476472E-01
        1   -1    0    0  501    0  0.00000000000E+00  0.00000000000E+00  0.14957848267E+04  0.14957848267E+04  0.50400001928E-02 0.  1.
       -1   -1    0    0    0  501  0.00000000000E+00  0.00000000000E+00 -0.88698131354E+03  0.88698131355E+03  0.50400001928E-02 0. -1.
    10030    2    1    2    0    0  0.00000000000E+00  0.00000000000E+00  0.60880351318E+03  0.23827661403E+04  0.23036780942E+04 0.  0.
        1    1    3    3  502    0 -0.37946605226E+03 -0.55420056466E+03 -0.66345840242E+03  0.94409205189E+03  0.50400001928E-02 0. -1.
       -1    1    3    3    0  502  0.37946605226E+03  0.55420056466E+03  0.12722619156E+04  0.14386740884E+04  0.50400001928E-02 0.  1.
</event>
<event>
 5   0  0.8108242E-07  0.2297139E+04  0.7818609E-02  0.8479050E-01
        1   -1    0    0  501    0  0.00000000000E+00  0.00000000000E+00  0.97995140901E+03  0.97995140902E+03  0.50400001928E-02 0. -1.
       -1   -1    0    0    0  501  0.00000000000E+00  0.00000000000E+00 -0.13462011081E+04  0.13462011082E+04  0.50400001928E-02 0.  1.
    10030    2    1    2    0    0  0.00000000000E+00  0.00000000000E+00 -0.36624969913E+03  0.23261525172E+04  0.22971388054E+04 0.  0.
        4    1    3    3  502    0 -0.11339529361E+03 -0.10283370186E+04 -0.68829907729E+03  0.12426152860E+04  0.12699999809E+01 0.  1.
       -4    1    3    3    0  502  0.11339529361E+03  0.10283370186E+04  0.32204937815E+03  0.10835372311E+04  0.12699999809E+01 0. -1.
</event>
<event>
 5   0  0.1888779E-06  0.2296932E+04  0.7818609E-02  0.8479132E-01
       -2   -1    0    0    0  501  0.00000000000E+00  0.00000000000E+00  0.97161709616E+03  0.97161709617E+03  0.25500000920E-02 0.  1.
        2   -1    0    0  501    0  0.00000000000E+00  0.00000000000E+00 -0.13575044773E+04  0.13575044773E+04  0.25500000920E-02 0. -1.
    10030    2    1    2    0    0  0.00000000000E+00  0.00000000000E+00 -0.38588738116E+03  0.23291215735E+04  0.22969323528E+04 0.  0.
        4    1    3    3  502    0 -0.85467487952E+03 -0.40942675381E+03  0.46489552421E+03  0.10555704040E+04  0.12699999809E+01 0.  1.
       -4    1    3    3    0  502  0.85467487952E+03  0.40942675381E+03 -0.85078290537E+03  0.12735511695E+04  0.12699999809E+01 0. -1.
</event>
<event>
 5   0  0.1744876E-06  0.2300480E+04  0.7818609E-02  0.8477732E-01
        2   -1    0    0  501    0  0.00000000000E+00  0.00000000000E+00  0.96782047159E+03  0.96782047159E+03  0.25500000920E-02 0.  1.
       -2   -1    0    0    0  501  0.00000000000E+00  0.00000000000E+00 -0.13670432701E+04  0.13670432701E+04  0.25500000920E-02 0. -1.
    10030    2    1    2    0    0  0.00000000000E+00  0.00000000000E+00 -0.39922279849E+03  0.23348637417E+04  0.23004803519E+04 0.  0.
        1    1    3    3  502    0 -0.87020888660E+03  0.69074075620E+03  0.10260774526E+03  0.11157574324E+04  0.50400001928E-02 0.  1.
       -1    1    3    3    0  502  0.87020888660E+03 -0.69074075620E+03 -0.50183054375E+03  0.12191063093E+04  0.50400001928E-02 0. -1.
</event>
<event>
 5   0  0.8108242E-07  0.2310574E+04  0.7818609E-02  0.8473764E-01
        1   -1    0    0  501    0  0.00000000000E+00  0.00000000000E+00  0.15551779149E+04  0.15551779149E+04  0.50400001928E-02 0.  1.
       -1   -1    0    0    0  501  0.00000000000E+00  0.00000000000E+00 -0.85822196677E+03  0.85822196679E+03  0.50400001928E-02 0. -1.
    10030    2    1    2    0    0  0.00000000000E+00  0.00000000000E+00  0.69695594812E+03  0.24133998817E+04  0.23105738238E+04 0.  0.
        4    1    3    3  502    0 -0.10853755328E+04  0.20878690624E+03  0.69967660985E+03  0.13081211682E+04  0.12699999809E+01 0.  1.
       -4    1    3    3    0  502  0.10853755328E+04 -0.20878690624E+03 -0.27206617236E+01  0.11052787135E+04  0.12699999809E+01 0. -1.
</event>
<event>
 5   0  0.1825521E-06  0.2298928E+04  0.7818609E-02  0.8478344E-01
        2   -1    0    0  501    0  0.00000000000E+00  0.00000000000E+00  0.24127557494E+04  0.24127557494E+04  0.25500000920E-02 0.  1.
       -2   -1    0    0    0  501  0.00000000000E+00  0.00000000000E+00 -0.54761754171E+03  0.54761754172E+03  0.25500000920E-02 0. -1.
    10030    2    1    2    0    0  0.00000000000E+00  0.00000000000E+00  0.18651382077E+04  0.29603732912E+04  0.22989278999E+04 0.  0.
        5    1    3    3  502    0 -0.28685841006E+03  0.49784719337E+03  0.22145487052E+04  0.22878784130E+04  0.46999998093E+01 0.  1.
       -5    1    3    3    0  502  0.28685841006E+03 -0.49784719337E+03 -0.34941049743E+03  0.67249487811E+03  0.46999998093E+01 0. -1.
</event>
<event>
 5   0  0.1828646E-06  0.2299572E+04  0.7818609E-02  0.8478090E-01
       -2   -1    0    0    0  501  0.00000000000E+00  0.00000000000E+00  0.68986870703E+03  0.68986870704E+03  0.25500000920E-02 0.  1.
        2   -1    0    0  501    0  0.00000000000E+00  0.00000000000E+00 -0.19163188237E+04  0.19163188237E+04  0.25500000920E-02 0. -1.
    10030    2    1    2    0    0  0.00000000000E+00  0.00000000000E+00 -0.12264501167E+04  0.26061875308E+04  0.22995724726E+04 0.  0.
        3    1    3    3  502    0  0.77565651048E+02  0.74697955128E+03 -0.15999521018E+04  0.17674392829E+04  0.10100000352E+00 0. -1.
       -3    1    3    3    0  502 -0.77565651048E+02 -0.74697955128E+03  0.37350198513E+03  0.83874824790E+03  0.10100000352E+00 0.  1.
</event>
<event>
 5   0  0.1689444E-06  0.2301495E+04  0.7818609E-02  0.8477332E-01
       -2   -1    0    0    0  501  0.00000000000E+00  0.00000000000E+00  0.91649185322E+03  0.91649185322E+03  0.25500000920E-02 0.  1.
        2   -1    0    0  501    0  0.00000000000E+00  0.00000000000E+00 -0.14448787160E+04  0.14448787160E+04  0.25500000920E-02 0. -1.
    10030    2    1    2    0    0  0.00000000000E+00  0.00000000000E+00 -0.52838686275E+03  0.23613705692E+04  0.23014947943E+04 0.  0.
        2    1    3    3  502    0 -0.11269553143E+04 -0.23252538831E+03 -0.25280347438E+03  0.11781366361E+04  0.25500000920E-02 0. -1.
       -2    1    3    3    0  502  0.11269553143E+04  0.23252538831E+03 -0.27558338837E+03  0.11832339331E+04  0.25500000920E-02 0.  1.
</event>
<event>
 5   0  0.1689444E-06  0.2299784E+04  0.7818609E-02  0.8478006E-01
       -2   -1    0    0    0  501  0.00000000000E+00  0.00000000000E+00  0.76395593884E+03  0.76395593884E+03  0.25500000920E-02 0.  1.
        2   -1    0    0  501    0  0.00000000000E+00  0.00000000000E+00 -0.17307963181E+04  0.17307963181E+04  0.25500000920E-02 0. -1.
    10030    2    1    2    0    0  0.00000000000E+00  0.00000000000E+00 -0.96684037927E+03  0.24947522569E+04  0.22997844474E+04 0.  0.
        2    1    3    3  502    0 -0.85324695483E+03  0.57624800710E+03 -0.10388427309E+04  0.14626299433E+04  0.25500000920E-02 0.  1.
       -2    1    3    3    0  502  0.85324695483E+03 -0.57624800710E+03  0.72002351620E+02  0.10321223136E+04  0.25500000920E-02 0. -1.
</event>
<event>
 5   0  0.1689444E-06  0.2301283E+04  0.7818609E-02  0.8477415E-01
       -2   -1    0    0    0  501  0.00000000000E+00  0.00000000000E+00  0.85375524913E+03  0.85375524914E+03  0.25500000920E-02 0. -1.
        2   -1    0    0  501    0  0.00000000000E+00  0.00000000000E+00 -0.15507672961E+04  0.15507672961E+04  0.25500000920E-02 0.  1.
    10030    2    1    2    0    0  0.00000000000E+00  0.00000000000E+00 -0.69701204692E+03  0.24045225452E+04  0.23012828763E+04 0.  0.
        2    1    3    3  502    0  0.40850074504E+03  0.83777152682E+03 -0.10534910286E+04  0.14066191159E+04  0.25500000920E-02 0.  1.
       -2    1    3    3    0  502 -0.40850074504E+03 -0.83777152682E+03  0.35647898167E+03  0.99790342931E+03  0.25500000920E-02 0. -1.
</event>
<event>
 5   0  0.1689444E-06  0.2300078E+04  0.7818609E-02  0.8477890E-01
       -2   -1    0    0    0  501  0.00000000000E+00  0.00000000000E+00  0.73980328794E+03  0.73980328795E+03  0.25500000920E-02 0. -1.
        2   -1    0    0  501    0  0.00000000000E+00  0.00000000000E+00 -0.17877584153E+04  0.17877584153E+04  0.25500000920E-02 0.  1.
    10030    2    1    2    0    0  0.00000000000E+00  0.00000000000E+00 -0.10479551273E+04  0.25275617032E+04  0.23000778714E+04 0.  0.
        2    1    3    3  502    0 -0.65070010348E+03 -0.23965556540E+03 -0.15321835627E+04  0.16817942456E+04  0.25500000920E-02 0.  1.
       -2    1    3    3    0  502  0.65070010348E+03  0.23965556540E+03  0.48422843539E+03  0.84576745761E+03  0.25500000920E-02 0. -1.
</event>
<event>
 5   0  0.1828646E-06  0.2299601E+04  0.7818609E-02  0.8478078E-01
        2   -1    0    0  501    0  0.00000000000E+00  0.00000000000E+00  0.75964223686E+03  0.75964223686E+03  0.25500000920E-02 0. -1.
       -2   -1    0    0    0  501  0.00000000000E+00  0.00000000000E+00 -0.17403470160E+04  0.17403470160E+04  0.25500000920E-02 0.  1.
    10030    2    1    2    0    0  0.00000000000E+00  0.00000000000E+00 -0.98070477911E+03  0.24999892528E+04  0.22996009220E+04 0.  0.
        3    1    3    3  502    0 -0.73200698862E+03 -0.33202190721E+03 -0.13841698542E+04  0.16006245574E+04  0.10100000352E+00 0.  1.
       -3    1    3    3    0  502  0.73200698862E+03  0.33202190721E+03  0.40346507514E+03  0.89936469539E+03  0.10100000352E+00 0. -1.
</event>
<event>
 5   0  0.1888779E-06  0.2305516E+04  0.7818609E-02  0.8475749E-01
        2   -1    0    0  501    0  0.00000000000E+00  0.00000000000E+00  0.13548411346E+04  0.13548411346E+04  0.25500000920E-02 0. -1.
       -2   -1    0    0    0  501  0.00000000000E+00  0.00000000000E+00 -0.98081713942E+03  0.98081713943E+03  0.25500000920E-02 0.  1.
    10030    2    1    2    0    0  0.00000000000E+00  0.00000000000E+00  0.37402399516E+03  0.23356582740E+04  0.23055163465E+04 0.  0.
        4    1    3    3  502    0  0.48271753383E+03 -0.52927777834E+03 -0.72795611185E+03  0.10213094036E+04  0.12699999809E+01 0.  1.
       -4    1    3    3    0  502 -0.48271753383E+03  0.52927777834E+03  0.11019801070E+04  0.13143488705E+04  0.12699999809E+01 0. -1.
</event>
<event>
 5   0  0.1744876E-06  0.2300197E+04  0.7818609E-02  0.8477844E-01
        2   -1    0    0  501    0  0.00000000000E+00  0.00000000000E+00  0.14153953237E+04  0.14153953237E+04  0.25500000920E-02 0. -1.
       -2   -1    0    0    0  501  0.00000000000E+00  0.00000000000E+00 -0.93452784272E+03  0.93452784272E+03  0.25500000920E-02 0.  1.
    10030    2    1    2    0    0  0.00000000000E+00  0.00000000000E+00  0.48086748095E+03  0.23499231664E+04  0.23001968076E+04 0.  0.
        1    1    3    3  502    0  0.50746423819E+02  0.47301240762E+03 -0.82929888089E+03  0.95606096624E+03  0.50400001928E-02 0.  1.
       -1    1    3    3    0  502 -0.50746423819E+02 -0.47301240762E+03  0.13101663618E+04  0.13938622002E+04  0.50400001928E-02 0. -1.
</event>
<event>
 5   0  0.7761069E-07  0.2300096E+04  0.7818609E-02  0.8477883E-01
        1   -1    0    0  501    0  0.00000000000E+00  0.00000000000E+00  0.12745570817E+04  0.12745570817E+04  0.50400001928E-02 0.  1.
       -1   -1    0    0    0  501  0.00000000000E+00  0.00000000000E+00 -0.10377015300E+04  0.10377015301E+04  0.50400001928E-02 0. -1.
    10030    2    1    2    0    0  0.00000000000E+00  0.00000000000E+00  0.23685555166E+03  0.23122586118E+04  0.23000955057E+04 0.  0.
        1    1    3    3  502    0 -0.34136695538E+03 -0.65743295387E+03  0.10027729964E+04  0.12467169564E+04  0.50400001928E-02 0.  1.
       -1    1    3    3    0  502  0.34136695538E+03  0.65743295387E+03 -0.76591744477E+03  0.10655416553E+04  0.50400001928E-02 0. -1.
</event>
<event>
 5   0  0.8097672E-07  0.2299588E+04  0.7818609E-02  0.8478084E-01
        1   -1    0    0  501    0  0.00000000000E+00  0.00000000000E+00  0.14537793600E+04  0.14537793600E+04  0.50400001928E-02 0. -1.
       -1   -1    0    0    0  501  0.00000000000E+00  0.00000000000E+00 -0.90937167220E+03  0.90937167222E+03  0.50400001928E-02 0.  1.
    10030    2    1    2    0    0  0.00000000000E+00  0.00000000000E+00  0.54440768779E+03  0.23631510322E+04  0.22995875871E+04 0.  0.
        3    1    3    3  502    0 -0.84424729370E+03  0.25883765205E+03  0.10289521345E+04  0.13559103688E+04  0.10100000352E+00 0. -1.
       -3    1    3    3    0  502  0.84424729370E+03 -0.25883765205E+03 -0.48454444667E+03  0.10072406634E+04  0.10100000352E+00 0.  1.
</event>
<event>
 5   0  0.7761069E-07  0.2300108E+04  0.7818609E-02  0.8477878E-01
        1   -1    0    0  501    0  0.00000000000E+00  0.00000000000E+00  0.14280987927E+04  0.14280987927E+04  0.50400001928E-02 0. -1.
       -1   -1    0    0    0  501  0.00000000000E+00  0.00000000000E+00 -0.92614374690E+03  0.92614374692E+03  0.50400001928E-02 0.  1.
    10030    2    1    2    0    0  0.00000000000E+00  0.00000000000E+00  0.50195504577E+03  0.23542425396E+04  0.23001084903E+04 0.  0.
        1    1    3    3  502    0 -0.11666135258E+02 -0.92959260248E+03  0.94392405946E+03  0.13248664594E+04  0.50400001928E-02 0. -1.
       -1    1    3    3    0  502  0.11666135258E+02  0.92959260248E+03 -0.44196901369E+03  0.10293760802E+04  0.50400001928E-02 0.  1.
</event>
<event>
 5   0  0.1888779E-06  0.2300611E+04  0.7818609E-02  0.8477680E-01
        2   -1    0    0  501    0  0.00000000000E+00  0.00000000000E+00  0.12360495482E+04  0.12360495482E+04  0.25500000920E-02 0. -1.
       -2   -1    0    0    0  501  0.00000000000E+00  0.00000000000E+00 -0.10705096934E+04  0.10705096934E+04  0.25500000920E-02 0.  1.
    10030    2    1    2    0    0  0.00000000000E+00  0.00000000000E+00  0.16553985473E+03  0.23065592416E+04  0.23006112430E+04 0.  0.
        4    1    3    3  502    0  0.36883812357E+02 -0.82193572406E+03  0.88875297537E+03  0.12111243595E+04  0.12699999809E+01 0. -1.
       -4    1    3    3    0  502 -0.36883812357E+02  0.82193572406E+03 -0.72321312064E+03  0.10954348821E+04  0.12699999809E+01 0.  1.
</event>
<event>
 5   0  0.1689444E-06  0.2300025E+04  0.7818609E-02  0.8477911E-01
        2   -1    0    0  501    0  0.00000000000E+00  0.00000000000E+00  0.10503461591E+04  0.10503461591E+04  0.25500000920E-02 0. -1.
       -2   -1    0    0    0  501  0.00000000000E+00  0.00000000000E+00 -0.12591361684E+04  0.12591361684E+04  0.25500000920E-02 0.  1.
    10030    2    1    2    0    0  0.00000000000E+00  0.00000000000E+00 -0.20879000931E+03  0.23094823276E+04  0.23000250767E+04 0.  0.
        2    1    3    3  502    0  0.28918491102E+03  0.48644318017E+03  0.90085780451E+03  0.10638607354E+04  0.25500000920E-02 0. -1.
       -2    1    3    3    0  502 -0.28918491102E+03 -0.48644318017E+03 -0.11096478138E+04  0.12456215922E+04  0.25500000920E-02 0.  1.
</event>
<event>
 5   0  0.1689444E-06  0.2299568E+04  0.7818609E-02  0.8478092E-01
        2   -1    0    0  501    0  0.00000000000E+00  0.00000000000E+00  0.11372961839E+04  0.11372961839E+04  0.25500000920E-02 0. -1.
       -2   -1    0    0    0  501  0.00000000000E+00  0.00000000000E+00 -0.11624086561E+04  0.11624086561E+04  0.25500000920E-02 0.  1.
    10030    2    1    2    0    0  0.00000000000E+00  0.00000000000E+00 -0.25112472125E+02  0.22997048400E+04  0.22995677235E+04 0.  0.
        2    1    3    3  502    0 -0.34602607028E+03 -0.10930864037E+04  0.73652160415E+02  0.11489110357E+04  0.25500000920E-02 0. -1.
       -2    1    3    3    0  502  0.34602607028E+03  0.10930864037E+04 -0.98764632539E+02  0.11507938043E+04  0.25500000920E-02 0.  1.
</event>
<event>
 5   0  0.1744876E-06  0.2300065E+04  0.7818609E-02  0.8477895E-01
       -2   -1    0    0    0  501  0.00000000000E+00  0.00000000000E+00  0.93087570545E+03  0.93087570545E+03  0.25500000920E-02 0. -1.
        2   -1    0    0  501    0  0.00000000000E+00  0.00000000000E+00 -0.14207861658E+04  0.14207861658E+04  0.25500000920E-02 0.  1.
    10030    2    1    2    0    0  0.00000000000E+00  0.00000000000E+00 -0.48991046031E+03  0.23516618712E+04  0.23000654985E+04 0.  0.
        1    1    3    3  502    0 -0.72666693388E+03  0.86549390777E+03 -0.26980886469E+02  0.11304213840E+04  0.50400001928E-02 0. -1.
       -1    1    3    3    0  502  0.72666693388E+03 -0.86549390777E+03 -0.46292957384E+03  0.12212404872E+04  0.50400001928E-02 0.  1.
</event>
<event>
 5   0  0.1825521E-06  0.2300275E+04  0.7818609E-02  0.8477813E-01
        2   -1    0    0  501    0  0.00000000000E+00  0.00000000000E+00  0.18725445422E+04  0.18725445422E+04  0.25500000920E-02 0.  1.
       -2   -1    0    0    0  501  0.00000000000E+00  0.00000000000E+00 -0.70642738287E+03  0.70642738287E+03  0.25500000920E-02 0. -1.
    10030    2    1    2    0    0  0.00000000000E+00  0.00000000000E+00  0.11661171593E+04  0.25789719250E+04  0.23002754098E+04 0.  0.
        5    1    3    3  502    0 -0.78492220987E+02 -0.76867856685E+03 -0.37207772098E+03  0.85760812049E+03  0.46999998093E+01 0. -1.
       -5    1    3    3    0  502  0.78492220987E+02  0.76867856685E+03  0.15381948803E+04  0.17213638045E+04  0.46999998093E+01 0.  1.
</event>
<event>
 5   0  0.7607231E-07  0.2299706E+04  0.7818609E-02  0.8478037E-01
        1   -1    0    0  501    0  0.00000000000E+00  0.00000000000E+00  0.12760068199E+04  0.12760068200E+04  0.50400001928E-02 0. -1.
       -1   -1    0    0    0  501  0.00000000000E+00  0.00000000000E+00 -0.10361712785E+04  0.10361712785E+04  0.50400001928E-02 0.  1.
    10030    2    1    2    0    0  0.00000000000E+00  0.00000000000E+00  0.23983554142E+03  0.23121780985E+04  0.22997057360E+04 0.  0.
        2    1    3    3  502    0 -0.62972352485E+03 -0.74143727246E+03 -0.49649838348E+03  0.10921499858E+04  0.25500000920E-02 0.  1.
       -2    1    3    3    0  502  0.62972352485E+03  0.74143727246E+03  0.73633392490E+03  0.12200281127E+04  0.25500000920E-02 0. -1.
</event>
<event>
 5   0  0.8097672E-07  0.2296864E+04  0.7818609E-02  0.8479159E-01
       -1   -1    0    0    0  501  0.00000000000E+00  0.00000000000E+00  0.16438391778E+04  0.16438391778E+04  0.50400001928E-02 0.  1.
        1   -1    0    0  501    0  0.00000000000E+00  0.00000000000E+00 -0.80232653181E+03  0.80232653182E+03  0.50400001928E-02 0. -1.
    10030    2    1    2    0    0  0.00000000000E+00  0.00000000000E+00  0.84151264600E+03  0.24461657096E+04  0.22968637630E+04 0.  0.
        3    1    3    3  502    0  0.77226216131E+03  0.46699686871E+03 -0.33563607409E+03  0.96287408606E+03  0.10100000352E+00 0. -1.
       -3    1    3    3    0  502 -0.77226216131E+03 -0.46699686871E+03  0.11771487201E+04  0.14832916236E+04  0.10100000352E+00 0.  1.
</event>
<event>
 5   0  0.7761069E-07  0.2302887E+04  0.7818609E-02  0.8476784E-01
       -1   -1    0    0    0  501  0.00000000000E+00  0.00000000000E+00  0.81608823203E+03  0.81608823205E+03  0.50400001928E-02 0. -1.
        1   -1    0    0  501    0  0.00000000000E+00  0.00000000000E+00 -0.16246068005E+04  0.16246068005E+04  0.50400001928E-02 0.  1.
    10030    2    1    2    0    0  0.00000000000E+00  0.00000000000E+00 -0.80851856844E+03  0.24406950325E+04  0.23028873108E+04 0.  0.
        1    1    3    3  502    0  0.76625896570E+03 -0.34573129287E+03 -0.12381998661E+04  0.14966034337E+04  0.50400001928E-02 0.  1.
       -1    1    3    3    0  502 -0.76625896570E+03  0.34573129287E+03  0.42968129764E+03  0.94409159882E+03  0.50400001928E-02 0. -1.
</event>
<event>
 5   0  0.7607231E-07  0.2300116E+04  0.7818609E-02  0.8477875E-01
        1   -1    0    0  501    0  0.00000000000E+00  0.00000000000E+00  0.12994711582E+04  0.12994711582E+04  0.50400001928E-02 0.  1.
       -1   -1    0    0    0  501  0.00000000000E+00  0.00000000000E+00 -0.10178245695E+04  0.10178245696E+04  0.50400001928E-02 0. -1.
    10030    2    1    2    0    0  0.00000000000E+00  0.00000000000E+00  0.28164658863E+03  0.23172957277E+04  0.23001162338E+04 0.  0.
        2    1    3    3  502    0  0.11265267273E+04  0.21710736145E+03  0.60001934836E+02  0.11488247498E+04  0.25500000920E-02 0.  1.
       -2    1    3    3    0  502 -0.11265267273E+04 -0.21710736145E+03  0.22164465379E+03  0.11684709779E+04  0.25500000920E-02 0. -1.
</event>
<event>
 5   0  0.1828646E-06  0.2299908E+04  0.7818609E-02  0.8477957E-01
       -2   -1    0    0    0  501  0.00000000000E+00  0.00000000000E+00  0.10975422407E+04  0.10975422407E+04  0.25500000920E-02 0.  1.
        2   -1    0    0  501    0  0.00000000000E+00  0.00000000000E+00 -0.12048685518E+04  0.12048685518E+04  0.25500000920E-02 0. -1.
    10030    2    1    2    0    0  0.00000000000E+00  0.00000000000E+00 -0.10732631112E+03  0.23024107925E+04  0.22999079374E+04 0.  0.
        3    1    3    3  502    0 -0.55879306940E+03 -0.71849338240E+03 -0.75721646569E+03  0.11840013603E+04  0.10100000352E+00 0. -1.
       -3    1    3    3    0  502  0.55879306940E+03  0.71849338240E+03  0.64989015457E+03  0.11184094323E+04  0.10100000352E+00 0.  1.
</event>
<event>
 5   0  0.7607231E-07  0.2299182E+04  0.7818609E-02  0.8478244E-01
       -1   -1    0    0    0  501  0.00000000000E+00  0.00000000000E+00  0.79721476920E+03  0.79721476921E+03  0.50400001928E-02 0. -1.
        1   -1    0    0  501    0  0.00000000000E+00  0.00000000000E+00 -0.16577214662E+04  0.16577214662E+04  0.50400001928E-02 0.  1.
    10030    2    1    2    0    0  0.00000000000E+00  0.00000000000E+00 -0.86050669696E+03  0.24549362354E+04  0.22991824948E+04 0.  0.
        2    1    3    3  502    0  0.23680471898E+03 -0.39613705813E+03  0.69395337050E+03  0.83341005764E+03  0.25500000920E-02 0. -1.
       -2    1    3    3    0  502 -0.23680471898E+03  0.39613705813E+03 -0.15544600675E+04  0.16215261777E+04  0.25500000920E-02 0.  1.
</event>
<event>
 5   0  0.1825521E-06  0.2299587E+04  0.7818609E-02  0.8478084E-01
       -2   -1    0    0    0  501  0.00000000000E+00  0.00000000000E+00  0.15465587277E+04  0.15465587277E+04  0.25500000920E-02 0. -1.
        2   -1    0    0  501    0  0.00000000000E+00  0.00000000000E+00 -0.85481735711E+03  0.85481735711E+03  0.25500000920E-02 0.  1.
    10030    2    1    2    0    0  0.00000000000E+00  0.00000000000E+00  0.69174137058E+03  0.24013760848E+04  0.22995871318E+04 0.  0.
        5    1    3    3  502    0 -0.84556178499E+03 -0.76864798610E+03  0.21292190950E+03  0.11623907640E+04  0.46999998093E+01 0. -1.
       -5    1    3    3    0  502  0.84556178499E+03  0.76864798610E+03  0.47881946107E+03  0.12389853208E+04  0.46999998093E+01 0.  1.
</event>
<event>
 5   0  0.1888779E-06  0.2300814E+04  0.7818609E-02  0.8477600E-01
       -2   -1    0    0    0  501  0.00000000000E+00  0.00000000000E+00  0.91993510365E+03  0.91993510365E+03  0.25500000920E-02 0. -1.
        2   -1    0    0  501    0  0.00000000000E+00  0.00000000000E+00 -0.14386192798E+04  0.14386192798E+04  0.25500000920E-02 0.  1.
    10030    2    1    2    0    0  0.00000000000E+00  0.00000000000E+00 -0.51868417613E+03  0.23585543834E+04  0.23008140961E+04 0.  0.
        4    1    3    3  502    0  0.67832246903E+03  0.76260523310E+03 -0.80346090549E+03  0.12989377018E+04  0.12699999809E+01 0.  1.
       -4    1    3    3    0  502 -0.67832246903E+03 -0.76260523310E+03  0.28477672936E+03  0.10596166817E+04  0.12699999809E+01 0. -1.
</event>
<event>
 5   0  0.7932912E-07  0.2299000E+04  0.7818609E-02  0.8478316E-01
        1   -1    0    0  501    0  0.00000000000E+00  0.00000000000E+00  0.97981828671E+03  0.97981828673E+03  0.50400001928E-02 0. -1.
       -1   -1    0    0    0  501  0.00000000000E+00  0.00000000000E+00 -0.13485661502E+04  0.13485661502E+04  0.50400001928E-02 0.  1.
    10030    2    1    2    0    0  0.00000000000E+00  0.00000000000E+00 -0.36874786346E+03  0.23283844369E+04  0.22989995866E+04 0.  0.
        5    1    3    3  502    0  0.10764846749E+03 -0.11434603040E+04 -0.13646148907E+03  0.11566042916E+04  0.46999998093E+01 0.  1.
       -5    1    3    3    0  502 -0.10764846749E+03  0.11434603040E+04 -0.23228637439E+03  0.11717801453E+04  0.46999998093E+01 0. -1.
</event>
<event>
 5   0  0.8097672E-07  0.2299295E+04  0.7818609E-02  0.8478199E-01
       -1   -1    0    0    0  501  0.00000000000E+00  0.00000000000E+00  0.50722697608E+03  0.50722697611E+03  0.50400001928E-02 0.  1.
        1   -1    0    0  501    0  0.00000000000E+00  0.00000000000E+00 -0.26057157000E+04  0.26057157000E+04  0.50400001928E-02 0. -1.
    10030    2    1    2    0    0  0.00000000000E+00  0.00000000000E+00 -0.20984887239E+04  0.31129426761E+04  0.22992949311E+04 0.  0.
        3    1    3    3  502    0 -0.76941300700E+03  0.62965069679E+03 -0.26770584936E+03  0.10296226529E+04  0.10100000352E+00 0.  1.
       -3    1    3    3    0  502  0.76941300700E+03 -0.62965069679E+03 -0.18307828746E+04  0.20833200233E+04  0.10100000352E+00 0. -1.
</event>
<event>
 5   0  0.8108242E-07  0.2300024E+04  0.7818609E-02  0.8477912E-01
        1   -1    0    0  501    0  0.00000000000E+00  0.00000000000E+00  0.12915685468E+04  0.12915685468E+04  0.50400001928E-02 0.  1.
       -1   -1    0    0    0  501  0.00000000000E+00  0.00000000000E+00 -0.10239700732E+04  0.10239700732E+04  0.50400001928E-02 0. -1.
    10030    2    1    2    0    0  0.00000000000E+00  0.00000000000E+00  0.26759847361E+03  0.23155386201E+04  0.23000239473E+04 0.  0.
        4    1    3    3  502    0  0.41042023619E+03 -0.62339834221E+03  0.10146040746E+04  0.12595607585E+04  0.12699999809E+01 0.  1.
       -4    1    3    3    0  502 -0.41042023619E+03  0.62339834221E+03 -0.74700560096E+03  0.10559778616E+04  0.12699999809E+01 0. -1.
</event>
<event>
 5   0  0.7932912E-07  0.2300430E+04  0.7818609E-02  0.8477752E-01
       -1   -1    0    0    0  501  0.00000000000E+00  0.00000000000E+00  0.63406142494E+03  0.63406142496E+03  0.50400001928E-02 0. -1.
        1   -1    0    0  501    0  0.00000000000E+00  0.00000000000E+00 -0.20865394720E+04  0.20865394720E+04  0.50400001928E-02 0.  1.
    10030    2    1    2    0    0  0.00000000000E+00  0.00000000000E+00 -0.14524780470E+04  0.27206008969E+04  0.23004296910E+04 0.  0.
        5    1    3    3  502    0 -0.11725020476E+03 -0.49423555497E+03  0.49421562290E+03  0.70872248887E+03  0.46999998093E+01 0. -1.
       -5    1    3    3    0  502  0.11725020476E+03  0.49423555497E+03 -0.19466936699E+04  0.20118784081E+04  0.46999998093E+01 0.  1.
</event>
<event>
 5   0  0.1689444E-06  0.2303879E+04  0.7818609E-02  0.8476393E-01
       -2   -1    0    0    0  501  0.00000000000E+00  0.00000000000E+00  0.71834782146E+03  0.71834782146E+03  0.25500000920E-02 0.  1.
        2   -1    0    0  501    0  0.00000000000E+00  0.00000000000E+00 -0.18472450429E+04  0.18472450429E+04  0.25500000920E-02 0. -1.
    10030    2    1    2    0    0  0.00000000000E+00  0.00000000000E+00 -0.11288972214E+04  0.25655928643E+04  0.23038788616E+04 0.  0.
        2    1    3    3  502    0 -0.16741110861E+03 -0.11110785292E+04 -0.28175616399E+03  0.11584077491E+04  0.25500000920E-02 0.  1.
       -2    1    3    3    0  502  0.16741110861E+03  0.11110785292E+04 -0.84714105744E+03  0.14071851152E+04  0.25500000920E-02 0. -1.
</event>
<event>
 5   0  0.7607231E-07  0.2300459E+04  0.7818609E-02  0.8477740E-01
       -1   -1    0    0    0  501  0.00000000000E+00  0.00000000000E+00  0.11846309587E+04  0.11846309587E+04  0.50400001928E-02 0.  1.
        1   -1    0    0  501    0  0.00000000000E+00  0.00000000000E+00 -0.11168270922E+04  0.11168270922E+04  0.50400001928E-02 0. -1.
    10030    2    1    2    0    0  0.00000000000E+00  0.00000000000E+00  0.67803866540E+02  0.23014580510E+04  0.23004590403E+04 0.  0.
        2    1    3    3  502    0  0.39211750851E+02  0.31650165056E+03  0.11395140151E+04  0.11833017565E+04  0.25500000920E-02 0.  1.
       -2    1    3    3    0  502 -0.39211750851E+02 -0.31650165056E+03 -0.10717101486E+04  0.11181562945E+04  0.25500000920E-02 0. -1.
</event>
<event>
 5   0  0.1825521E-06  0.2299736E+04  0.7818609E-02  0.8478025E-01
       -2   -1    0    0    0  501  0.00000000000E+00  0.00000000000E+00  0.10833489702E+04  0.10833489702E+04  0.25500000920E-02 0. -1.
        2   -1    0    0  501    0  0.00000000000E+00  0.00000000000E+00 -0.12204718843E+04  0.12204718843E+04  0.25500000920E-02 0.  1.
    10030    2    1    2    0    0  0.00000000000E+00  0.00000000000E+00 -0.13712291410E+03  0.23038208545E+04  0.22997364710E+04 0.  0.
        5    1    3    3  502    0  0.70071151743E+03 -0.62284880509E+03  0.59838187058E+03  0.11122141061E+04  0.46999998093E+01 0. -1.
       -5    1    3    3    0  502 -0.70071151743E+03  0.62284880509E+03 -0.73550478468E+03  0.11916067484E+04  0.46999998093E+01 0.  1.
</event>
<event>
 5   0  0.7761069E-07  0.2299948E+04  0.7818609E-02  0.8477941E-01
       -1   -1    0    0    0  501  0.00000000000E+00  0.00000000000E+00  0.19107703417E+04  0.19107703417E+04  0.50400001928E-02 0. -1.
        1   -1    0    0  501    0  0.00000000000E+00  0.00000000000E+00 -0.69209820675E+03  0.69209820677E+03  0.50400001928E-02 0.  1.
    10030    2    1    2    0    0  0.00000000000E+00  0.00000000000E+00  0.12186721349E+04  0.26028685484E+04  0.22999484577E+04 0.  0.
        1    1    3    3  502    0  0.70614272181E+03  0.14153219995E+03 -0.40527716040E+03  0.82638882129E+03  0.50400001928E-02 0.  1.
       -1    1    3    3    0  502 -0.70614272181E+03 -0.14153219995E+03  0.16239492953E+04  0.17764797271E+04  0.50400001928E-02 0. -1.
</event>
<event>
 5   0  0.1828646E-06  0.2296064E+04  0.7818609E-02  0.8479475E-01
       -2   -1    0    0    0  501  0.00000000000E+00  0.00000000000E+00  0.91940493113E+03  0.91940493113E+03  0.25500000920E-02 0.  1.
        2   -1    0    0  501    0  0.00000000000E+00  0.00000000000E+00 -0.14335115375E+04  0.14335115375E+04  0.25500000920E-02 0. -1.
    10030    2    1    2    0    0  0.00000000000E+00  0.00000000000E+00 -0.51410660638E+03  0.23529164686E+04  0.22960640901E+04 0.  0.
        3    1    3    3  502    0 -0.48880921021E+03  0.10387640912E+04 -0.25346151950E+03  0.11756734382E+04  0.10100000352E+00 0. -1.
       -3    1    3    3    0  502  0.48880921021E+03 -0.10387640912E+04 -0.26064508688E+03  0.11772430304E+04  0.10100000352E+00 0.  1.
</event>
<event>
 5   0  0.1825521E-06  0.2301115E+04  0.7818609E-02  0.8477482E-01
       -2   -1    0    0    0  501  0.00000000000E+00  0.00000000000E+00  0.67854867722E+03  0.67854867722E+03  0.25500000920E-02 0. -1.
        2   -1    0    0  501    0  0.00000000000E+00  0.00000000000E+00 -0.19509020663E+04  0.19509020663E+04  0.25500000920E-02 0.  1.
    10030    2    1    2    0    0  0.00000000000E+00  0.00000000000E+00 -0.12723533891E+04  0.26294507436E+04  0.23011145269E+04 0.  0.
        5    1    3    3  502    0  0.42901485379E+03  0.31726990807E+03 -0.18009574601E+04  0.18783460284E+04  0.46999998093E+01 0.  1.
       -5    1    3    3    0  502 -0.42901485379E+03 -0.31726990807E+03  0.52860407096E+03  0.75110471518E+03  0.46999998093E+01 0. -1.
</event>
<event>
 5   0  0.1825521E-06  0.2300762E+04  0.7818609E-02  0.8477621E-01
       -2   -1    0    0    0  501  0.00000000000E+00  0.00000000000E+00  0.79698149517E+03  0.79698149517E+03  0.25500000920E-02 0. -1.
        2   -1    0    0  501    0  0.00000000000E+00  0.00000000000E+00 -0.16604859352E+04  0.16604859352E+04  0.25500000920E-02 0.  1.
    10030    2    1    2    0    0  0.00000000000E+00  0.00000000000E+00 -0.86350444004E+03  0.24574674304E+04  0.23007621027E+04 0.  0.
        5    1    3    3  502    0 -0.56561481435E+02 -0.54223051495E+03 -0.15137332532E+04  0.16089200056E+04  0.46999998093E+01 0.  1.
       -5    1    3    3    0  502  0.56561481435E+02  0.54223051495E+03  0.65022881321E+03  0.84854742475E+03  0.46999998093E+01 0. -1.
</event>
<event>
 5   0  0.1828646E-06  0.2299622E+04  0.7818609E-02  0.8478070E-01
       -2   -1    0    0    0  501  0.00000000000E+00  0.00000000000E+00  0.15409222124E+04  0.15409222124E+04  0.25500000920E-02 0. -1.
        2   -1    0    0  501    0  0.00000000000E+00  0.00000000000E+00 -0.85796998531E+03  0.85796998532E+03  0.25500000920E-02 0.  1.
    10030    2    1    2    0    0  0.00000000000E+00  0.00000000000E+00  0.68295222713E+03  0.23988921978E+04  0.22996217150E+04 0.  0.
        3    1    3    3  502    0 -0.24075511043E+03 -0.10534496675E+03  0.15091743685E+04  0.15318837651E+04  0.10100000352E+00 0. -1.
       -3    1    3    3    0  502  0.24075511043E+03  0.10534496675E+03 -0.82622214134E+03  0.86700843263E+03  0.10100000352E+00 0.  1.
</event>
<event>
 5   0  0.7761069E-07  0.2299698E+04  0.7818609E-02  0.8478040E-01
       -1   -1    0    0    0  501  0.00000000000E+00  0.00000000000E+00  0.59776879871E+03  0.59776879873E+03  0.50400001928E-02 0. -1.
        1   -1    0    0  501    0  0.00000000000E+00  0.00000000000E+00 -0.22118137046E+04  0.22118137046E+04  0.50400001928E-02 0.  1.
    10030    2    1    2    0    0  0.00000000000E+00  0.00000000000E+00 -0.16140449059E+04  0.28095825034E+04  0.22996984335E+04 0.  0.
        1    1    3    3  502    0  0.89401328729E+03 -0.20813146036E+03  0.39033447666E+02  0.91875027766E+03  0.50400001928E-02 0. -1.
       -1    1    3    3    0  502 -0.89401328729E+03  0.20813146036E+03 -0.16530783536E+04  0.18908322257E+04  0.50400001928E-02 0.  1.
</event>
<event>
 5   0  0.7607231E-07  0.2298630E+04  0.7818609E-02  0.8478461E-01
        1   -1    0    0  501    0  0.00000000000E+00  0.00000000000E+00  0.16699473431E+04  0.16699473432E+04  0.50400001928E-02 0.  1.
       -1   -1    0    0    0  501  0.00000000000E+00  0.00000000000E+00 -0.79099825344E+03  0.79099825345E+03  0.50400001928E-02 0. -1.
    10030    2    1    2    0    0  0.00000000000E+00  0.00000000000E+00  0.87894908971E+03  0.24609455966E+04  0.22986304025E+04 0.  0.
        2    1    3    3  502    0  0.66428291284E+03  0.58831038436E+03  0.12214951647E+04  0.15097785712E+04  0.25500000920E-02 0.  1.
       -2    1    3    3    0  502 -0.66428291284E+03 -0.58831038436E+03 -0.34254607504E+03  0.95116702538E+03  0.25500000920E-02 0. -1.
</event>
<event>
 5   0  0.7932912E-07  0.2305526E+04  0.7818609E-02  0.8475745E-01
       -1   -1    0    0    0  501  0.00000000000E+00  0.00000000000E+00  0.67796838315E+03  0.67796838317E+03  0.50400001928E-02 0.  1.
        1   -1    0    0  501    0  0.00000000000E+00  0.00000000000E+00 -0.19600662609E+04  0.19600662609E+04  0.50400001928E-02 0. -1.
    10030    2    1    2    0    0  0.00000000000E+00  0.00000000000E+00 -0.12820978777E+04  0.26380346441E+04  0.23055263640E+04 0.  0.
        5    1    3    3  502    0 -0.57651415474E+03 -0.57790202032E+03  0.29028161415E+03  0.86638606938E+03  0.46999998093E+01 0.  1.
       -5    1    3    3    0  502  0.57651415474E+03  0.57790202032E+03 -0.15723794919E+04  0.17716485747E+04  0.46999998093E+01 0. -1.
</event>
<event>
 5   0  0.1689444E-06  0.2299065E+04  0.7818609E-02  0.8478290E-01
       -2   -1    0    0    0  501  0.00000000000E+00  0.00000000000E+00  0.49600067844E+03  0.49600067845E+03  0.25500000920E-02 0. -1.
        2   -1    0    0  501    0  0.00000000000E+00  0.00000000000E+00 -0.26641589058E+04  0.26641589058E+04  0.25500000920E-02 0.  1.
    10030    2    1    2    0    0  0.00000000000E+00  0.00000000000E+00 -0.21681582273E+04  0.31601595842E+04  0.22990647009E+04 0.  0.
        2    1    3    3  502    0  0.28176480967E+03 -0.35061473674E+03 -0.25381740380E+04  0.25777217749E+04  0.25500000920E-02 0.  1.
       -2    1    3    3    0  502 -0.28176480967E+03  0.35061473674E+03  0.37001581067E+03  0.58243780933E+03  0.25500000920E-02 0. -1.
</event>
<event>
 5   0  0.8097672E-07  0.2299576E+04  0.7818609E-02  0.8478088E-01
        1   -1    0    0  501    0  0.00000000000E+00  0.00000000000E+00  0.99947836944E+03  0.99947836945E+03  0.50400001928E-02 0.  1.
       -1   -1    0    0    0  501  0.00000000000E+00  0.00000000000E+00 -0.13227029500E+04  0.13227029501E+04  0.50400001928E-02 0. -1.
    10030    2    1    2    0    0  0.00000000000E+00  0.00000000000E+00 -0.32322458060E+03  0.23221813195E+04  0.22995764721E+04 0.  0.
        3    1    3    3  502    0 -0.11048347378E+04 -0.51707223635E+02 -0.47883322095E+03  0.12052446633E+04  0.10100000352E+00 0. -1.
       -3    1    3    3    0  502  0.11048347378E+04  0.51707223635E+02  0.15560864035E+03  0.11169366562E+04  0.10100000352E+00 0.  1.
</event>
<event>
 5   0  0.8108242E-07  0.2300701E+04  0.7818609E-02  0.8477645E-01
       -1   -1    0    0    0  501  0.00000000000E+00  0.00000000000E+00  0.80499725579E+03  0.80499725581E+03  0.50400001928E-02 0. -1.
        1   -1    0    0  501    0  0.00000000000E+00  0.00000000000E+00 -0.16438646311E+04  0.16438646311E+04  0.50400001928E-02 0.  1.
    10030    2    1    2    0    0  0.00000000000E+00  0.00000000000E+00 -0.83886737533E+03  0.24488618869E+04  0.23007012122E+04 0.  0.
        4    1    3    3  502    0  0.38031701076E+03 -0.59723732303E+03 -0.13844450765E+04  0.15549994313E+04  0.12699999809E+01 0.  1.
       -4    1    3    3    0  502 -0.38031701076E+03  0.59723732303E+03  0.54557770115E+03  0.89386245563E+03  0.12699999809E+01 0. -1.
</event>
<event>
 5   0  0.1888779E-06  0.2300687E+04  0.7818609E-02  0.8477650E-01
        2   -1    0    0  501    0  0.00000000000E+00  0.00000000000E+00  0.18666235982E+04  0.18666235982E+04  0.25500000920E-02 0.  1.
       -2   -1    0    0    0  501  0.00000000000E+00  0.00000000000E+00 -0.70892203738E+03  0.70892203738E+03  0.25500000920E-02 0. -1.
    10030    2    1    2    0    0  0.00000000000E+00  0.00000000000E+00  0.11577015608E+04  0.25755456356E+04  0.23006873793E+04 0.  0.
        4    1    3    3  502    0 -0.76653516179E+02  0.54090876421E+03 -0.55443059954E+03  0.77836556665E+03  0.12699999809E+01 0. -1.
       -4    1    3    3    0  502  0.76653516179E+02 -0.54090876421E+03  0.17121321604E+04  0.17971800690E+04  0.12699999809E+01 0.  1.
</event>
<event>
 5   0  0.8108242E-07  0.2299907E+04  0.7818609E-02  0.8477958E-01
       -1   -1    0    0    0  501  0.00000000000E+00  0.00000000000E+00  0.11775237899E+04  0.11775237899E+04  0.50400001928E-02 0.  1.
        1   -1    0    0  501    0  0.00000000000E+00  0.00000000000E+00 -0.11230286369E+04  0.11230286369E+04  0.50400001928E-02 0. -1.
    10030    2    1    2    0    0  0.00000000000E+00  0.00000000000E+00  0.54495153015E+02  0.23005524268E+04  0.22999068996E+04 0.  0.
        4    1    3    3  502    0  0.55859700373E+03 -0.43762001753E+03  0.93240455610E+03  0.11717174410E+04  0.12699999809E+01 0.  1.
       -4    1    3    3    0  502 -0.55859700373E+03  0.43762001753E+03 -0.87790940308E+03  0.11288349858E+04  0.12699999809E+01 0. -1.
</event>
<event>
 5   0  0.8108242E-07  0.2299905E+04  0.7818609E-02  0.8477959E-01
       -1   -1    0    0    0  501  0.00000000000E+00  0.00000000000E+00  0.54482385144E+03  0.54482385147E+03  0.50400001928E-02 0.  1.
        1   -1    0    0  501    0  0.00000000000E+00  0.00000000000E+00 -0.24271888521E+04  0.24271888521E+04  0.50400001928E-02 0. -1.
    10030    2    1    2    0    0  0.00000000000E+00  0.00000000000E+00 -0.18823650006E+04  0.29720127036E+04  0.22999046751E+04 0.  0.
        4    1    3    3  502    0 -0.29938717912E+03 -0.68761356398E+03  0.18531835586E+03  0.77252158695E+03  0.12699999809E+01 0.  1.
       -4    1    3    3    0  502  0.29938717912E+03  0.68761356398E+03 -0.20676833565E+04  0.21994911166E+04  0.12699999809E+01 0. -1.
</event>
<event>
 5   0  0.7761069E-07  0.2299615E+04  0.7818609E-02  0.8478073E-01
       -1   -1    0    0    0  501  0.00000000000E+00  0.00000000000E+00  0.96516436780E+03  0.96516436781E+03  0.50400001928E-02 0.  1.
        1   -1    0    0  501    0  0.00000000000E+00  0.00000000000E+00 -0.13697738715E+04  0.13697738715E+04  0.50400001928E-02 0. -1.
    10030    2    1    2    0    0  0.00000000000E+00  0.00000000000E+00 -0.40460950374E+03  0.23349382394E+04  0.22996146919E+04 0.  0.
        1    1    3    3  502    0 -0.55728801699E+03 -0.79007929036E+01  0.81883944633E+03  0.99052026496E+03  0.50400001928E-02 0.  1.
       -1    1    3    3    0  502  0.55728801699E+03  0.79007929036E+01 -0.12234489501E+04  0.13444179744E+04  0.50400001928E-02 0. -1.
</event>
<event>
 5   0  0.1744876E-06  0.2298202E+04  0.7818609E-02  0.8478630E-01
       -2   -1    0    0    0  501  0.00000000000E+00  0.00000000000E+00  0.11359115657E+04  0.11359115657E+04  0.25500000920E-02 0.  1.
        2   -1    0    0  501    0  0.00000000000E+00  0.00000000000E+00 -0.11624437923E+04  0.11624437923E+04  0.25500000920E-02 0. -1.
    10030    2    1    2    0    0  0.00000000000E+00  0.00000000000E+00 -0.26532226656E+02  0.22983553580E+04  0.22982022088E+04 0.  0.
        1    1    3    3  502    0 -0.58665904699E+03  0.13314412191E+03 -0.99238046269E+03  0.11604805804E+04  0.50400001928E-02 0. -1.
       -1    1    3    3    0  502  0.58665904699E+03 -0.13314412191E+03  0.96584823604E+03  0.11378747777E+04  0.50400001928E-02 0.  1.
</event>
<event>
 5   0  0.8097672E-07  0.2298355E+04  0.7818609E-02  0.8478570E-01
        1   -1    0    0  501    0  0.00000000000E+00  0.00000000000E+00  0.87306264884E+03  0.87306264886E+03  0.50400001928E-02 0.  1.
       -1   -1    0    0    0  501  0.00000000000E+00  0.00000000000E+00 -0.15126160957E+04  0.15126160957E+04  0.50400001928E-02 0. -1.
    10030    2    1    2    0    0  0.00000000000E+00  0.00000000000E+00 -0.63955344689E+03  0.23856787446E+04  0.22983547292E+04 0.  0.
        3    1    3    3  502    0  0.10043427484E+03 -0.45950573728E+03  0.76857190942E+03  0.90107455646E+03  0.10100000352E+00 0.  1.
       -3    1    3    3    0  502 -0.10043427484E+03  0.45950573728E+03 -0.14081253563E+04  0.14846041881E+04  0.10100000352E+00 0. -1.
</event>
<event>
 5   0  0.1689444E-06  0.2300435E+04  0.7818609E-02  0.8477749E-01
        2   -1    0    0  501    0  0.00000000000E+00  0.00000000000E+00  0.81805059525E+03  0.81805059525E+03  0.25500000920E-02 0.  1.
       -2   -1    0    0    0  501  0.00000000000E+00  0.00000000000E+00 -0.16172603366E+04  0.16172603366E+04  0.25500000920E-02 0. -1.
    10030    2    1    2    0    0  0.00000000000E+00  0.00000000000E+00 -0.79920974138E+03  0.24353109319E+04  0.23004354206E+04 0.  0.
        2    1    3    3  502    0  0.41219181316E+03  0.65695734990E+03 -0.12988213654E+04  0.15127564211E+04  0.25500000920E-02 0. -1.
       -2    1    3    3    0  502 -0.41219181316E+03 -0.65695734990E+03  0.49961162403E+03  0.92255451075E+03  0.25500000920E-02 0.  1.
</event>
<event>
 5   0  0.1828646E-06  0.2298661E+04  0.7818609E-02  0.8478449E-01
        2   -1    0    0  501    0  0.00000000000E+00  0.00000000000E+00  0.55176886554E+03  0.55176886555E+03  0.25500000920E-02 0.  1.
       -2   -1    0    0    0  501  0.00000000000E+00  0.00000000000E+00 -0.23940470630E+04  0.23940470630E+04  0.25500000920E-02 0. -1.
    10030    2    1    2    0    0  0.00000000000E+00  0.00000000000E+00 -0.18422781975E+04  0.29458159286E+04  0.22986610294E+04 0.  0.
        3    1    3    3  502    0  0.11117469542E+04 -0.28539410699E+03 -0.99727499029E+03  0.15205224441E+04  0.10100000352E+00 0. -1.
       -3    1    3    3    0  502 -0.11117469542E+04  0.28539410699E+03 -0.84500320718E+03  0.14252934845E+04  0.10100000352E+00 0.  1.
</event>
<event>
 5   0  0.6319125E-07  0.2306509E+04  0.7818609E-02  0.8475359E-01
        3   -1    0    0  501    0  0.00000000000E+00  0.00000000000E+00  0.17803531278E+04  0.17803531307E+04  0.10100000352E+00 0.  1.
       -3   -1    0    0    0  501  0.00000000000E+00  0.00000000000E+00 -0.74704028366E+03  0.74704029048E+03  0.10100000352E+00 0. -1.
    10030    2    1    2    0    0  0.00000000000E+00  0.00000000000E+00  0.10333128442E+04  0.25273934212E+04  0.23065086324E+04 0.  0.
        1    1    3    3  502    0 -0.21167257144E+03  0.11296695313E+04  0.62082330755E+03  0.13062848489E+04  0.50400001928E-02 0. -1.
       -1    1    3    3    0  502  0.21167257144E+03 -0.11296695313E+04  0.41248953662E+03  0.12211085722E+04  0.50400001928E-02 0.  1.
</event>
<event>
 5   0  0.7932912E-07  0.2297295E+04  0.7818609E-02  0.8478988E-01
        1   -1    0    0  501    0  0.00000000000E+00  0.00000000000E+00  0.20845539147E+04  0.20845539147E+04  0.50400001928E-02 0. -1.
       -1   -1    0    0    0  501  0.00000000000E+00  0.00000000000E+00 -0.63293685470E+03  0.63293685472E+03  0.50400001928E-02 0.  1.
    10030    2    1    2    0    0  0.00000000000E+00  0.00000000000E+00  0.14516170600E+04  0.27174907694E+04  0.22972949295E+04 0.  0.
        5    1    3    3  502    0 -0.24941818574E+02 -0.11397126575E+04  0.89226644493E+03  0.14476631289E+04  0.46999998093E+01 0.  1.
       -5    1    3    3    0  502  0.24941818574E+02  0.11397126575E+04  0.55935061508E+03  0.12698276405E+04  0.46999998093E+01 0. -1.
</event>
<event>
 5   0  0.1888779E-06  0.2300816E+04  0.7818609E-02  0.8477600E-01
        2   -1    0    0  501    0  0.00000000000E+00  0.00000000000E+00  0.10657457164E+04  0.10657457164E+04  0.25500000920E-02 0.  1.
       -2   -1    0    0    0  501  0.00000000000E+00  0.00000000000E+00 -0.12417954131E+04  0.12417954131E+04  0.25500000920E-02 0. -1.
    10030    2    1    2    0    0  0.00000000000E+00  0.00000000000E+00 -0.17604969664E+03  0.23075411295E+04  0.23008156312E+04 0.  0.
        4    1    3    3  502    0  0.68585947254E+03 -0.82972959516E+03 -0.49489791950E+03  0.11848122133E+04  0.12699999809E+01 0.  1.
       -4    1    3    3    0  502 -0.68585947254E+03  0.82972959516E+03  0.31884822286E+03  0.11227289162E+04  0.12699999809E+01 0. -1.
</event>
<event>
 5   0  0.1888779E-06  0.2300180E+04  0.7818609E-02  0.8477850E-01
        2   -1    0    0  501    0  0.00000000000E+00  0.00000000000E+00  0.18411618952E+04  0.18411618952E+04  0.25500000920E-02 0.  1.
       -2   -1    0    0    0  501  0.00000000000E+00  0.00000000000E+00 -0.71840899435E+03  0.71840899435E+03  0.25500000920E-02 0. -1.
    10030    2    1    2    0    0  0.00000000000E+00  0.00000000000E+00  0.11227529009E+04  0.25595708896E+04  0.23001802239E+04 0.  0.
        4    1    3    3  502    0 -0.10623085365E+03 -0.10930700782E+04  0.18137176376E+03  0.11130968151E+04  0.12699999809E+01 0. -1.
       -4    1    3    3    0  502  0.10623085365E+03  0.10930700782E+04  0.94138113713E+03  0.14464740745E+04  0.12699999809E+01 0.  1.
</event>
<event>
 5   0  0.1689444E-06  0.2290122E+04  0.7818609E-02  0.8481826E-01
        2   -1    0    0  501    0  0.00000000000E+00  0.00000000000E+00  0.87688662079E+03  0.87688662080E+03  0.25500000920E-02 0. -1.
       -2   -1    0    0    0  501  0.00000000000E+00  0.00000000000E+00 -0.14952495707E+04  0.14952495707E+04  0.25500000920E-02 0.  1.
    10030    2    1    2    0    0  0.00000000000E+00  0.00000000000E+00 -0.61836294989E+03  0.23721361915E+04  0.22901216940E+04 0.  0.
        2    1    3    3  502    0  0.25099460626E+03 -0.48001891823E+03  0.73578212822E+03  0.91366941201E+03  0.25500000920E-02 0. -1.
       -2    1    3    3    0  502 -0.25099460626E+03  0.48001891823E+03 -0.13541450781E+04  0.14584667795E+04  0.25500000920E-02 0.  1.
</event>
<event>
 5   0  0.7932912E-07  0.2299822E+04  0.7818609E-02  0.8477991E-01
        1   -1    0    0  501    0  0.00000000000E+00  0.00000000000E+00  0.12126653412E+04  0.12126653413E+04  0.50400001928E-02 0. -1.
       -1   -1    0    0    0  501  0.00000000000E+00  0.00000000000E+00 -0.10904042774E+04  0.10904042774E+04  0.50400001928E-02 0.  1.
    10030    2    1    2    0    0  0.00000000000E+00  0.00000000000E+00  0.12226106383E+03  0.23030696187E+04  0.22998221455E+04 0.  0.
        5    1    3    3  502    0  0.44604788750E+03 -0.55164996806E+03 -0.84513187436E+03  0.11034248412E+04  0.46999998093E+01 0.  1.
       -5    1    3    3    0  502 -0.44604788750E+03  0.55164996806E+03  0.96739293819E+03  0.11996447774E+04  0.46999998093E+01 0. -1.
</event>
<event>
 5   0  0.1828646E-06  0.2300274E+04  0.7818609E-02  0.8477813E-01
       -2   -1    0    0    0  501  0.00000000000E+00  0.00000000000E+00  0.93026671742E+03  0.93026671743E+03  0.25500000920E-02 0.  1.
        2   -1    0    0  501    0  0.00000000000E+00  0.00000000000E+00 -0.14219741341E+04  0.14219741341E+04  0.25500000920E-02 0. -1.
    10030    2    1    2    0    0  0.00000000000E+00  0.00000000000E+00 -0.49170741663E+03  0.23522408515E+04  0.23002740793E+04 0.  0.
        3    1    3    3  502    0  0.24926448511E+03  0.10496271590E+04  0.16185810201E+03  0.10908932175E+04  0.10100000352E+00 0. -1.
       -3    1    3    3    0  502 -0.24926448511E+03 -0.10496271590E+04 -0.65356551864E+03  0.12613476340E+04  0.10100000352E+00 0.  1.
</event>
<event>
 5   0  0.7932912E-07  0.2292996E+04  0.7818609E-02  0.8480688E-01
       -1   -1    0    0    0  501  0.00000000000E+00  0.00000000000E+00  0.10475592482E+04  0.10475592482E+04  0.50400001928E-02 0. -1.
        1   -1    0    0  501    0  0.00000000000E+00  0.00000000000E+00 -0.12547814474E+04  0.12547814474E+04  0.50400001928E-02 0.  1.
    10030    2    1    2    0    0  0.00000000000E+00  0.00000000000E+00 -0.20722219920E+03  0.23023406955E+04  0.22929962142E+04 0.  0.
        5    1    3    3  502    0 -0.43277416080E+03  0.10534700147E+04  0.28619445979E+02  0.11392689361E+04  0.46999998093E+01 0. -1.
       -5    1    3    3    0  502  0.43277416080E+03 -0.10534700147E+04 -0.23584164518E+03  0.11630717595E+04  0.46999998093E+01 0.  1.
</event>
<event>
 5   0  0.8097672E-07  0.2300201E+04  0.7818609E-02  0.8477842E-01
       -1   -1    0    0    0  501  0.00000000000E+00  0.00000000000E+00  0.74954531574E+03  0.74954531575E+03  0.50400001928E-02 0.  1.
        1   -1    0    0  501    0  0.00000000000E+00  0.00000000000E+00 -0.17647117053E+04  0.17647117053E+04  0.50400001928E-02 0. -1.
    10030    2    1    2    0    0  0.00000000000E+00  0.00000000000E+00 -0.10151663896E+04  0.25142570211E+04  0.23002012019E+04 0.  0.
        3    1    3    3  502    0 -0.65084837333E+02 -0.44333863537E+03 -0.16653733745E+04  0.17246024668E+04  0.10100000352E+00 0. -1.
       -3    1    3    3    0  502  0.65084837333E+02  0.44333863537E+03  0.65020698494E+03  0.78965455430E+03  0.10100000352E+00 0.  1.
</event>
<event>
 5   0  0.6319125E-07  0.2299302E+04  0.7818609E-02  0.8478196E-01
       -3   -1    0    0    0  501  0.00000000000E+00  0.00000000000E+00  0.14794202389E+04  0.14794202424E+04  0.10100000352E+00 0.  1.
        3   -1    0    0  501    0  0.00000000000E+00  0.00000000000E+00 -0.89338856057E+03  0.89338856628E+03  0.10100000352E+00 0. -1.
    10030    2    1    2    0    0  0.00000000000E+00  0.00000000000E+00  0.58603167836E+03  0.23728088087E+04  0.22993017450E+04 0.  0.
        2    1    3    3  502    0  0.39923311201E+03 -0.79283589398E+03  0.10469337189E+04  0.13726055676E+04  0.25500000920E-02 0.  1.
       -2    1    3    3    0  502 -0.39923311201E+03  0.79283589398E+03 -0.46090204049E+03  0.10002032411E+04  0.25500000920E-02 0. -1.
</event>
<event>
 5   0  0.1888779E-06  0.2301009E+04  0.7818609E-02  0.8477523E-01
       -2   -1    0    0    0  501  0.00000000000E+00  0.00000000000E+00  0.87037500147E+03  0.87037500147E+03  0.25500000920E-02 0. -1.
        2   -1    0    0  501    0  0.00000000000E+00  0.00000000000E+00 -0.15207937066E+04  0.15207937066E+04  0.25500000920E-02 0.  1.
    10030    2    1    2    0    0  0.00000000000E+00  0.00000000000E+00 -0.65041870510E+03  0.23911687080E+04  0.23010091913E+04 0.  0.
        4    1    3    3  502    0 -0.11434321220E+04  0.67188266403E+02 -0.21276647802E+03  0.11649989133E+04  0.12699999809E+01 0. -1.
       -4    1    3    3    0  502  0.11434321220E+04 -0.67188266403E+02 -0.43765222708E+03  0.12261697948E+04  0.12699999809E+01 0.  1.
</event>
<event>
 5   0  0.8108242E-07  0.2303681E+04  0.7818609E-02  0.8476471E-01
       -1   -1    0    0    0  501  0.00000000000E+00  0.00000000000E+00  0.80840764951E+03  0.80840764953E+03  0.50400001928E-02 0.  1.
        1   -1    0    0  501    0  0.00000000000E+00  0.00000000000E+00 -0.16411726396E+04  0.16411726396E+04  0.50400001928E-02 0. -1.
    10030    2    1    2    0    0  0.00000000000E+00  0.00000000000E+00 -0.83276499007E+03  0.24495802891E+04  0.23036809814E+04 0.  0.
        4    1    3    3  502    0  0.62587466034E+03 -0.18980520945E+03  0.59181757390E+03  0.88204011341E+03  0.12699999809E+01 0.  1.
       -4    1    3    3    0  502 -0.62587466034E+03  0.18980520945E+03 -0.14245825640E+04  0.15675401757E+04  0.12699999809E+01 0. -1.
</event>
<event>
 5   0  0.8097672E-07  0.2299803E+04  0.7818609E-02  0.8477999E-01
       -1   -1    0    0    0  501  0.00000000000E+00  0.00000000000E+00  0.69649099312E+03  0.69649099314E+03  0.50400001928E-02 0. -1.
        1   -1    0    0  501    0  0.00000000000E+00  0.00000000000E+00 -0.18984791487E+04  0.18984791487E+04  0.50400001928E-02 0.  1.
    10030    2    1    2    0    0  0.00000000000E+00  0.00000000000E+00 -0.12019881556E+04  0.25949701418E+04  0.22998031461E+04 0.  0.
        3    1    3    3  502    0 -0.10397097026E+04 -0.48634843683E+03 -0.52328931207E+03  0.12614922838E+04  0.10100000352E+00 0.  1.
       -3    1    3    3    0  502  0.10397097026E+04  0.48634843683E+03 -0.67869884350E+03  0.13334778581E+04  0.10100000352E+00 0. -1.
</event>
<event>
 5   0  0.1689444E-06  0.2300375E+04  0.7818609E-02  0.8477773E-01
       -2   -1    0    0    0  501  0.00000000000E+00  0.00000000000E+00  0.71200326499E+03  0.71200326500E+03  0.25500000920E-02 0.  1.
        2   -1    0    0  501    0  0.00000000000E+00  0.00000000000E+00 -0.18580414086E+04  0.18580414086E+04  0.25500000920E-02 0. -1.
    10030    2    1    2    0    0  0.00000000000E+00  0.00000000000E+00 -0.11460381436E+04  0.25700446736E+04  0.23003752297E+04 0.  0.
        2    1    3    3  502    0 -0.44507552191E+03  0.36694613844E+03 -0.16847539412E+04  0.17807688033E+04  0.25500000920E-02 0. -1.
       -2    1    3    3    0  502  0.44507552191E+03 -0.36694613844E+03  0.53871579759E+03  0.78927587021E+03  0.25500000920E-02 0.  1.
</event>
<event>
 5   0  0.8097672E-07  0.2298977E+04  0.7818609E-02  0.8478324E-01
        1   -1    0    0  501    0  0.00000000000E+00  0.00000000000E+00  0.32318994158E+04  0.32318994158E+04  0.50400001928E-02 0.  1.
       -1   -1    0    0    0  501  0.00000000000E+00  0.00000000000E+00 -0.40883831978E+03  0.40883831981E+03  0.50400001928E-02 0. -1.
    10030    2    1    2    0    0  0.00000000000E+00  0.00000000000E+00  0.28230610960E+04  0.36407377356E+04  0.22989774483E+04 0.  0.
        3    1    3    3  502    0 -0.25141361297E+03 -0.11132766049E+04  0.11947941570E+04  0.16523095024E+04  0.10100000352E+00 0. -1.
       -3    1    3    3    0  502  0.25141361297E+03  0.11132766049E+04  0.16282669390E+04  0.19884282332E+04  0.10100000352E+00 0.  1.
</event>
<event>
 5   0  0.1888779E-06  0.2300912E+04  0.7818609E-02  0.8477562E-01
       -2   -1    0    0    0  501  0.00000000000E+00  0.00000000000E+00  0.18722566397E+04  0.18722566397E+04  0.25500000920E-02 0. -1.
        2   -1    0    0  501    0  0.00000000000E+00  0.00000000000E+00 -0.70692683125E+03  0.70692683125E+03  0.25500000920E-02 0.  1.
    10030    2    1    2    0    0  0.00000000000E+00  0.00000000000E+00  0.11653298084E+04  0.25791834709E+04  0.23009115181E+04 0.  0.
        4    1    3    3  502    0 -0.79998843869E+01 -0.10254213815E+04  0.11672689914E+04  0.15537282642E+04  0.12699999809E+01 0. -1.
       -4    1    3    3    0  502  0.79998843869E+01  0.10254213815E+04 -0.19391830123E+01  0.10254552067E+04  0.12699999809E+01 0.  1.
</event>
<event>
 5   0  0.1744876E-06  0.2300007E+04  0.7818609E-02  0.8477918E-01
       -2   -1    0    0    0  501  0.00000000000E+00  0.00000000000E+00  0.68171617203E+03  0.68171617203E+03  0.25500000920E-02 0. -1.
        2   -1    0    0  501    0  0.00000000000E+00  0.00000000000E+00 -0.19399688730E+04  0.19399688730E+04  0.25500000920E-02 0.  1.
    10030    2    1    2    0    0  0.00000000000E+00  0.00000000000E+00 -0.12582527010E+04  0.26216850451E+04  0.23000070904E+04 0.  0.
        1    1    3    3  502    0  0.54170857315E+03 -0.73313035569E+03  0.17006059547E+03  0.92728037983E+03  0.50400001928E-02 0. -1.
       -1    1    3    3    0  502 -0.54170857315E+03  0.73313035569E+03 -0.14283132965E+04  0.16944046652E+04  0.50400001928E-02 0.  1.
</event>
<event>
 5   0  0.1744876E-06  0.2300057E+04  0.7818609E-02  0.8477899E-01
        2   -1    0    0  501    0  0.00000000000E+00  0.00000000000E+00  0.17417584432E+04  0.17417584432E+04  0.25500000920E-02 0.  1.
       -2   -1    0    0    0  501  0.00000000000E+00  0.00000000000E+00 -0.75932762474E+03  0.75932762474E+03  0.25500000920E-02 0. -1.
    10030    2    1    2    0    0  0.00000000000E+00  0.00000000000E+00  0.98243081842E+03  0.25010860679E+04  0.23000567832E+04 0.  0.
        1    1    3    3  502    0 -0.19062157989E+02  0.11229822785E+04  0.76003192570E+03  0.13561346142E+04  0.50400001928E-02 0. -1.
       -1    1    3    3    0  502  0.19062157989E+02 -0.11229822785E+04  0.22239889272E+03  0.11449514537E+04  0.50400001928E-02 0.  1.
</event>
<event>
 5   0  0.1828646E-06  0.2300570E+04  0.7818609E-02  0.8477696E-01
       -2   -1    0    0    0  501  0.00000000000E+00  0.00000000000E+00  0.89024596059E+03  0.89024596060E+03  0.25500000920E-02 0. -1.
        2   -1    0    0  501    0  0.00000000000E+00  0.00000000000E+00 -0.14862808397E+04  0.14862808397E+04  0.25500000920E-02 0.  1.
    10030    2    1    2    0    0  0.00000000000E+00  0.00000000000E+00 -0.59603487911E+03  0.23765268003E+04  0.23005699414E+04 0.  0.
        3    1    3    3  502    0 -0.80894360751E+03 -0.25097679777E+03 -0.11020311353E+04  0.13899106973E+04  0.10100000352E+00 0.  1.
       -3    1    3    3    0  502  0.80894360751E+03  0.25097679777E+03  0.50599625620E+03  0.98661610297E+03  0.10100000352E+00 0. -1.
</event>
<event>
 5   0  0.1825521E-06  0.2301992E+04  0.7818609E-02  0.8477136E-01
        2   -1    0    0  501    0  0.00000000000E+00  0.00000000000E+00  0.88782391439E+03  0.88782391439E+03  0.25500000920E-02 0. -1.
       -2   -1    0    0    0  501  0.00000000000E+00  0.00000000000E+00 -0.14921780734E+04  0.14921780734E+04  0.25500000920E-02 0.  1.
    10030    2    1    2    0    0  0.00000000000E+00  0.00000000000E+00 -0.60435415898E+03  0.23800019878E+04  0.23019916404E+04 0.  0.
        5    1    3    3  502    0 -0.50624518400E+03 -0.31645120595E+03  0.71521499791E+03  0.93165451499E+03  0.46999998093E+01 0. -1.
       -5    1    3    3    0  502  0.50624518400E+03  0.31645120595E+03 -0.13195691569E+04  0.14483474728E+04  0.46999998093E+01 0.  1.
</event>
<event>
 5   0  0.8097672E-07  0.2299273E+04  0.7818609E-02  0.8478208E-01
        1   -1    0    0  501    0  0.00000000000E+00  0.00000000000E+00  0.11221964589E+04  0.11221964589E+04  0.50400001928E-02 0.  1.
       -1   -1    0    0    0  501  0.00000000000E+00  0.00000000000E+00 -0.11777470178E+04  0.11777470178E+04  0.50400001928E-02 0. -1.
    10030    2    1    2    0    0  0.00000000000E+00  0.00000000000E+00 -0.55550558967E+02  0.22999434767E+04  0.22992725222E+04 0.  0.
        3    1    3    3  502    0  0.82712426432E+02 -0.23817052923E+03 -0.11497518113E+04  0.11770708493E+04  0.10100000352E+00 0. -1.
       -3    1    3    3    0  502 -0.82712426432E+02  0.23817052923E+03  0.10942012524E+04  0.11228726274E+04  0.10100000352E+00 0.  1.
</event>
<event>
 5   0  0.8108242E-07  0.2301474E+04  0.7818609E-02  0.8477340E-01
       -1   -1    0    0    0  501  0.00000000000E+00  0.00000000000E+00  0.83520140420E+03  0.83520140421E+03  0.50400001928E-02 0. -1.
        1   -1    0    0  501    0  0.00000000000E+00  0.00000000000E+00 -0.15854806168E+04  0.15854806168E+04  0.50400001928E-02 0.  1.
    10030    2    1    2    0    0  0.00000000000E+00  0.00000000000E+00 -0.75027921260E+03  0.24206820210E+04  0.23014739951E+04 0.  0.
        4    1    3    3  502    0 -0.49568324110E+03 -0.65891192242E+03  0.46913730855E+03  0.94866128001E+03  0.12699999809E+01 0. -1.
       -4    1    3    3    0  502  0.49568324110E+03  0.65891192242E+03 -0.12194165212E+04  0.14720207410E+04  0.12699999809E+01 0.  1.
</event>
<event>
 5   0  0.1888779E-06  0.2296338E+04  0.7818609E-02  0.8479367E-01
        2   -1    0    0  501    0  0.00000000000E+00  0.00000000000E+00  0.10530425722E+04  0.10530425722E+04  0.25500000920E-02 0. -1.
       -2   -1    0    0    0  501  0.00000000000E+00  0.00000000000E+00 -0.12518881141E+04  0.12518881141E+04  0.25500000920E-02 0.  1.
    10030    2    1    2    0    0  0.00000000000E+00  0.00000000000E+00 -0.19884554197E+03  0.23049306863E+04  0.22963375011E+04 0.  0.
        4    1    3    3  502    0 -0.90277780146E+03  0.25665596418E+03  0.56442181556E+03  0.10951957092E+04  0.12699999809E+01 0. -1.
       -4    1    3    3    0  502  0.90277780146E+03 -0.25665596418E+03 -0.76326735753E+03  0.12097349771E+04  0.12699999809E+01 0.  1.
</event>
<event>
 5   0  0.8097672E-07  0.2301294E+04  0.7818609E-02  0.8477411E-01
        1   -1    0    0  501    0  0.00000000000E+00  0.00000000000E+00  0.13099500967E+04  0.13099500967E+04  0.50400001928E-02 0. -1.
       -1   -1    0    0    0  501  0.00000000000E+00  0.00000000000E+00 -0.10107168553E+04  0.10107168553E+04  0.50400001928E-02 0.  1.
    10030    2    1    2    0    0  0.00000000000E+00  0.00000000000E+00  0.29923324142E+03  0.23206669520E+04  0.23012941076E+04 0.  0.
        3    1    3    3  502    0 -0.75625951029E+03  0.23810954571E+03 -0.69128812377E+03  0.10519048830E+04  0.10100000352E+00 0.  1.
       -3    1    3    3    0  502  0.75625951029E+03 -0.23810954571E+03  0.99052136518E+03  0.12687620690E+04  0.10100000352E+00 0. -1.
</event>
<event>
 5   0  0.7607231E-07  0.2300560E+04  0.7818609E-02  0.8477700E-01
       -1   -1    0    0    0  501  0.00000000000E+00  0.00000000000E+00  0.16335572119E+04  0.16335572119E+04  0.50400001928E-02 0.  1.
        1   -1    0    0  501    0  0.00000000000E+00  0.00000000000E+00 -0.80997718853E+03  0.80997718855E+03  0.50400001928E-02 0. -1.
    10030    2    1    2    0    0  0.00000000000E+00  0.00000000000E+00  0.82358002334E+03  0.24435344004E+04  0.23005599995E+04 0.  0.
        2    1    3    3  502    0  0.45860978560E+03  0.87677823492E+03 -0.21124905986E+03  0.10117752586E+04  0.25500000920E-02 0. -1.
       -2    1    3    3    0  502 -0.45860978560E+03 -0.87677823492E+03  0.10348290832E+04  0.14317591418E+04  0.25500000920E-02 0.  1.
</event>
<event>
 5   0  0.8097672E-07  0.2299581E+04  0.7818609E-02  0.8478086E-01
        1   -1    0    0  501    0  0.00000000000E+00  0.00000000000E+00  0.31263547835E+04  0.31263547835E+04  0.50400001928E-02 0. -1.
       -1   -1    0    0    0  501  0.00000000000E+00  0.00000000000E+00 -0.42286247308E+03  0.42286247311E+03  0.50400001928E-02 0.  1.
    10030    2    1    2    0    0  0.00000000000E+00  0.00000000000E+00  0.27034923104E+04  0.35492172566E+04  0.22995809319E+04 0.  0.
        3    1    3    3  502    0 -0.64075756466E+03 -0.60718854293E+03  0.21466418830E+03  0.90847614568E+03  0.10100000352E+00 0.  1.
       -3    1    3    3    0  502  0.64075756466E+03  0.60718854293E+03  0.24888281221E+04  0.26407411109E+04  0.10100000352E+00 0. -1.
</event>
<event>
 5   0  0.8097672E-07  0.2299712E+04  0.7818609E-02  0.8478035E-01
        1   -1    0    0  501    0  0.00000000000E+00  0.00000000000E+00  0.10661146375E+04  0.10661146375E+04  0.50400001928E-02 0. -1.
       -1   -1    0    0    0  501  0.00000000000E+00  0.00000000000E+00 -0.12401750686E+04  0.12401750686E+04  0.50400001928E-02 0.  1.
    10030    2    1    2    0    0  0.00000000000E+00  0.00000000000E+00 -0.17406043109E+03  0.23062897061E+04  0.22997119764E+04 0.  0.
        3    1    3    3  502    0 -0.89562319881E+03  0.10508222612E+03  0.62844263614E+03  0.10991466443E+04  0.10100000352E+00 0. -1.
       -3    1    3    3    0  502  0.89562319881E+03 -0.10508222612E+03 -0.80250306723E+03  0.12071430618E+04  0.10100000352E+00 0.  1.
</event>
<event>
 5   0  0.7932912E-07  0.2304038E+04  0.7818609E-02  0.8476331E-01
       -1   -1    0    0    0  501  0.00000000000E+00  0.00000000000E+00  0.49052703879E+03  0.49052703881E+03  0.50400001928E-02 0. -1.
        1   -1    0    0  501    0  0.00000000000E+00  0.00000000000E+00 -0.27055550001E+04  0.27055550001E+04  0.50400001928E-02 0.  1.
    10030    2    1    2    0    0  0.00000000000E+00  0.00000000000E+00 -0.22150279613E+04  0.31960820389E+04  0.23040380922E+04 0.  0.
        5    1    3    3  502    0  0.10123353882E+04  0.11773502284E+03 -0.36251273334E+03  0.10817217968E+04  0.46999998093E+01 0. -1.
       -5    1    3    3    0  502 -0.10123353882E+04 -0.11773502284E+03 -0.18525152280E+04  0.21143602422E+04  0.46999998093E+01 0.  1.
</event>
<event>
 5   0  0.7607231E-07  0.2299479E+04  0.7818609E-02  0.8478126E-01
        1   -1    0    0  501    0  0.00000000000E+00  0.00000000000E+00  0.19814409408E+04  0.19814409408E+04  0.50400001928E-02 0.  1.
       -1   -1    0    0    0  501  0.00000000000E+00  0.00000000000E+00 -0.66714148097E+03  0.66714148099E+03  0.50400001928E-02 0. -1.
    10030    2    1    2    0    0  0.00000000000E+00  0.00000000000E+00  0.13142994598E+04  0.26485824217E+04  0.22994794574E+04 0.  0.
        2    1    3    3  502    0 -0.45242997380E+03  0.10538597113E+03  0.18685331287E+04  0.19254129783E+04  0.25500000920E-02 0.  1.
       -2    1    3    3    0  502  0.45242997380E+03 -0.10538597113E+03 -0.55423366892E+03  0.72316944341E+03  0.25500000920E-02 0. -1.
</event>
<event>
 5   0  0.6319125E-07  0.2299643E+04  0.7818609E-02  0.8478062E-01
        3   -1    0    0  501    0  0.00000000000E+00  0.00000000000E+00  0.11763426043E+04  0.11763426087E+04  0.10100000352E+00 0.  1.
       -3   -1    0    0    0  501  0.00000000000E+00  0.00000000000E+00 -0.11238984555E+04  0.11238984600E+04  0.10100000352E+00 0. -1.
    10030    2    1    2    0    0  0.00000000000E+00  0.00000000000E+00  0.52444148848E+02  0.23002410687E+04  0.22996431430E+04 0.  0.
        3    1    3    3  502    0  0.16691550264E+02  0.56859847500E+03 -0.97329086174E+03  0.11273322249E+04  0.10100000352E+00 0. -1.
       -3    1    3    3    0  502 -0.16691550264E+02 -0.56859847500E+03  0.10257350106E+04  0.11729088438E+04  0.10100000352E+00 0.  1.
</event>
<event>
 5   0  0.7607231E-07  0.2299167E+04  0.7818609E-02  0.8478250E-01
        1   -1    0    0  501    0  0.00000000000E+00  0.00000000000E+00  0.13631834911E+04  0.13631834911E+04  0.50400001928E-02 0.  1.
       -1   -1    0    0    0  501  0.00000000000E+00  0.00000000000E+00 -0.96945318155E+03  0.96945318156E+03  0.50400001928E-02 0. -1.
    10030    2    1    2    0    0  0.00000000000E+00  0.00000000000E+00  0.39373030954E+03  0.23326366727E+04  0.22991673036E+04 0.  0.
        2    1    3    3  502    0 -0.79061831800E+03  0.16584309639E+03 -0.63294171586E+03  0.10262536105E+04  0.25500000920E-02 0. -1.
       -2    1    3    3    0  502  0.79061831800E+03 -0.16584309639E+03  0.10266720254E+04  0.13063830622E+04  0.25500000920E-02 0.  1.
</event>
<event>
 5   0  0.1825521E-06  0.2299241E+04  0.7818609E-02  0.8478221E-01
       -2   -1    0    0    0  501  0.00000000000E+00  0.00000000000E+00  0.75505958136E+03  0.75505958136E+03  0.25500000920E-02 0.  1.
        2   -1    0    0  501    0  0.00000000000E+00  0.00000000000E+00 -0.17503611046E+04  0.17503611046E+04  0.25500000920E-02 0. -1.
    10030    2    1    2    0    0  0.00000000000E+00  0.00000000000E+00 -0.99530152320E+03  0.25054206859E+04  0.22992406771E+04 0.  0.
        5    1    3    3  502    0 -0.39697944475E+03 -0.10521309330E+04 -0.75788115145E+03  0.13560892704E+04  0.46999998093E+01 0. -1.
       -5    1    3    3    0  502  0.39697944475E+03  0.10521309330E+04 -0.23742037175E+03  0.11493314155E+04  0.46999998093E+01 0.  1.
</event>
<event>
 5   0  0.7761069E-07  0.2299616E+04  0.7818609E-02  0.8478072E-01
        1   -1    0    0  501    0  0.00000000000E+00  0.00000000000E+00  0.17422169991E+04  0.17422169991E+04  0.50400001928E-02 0. -1.
       -1   -1    0    0    0  501  0.00000000000E+00  0.00000000000E+00 -0.75883706461E+03  0.75883706463E+03  0.50400001928E-02 0.  1.
    10030    2    1    2    0    0  0.00000000000E+00  0.00000000000E+00  0.98337993453E+03  0.25010540638E+04  0.22996163450E+04 0.  0.
        1    1    3    3  502    0  0.63137745518E+03  0.28384059076E+03  0.14901814132E+04  0.16431200857E+04  0.50400001928E-02 0. -1.
       -1    1    3    3    0  502 -0.63137745518E+03 -0.28384059076E+03 -0.50680147867E+03  0.85793397804E+03  0.50400001928E-02 0.  1.
</event>
<event>
 5   0  0.1825521E-06  0.2300393E+04  0.7818609E-02  0.8477766E-01
        2   -1    0    0  501    0  0.00000000000E+00  0.00000000000E+00  0.10865781080E+04  0.10865781080E+04  0.25500000920E-02 0.  1.
       -2   -1    0    0    0  501  0.00000000000E+00  0.00000000000E+00 -0.12175401729E+04  0.12175401729E+04  0.25500000920E-02 0. -1.
    10030    2    1    2    0    0  0.00000000000E+00  0.00000000000E+00 -0.13096206493E+03  0.23041182810E+04  0.23003934425E+04 0.  0.
        5    1    3    3  502    0  0.62734170716E+03  0.52482093424E+03 -0.87545339045E+03  0.11980965568E+04  0.46999998093E+01 0. -1.
       -5    1    3    3    0  502 -0.62734170716E+03 -0.52482093424E+03  0.74449132552E+03  0.11060217242E+04  0.46999998093E+01 0.  1.
</event>
<event>
 5   0  0.8097672E-07  0.2299572E+04  0.7818609E-02  0.8478090E-01
       -1   -1    0    0    0  501  0.00000000000E+00  0.00000000000E+00  0.82553117560E+03  0.82553117562E+03  0.50400001928E-02 0.  1.
        1   -1    0    0  501    0  0.00000000000E+00  0.00000000000E+00 -0.16014020730E+04  0.16014020730E+04  0.50400001928E-02 0. -1.
    10030    2    1    2    0    0  0.00000000000E+00  0.00000000000E+00 -0.77587089735E+03  0.24269332486E+04  0.22995715565E+04 0.  0.
        3    1    3    3  502    0  0.42339964080E+03  0.56282818078E+03 -0.13470966356E+04  0.15201026849E+04  0.10100000352E+00 0. -1.
       -3    1    3    3    0  502 -0.42339964080E+03 -0.56282818078E+03  0.57122573825E+03  0.90683056364E+03  0.10100000352E+00 0.  1.
</event>
<event>
 5   0  0.1888779E-06  0.2299094E+04  0.7818609E-02  0.8478279E-01
        2   -1    0    0  501    0  0.00000000000E+00  0.00000000000E+00  0.18763590448E+04  0.18763590448E+04  0.25500000920E-02 0.  1.
       -2   -1    0    0    0  501  0.00000000000E+00  0.00000000000E+00 -0.70426699822E+03  0.70426699822E+03  0.25500000920E-02 0. -1.
    10030    2    1    2    0    0  0.00000000000E+00  0.00000000000E+00  0.11720920466E+04  0.25806260430E+04  0.22990935188E+04 0.  0.
        4    1    3    3  502    0 -0.14366729317E+03  0.61295176977E+03 -0.49355722304E+03  0.79996906722E+03  0.12699999809E+01 0. -1.
       -4    1    3    3    0  502  0.14366729317E+03 -0.61295176977E+03  0.16656492696E+04  0.17806569758E+04  0.12699999809E+01 0.  1.
</event>
<event>
 5   0  0.8108242E-07  0.2298962E+04  0.7818609E-02  0.8478330E-01
       -1   -1    0    0    0  501  0.00000000000E+00  0.00000000000E+00  0.95837950499E+03  0.95837950500E+03  0.50400001928E-02 0.  1.
        1   -1    0    0  501    0  0.00000000000E+00  0.00000000000E+00 -0.13786883491E+04  0.13786883491E+04  0.50400001928E-02 0. -1.
    10030    2    1    2    0    0  0.00000000000E+00  0.00000000000E+00 -0.42030884414E+03  0.23370678541E+04  0.22989620768E+04 0.  0.
        4    1    3    3  502    0 -0.49768529446E+03  0.11296419167E+03  0.83689508819E+03  0.98022781151E+03  0.12699999809E+01 0.  1.
       -4    1    3    3    0  502  0.49768529446E+03 -0.11296419167E+03 -0.12572039323E+04  0.13568400426E+04  0.12699999809E+01 0. -1.
</event>
<event>
 5   0  0.1888779E-06  0.2301166E+04  0.7818609E-02  0.8477461E-01
        2   -1    0    0  501    0  0.00000000000E+00  0.00000000000E+00  0.13605645359E+04  0.13605645359E+04  0.25500000920E-02 0. -1.
       -2   -1    0    0    0  501  0.00000000000E+00  0.00000000000E+00 -0.97300884356E+03  0.97300884356E+03  0.25500000920E-02 0.  1.
    10030    2    1    2    0    0  0.00000000000E+00  0.00000000000E+00  0.38755569232E+03  0.23335733794E+04  0.23011660745E+04 0.  0.
        4    1    3    3  502    0 -0.31637115055E+03 -0.10438963927E+04  0.56503379494E+03  0.12284442136E+04  0.12699999809E+01 0. -1.
       -4    1    3    3    0  502  0.31637115055E+03  0.10438963927E+04 -0.17747810262E+03  0.11051291659E+04  0.12699999809E+01 0.  1.
</event>
<event>
 5   0  0.1689444E-06  0.2301801E+04  0.7818609E-02  0.8477211E-01
       -2   -1    0    0    0  501  0.00000000000E+00  0.00000000000E+00  0.12339371603E+04  0.12339371603E+04  0.25500000920E-02 0.  1.
        2   -1    0    0  501    0  0.00000000000E+00  0.00000000000E+00 -0.10734517918E+04  0.10734517918E+04  0.25500000920E-02 0. -1.
    10030    2    1    2    0    0  0.00000000000E+00  0.00000000000E+00  0.16048536849E+03  0.23073889521E+04  0.23018010824E+04 0.  0.
        2    1    3    3  502    0 -0.28105912438E+03  0.16765688668E+03 -0.10258256868E+04  0.10767643209E+04  0.25500000920E-02 0. -1.
       -2    1    3    3    0  502  0.28105912438E+03 -0.16765688668E+03  0.11863110553E+04  0.12306246312E+04  0.25500000920E-02 0.  1.
</event>
<event>
 5   0  0.7761069E-07  0.2297087E+04  0.7818609E-02  0.8479070E-01
       -1   -1    0    0    0  501  0.00000000000E+00  0.00000000000E+00  0.68036201390E+03  0.68036201392E+03  0.50400001928E-02 0.  1.
        1   -1    0    0  501    0  0.00000000000E+00  0.00000000000E+00 -0.19388976783E+04  0.19388976783E+04  0.50400001928E-02 0. -1.
    10030    2    1    2    0    0  0.00000000000E+00  0.00000000000E+00 -0.12585356644E+04  0.26192596922E+04  0.22970871374E+04 0.  0.
        1    1    3    3  502    0 -0.55318296065E+03  0.57497142296E+03 -0.15713047973E+04  0.17622719118E+04  0.50400001928E-02 0. -1.
       -1    1    3    3    0  502  0.55318296065E+03 -0.57497142296E+03  0.31276913292E+03  0.85698778037E+03  0.50400001928E-02 0.  1.
</event>
<event>
 5   0  0.6319125E-07  0.2299845E+04  0.7818609E-02  0.8477982E-01
        3   -1    0    0  501    0  0.00000000000E+00  0.00000000000E+00  0.10607990095E+04  0.10607990143E+04  0.10100000352E+00 0. -1.
       -3   -1    0    0    0  501  0.00000000000E+00  0.00000000000E+00 -0.12465336596E+04  0.12465336637E+04  0.10100000352E+00 0.  1.
    10030    2    1    2    0    0  0.00000000000E+00  0.00000000000E+00 -0.18573465012E+03  0.23073326780E+04  0.22998449354E+04 0.  0.
        2    1    3    3  502    0  0.18478795029E+03 -0.73391261842E+03 -0.96145007942E+03  0.12235851312E+04  0.25500000920E-02 0.  1.
       -2    1    3    3    0  502 -0.18478795029E+03  0.73391261842E+03  0.77571542931E+03  0.10837475469E+04  0.25500000920E-02 0. -1.
</event>
<event>
 5   0  0.7761069E-07  0.2300301E+04  0.7818609E-02  0.8477802E-01
       -1   -1    0    0    0  501  0.00000000000E+00  0.00000000000E+00  0.20430429175E+04  0.20430429175E+04  0.50400001928E-02 0. -1.
        1   -1    0    0  501    0  0.00000000000E+00  0.00000000000E+00 -0.64748829631E+03  0.64748829633E+03  0.50400001928E-02 0.  1.
    10030    2    1    2    0    0  0.00000000000E+00  0.00000000000E+00  0.13955546212E+04  0.26905312138E+04  0.23003011785E+04 0.  0.
        1    1    3    3  502    0  0.49890578223E+03 -0.82428681805E+03  0.14324124274E+04  0.17263143109E+04  0.50400001928E-02 0. -1.
       -1    1    3    3    0  502 -0.49890578223E+03  0.82428681805E+03 -0.36857806189E+02  0.96421690291E+03  0.50400001928E-02 0.  1.
</event>
<event>
 5   0  0.1825521E-06  0.2284643E+04  0.7818609E-02  0.8484001E-01
       -2   -1    0    0    0  501  0.00000000000E+00  0.00000000000E+00  0.11411599256E+04  0.11411599256E+04  0.25500000920E-02 0.  1.
        2   -1    0    0  501    0  0.00000000000E+00  0.00000000000E+00 -0.11434846324E+04  0.11434846324E+04  0.25500000920E-02 0. -1.
    10030    2    1    2    0    0  0.00000000000E+00  0.00000000000E+00 -0.23247067960E+01  0.22846445579E+04  0.22846433752E+04 0.  0.
        5    1    3    3  502    0 -0.71188630180E+03 -0.41213808790E+03  0.79145198423E+03  0.11415157658E+04  0.46999998093E+01 0.  1.
       -5    1    3    3    0  502  0.71188630180E+03  0.41213808790E+03 -0.79377669103E+03  0.11431287921E+04  0.46999998093E+01 0. -1.
</event>
<event>
 5   0  0.1828646E-06  0.2300185E+04  0.7818609E-02  0.8477848E-01
        2   -1    0    0  501    0  0.00000000000E+00  0.00000000000E+00  0.10885052811E+04  0.10885052811E+04  0.25500000920E-02 0.  1.
       -2   -1    0    0    0  501  0.00000000000E+00  0.00000000000E+00 -0.12151642516E+04  0.12151642516E+04  0.25500000920E-02 0. -1.
    10030    2    1    2    0    0  0.00000000000E+00  0.00000000000E+00 -0.12665897047E+03  0.23036695327E+04  0.23001849536E+04 0.  0.
        3    1    3    3  502    0  0.41570938256E+03  0.43460805172E+03  0.91846894428E+03  0.10978541165E+04  0.10100000352E+00 0.  1.
       -3    1    3    3    0  502 -0.41570938256E+03 -0.43460805172E+03 -0.10451279148E+04  0.12058154161E+04  0.10100000352E+00 0. -1.
</event>
<event>
 5   0  0.1828646E-06  0.2298893E+04  0.7818609E-02  0.8478358E-01
        2   -1    0    0  501    0  0.00000000000E+00  0.00000000000E+00  0.13379842300E+04  0.13379842300E+04  0.25500000920E-02 0. -1.
       -2   -1    0    0    0  501  0.00000000000E+00  0.00000000000E+00 -0.98747628416E+03  0.98747628417E+03  0.25500000920E-02 0.  1.
    10030    2    1    2    0    0  0.00000000000E+00  0.00000000000E+00  0.35050794581E+03  0.23254605141E+04  0.22988933822E+04 0.  0.
        3    1    3    3  502    0  0.38683805427E+03  0.46278130810E+03  0.11650388470E+04  0.13119168207E+04  0.10100000352E+00 0. -1.
       -3    1    3    3    0  502 -0.38683805427E+03 -0.46278130810E+03 -0.81453090115E+03  0.10135436934E+04  0.10100000352E+00 0.  1.
</event>
<event>
 5   0  0.7607231E-07  0.2299928E+04  0.7818609E-02  0.8477950E-01
        1   -1    0    0  501    0  0.00000000000E+00  0.00000000000E+00  0.10704542754E+04  0.10704542754E+04  0.50400001928E-02 0.  1.
       -1   -1    0    0    0  501  0.00000000000E+00  0.00000000000E+00 -0.12353791975E+04  0.12353791975E+04  0.50400001928E-02 0. -1.
    10030    2    1    2    0    0  0.00000000000E+00  0.00000000000E+00 -0.16492492208E+03  0.23058334729E+04  0.22999277760E+04 0.  0.
        2    1    3    3  502    0  0.43002565909E+03 -0.92042560617E+03 -0.62265169041E+03  0.11915538140E+04  0.25500000920E-02 0. -1.
       -2    1    3    3    0  502 -0.43002565909E+03  0.92042560617E+03  0.45772676833E+03  0.11142796590E+04  0.25500000920E-02 0.  1.
</event>
<event>
 5   0  0.1888779E-06  0.2300021E+04  0.7818609E-02  0.8477913E-01
       -2   -1    0    0    0  501  0.00000000000E+00  0.00000000000E+00  0.13538563575E+04  0.13538563575E+04  0.25500000920E-02 0. -1.
        2   -1    0    0  501    0  0.00000000000E+00  0.00000000000E+00 -0.97685673771E+03  0.97685673772E+03  0.25500000920E-02 0.  1.
    10030    2    1    2    0    0  0.00000000000E+00  0.00000000000E+00  0.37699961975E+03  0.23307130952E+04  0.23000206127E+04 0.  0.
        4    1    3    3  502    0 -0.24137048947E+03  0.11089570301E+04  0.34304714636E+00  0.11349216442E+04  0.12699999809E+01 0. -1.
       -4    1    3    3    0  502  0.24137048947E+03 -0.11089570301E+04  0.37665657260E+03  0.11957914510E+04  0.12699999809E+01 0.  1.
</event>
<event>
 5   0  0.7761069E-07  0.2299443E+04  0.7818609E-02  0.8478141E-01
        1   -1    0    0  501    0  0.00000000000E+00  0.00000000000E+00  0.16604409780E+04  0.16604409780E+04  0.50400001928E-02 0.  1.
       -1   -1    0    0    0  501  0.00000000000E+00  0.00000000000E+00 -0.79608968453E+03  0.79608968454E+03  0.50400001928E-02 0. -1.
    10030    2    1    2    0    0  0.00000000000E+00  0.00000000000E+00  0.86435129344E+03  0.24565306625E+04  0.22994433538E+04 0.  0.
        1    1    3    3  502    0  0.60555446292E+03  0.10078579901E+03  0.14707001442E+04  0.15936790451E+04  0.50400001928E-02 0.  1.
       -1    1    3    3    0  502 -0.60555446292E+03 -0.10078579901E+03 -0.60634885072E+03  0.86285161739E+03  0.50400001928E-02 0. -1.
</event>
<event>
 5   0  0.1828646E-06  0.2300681E+04  0.7818609E-02  0.8477653E-01
        2   -1    0    0  501    0  0.00000000000E+00  0.00000000000E+00  0.16250555465E+04  0.16250555465E+04  0.25500000920E-02 0. -1.
       -2   -1    0    0    0  501  0.00000000000E+00  0.00000000000E+00 -0.81430045672E+03  0.81430045672E+03  0.25500000920E-02 0.  1.
    10030    2    1    2    0    0  0.00000000000E+00  0.00000000000E+00  0.81075508974E+03  0.24393560032E+04  0.23006811806E+04 0.  0.
        3    1    3    3  502    0  0.36504502079E+03 -0.97226057005E+02  0.15574110573E+04  0.16025729265E+04  0.10100000352E+00 0. -1.
       -3    1    3    3    0  502 -0.36504502079E+03  0.97226057005E+02 -0.74665596752E+03  0.83678307666E+03  0.10100000352E+00 0.  1.
</event>
<event>
 5   0  0.7761069E-07  0.2299795E+04  0.7818609E-02  0.8478002E-01
       -1   -1    0    0    0  501  0.00000000000E+00  0.00000000000E+00  0.83380728354E+03  0.83380728356E+03  0.50400001928E-02 0. -1.
        1   -1    0    0  501    0  0.00000000000E+00  0.00000000000E+00 -0.15858158203E+04  0.15858158203E+04  0.50400001928E-02 0.  1.
    10030    2    1    2    0    0  0.00000000000E+00  0.00000000000E+00 -0.75200853678E+03  0.24196231039E+04  0.22997954530E+04 0.  0.
        1    1    3    3  502    0 -0.24543759416E+03  0.11179352419E+04 -0.25957692334E+03  0.11736264299E+04  0.50400001928E-02 0. -1.
       -1    1    3    3    0  502  0.24543759416E+03 -0.11179352419E+04 -0.49243161344E+03  0.12459966740E+04  0.50400001928E-02 0.  1.
</event>
<event>
 5   0  0.1825521E-06  0.2298313E+04  0.7818609E-02  0.8478586E-01
        2   -1    0    0  501    0  0.00000000000E+00  0.00000000000E+00  0.17034565506E+04  0.17034565506E+04  0.25500000920E-02 0.  1.
       -2   -1    0    0    0  501  0.00000000000E+00  0.00000000000E+00 -0.77522440074E+03  0.77522440074E+03  0.25500000920E-02 0. -1.
    10030    2    1    2    0    0  0.00000000000E+00  0.00000000000E+00  0.92823214983E+03  0.24786809513E+04  0.22983133673E+04 0.  0.
        5    1    3    3  502    0 -0.49330054289E+03  0.59693531493E+02  0.15815934938E+04  0.16578205008E+04  0.46999998093E+01 0.  1.
       -5    1    3    3    0  502  0.49330054289E+03 -0.59693531493E+02 -0.65336134399E+03  0.82086045047E+03  0.46999998093E+01 0. -1.
</event>
<event>
 5   0  0.6319125E-07  0.2300063E+04  0.7818609E-02  0.8477896E-01
        3   -1    0    0  501    0  0.00000000000E+00  0.00000000000E+00  0.72754003659E+03  0.72754004360E+03  0.10100000352E+00 0.  1.
       -3   -1    0    0    0  501  0.00000000000E+00  0.00000000000E+00 -0.18178694683E+04  0.18178694711E+04  0.10100000352E+00 0. -1.
    10030    2    1    2    0    0  0.00000000000E+00  0.00000000000E+00 -0.10903294317E+04  0.25454095147E+04  0.23000633313E+04 0.  0.
        4    1    3    3  502    0  0.25837688160E+02  0.63811707653E+03  0.51325918144E+03  0.81932752286E+03  0.12699999809E+01 0.  1.
       -4    1    3    3    0  502 -0.25837688160E+02 -0.63811707653E+03 -0.16035886132E+04  0.17260819919E+04  0.12699999809E+01 0. -1.
</event>
<event>
 5   0  0.8108242E-07  0.2284318E+04  0.7818609E-02  0.8484130E-01
       -1   -1    0    0    0  501  0.00000000000E+00  0.00000000000E+00  0.95391040646E+03  0.95391040648E+03  0.50400001928E-02 0. -1.
        1   -1    0    0  501    0  0.00000000000E+00  0.00000000000E+00 -0.13675577187E+04  0.13675577187E+04  0.50400001928E-02 0.  1.
    10030    2    1    2    0    0  0.00000000000E+00  0.00000000000E+00 -0.41364731227E+03  0.23214681252E+04  0.22843183135E+04 0.  0.
        4    1    3    3  502    0  0.83714025588E+03  0.54081143268E+03 -0.77379012357E+03  0.12617581313E+04  0.12699999809E+01 0.  1.
       -4    1    3    3    0  502 -0.83714025588E+03 -0.54081143268E+03  0.36014281129E+03  0.10597099939E+04  0.12699999809E+01 0. -1.
</event>
<event>
 5   0  0.1689444E-06  0.2300244E+04  0.7818609E-02  0.8477825E-01
        2   -1    0    0  501    0  0.00000000000E+00  0.00000000000E+00  0.86468096741E+03  0.86468096741E+03  0.25500000920E-02 0.  1.
       -2   -1    0    0    0  501  0.00000000000E+00  0.00000000000E+00 -0.15297908867E+04  0.15297908867E+04  0.25500000920E-02 0. -1.
    10030    2    1    2    0    0  0.00000000000E+00  0.00000000000E+00 -0.66510991929E+03  0.23944718541E+04  0.23002443904E+04 0.  0.
        2    1    3    3  502    0 -0.48843839720E+03  0.59366327573E+03  0.55792452938E+03  0.94988837939E+03  0.25500000920E-02 0.  1.
       -2    1    3    3    0  502  0.48843839720E+03 -0.59366327573E+03 -0.12230344487E+04  0.14445834747E+04  0.25500000920E-02 0. -1.
</event>
<event>
 5   0  0.1828646E-06  0.2301638E+04  0.7818609E-02  0.8477276E-01
        2   -1    0    0  501    0  0.00000000000E+00  0.00000000000E+00  0.14103754009E+04  0.14103754009E+04  0.25500000920E-02 0. -1.
       -2   -1    0    0    0  501  0.00000000000E+00  0.00000000000E+00 -0.93902948946E+03  0.93902948946E+03  0.25500000920E-02 0.  1.
    10030    2    1    2    0    0  0.00000000000E+00  0.00000000000E+00  0.47134591144E+03  0.23494048904E+04  0.23016377583E+04 0.  0.
        3    1    3    3  502    0 -0.64304669015E+03  0.66865653099E+03  0.93081547000E+03  0.13141643929E+04  0.10100000352E+00 0. -1.
       -3    1    3    3    0  502  0.64304669015E+03 -0.66865653099E+03 -0.45946955857E+03  0.10352404975E+04  0.10100000352E+00 0.  1.
</event>
<event>
 5   0  0.7932912E-07  0.2299240E+04  0.7818609E-02  0.8478221E-01
        1   -1    0    0  501    0  0.00000000000E+00  0.00000000000E+00  0.13440633315E+04  0.13440633315E+04  0.50400001928E-02 0. -1.
       -1   -1    0    0    0  501  0.00000000000E+00  0.00000000000E+00 -0.98330613325E+03  0.98330613326E+03  0.50400001928E-02 0.  1.
    10030    2    1    2    0    0  0.00000000000E+00  0.00000000000E+00  0.36075719827E+03  0.23273694648E+04  0.22992396286E+04 0.  0.
        5    1    3    3  502    0 -0.10514460091E+03 -0.17998544021E+03 -0.96400756799E+03  0.98629753469E+03  0.46999998093E+01 0.  1.
       -5    1    3    3    0  502  0.10514460091E+03  0.17998544021E+03  0.13247647663E+04  0.13410719301E+04  0.46999998093E+01 0. -1.
</event>
<event>
 5   0  0.1825521E-06  0.2295490E+04  0.7818609E-02  0.8479701E-01
        2   -1    0    0  501    0  0.00000000000E+00  0.00000000000E+00  0.82523444776E+03  0.82523444776E+03  0.25500000920E-02 0.  1.
       -2   -1    0    0    0  501  0.00000000000E+00  0.00000000000E+00 -0.15962965098E+04  0.15962965098E+04  0.25500000920E-02 0. -1.
    10030    2    1    2    0    0  0.00000000000E+00  0.00000000000E+00 -0.77106206202E+03  0.24215309576E+04  0.22954902472E+04 0.  0.
        5    1    3    3  502    0 -0.11352370371E+04  0.16698264404E+03 -0.41243521588E+03  0.12193322890E+04  0.46999998093E+01 0. -1.
       -5    1    3    3    0  502  0.11352370371E+04 -0.16698264404E+03 -0.35862684614E+03  0.12021986685E+04  0.46999998093E+01 0.  1.
</event>
<event>
 5   0  0.1888779E-06  0.2301309E+04  0.7818609E-02  0.8477405E-01
        2   -1    0    0  501    0  0.00000000000E+00  0.00000000000E+00  0.13480208075E+04  0.13480208075E+04  0.25500000920E-02 0.  1.
       -2   -1    0    0    0  501  0.00000000000E+00  0.00000000000E+00 -0.98218526923E+03  0.98218526923E+03  0.25500000920E-02 0. -1.
    10030    2    1    2    0    0  0.00000000000E+00  0.00000000000E+00  0.36583553828E+03  0.23302060767E+04  0.23013093488E+04 0.  0.
        4    1    3    3  502    0  0.10148204378E+04 -0.29288395293E+02 -0.36544147554E+03  0.10790122409E+04  0.12699999809E+01 0. -1.
       -4    1    3    3    0  502 -0.10148204378E+04  0.29288395293E+02  0.73127701383E+03  0.12511938359E+04  0.12699999809E+01 0.  1.
</event>
<event>
 5   0  0.1689444E-06  0.2300485E+04  0.7818609E-02  0.8477730E-01
       -2   -1    0    0    0  501  0.00000000000E+00  0.00000000000E+00  0.92264501667E+03  0.92264501668E+03  0.25500000920E-02 0. -1.
        2   -1    0    0  501    0  0.00000000000E+00  0.00000000000E+00 -0.14339830803E+04  0.14339830803E+04  0.25500000920E-02 0.  1.
    10030    2    1    2    0    0  0.00000000000E+00  0.00000000000E+00 -0.51133806360E+03  0.23566280970E+04  0.23004845951E+04 0.  0.
        2    1    3    3  502    0 -0.38171593937E+03 -0.10775527604E+04 -0.12516154127E+03  0.11499967049E+04  0.25500000920E-02 0.  1.
       -2    1    3    3    0  502  0.38171593937E+03  0.10775527604E+04 -0.38617652233E+03  0.12066313921E+04  0.25500000920E-02 0. -1.
</event>
<event>
 5   0  0.7607231E-07  0.2298405E+04  0.7818609E-02  0.8478550E-01
       -1   -1    0    0    0  501  0.00000000000E+00  0.00000000000E+00  0.75242284840E+03  0.75242284842E+03  0.50400001928E-02 0. -1.
        1   -1    0    0  501    0  0.00000000000E+00  0.00000000000E+00 -0.17552189163E+04  0.17552189163E+04  0.50400001928E-02 0.  1.
    10030    2    1    2    0    0  0.00000000000E+00  0.00000000000E+00 -0.10027960679E+04  0.25076417647E+04  0.22984053747E+04 0.  0.
        2    1    3    3  502    0 -0.85666096607E+03  0.76501252790E+03 -0.54441635923E+03  0.12710237413E+04  0.25500000920E-02 0.  1.
       -2    1    3    3    0  502  0.85666096607E+03 -0.76501252790E+03 -0.45837970865E+03  0.12366180235E+04  0.25500000920E-02 0. -1.
</event>
<event>
 5   0  0.1689444E-06  0.2300338E+04  0.7818609E-02  0.8477788E-01
        2   -1    0    0  501    0  0.00000000000E+00  0.00000000000E+00  0.18040281462E+04  0.18040281462E+04  0.25500000920E-02 0. -1.
       -2   -1    0    0    0  501  0.00000000000E+00  0.00000000000E+00 -0.73329724740E+03  0.73329724741E+03  0.25500000920E-02 0.  1.
    10030    2    1    2    0    0  0.00000000000E+00  0.00000000000E+00  0.10707308988E+04  0.25373253936E+04  0.23003381263E+04 0.  0.
        2    1    3    3  502    0 -0.61884089963E+03  0.96849691255E+03  0.48680055461E+03  0.12481687020E+04  0.25500000920E-02 0.  1.
       -2    1    3    3    0  502  0.61884089963E+03 -0.96849691255E+03  0.58393034418E+03  0.12891566916E+04  0.25500000920E-02 0. -1.
</event>
<event>
 5   0  0.1825521E-06  0.2298332E+04  0.7818609E-02  0.8478579E-01
        2   -1    0    0  501    0  0.00000000000E+00  0.00000000000E+00  0.22766705376E+04  0.22766705376E+04  0.25500000920E-02 0.  1.
       -2   -1    0    0    0  501  0.00000000000E+00  0.00000000000E+00 -0.58004998714E+03  0.58004998714E+03  0.25500000920E-02 0. -1.
    10030    2    1    2    0    0  0.00000000000E+00  0.00000000000E+00  0.16966205505E+04  0.28567205248E+04  0.22983321919E+04 0.  0.
        5    1    3    3  502    0 -0.94121274989E+03  0.65639440827E+03  0.77143214323E+03  0.13827019568E+04  0.46999998093E+01 0.  1.
       -5    1    3    3    0  502  0.94121274989E+03 -0.65639440827E+03  0.92518840726E+03  0.14740185680E+04  0.46999998093E+01 0. -1.
</event>
<event>
 5   0  0.1888779E-06  0.2294468E+04  0.7818609E-02  0.8480105E-01
       -2   -1    0    0    0  501  0.00000000000E+00  0.00000000000E+00  0.61807470379E+03  0.61807470379E+03  0.25500000920E-02 0. -1.
        2   -1    0    0  501    0  0.00000000000E+00  0.00000000000E+00 -0.21294286245E+04  0.21294286245E+04  0.25500000920E-02 0.  1.
    10030    2    1    2    0    0  0.00000000000E+00  0.00000000000E+00 -0.15113539207E+04  0.27475033283E+04  0.22944681008E+04 0.  0.
        4    1    3    3  502    0  0.75241408086E+03  0.10321899849E+02 -0.17926346232E+04  0.19441640867E+04  0.12699999809E+01 0.  1.
       -4    1    3    3    0  502 -0.75241408086E+03 -0.10321899849E+02  0.28128070247E+03  0.80333924165E+03  0.12699999809E+01 0. -1.
</event>
<event>
 5   0  0.1689444E-06  0.2297458E+04  0.7818609E-02  0.8478924E-01
        2   -1    0    0  501    0  0.00000000000E+00  0.00000000000E+00  0.21109378517E+04  0.21109378517E+04  0.25500000920E-02 0.  1.
       -2   -1    0    0    0  501  0.00000000000E+00  0.00000000000E+00 -0.62511468198E+03  0.62511468199E+03  0.25500000920E-02 0. -1.
    10030    2    1    2    0    0  0.00000000000E+00  0.00000000000E+00  0.14858231697E+04  0.27360525337E+04  0.22974579377E+04 0.  0.
        2    1    3    3  502    0 -0.37746040941E+03 -0.54247567493E+03 -0.37604553159E+03  0.76037257998E+03  0.25500000920E-02 0. -1.
       -2    1    3    3    0  502  0.37746040941E+03  0.54247567493E+03  0.18618687013E+04  0.19756799537E+04  0.25500000920E-02 0.  1.
</event>
<event>
 5   0  0.1825521E-06  0.2300722E+04  0.7818609E-02  0.8477636E-01
       -2   -1    0    0    0  501  0.00000000000E+00  0.00000000000E+00  0.10488826892E+04  0.10488826892E+04  0.25500000920E-02 0.  1.
        2   -1    0    0  501    0  0.00000000000E+00  0.00000000000E+00 -0.12616573713E+04  0.12616573713E+04  0.25500000920E-02 0. -1.
    10030    2    1    2    0    0  0.00000000000E+00  0.00000000000E+00 -0.21277468210E+03  0.23105400604E+04  0.23007221270E+04 0.  0.
        5    1    3    3  502    0 -0.43537150576E+03  0.78455754870E+02 -0.11728061535E+04  0.12534751761E+04  0.46999998093E+01 0. -1.
       -5    1    3    3    0  502  0.43537150576E+03 -0.78455754870E+02  0.96003147140E+03  0.10570648843E+04  0.46999998093E+01 0.  1.
</event>
<event>
 5   0  0.7761069E-07  0.2300128E+04  0.7818609E-02  0.8477871E-01
        1   -1    0    0  501    0  0.00000000000E+00  0.00000000000E+00  0.19283707926E+04  0.19283707926E+04  0.50400001928E-02 0. -1.
       -1   -1    0    0    0  501  0.00000000000E+00  0.00000000000E+00 -0.68588825278E+03  0.68588825279E+03  0.50400001928E-02 0.  1.
    10030    2    1    2    0    0  0.00000000000E+00  0.00000000000E+00  0.12424825398E+04  0.26142590454E+04  0.23001277127E+04 0.  0.
        1    1    3    3  502    0  0.43315952333E+03  0.83392550199E+03 -0.13232172304E+03  0.94898258885E+03  0.50400001928E-02 0.  1.
       -1    1    3    3    0  502 -0.43315952333E+03 -0.83392550199E+03  0.13748042628E+04  0.16652764565E+04  0.50400001928E-02 0. -1.
</event>
<event>
 5   0  0.1828646E-06  0.2301072E+04  0.7818609E-02  0.8477498E-01
       -2   -1    0    0    0  501  0.00000000000E+00  0.00000000000E+00  0.79786056812E+03  0.79786056813E+03  0.25500000920E-02 0.  1.
        2   -1    0    0  501    0  0.00000000000E+00  0.00000000000E+00 -0.16591035284E+04  0.16591035284E+04  0.25500000920E-02 0. -1.
    10030    2    1    2    0    0  0.00000000000E+00  0.00000000000E+00 -0.86124296023E+03  0.24569640965E+04  0.23010721707E+04 0.  0.
        3    1    3    3  502    0  0.74336499803E+03 -0.20006907194E+03 -0.13436012529E+04  0.15485100874E+04  0.10100000352E+00 0. -1.
       -3    1    3    3    0  502 -0.74336499803E+03  0.20006907194E+03  0.48235829268E+03  0.90845400905E+03  0.10100000352E+00 0.  1.
</event>
<event>
 5   0  0.7761069E-07  0.2299893E+04  0.7818609E-02  0.8477963E-01
        1   -1    0    0  501    0  0.00000000000E+00  0.00000000000E+00  0.13977500921E+04  0.13977500921E+04  0.50400001928E-02 0. -1.
       -1   -1    0    0    0  501  0.00000000000E+00  0.00000000000E+00 -0.94607506272E+03  0.94607506273E+03  0.50400001928E-02 0.  1.
    10030    2    1    2    0    0  0.00000000000E+00  0.00000000000E+00  0.45167502941E+03  0.23438251549E+04  0.22998926115E+04 0.  0.
        1    1    3    3  502    0  0.19662860459E+02 -0.37079046438E+03 -0.88330148295E+03  0.95817206511E+03  0.50400001928E-02 0.  1.
       -1    1    3    3    0  502 -0.19662860459E+02  0.37079046438E+03  0.13349765124E+04  0.13856530898E+04  0.50400001928E-02 0. -1.
</event>
<event>
 5   0  0.1689444E-06  0.2300525E+04  0.7818609E-02  0.8477714E-01
        2   -1    0    0  501    0  0.00000000000E+00  0.00000000000E+00  0.31550046003E+04  0.31550046003E+04  0.25500000920E-02 0.  1.
       -2   -1    0    0    0  501  0.00000000000E+00  0.00000000000E+00 -0.41936659432E+03  0.41936659433E+03  0.25500000920E-02 0. -1.
    10030    2    1    2    0    0  0.00000000000E+00  0.00000000000E+00  0.27356380059E+04  0.35743711946E+04  0.23005247526E+04 0.  0.
        2    1    3    3  502    0  0.66423862999E+03  0.82430557463E+03  0.66879886870E+03  0.12521919041E+04  0.25500000920E-02 0. -1.
       -2    1    3    3    0  502 -0.66423862999E+03 -0.82430557463E+03  0.20668391372E+04  0.23221792905E+04  0.25500000920E-02 0.  1.
</event>
<event>
 5   0  0.1825521E-06  0.2298395E+04  0.7818609E-02  0.8478554E-01
       -2   -1    0    0    0  501  0.00000000000E+00  0.00000000000E+00  0.51211497988E+03  0.51211497989E+03  0.25500000920E-02 0.  1.
        2   -1    0    0  501    0  0.00000000000E+00  0.00000000000E+00 -0.25788254089E+04  0.25788254089E+04  0.25500000920E-02 0. -1.
    10030    2    1    2    0    0  0.00000000000E+00  0.00000000000E+00 -0.20667104290E+04  0.30909403887E+04  0.22983951987E+04 0.  0.
        5    1    3    3  502    0  0.67091225571E+03 -0.13032747671E+03  0.20908049817E+03  0.71473439176E+03  0.46999998093E+01 0.  1.
       -5    1    3    3    0  502 -0.67091225571E+03  0.13032747671E+03 -0.22757909271E+04  0.23762059970E+04  0.46999998093E+01 0. -1.
</event>
<event>
 5   0  0.7761069E-07  0.2299841E+04  0.7818609E-02  0.8477984E-01
       -1   -1    0    0    0  501  0.00000000000E+00  0.00000000000E+00  0.94289489514E+03  0.94289489516E+03  0.50400001928E-02 0.  1.
        1   -1    0    0  501    0  0.00000000000E+00  0.00000000000E+00 -0.14024014475E+04  0.14024014475E+04  0.50400001928E-02 0. -1.
    10030    2    1    2    0    0  0.00000000000E+00  0.00000000000E+00 -0.45950655233E+03  0.23452963426E+04  0.22998410082E+04 0.  0.
        1    1    3    3  502    0  0.38286101215E+03  0.63443321414E+03  0.66696084718E+03  0.99695778723E+03  0.50400001928E-02 0.  1.
       -1    1    3    3    0  502 -0.38286101215E+03 -0.63443321414E+03 -0.11264673995E+04  0.13483385554E+04  0.50400001928E-02 0. -1.
</event>
<event>
 5   0  0.8108242E-07  0.2300160E+04  0.7818609E-02  0.8477858E-01
        1   -1    0    0  501    0  0.00000000000E+00  0.00000000000E+00  0.20757552585E+04  0.20757552585E+04  0.50400001928E-02 0. -1.
       -1   -1    0    0    0  501  0.00000000000E+00  0.00000000000E+00 -0.63720615158E+03  0.63720615160E+03  0.50400001928E-02 0.  1.
    10030    2    1    2    0    0  0.00000000000E+00  0.00000000000E+00  0.14385491069E+04  0.27129614101E+04  0.23001600117E+04 0.  0.
        4    1    3    3  502    0  0.45145763458E+02  0.76364860844E+02  0.20717130005E+04  0.20736118492E+04  0.12699999809E+01 0. -1.
       -4    1    3    3    0  502 -0.45145763458E+02 -0.76364860844E+02 -0.63316389359E+03  0.63934956086E+03  0.12699999809E+01 0.  1.
</event>
<event>
 5   0  0.8097672E-07  0.2299645E+04  0.7818609E-02  0.8478061E-01
        1   -1    0    0  501    0  0.00000000000E+00  0.00000000000E+00  0.83779711970E+03  0.83779711971E+03  0.50400001928E-02 0.  1.
       -1   -1    0    0    0  501  0.00000000000E+00  0.00000000000E+00 -0.15780573799E+04  0.15780573799E+04  0.50400001928E-02 0. -1.
    10030    2    1    2    0    0  0.00000000000E+00  0.00000000000E+00 -0.74026026019E+03  0.24158544996E+04  0.22996451271E+04 0.  0.
        3    1    3    3  502    0 -0.10924643663E+04 -0.34427626866E+03 -0.26461880674E+03  0.11755967267E+04  0.10100000352E+00 0.  1.
       -3    1    3    3    0  502  0.10924643663E+04  0.34427626866E+03 -0.47564145344E+03  0.12402577729E+04  0.10100000352E+00 0. -1.
</event>
<event>
 5   0  0.6319125E-07  0.2299458E+04  0.7818609E-02  0.8478135E-01
        3   -1    0    0  501    0  0.00000000000E+00  0.00000000000E+00  0.15897723581E+04  0.15897723613E+04  0.10100000352E+00 0.  1.
       -3   -1    0    0    0  501  0.00000000000E+00  0.00000000000E+00 -0.83148836454E+03  0.83148837068E+03  0.10100000352E+00 0. -1.
    10030    2    1    2    0    0  0.00000000000E+00  0.00000000000E+00  0.75828399352E+03  0.24212607319E+04  0.22994583965E+04 0.  0.
        1    1    3    3  502    0  0.90228700769E+02  0.52472221762E+03  0.14521399333E+04  0.15466690047E+04  0.50400001928E-02 0.  1.
       -1    1    3    3    0  502 -0.90228700769E+02 -0.52472221762E+03 -0.69385593982E+03  0.87459172724E+03  0.50400001928E-02 0. -1.
</event>
<event>
 5   0  0.7932912E-07  0.2300252E+04  0.7818609E-02  0.8477822E-01
        1   -1    0    0  501    0  0.00000000000E+00  0.00000000000E+00  0.10264459719E+04  0.10264459720E+04  0.50400001928E-02 0. -1.
       -1   -1    0    0    0  501  0.00000000000E+00  0.00000000000E+00 -0.12887090497E+04  0.12887090498E+04  0.50400001928E-02 0.  1.
    10030    2    1    2    0    0  0.00000000000E+00  0.00000000000E+00 -0.26226307780E+03  0.23151550217E+04  0.23002523454E+04 0.  0.
        5    1    3    3  502    0 -0.55668274965E+03  0.86018687499E+03 -0.65696343098E+03  0.12171442738E+04  0.46999998093E+01 0.  1.
       -5    1    3    3    0  502  0.55668274965E+03 -0.86018687499E+03  0.39470035318E+03  0.10980107479E+04  0.46999998093E+01 0. -1.
</event>
<event>
 5   0  0.8097672E-07  0.2299882E+04  0.7818609E-02  0.8477968E-01
       -1   -1    0    0    0  501  0.00000000000E+00  0.00000000000E+00  0.13631792188E+04  0.13631792188E+04  0.50400001928E-02 0.  1.
        1   -1    0    0  501    0  0.00000000000E+00  0.00000000000E+00 -0.97005861388E+03  0.97005861389E+03  0.50400001928E-02 0. -1.
    10030    2    1    2    0    0  0.00000000000E+00  0.00000000000E+00  0.39312060491E+03  0.23332378327E+04  0.22998815130E+04 0.  0.
        3    1    3    3  502    0 -0.87947705816E+03  0.41305877491E+03 -0.42739339855E+03  0.10614907323E+04  0.10100000352E+00 0. -1.
       -3    1    3    3    0  502  0.87947705816E+03 -0.41305877491E+03  0.82051400346E+03  0.12717471004E+04  0.10100000352E+00 0.  1.
</event>
<event>
 5   0  0.1825521E-06  0.2302464E+04  0.7818609E-02  0.8476950E-01
       -2   -1    0    0    0  501  0.00000000000E+00  0.00000000000E+00  0.97642209226E+03  0.97642209226E+03  0.25500000920E-02 0. -1.
        2   -1    0    0  501    0  0.00000000000E+00  0.00000000000E+00 -0.13573383928E+04  0.13573383928E+04  0.25500000920E-02 0.  1.
    10030    2    1    2    0    0  0.00000000000E+00  0.00000000000E+00 -0.38091630050E+03  0.23337604850E+04  0.23024640656E+04 0.  0.
        5    1    3    3  502    0 -0.51775393992E+03  0.39121769625E+03  0.77335736567E+03  0.10095663095E+04  0.46999998093E+01 0. -1.
       -5    1    3    3    0  502  0.51775393992E+03 -0.39121769625E+03 -0.11542736662E+04  0.13241941756E+04  0.46999998093E+01 0.  1.
</event>
<event>
 5   0  0.7932912E-07  0.2300151E+04  0.7818609E-02  0.8477862E-01
       -1   -1    0    0    0  501  0.00000000000E+00  0.00000000000E+00  0.59968249056E+03  0.59968249058E+03  0.50400001928E-02 0.  1.
        1   -1    0    0  501    0  0.00000000000E+00  0.00000000000E+00 -0.22056230283E+04  0.22056230283E+04  0.50400001928E-02 0. -1.
    10030    2    1    2    0    0  0.00000000000E+00  0.00000000000E+00 -0.16059405377E+04  0.28053055188E+04  0.23001508741E+04 0.  0.
        5    1    3    3  502    0  0.54518811880E+03  0.31443881862E+03 -0.19769434364E+04  0.20747118586E+04  0.46999998093E+01 0. -1.
       -5    1    3    3    0  502 -0.54518811880E+03 -0.31443881862E+03  0.37100289870E+03  0.73059366024E+03  0.46999998093E+01 0.  1.
</event>
<event>
 5   0  0.1825521E-06  0.2298215E+04  0.7818609E-02  0.8478625E-01
        2   -1    0    0  501    0  0.00000000000E+00  0.00000000000E+00  0.14354436815E+04  0.14354436815E+04  0.25500000920E-02 0.  1.
       -2   -1    0    0    0  501  0.00000000000E+00  0.00000000000E+00 -0.91988807001E+03  0.91988807001E+03  0.25500000920E-02 0. -1.
    10030    2    1    2    0    0  0.00000000000E+00  0.00000000000E+00  0.51555561145E+03  0.23553317515E+04  0.22982145398E+04 0.  0.
        5    1    3    3  502    0  0.10489841445E+04  0.30660349258E+03 -0.10608391846E+03  0.10980206395E+04  0.46999998093E+01 0. -1.
       -5    1    3    3    0  502 -0.10489841445E+04 -0.30660349258E+03  0.62163952991E+03  0.12573111119E+04  0.46999998093E+01 0.  1.
</event>
<event>
 5   0  0.8108242E-07  0.2300084E+04  0.7818609E-02  0.8477888E-01
        1   -1    0    0  501    0  0.00000000000E+00  0.00000000000E+00  0.14885578003E+04  0.14885578003E+04  0.50400001928E-02 0. -1.
       -1   -1    0    0    0  501  0.00000000000E+00  0.00000000000E+00 -0.88850904703E+03  0.88850904705E+03  0.50400001928E-02 0.  1.
    10030    2    1    2    0    0  0.00000000000E+00  0.00000000000E+00  0.60004875329E+03  0.23770668474E+04  0.23000844095E+04 0.  0.
        4    1    3    3  502    0 -0.66773683995E+03  0.13937878148E+03 -0.65686812883E+03  0.94698272621E+03  0.12699999809E+01 0.  1.
       -4    1    3    3    0  502  0.66773683995E+03 -0.13937878148E+03  0.12569168821E+04  0.14300841212E+04  0.12699999809E+01 0. -1.
</event>
<event>
 5   0  0.7932912E-07  0.2299808E+04  0.7818609E-02  0.8477997E-01
       -1   -1    0    0    0  501  0.00000000000E+00  0.00000000000E+00  0.62889521683E+03  0.62889521685E+03  0.50400001928E-02 0. -1.
        1   -1    0    0  501    0  0.00000000000E+00  0.00000000000E+00 -0.21025429853E+04  0.21025429853E+04  0.50400001928E-02 0.  1.
    10030    2    1    2    0    0  0.00000000000E+00  0.00000000000E+00 -0.14736477684E+04  0.27314382021E+04  0.22998080151E+04 0.  0.
        5    1    3    3  502    0  0.78316311110E+03 -0.37800238818E+03 -0.16303727771E+04  0.18478007864E+04  0.46999998093E+01 0.  1.
       -5    1    3    3    0  502 -0.78316311110E+03  0.37800238818E+03  0.15672500865E+03  0.88363741569E+03  0.46999998093E+01 0. -1.
</event>
<event>
 5   0  0.1828646E-06  0.2300361E+04  0.7818609E-02  0.8477779E-01
       -2   -1    0    0    0  501  0.00000000000E+00  0.00000000000E+00  0.53230971516E+03  0.53230971516E+03  0.25500000920E-02 0. -1.
        2   -1    0    0  501    0  0.00000000000E+00  0.00000000000E+00 -0.24852348132E+04  0.24852348132E+04  0.25500000920E-02 0.  1.
    10030    2    1    2    0    0  0.00000000000E+00  0.00000000000E+00 -0.19529250980E+04  0.30175445283E+04  0.23003605244E+04 0.  0.
        3    1    3    3  502    0 -0.11421354124E+04  0.92420066262E+02 -0.84594400270E+03  0.14243019465E+04  0.10100000352E+00 0. -1.
       -3    1    3    3    0  502  0.11421354124E+04 -0.92420066262E+02 -0.11069810953E+04  0.15932425818E+04  0.10100000352E+00 0.  1.
</event>
<event>
 5   0  0.1825521E-06  0.2300085E+04  0.7818609E-02  0.8477888E-01
       -2   -1    0    0    0  501  0.00000000000E+00  0.00000000000E+00  0.96718748660E+03  0.96718748661E+03  0.25500000920E-02 0. -1.
        2   -1    0    0  501    0  0.00000000000E+00  0.00000000000E+00 -0.13674678389E+04  0.13674678389E+04  0.25500000920E-02 0.  1.
    10030    2    1    2    0    0  0.00000000000E+00  0.00000000000E+00 -0.40028035231E+03  0.23346553255E+04  0.23000850264E+04 0.  0.
        5    1    3    3  502    0  0.84723002988E+03 -0.74375352295E+03 -0.43072779796E+03  0.12068622756E+04  0.46999998093E+01 0.  1.
       -5    1    3    3    0  502 -0.84723002988E+03  0.74375352295E+03  0.30447445643E+02  0.11277930499E+04  0.46999998093E+01 0. -1.
</event>
<event>
 5   0  0.6319125E-07  0.2299505E+04  0.7818609E-02  0.8478116E-01
       -3   -1    0    0    0  501  0.00000000000E+00  0.00000000000E+00  0.93415407677E+03  0.93415408223E+03  0.10100000352E+00 0.  1.
        3   -1    0    0  501    0  0.00000000000E+00  0.00000000000E+00 -0.14151104835E+04  0.14151104871E+04  0.10100000352E+00 0. -1.
    10030    2    1    2    0    0  0.00000000000E+00  0.00000000000E+00 -0.48095640676E+03  0.23492645694E+04  0.22995053711E+04 0.  0.
        2    1    3    3  502    0  0.87198370087E+03  0.67335967508E+03 -0.57647542088E+03  0.12434197753E+04  0.25500000920E-02 0. -1.
       -2    1    3    3    0  502 -0.87198370087E+03 -0.67335967508E+03  0.95519014112E+02  0.11058447941E+04  0.25500000920E-02 0.  1.
</event>
<event>
 5   0  0.1888779E-06  0.2300059E+04  0.7818609E-02  0.8477898E-01
       -2   -1    0    0    0  501  0.00000000000E+00  0.00000000000E+00  0.72372553810E+03  0.72372553810E+03  0.25500000920E-02 0.  1.
        2   -1    0    0  501    0  0.00000000000E+00  0.00000000000E+00 -0.18274436013E+04  0.18274436013E+04  0.25500000920E-02 0. -1.
    10030    2    1    2    0    0  0.00000000000E+00  0.00000000000E+00 -0.11037180632E+04  0.25511691394E+04  0.23000587851E+04 0.  0.
        4    1    3    3  502    0  0.20627279297E+03  0.94611335142E+02  0.69864301124E+03  0.73457704831E+03  0.12699999809E+01 0.  1.
       -4    1    3    3    0  502 -0.20627279297E+03 -0.94611335142E+02 -0.18023610745E+04  0.18165920911E+04  0.12699999809E+01 0. -1.
</event>
<event>
 5   0  0.7761069E-07  0.2299958E+04  0.7818609E-02  0.8477938E-01
       -1   -1    0    0    0  501  0.00000000000E+00  0.00000000000E+00  0.11600724375E+04  0.11600724375E+04  0.50400001928E-02 0. -1.
        1   -1    0    0  501    0  0.00000000000E+00  0.00000000000E+00 -0.11399733265E+04  0.11399733265E+04  0.50400001928E-02 0.  1.
    10030    2    1    2    0    0  0.00000000000E+00  0.00000000000E+00  0.20099111071E+02  0.23000457640E+04  0.22999579436E+04 0.  0.
        1    1    3    3  502    0  0.96637768859E+03 -0.45599583360E+03  0.43507589942E+03  0.11537370045E+04  0.50400001928E-02 0. -1.
       -1    1    3    3    0  502 -0.96637768859E+03  0.45599583360E+03 -0.41497678835E+03  0.11463087595E+04  0.50400001928E-02 0.  1.
</event>
<event>
 5   0  0.7607231E-07  0.2300032E+04  0.7818609E-02  0.8477909E-01
       -1   -1    0    0    0  501  0.00000000000E+00  0.00000000000E+00  0.16268751354E+04  0.16268751354E+04  0.50400001928E-02 0. -1.
        1   -1    0    0  501    0  0.00000000000E+00  0.00000000000E+00 -0.81293043731E+03  0.81293043732E+03  0.50400001928E-02 0.  1.
    10030    2    1    2    0    0  0.00000000000E+00  0.00000000000E+00  0.81394469813E+03  0.24398055728E+04  0.23000315783E+04 0.  0.
        2    1    3    3  502    0  0.99770061321E+03 -0.56447267972E+03  0.50477282951E+03  0.12525300512E+04  0.25500000920E-02 0.  1.
       -2    1    3    3    0  502 -0.99770061321E+03  0.56447267972E+03  0.30917186862E+03  0.11872755216E+04  0.25500000920E-02 0. -1.
</event>
<event>
 5   0  0.8108242E-07  0.2299786E+04  0.7818609E-02  0.8478006E-01
       -1   -1    0    0    0  501  0.00000000000E+00  0.00000000000E+00  0.10218014149E+04  0.10218014149E+04  0.50400001928E-02 0.  1.
        1   -1    0    0  501    0  0.00000000000E+00  0.00000000000E+00 -0.12940417392E+04  0.12940417392E+04  0.50400001928E-02 0. -1.
    10030    2    1    2    0    0  0.00000000000E+00  0.00000000000E+00 -0.27224032427E+03  0.23158431541E+04  0.22997857988E+04 0.  0.
        4    1    3    3  502    0  0.89636071247E+03 -0.71982776438E+03 -0.16154581201E+03  0.11609105045E+04  0.12699999809E+01 0. -1.
       -4    1    3    3    0  502 -0.89636071247E+03  0.71982776438E+03 -0.11069451226E+03  0.11549326496E+04  0.12699999809E+01 0.  1.
</event>
<event>
 5   0  0.8108242E-07  0.2299859E+04  0.7818609E-02  0.8477977E-01
       -1   -1    0    0    0  501  0.00000000000E+00  0.00000000000E+00  0.12749006903E+04  0.12749006903E+04  0.50400001928E-02 0.  1.
        1   -1    0    0  501    0  0.00000000000E+00  0.00000000000E+00 -0.10372087013E+04  0.10372087013E+04  0.50400001928E-02 0. -1.
    10030    2    1    2    0    0  0.00000000000E+00  0.00000000000E+00  0.23769198903E+03  0.23121093917E+04  0.22998592038E+04 0.  0.
        4    1    3    3  502    0  0.45516056755E+03  0.10465343170E+04 -0.23084095345E+02  0.11414638441E+04  0.12699999809E+01 0.  1.
       -4    1    3    3    0  502 -0.45516056755E+03 -0.10465343170E+04  0.26077608437E+03  0.11706455476E+04  0.12699999809E+01 0. -1.
</event>
<event>
 5   0  0.7761069E-07  0.2300182E+04  0.7818609E-02  0.8477849E-01
        1   -1    0    0  501    0  0.00000000000E+00  0.00000000000E+00  0.14037567934E+04  0.14037567935E+04  0.50400001928E-02 0.  1.
       -1   -1    0    0    0  501  0.00000000000E+00  0.00000000000E+00 -0.94226421386E+03  0.94226421387E+03  0.50400001928E-02 0. -1.
    10030    2    1    2    0    0  0.00000000000E+00  0.00000000000E+00  0.46149257959E+03  0.23460210073E+04  0.23001824201E+04 0.  0.
        1    1    3    3  502    0 -0.44980976403E+03 -0.93828303557E+03 -0.26892061755E+03  0.10747195807E+04  0.50400001928E-02 0. -1.
       -1    1    3    3    0  502  0.44980976403E+03  0.93828303557E+03  0.73041319714E+03  0.12713014266E+04  0.50400001928E-02 0.  1.
</event>
<event>
 5   0  0.7932912E-07  0.2300201E+04  0.7818609E-02  0.8477842E-01
       -1   -1    0    0    0  501  0.00000000000E+00  0.00000000000E+00  0.93651959854E+03  0.93651959855E+03  0.50400001928E-02 0.  1.
        1   -1    0    0  501    0  0.00000000000E+00  0.00000000000E+00 -0.14123901371E+04  0.14123901371E+04  0.50400001928E-02 0. -1.
    10030    2    1    2    0    0  0.00000000000E+00  0.00000000000E+00 -0.47587053852E+03  0.23489097356E+04  0.23002008992E+04 0.  0.
        5    1    3    3  502    0 -0.13041433400E+03  0.92845012523E+03  0.44226403041E+03  0.10366518683E+04  0.46999998093E+01 0.  1.
       -5    1    3    3    0  502  0.13041433400E+03 -0.92845012523E+03 -0.91813456893E+03  0.13122578673E+04  0.46999998093E+01 0. -1.
</event>
<event>
 5   0  0.1888779E-06  0.2300108E+04  0.7818609E-02  0.8477879E-01
       -2   -1    0    0    0  501  0.00000000000E+00  0.00000000000E+00  0.15564601714E+04  0.15564601714E+04  0.25500000920E-02 0. -1.
        2   -1    0    0  501    0  0.00000000000E+00  0.00000000000E+00 -0.84976412305E+03  0.84976412306E+03  0.25500000920E-02 0.  1.
    10030    2    1    2    0    0  0.00000000000E+00  0.00000000000E+00  0.70669604832E+03  0.24062242944E+04  0.23001078345E+04 0.  0.
        4    1    3    3  502    0  0.59401400839E+02 -0.75756471628E+03 -0.54972172594E+03  0.93788507539E+03  0.12699999809E+01 0.  1.
       -4    1    3    3    0  502 -0.59401400839E+02  0.75756471628E+03  0.12564177743E+04  0.14683392190E+04  0.12699999809E+01 0. -1.
</event>
<event>
 5   0  0.7932912E-07  0.2300469E+04  0.7818609E-02  0.8477736E-01
       -1   -1    0    0    0  501  0.00000000000E+00  0.00000000000E+00  0.10465331576E+04  0.10465331576E+04  0.50400001928E-02 0. -1.
        1   -1    0    0  501    0  0.00000000000E+00  0.00000000000E+00 -0.12642120448E+04  0.12642120448E+04  0.50400001928E-02 0.  1.
    10030    2    1    2    0    0  0.00000000000E+00  0.00000000000E+00 -0.21767888720E+03  0.23107452025E+04  0.23004693636E+04 0.  0.
        5    1    3    3  502    0  0.26631999664E+03  0.98827119194E+03 -0.63598020198E+03  0.12050307866E+04  0.46999998093E+01 0.  1.
       -5    1    3    3    0  502 -0.26631999664E+03 -0.98827119194E+03  0.41830131479E+03  0.11057144158E+04  0.46999998093E+01 0. -1.
</event>
<event>
 5   0  0.1888779E-06  0.2296993E+04  0.7818609E-02  0.8479108E-01
        2   -1    0    0  501    0  0.00000000000E+00  0.00000000000E+00  0.10582753747E+04  0.10582753747E+04  0.25500000920E-02 0. -1.
       -2   -1    0    0    0  501  0.00000000000E+00  0.00000000000E+00 -0.12464088791E+04  0.12464088791E+04  0.25500000920E-02 0.  1.
    10030    2    1    2    0    0  0.00000000000E+00  0.00000000000E+00 -0.18813350441E+03  0.23046842538E+04  0.22969926630E+04 0.  0.
        4    1    3    3  502    0 -0.30750740661E+03  0.32110092841E+03  0.96842942829E+03  0.10656095823E+04  0.12699999809E+01 0. -1.
       -4    1    3    3    0  502  0.30750740661E+03 -0.32110092841E+03 -0.11565629327E+04  0.12390746715E+04  0.12699999809E+01 0.  1.
</event>
<event>
 5   0  0.7761069E-07  0.2299716E+04  0.7818609E-02  0.8478033E-01
        1   -1    0    0  501    0  0.00000000000E+00  0.00000000000E+00  0.97395138985E+03  0.97395138986E+03  0.50400001928E-02 0. -1.
       -1   -1    0    0    0  501  0.00000000000E+00  0.00000000000E+00 -0.13575358680E+04  0.13575358680E+04  0.50400001928E-02 0.  1.
    10030    2    1    2    0    0  0.00000000000E+00  0.00000000000E+00 -0.38358447813E+03  0.23314872579E+04  0.22997164568E+04 0.  0.
        1    1    3    3  502    0  0.70817950397E+03  0.24346460380E+03  0.69283374450E+03  0.10202018529E+04  0.50400001928E-02 0. -1.
       -1    1    3    3    0  502 -0.70817950397E+03 -0.24346460380E+03 -0.10764182226E+04  0.13112854049E+04  0.50400001928E-02 0.  1.
</event>
<event>
 5   0  0.1744876E-06  0.2300696E+04  0.7818609E-02  0.8477647E-01
        2   -1    0    0  501    0  0.00000000000E+00  0.00000000000E+00  0.12277761467E+04  0.12277761467E+04  0.25500000920E-02 0.  1.
       -2   -1    0    0    0  501  0.00000000000E+00  0.00000000000E+00 -0.10778025257E+04  0.10778025257E+04  0.25500000920E-02 0. -1.
    10030    2    1    2    0    0  0.00000000000E+00  0.00000000000E+00  0.14997362097E+03  0.23055786724E+04  0.23006957486E+04 0.  0.
        1    1    3    3  502    0  0.41854907146E+03 -0.38377886723E+03 -0.92755169683E+03  0.10875760638E+04  0.50400001928E-02 0. -1.
       -1    1    3    3    0  502 -0.41854907146E+03  0.38377886723E+03  0.10775253178E+04  0.12180026087E+04  0.50400001928E-02 0.  1.
</event>
<event>
 5   0  0.8097672E-07  0.2298654E+04  0.7818609E-02  0.8478452E-01
        1   -1    0    0  501    0  0.00000000000E+00  0.00000000000E+00  0.93668963814E+03  0.93668963816E+03  0.50400001928E-02 0. -1.
       -1   -1    0    0    0  501  0.00000000000E+00  0.00000000000E+00 -0.14102350385E+04  0.14102350385E+04  0.50400001928E-02 0.  1.
    10030    2    1    2    0    0  0.00000000000E+00  0.00000000000E+00 -0.47354540036E+03  0.23469246767E+04  0.22986539957E+04 0.  0.
        3    1    3    3  502    0 -0.49308376467E+03 -0.85671744304E+03  0.36193377155E+03  0.10526596987E+04  0.10100000352E+00 0. -1.
       -3    1    3    3    0  502  0.49308376467E+03  0.85671744304E+03 -0.83547917191E+03  0.12942649779E+04  0.10100000352E+00 0.  1.
</event>
<event>
 5   0  0.1689444E-06  0.2298830E+04  0.7818609E-02  0.8478383E-01
       -2   -1    0    0    0  501  0.00000000000E+00  0.00000000000E+00  0.75705128583E+03  0.75705128583E+03  0.25500000920E-02 0.  1.
        2   -1    0    0  501    0  0.00000000000E+00  0.00000000000E+00 -0.17451324766E+04  0.17451324766E+04  0.25500000920E-02 0. -1.
    10030    2    1    2    0    0  0.00000000000E+00  0.00000000000E+00 -0.98808119074E+03  0.25021837624E+04  0.22988299505E+04 0.  0.
        2    1    3    3  502    0  0.10011084950E+04  0.56454546950E+03 -0.47771444713E+03  0.12446448887E+04  0.25500000920E-02 0. -1.
       -2    1    3    3    0  502 -0.10011084950E+04 -0.56454546950E+03 -0.51036674361E+03  0.12575388737E+04  0.25500000920E-02 0.  1.
</event>
<event>
 5   0  0.7761069E-07  0.2298782E+04  0.7818609E-02  0.8478401E-01
       -1   -1    0    0    0  501  0.00000000000E+00  0.00000000000E+00  0.55147890109E+03  0.55147890111E+03  0.50400001928E-02 0. -1.
        1   -1    0    0  501    0  0.00000000000E+00  0.00000000000E+00 -0.23955588945E+04  0.23955588945E+04  0.50400001928E-02 0.  1.
    10030    2    1    2    0    0  0.00000000000E+00  0.00000000000E+00 -0.18440799934E+04  0.29470377956E+04  0.22987824488E+04 0.  0.
        1    1    3    3  502    0 -0.31925392323E+03 -0.10790707927E+04 -0.62197723643E+03  0.12857575689E+04  0.50400001928E-02 0. -1.
       -1    1    3    3    0  502  0.31925392323E+03  0.10790707927E+04 -0.12221027570E+04  0.16612802268E+04  0.50400001928E-02 0.  1.
</event>
<event>
 5   0  0.8097672E-07  0.2300324E+04  0.7818609E-02  0.8477793E-01
        1   -1    0    0  501    0  0.00000000000E+00  0.00000000000E+00  0.13616763663E+04  0.13616763663E+04  0.50400001928E-02 0.  1.
       -1   -1    0    0    0  501  0.00000000000E+00  0.00000000000E+00 -0.97150278587E+03  0.97150278588E+03  0.50400001928E-02 0. -1.
    10030    2    1    2    0    0  0.00000000000E+00  0.00000000000E+00  0.39017358038E+03  0.23331791521E+04  0.23003237888E+04 0.  0.
        3    1    3    3  502    0  0.11304745528E+04 -0.20667289537E+03  0.14766461112E+03  0.11586592457E+04  0.10100000352E+00 0. -1.
       -3    1    3    3    0  502 -0.11304745528E+04  0.20667289537E+03  0.24250896927E+03  0.11745199064E+04  0.10100000352E+00 0.  1.
</event>
<event>
 5   0  0.7761069E-07  0.2299831E+04  0.7818609E-02  0.8477988E-01
        1   -1    0    0  501    0  0.00000000000E+00  0.00000000000E+00  0.18084405505E+04  0.18084405505E+04  0.50400001928E-02 0. -1.
       -1   -1    0    0    0  501  0.00000000000E+00  0.00000000000E+00 -0.73118534407E+03  0.73118534409E+03  0.50400001928E-02 0.  1.
    10030    2    1    2    0    0  0.00000000000E+00  0.00000000000E+00  0.10772552065E+04  0.25396258946E+04  0.22998306252E+04 0.  0.
        1    1    3    3  502    0  0.98661814682E+03  0.16071487850E+03 -0.89020010811E+02  0.10035781993E+04  0.50400001928E-02 0.  1.
       -1    1    3    3    0  502 -0.98661814682E+03 -0.16071487850E+03  0.11662752173E+04  0.15360476953E+04  0.50400001928E-02 0. -1.
</event>
<event>
 5   0  0.1825521E-06  0.2297476E+04  0.7818609E-02  0.8478917E-01
        2   -1    0    0  501    0  0.00000000000E+00  0.00000000000E+00  0.22881593322E+04  0.22881593322E+04  0.25500000920E-02 0.  1.
       -2   -1    0    0    0  501  0.00000000000E+00  0.00000000000E+00 -0.57670740793E+03  0.57670740793E+03  0.25500000920E-02 0. -1.
    10030    2    1    2    0    0  0.00000000000E+00  0.00000000000E+00  0.17114519243E+04  0.28648667402E+04  0.22974755167E+04 0.  0.
        5    1    3    3  502    0 -0.71564163109E+03 -0.36248728875E+03  0.18809967031E+04  0.20449231442E+04  0.46999998093E+01 0.  1.
       -5    1    3    3    0  502  0.71564163109E+03  0.36248728875E+03 -0.16954477873E+03  0.81994359602E+03  0.46999998093E+01 0. -1.
</event>
<event>
 5   0  0.1828646E-06  0.2299668E+04  0.7818609E-02  0.8478052E-01
        2   -1    0    0  501    0  0.00000000000E+00  0.00000000000E+00  0.20165583557E+04  0.20165583557E+04  0.25500000920E-02 0. -1.
       -2   -1    0    0    0  501  0.00000000000E+00  0.00000000000E+00 -0.65563115922E+03  0.65563115923E+03  0.25500000920E-02 0.  1.
    10030    2    1    2    0    0  0.00000000000E+00  0.00000000000E+00  0.13609271964E+04  0.26721895149E+04  0.22996682303E+04 0.  0.
        3    1    3    3  502    0  0.61794842872E+03 -0.96528284343E+03  0.57341384654E+03  0.12815750770E+04  0.10100000352E+00 0.  1.
       -3    1    3    3    0  502 -0.61794842872E+03  0.96528284343E+03  0.78751334989E+03  0.13906144379E+04  0.10100000352E+00 0. -1.
</event>
<event>
 5   0  0.1744876E-06  0.2300038E+04  0.7818609E-02  0.8477906E-01
       -2   -1    0    0    0  501  0.00000000000E+00  0.00000000000E+00  0.21256691754E+04  0.21256691754E+04  0.25500000920E-02 0.  1.
        2   -1    0    0  501    0  0.00000000000E+00  0.00000000000E+00 -0.62217784279E+03  0.62217784279E+03  0.25500000920E-02 0. -1.
    10030    2    1    2    0    0  0.00000000000E+00  0.00000000000E+00  0.15034913326E+04  0.27478470182E+04  0.23000384884E+04 0.  0.
        1    1    3    3  502    0 -0.55595534211E+03 -0.91671867165E+03  0.25471073923E+03  0.11019696121E+04  0.50400001928E-02 0. -1.
       -1    1    3    3    0  502  0.55595534211E+03  0.91671867165E+03  0.12487805934E+04  0.16458774061E+04  0.50400001928E-02 0.  1.
</event>
<event>
 5   0  0.7607231E-07  0.2300794E+04  0.7818609E-02  0.8477608E-01
        1   -1    0    0  501    0  0.00000000000E+00  0.00000000000E+00  0.16407366562E+04  0.16407366562E+04  0.50400001928E-02 0. -1.
       -1   -1    0    0    0  501  0.00000000000E+00  0.00000000000E+00 -0.80659679074E+03  0.80659679075E+03  0.50400001928E-02 0.  1.
    10030    2    1    2    0    0  0.00000000000E+00  0.00000000000E+00  0.83413986546E+03  0.24473334470E+04  0.23007937077E+04 0.  0.
        2    1    3    3  502    0  0.11502256605E+04 -0.14582159345E+02  0.40275105861E+03  0.12187863326E+04  0.25500000920E-02 0. -1.
       -2    1    3    3    0  502 -0.11502256605E+04  0.14582159345E+02  0.43138880685E+03  0.12285471143E+04  0.25500000920E-02 0.  1.
</event>
<event>
 5   0  0.7761069E-07  0.2300489E+04  0.7818609E-02  0.8477728E-01
       -1   -1    0    0    0  501  0.00000000000E+00  0.00000000000E+00  0.10960065969E+04  0.10960065969E+04  0.50400001928E-02 0.  1.
        1   -1    0    0  501    0  0.00000000000E+00  0.00000000000E+00 -0.12071660435E+04  0.12071660435E+04  0.50400001928E-02 0. -1.
    10030    2    1    2    0    0  0.00000000000E+00  0.00000000000E+00 -0.11115944658E+03  0.23031726404E+04  0.23004885979E+04 0.  0.
        1    1    3    3  502    0  0.42749220848E+03  0.32183258614E+02  0.10130346120E+04  0.11000111252E+04  0.50400001928E-02 0.  1.
       -1    1    3    3    0  502 -0.42749220848E+03 -0.32183258614E+02 -0.11241940585E+04  0.12031615152E+04  0.50400001928E-02 0. -1.
</event>
<event>
 5   0  0.1825521E-06  0.2299260E+04  0.7818609E-02  0.8478213E-01
        2   -1    0    0  501    0  0.00000000000E+00  0.00000000000E+00  0.15639071694E+04  0.15639071694E+04  0.25500000920E-02 0. -1.
       -2   -1    0    0    0  501  0.00000000000E+00  0.00000000000E+00 -0.84509444088E+03  0.84509444088E+03  0.25500000920E-02 0.  1.
    10030    2    1    2    0    0  0.00000000000E+00  0.00000000000E+00  0.71881272850E+03  0.24090016103E+04  0.22992601026E+04 0.  0.
        5    1    3    3  502    0 -0.12435316902E+03 -0.73322672352E+03 -0.55910132726E+03  0.93043082648E+03  0.46999998093E+01 0.  1.
       -5    1    3    3    0  502  0.12435316902E+03  0.73322672352E+03  0.12779140558E+04  0.14785707838E+04  0.46999998093E+01 0. -1.
</event>
<event>
 5   0  0.8097672E-07  0.2299557E+04  0.7818609E-02  0.8478096E-01
       -1   -1    0    0    0  501  0.00000000000E+00  0.00000000000E+00  0.11137568883E+04  0.11137568883E+04  0.50400001928E-02 0. -1.
        1   -1    0    0  501    0  0.00000000000E+00  0.00000000000E+00 -0.11869651088E+04  0.11869651088E+04  0.50400001928E-02 0.  1.
    10030    2    1    2    0    0  0.00000000000E+00  0.00000000000E+00 -0.73208220459E+02  0.23007219971E+04  0.22995569714E+04 0.  0.
        3    1    3    3  502    0  0.16018024863E+03 -0.86736281522E+03 -0.77455123510E+03  0.11738422344E+04  0.10100000352E+00 0.  1.
       -3    1    3    3    0  502 -0.16018024863E+03  0.86736281522E+03  0.70134301464E+03  0.11268797627E+04  0.10100000352E+00 0. -1.
</event>
<event>
 5   0  0.8108242E-07  0.2300861E+04  0.7818609E-02  0.8477582E-01
       -1   -1    0    0    0  501  0.00000000000E+00  0.00000000000E+00  0.66164817858E+03  0.66164817860E+03  0.50400001928E-02 0. -1.
        1   -1    0    0  501    0  0.00000000000E+00  0.00000000000E+00 -0.20002929218E+04  0.20002929218E+04  0.50400001928E-02 0.  1.
    10030    2    1    2    0    0  0.00000000000E+00  0.00000000000E+00 -0.13386447432E+04  0.26619411004E+04  0.23008608548E+04 0.  0.
        4    1    3    3  502    0  0.78584874713E+03  0.55017167242E+03  0.65344845926E+02  0.96151894640E+03  0.12699999809E+01 0. -1.
       -4    1    3    3    0  502 -0.78584874713E+03 -0.55017167242E+03 -0.14039895891E+04  0.17004221540E+04  0.12699999809E+01 0.  1.
</event>
<event>
 5   0  0.1828646E-06  0.2300765E+04  0.7818609E-02  0.8477619E-01
        2   -1    0    0  501    0  0.00000000000E+00  0.00000000000E+00  0.15116275059E+04  0.15116275059E+04  0.25500000920E-02 0. -1.
       -2   -1    0    0    0  501  0.00000000000E+00  0.00000000000E+00 -0.87546713193E+03  0.87546713194E+03  0.25500000920E-02 0.  1.
    10030    2    1    2    0    0  0.00000000000E+00  0.00000000000E+00  0.63616037401E+03  0.23870946379E+04  0.23007652615E+04 0.  0.
        3    1    3    3  502    0 -0.10676103277E+04  0.69080314777E+02 -0.12065337702E+03  0.10766248879E+04  0.10100000352E+00 0.  1.
       -3    1    3    3    0  502  0.10676103277E+04 -0.69080314777E+02  0.75681375103E+03  0.13104697500E+04  0.10100000352E+00 0. -1.
</event>
<event>
 5   0  0.7932912E-07  0.2300380E+04  0.7818609E-02  0.8477771E-01
        1   -1    0    0  501    0  0.00000000000E+00  0.00000000000E+00  0.16451852151E+04  0.16451852151E+04  0.50400001928E-02 0.  1.
       -1   -1    0    0    0  501  0.00000000000E+00  0.00000000000E+00 -0.80412678422E+03  0.80412678424E+03  0.50400001928E-02 0. -1.
    10030    2    1    2    0    0  0.00000000000E+00  0.00000000000E+00  0.84105843083E+03  0.24493119993E+04  0.23003804002E+04 0.  0.
        5    1    3    3  502    0  0.41425971399E+03  0.10627578248E+04  0.26314137269E+03  0.11706112834E+04  0.46999998093E+01 0. -1.
       -5    1    3    3    0  502 -0.41425971399E+03 -0.10627578248E+04  0.57791705813E+03  0.12787007159E+04  0.46999998093E+01 0.  1.
</event>
<event>
 5   0  0.1825521E-06  0.2300319E+04  0.7818609E-02  0.8477795E-01
       -2   -1    0    0    0  501  0.00000000000E+00  0.00000000000E+00  0.11538664926E+04  0.11538664926E+04  0.25500000920E-02 0.  1.
        2   -1    0    0  501    0  0.00000000000E+00  0.00000000000E+00 -0.11464643734E+04  0.11464643734E+04  0.25500000920E-02 0. -1.
    10030    2    1    2    0    0  0.00000000000E+00  0.00000000000E+00  0.74021192152E+01  0.23003308661E+04  0.23003189566E+04 0.  0.
        5    1    3    3  502    0 -0.14744765359E+03  0.93917198109E+03  0.65105278325E+03  0.11522485136E+04  0.46999998093E+01 0.  1.
       -5    1    3    3    0  502  0.14744765359E+03 -0.93917198109E+03 -0.64365066403E+03  0.11480823524E+04  0.46999998093E+01 0. -1.
</event>
<event>
 5   0  0.1888779E-06  0.2300323E+04  0.7818609E-02  0.8477794E-01
        2   -1    0    0  501    0  0.00000000000E+00  0.00000000000E+00  0.61474936635E+03  0.61474936635E+03  0.25500000920E-02 0.  1.
       -2   -1    0    0    0  501  0.00000000000E+00  0.00000000000E+00 -0.21518875327E+04  0.21518875327E+04  0.25500000920E-02 0. -1.
    10030    2    1    2    0    0  0.00000000000E+00  0.00000000000E+00 -0.15371381663E+04  0.27666368990E+04  0.23003230183E+04 0.  0.
        4    1    3    3  502    0 -0.61027475649E+03  0.82026264797E+03 -0.13488027279E+03  0.10312421592E+04  0.12699999809E+01 0.  1.
       -4    1    3    3    0  502  0.61027475649E+03 -0.82026264797E+03 -0.14022578936E+04  0.17353947398E+04  0.12699999809E+01 0. -1.
</event>
<event>
 5   0  0.1744876E-06  0.2299667E+04  0.7818609E-02  0.8478053E-01
        2   -1    0    0  501    0  0.00000000000E+00  0.00000000000E+00  0.12765423841E+04  0.12765423841E+04  0.25500000920E-02 0.  1.
       -2   -1    0    0    0  501  0.00000000000E+00  0.00000000000E+00 -0.10357012488E+04  0.10357012488E+04  0.25500000920E-02 0. -1.
    10030    2    1    2    0    0  0.00000000000E+00  0.00000000000E+00  0.24084113532E+03  0.23122436329E+04  0.22996665336E+04 0.  0.
        1    1    3    3  502    0  0.35034859028E+03 -0.51594603666E+03 -0.85087095576E+03  0.10549529994E+04  0.50400001928E-02 0. -1.
       -1    1    3    3    0  502 -0.35034859028E+03  0.51594603666E+03  0.10917120911E+04  0.12572906336E+04  0.50400001928E-02 0.  1.
</event>
<event>
 5   0  0.1744876E-06  0.2300109E+04  0.7818609E-02  0.8477878E-01
       -2   -1    0    0    0  501  0.00000000000E+00  0.00000000000E+00  0.10012544822E+04  0.10012544822E+04  0.25500000920E-02 0. -1.
        2   -1    0    0  501    0  0.00000000000E+00  0.00000000000E+00 -0.13209681162E+04  0.13209681162E+04  0.25500000920E-02 0.  1.
    10030    2    1    2    0    0  0.00000000000E+00  0.00000000000E+00 -0.31971363399E+03  0.23222225983E+04  0.23001089080E+04 0.  0.
        1    1    3    3  502    0  0.93026649364E+03  0.35405209690E+03  0.42176912659E+03  0.10810355372E+04  0.50400001928E-02 0. -1.
       -1    1    3    3    0  502 -0.93026649364E+03 -0.35405209690E+03 -0.74148276058E+03  0.12411870611E+04  0.50400001928E-02 0.  1.
</event>
<event>
 5   0  0.7607231E-07  0.2298394E+04  0.7818609E-02  0.8478555E-01
        1   -1    0    0  501    0  0.00000000000E+00  0.00000000000E+00  0.10525924958E+04  0.10525924959E+04  0.50400001928E-02 0.  1.
       -1   -1    0    0    0  501  0.00000000000E+00  0.00000000000E+00 -0.12546674344E+04  0.12546674344E+04  0.50400001928E-02 0. -1.
    10030    2    1    2    0    0  0.00000000000E+00  0.00000000000E+00 -0.20207493852E+03  0.23072599302E+04  0.22983938098E+04 0.  0.
        2    1    3    3  502    0  0.78629123382E+02 -0.74401891298E+03 -0.97670213520E+03  0.12303226174E+04  0.25500000920E-02 0. -1.
       -2    1    3    3    0  502 -0.78629123382E+02  0.74401891298E+03  0.77462719669E+03  0.10769373128E+04  0.25500000920E-02 0.  1.
</event>
<event>
 5   0  0.1744876E-06  0.2299768E+04  0.7818609E-02  0.8478013E-01
       -2   -1    0    0    0  501  0.00000000000E+00  0.00000000000E+00  0.71638486293E+03  0.71638486294E+03  0.25500000920E-02 0.  1.
        2   -1    0    0  501    0  0.00000000000E+00  0.00000000000E+00 -0.18457021927E+04  0.18457021927E+04  0.25500000920E-02 0. -1.
    10030    2    1    2    0    0  0.00000000000E+00  0.00000000000E+00 -0.11293173298E+04  0.25620870556E+04  0.22997679121E+04 0.  0.
        1    1    3    3  502    0 -0.79415870908E+03  0.74111484158E+03 -0.14441329692E+03  0.10958076765E+04  0.50400001928E-02 0.  1.
       -1    1    3    3    0  502  0.79415870908E+03 -0.74111484158E+03 -0.98490403283E+03  0.14662793791E+04  0.50400001928E-02 0. -1.
</event>
<event>
 5   0  0.7932912E-07  0.2300271E+04  0.7818609E-02  0.8477814E-01
       -1   -1    0    0    0  501  0.00000000000E+00  0.00000000000E+00  0.90163371877E+03  0.90163371878E+03  0.50400001928E-02 0. -1.
        1   -1    0    0  501    0  0.00000000000E+00  0.00000000000E+00 -0.14671279930E+04  0.14671279930E+04  0.50400001928E-02 0.  1.
    10030    2    1    2    0    0  0.00000000000E+00  0.00000000000E+00 -0.56549427419E+03  0.23687617117E+04  0.23002713477E+04 0.  0.
        5    1    3    3  502    0  0.95462194070E+03 -0.64106976622E+03 -0.25934419350E+03  0.11787938732E+04  0.46999998093E+01 0. -1.
       -5    1    3    3    0  502 -0.95462194070E+03  0.64106976622E+03 -0.30615008068E+03  0.11899678385E+04  0.46999998093E+01 0.  1.
</event>
<event>
 5   0  0.8097672E-07  0.2298991E+04  0.7818609E-02  0.8478319E-01
        1   -1    0    0  501    0  0.00000000000E+00  0.00000000000E+00  0.10824219569E+04  0.10824219569E+04  0.50400001928E-02 0. -1.
       -1   -1    0    0    0  501  0.00000000000E+00  0.00000000000E+00 -0.12207256907E+04  0.12207256908E+04  0.50400001928E-02 0.  1.
    10030    2    1    2    0    0  0.00000000000E+00  0.00000000000E+00 -0.13830373382E+03  0.23031476477E+04  0.22989913363E+04 0.  0.
        3    1    3    3  502    0  0.14382457769E+03 -0.10465382603E+04  0.38489200423E+03  0.11243085451E+04  0.10100000352E+00 0. -1.
       -3    1    3    3    0  502 -0.14382457769E+03  0.10465382603E+04 -0.52319573806E+03  0.11788391026E+04  0.10100000352E+00 0.  1.
</event>
<event>
 5   0  0.1888779E-06  0.2299097E+04  0.7818609E-02  0.8478277E-01
       -2   -1    0    0    0  501  0.00000000000E+00  0.00000000000E+00  0.75302765125E+03  0.75302765125E+03  0.25500000920E-02 0. -1.
        2   -1    0    0  501    0  0.00000000000E+00  0.00000000000E+00 -0.17548645668E+04  0.17548645668E+04  0.25500000920E-02 0.  1.
    10030    2    1    2    0    0  0.00000000000E+00  0.00000000000E+00 -0.10018369156E+04  0.25078922181E+04  0.22990968166E+04 0.  0.
        4    1    3    3  502    0  0.10690069867E+04 -0.31256522042E+03 -0.81134525072E+03  0.13779534402E+04  0.12699999809E+01 0.  1.
       -4    1    3    3    0  502 -0.10690069867E+04  0.31256522042E+03 -0.19049166487E+03  0.11299387779E+04  0.12699999809E+01 0. -1.
</event>
<event>
 5   0  0.8108242E-07  0.2299018E+04  0.7818609E-02  0.8478308E-01
       -1   -1    0    0    0  501  0.00000000000E+00  0.00000000000E+00  0.54480913204E+03  0.54480913206E+03  0.50400001928E-02 0. -1.
        1   -1    0    0  501    0  0.00000000000E+00  0.00000000000E+00 -0.24253831207E+04  0.24253831207E+04  0.50400001928E-02 0.  1.
    10030    2    1    2    0    0  0.00000000000E+00  0.00000000000E+00 -0.18805739886E+04  0.29701922528E+04  0.22990179407E+04 0.  0.
        4    1    3    3  502    0 -0.79557179076E+02  0.21482055346E+03  0.51501973650E+03  0.56367025539E+03  0.12699999809E+01 0. -1.
       -4    1    3    3    0  502  0.79557179076E+02 -0.21482055346E+03 -0.23955937251E+04  0.24065219974E+04  0.12699999809E+01 0.  1.
</event>
<event>
 5   0  0.1744876E-06  0.2299294E+04  0.7818609E-02  0.8478200E-01
        2   -1    0    0  501    0  0.00000000000E+00  0.00000000000E+00  0.17047289666E+04  0.17047289666E+04  0.25500000920E-02 0.  1.
       -2   -1    0    0    0  501  0.00000000000E+00  0.00000000000E+00 -0.77530675853E+03  0.77530675853E+03  0.25500000920E-02 0. -1.
    10030    2    1    2    0    0  0.00000000000E+00  0.00000000000E+00  0.92942220811E+03  0.24800357252E+04  0.22992937083E+04 0.  0.
        1    1    3    3  502    0 -0.26105640650E+03 -0.88167383577E+03  0.12090196813E+04  0.15189561514E+04  0.50400001928E-02 0.  1.
       -1    1    3    3    0  502  0.26105640650E+03  0.88167383577E+03 -0.27959747321E+03  0.96107957376E+03  0.50400001928E-02 0. -1.
</event>
<event>
 5   0  0.1828646E-06  0.2299022E+04  0.7818609E-02  0.8478307E-01
        2   -1    0    0  501    0  0.00000000000E+00  0.00000000000E+00  0.28103607167E+04  0.28103607167E+04  0.25500000920E-02 0.  1.
       -2   -1    0    0    0  501  0.00000000000E+00  0.00000000000E+00 -0.47017991250E+03  0.47017991251E+03  0.25500000920E-02 0. -1.
    10030    2    1    2    0    0  0.00000000000E+00  0.00000000000E+00  0.23401808042E+04  0.32805406292E+04  0.22990216666E+04 0.  0.
        3    1    3    3  502    0 -0.91733360765E+03 -0.69220687210E+03  0.12084810020E+04  0.16676563326E+04  0.10100000352E+00 0. -1.
       -3    1    3    3    0  502  0.91733360765E+03  0.69220687210E+03  0.11316998022E+04  0.16128842965E+04  0.10100000352E+00 0.  1.
</event>
<event>
 5   0  0.1828646E-06  0.2302749E+04  0.7818609E-02  0.8476838E-01
       -2   -1    0    0    0  501  0.00000000000E+00  0.00000000000E+00  0.58089459782E+03  0.58089459783E+03  0.25500000920E-02 0.  1.
        2   -1    0    0  501    0  0.00000000000E+00  0.00000000000E+00 -0.22821067989E+04  0.22821067989E+04  0.25500000920E-02 0. -1.
    10030    2    1    2    0    0  0.00000000000E+00  0.00000000000E+00 -0.17012122010E+04  0.28630013967E+04  0.23027492361E+04 0.  0.
        3    1    3    3  502    0  0.42766391628E+03 -0.10261026656E+04 -0.12233473010E+04  0.16529857032E+04  0.10100000352E+00 0. -1.
       -3    1    3    3    0  502 -0.42766391628E+03  0.10261026656E+04 -0.47786490001E+03  0.12100156935E+04  0.10100000352E+00 0.  1.
</event>
<event>
 5   0  0.7607231E-07  0.2299926E+04  0.7818609E-02  0.8477950E-01
        1   -1    0    0  501    0  0.00000000000E+00  0.00000000000E+00  0.17948126838E+04  0.17948126838E+04  0.50400001928E-02 0. -1.
       -1   -1    0    0    0  501  0.00000000000E+00  0.00000000000E+00 -0.73679840024E+03  0.73679840025E+03  0.50400001928E-02 0.  1.
    10030    2    1    2    0    0  0.00000000000E+00  0.00000000000E+00  0.10580142836E+04  0.25316110841E+04  0.22999261851E+04 0.  0.
        2    1    3    3  502    0  0.97173420116E+03  0.47248668113E+01 -0.14785626394E+03  0.98292988400E+03  0.25500000920E-02 0.  1.
       -2    1    3    3    0  502 -0.97173420116E+03 -0.47248668113E+01  0.12058705475E+04  0.15486812001E+04  0.25500000920E-02 0. -1.
</event>
<event>
 5   0  0.1825521E-06  0.2300835E+04  0.7818609E-02  0.8477592E-01
        2   -1    0    0  501    0  0.00000000000E+00  0.00000000000E+00  0.22696383928E+04  0.22696383928E+04  0.25500000920E-02 0.  1.
       -2   -1    0    0    0  501  0.00000000000E+00  0.00000000000E+00 -0.58311502672E+03  0.58311502672E+03  0.25500000920E-02 0. -1.
    10030    2    1    2    0    0  0.00000000000E+00  0.00000000000E+00  0.16865233661E+04  0.28527534195E+04  0.23008348503E+04 0.  0.
        5    1    3    3  502    0  0.49640993029E+03  0.75415890788E+03 -0.40675939879E+02  0.90380036474E+03  0.46999998093E+01 0. -1.
       -5    1    3    3    0  502 -0.49640993029E+03 -0.75415890788E+03  0.17271993060E+04  0.19489530548E+04  0.46999998093E+01 0.  1.
</event>
<event>
 5   0  0.1825521E-06  0.2300547E+04  0.7818609E-02  0.8477706E-01
        2   -1    0    0  501    0  0.00000000000E+00  0.00000000000E+00  0.13277313790E+04  0.13277313790E+04  0.25500000920E-02 0. -1.
       -2   -1    0    0    0  501  0.00000000000E+00  0.00000000000E+00 -0.99653335425E+03  0.99653335426E+03  0.25500000920E-02 0.  1.
    10030    2    1    2    0    0  0.00000000000E+00  0.00000000000E+00  0.33119802471E+03  0.23242647332E+04  0.23005465478E+04 0.  0.
        5    1    3    3  502    0  0.17280657661E+03  0.74532943807E+03  0.10333654078E+04  0.12857854565E+04  0.46999998093E+01 0. -1.
       -5    1    3    3    0  502 -0.17280657661E+03 -0.74532943807E+03 -0.70216738311E+03  0.10384792767E+04  0.46999998093E+01 0.  1.
</event>
<event>
 5   0  0.1888779E-06  0.2295637E+04  0.7818609E-02  0.8479643E-01
       -2   -1    0    0    0  501  0.00000000000E+00  0.00000000000E+00  0.10534726845E+04  0.10534726845E+04  0.25500000920E-02 0.  1.
        2   -1    0    0  501    0  0.00000000000E+00  0.00000000000E+00 -0.12506135488E+04  0.12506135488E+04  0.25500000920E-02 0. -1.
    10030    2    1    2    0    0  0.00000000000E+00  0.00000000000E+00 -0.19714086432E+03  0.23040862333E+04  0.22956369160E+04 0.  0.
        4    1    3    3  502    0 -0.58947581358E+03  0.39332658601E+03 -0.10048323565E+04  0.12295841637E+04  0.12699999809E+01 0. -1.
       -4    1    3    3    0  502  0.58947581358E+03 -0.39332658601E+03  0.80769149218E+03  0.10745020696E+04  0.12699999809E+01 0.  1.
</event>
<event>
 5   0  0.1888779E-06  0.2300593E+04  0.7818609E-02  0.8477687E-01
        2   -1    0    0  501    0  0.00000000000E+00  0.00000000000E+00  0.20400161433E+04  0.20400161433E+04  0.25500000920E-02 0. -1.
       -2   -1    0    0    0  501  0.00000000000E+00  0.00000000000E+00 -0.64861373165E+03  0.64861373165E+03  0.25500000920E-02 0.  1.
    10030    2    1    2    0    0  0.00000000000E+00  0.00000000000E+00  0.13914024116E+04  0.26886298749E+04  0.23005933872E+04 0.  0.
        4    1    3    3  502    0 -0.51853629555E+03 -0.43732024444E+03  0.17814006878E+04  0.19061791389E+04  0.12699999809E+01 0. -1.
       -4    1    3    3    0  502  0.51853629555E+03  0.43732024444E+03 -0.38999827621E+03  0.78245073605E+03  0.12699999809E+01 0.  1.
</event>
<event>
 5   0  0.7607231E-07  0.2298868E+04  0.7818609E-02  0.8478368E-01
       -1   -1    0    0    0  501  0.00000000000E+00  0.00000000000E+00  0.12698934013E+04  0.12698934013E+04  0.50400001928E-02 0.  1.
        1   -1    0    0  501    0  0.00000000000E+00  0.00000000000E+00 -0.10404010741E+04  0.10404010741E+04  0.50400001928E-02 0. -1.
    10030    2    1    2    0    0  0.00000000000E+00  0.00000000000E+00  0.22949232716E+03  0.23102944755E+04  0.22988679464E+04 0.  0.
        2    1    3    3  502    0  0.90624311094E+03 -0.39657780474E+03 -0.47352474141E+03  0.10967115446E+04  0.25500000920E-02 0. -1.
       -2    1    3    3    0  502 -0.90624311094E+03  0.39657780474E+03  0.70301706857E+03  0.12135829309E+04  0.25500000920E-02 0.  1.
</event>
<event>
 5   0  0.1828646E-06  0.2305003E+04  0.7818609E-02  0.8475951E-01
        2   -1    0    0  501    0  0.00000000000E+00  0.00000000000E+00  0.14691242639E+04  0.14691242639E+04  0.25500000920E-02 0.  1.
       -2   -1    0    0    0  501  0.00000000000E+00  0.00000000000E+00 -0.90411647209E+03  0.90411647210E+03  0.25500000920E-02 0. -1.
    10030    2    1    2    0    0  0.00000000000E+00  0.00000000000E+00  0.56500779184E+03  0.23732407360E+04  0.23050027736E+04 0.  0.
        3    1    3    3  502    0  0.33508738388E+03  0.93156157703E+03 -0.32502275704E+03  0.10419838432E+04  0.10100000352E+00 0. -1.
       -3    1    3    3    0  502 -0.33508738388E+03 -0.93156157703E+03  0.89003054888E+03  0.13312568929E+04  0.10100000352E+00 0.  1.
</event>
<event>
 5   0  0.8108242E-07  0.2294050E+04  0.7818609E-02  0.8480271E-01
       -1   -1    0    0    0  501  0.00000000000E+00  0.00000000000E+00  0.14573484958E+04  0.14573484959E+04  0.50400001928E-02 0.  1.
        1   -1    0    0  501    0  0.00000000000E+00  0.00000000000E+00 -0.90278048343E+03  0.90278048344E+03  0.50400001928E-02 0. -1.
    10030    2    1    2    0    0  0.00000000000E+00  0.00000000000E+00  0.55456801242E+03  0.23601289793E+04  0.22940495022E+04 0.  0.
        4    1    3    3  502    0  0.55878069239E+03  0.34710096458E+03 -0.68943624672E+03  0.95291074765E+03  0.12699999809E+01 0. -1.
       -4    1    3    3    0  502 -0.55878069239E+03 -0.34710096458E+03  0.12440042591E+04  0.14072182316E+04  0.12699999809E+01 0.  1.
</event>
<event>
 5   0  0.1744876E-06  0.2305175E+04  0.7818609E-02  0.8475883E-01
        2   -1    0    0  501    0  0.00000000000E+00  0.00000000000E+00  0.70142754393E+03  0.70142754394E+03  0.25500000920E-02 0. -1.
       -2   -1    0    0    0  501  0.00000000000E+00  0.00000000000E+00 -0.18939351704E+04  0.18939351704E+04  0.25500000920E-02 0.  1.
    10030    2    1    2    0    0  0.00000000000E+00  0.00000000000E+00 -0.11925076265E+04  0.25953627143E+04  0.23051753035E+04 0.  0.
        1    1    3    3  502    0  0.76900411551E+02 -0.94044201419E+03  0.14897114427E+03  0.95526815984E+03  0.50400001928E-02 0. -1.
       -1    1    3    3    0  502 -0.76900411551E+02  0.94044201419E+03 -0.13414787707E+04  0.16400945545E+04  0.50400001928E-02 0.  1.
</event>
<event>
 5   0  0.1689444E-06  0.2299213E+04  0.7818609E-02  0.8478232E-01
       -2   -1    0    0    0  501  0.00000000000E+00  0.00000000000E+00  0.11198641959E+04  0.11198641959E+04  0.25500000920E-02 0. -1.
        2   -1    0    0  501    0  0.00000000000E+00  0.00000000000E+00 -0.11801382891E+04  0.11801382891E+04  0.25500000920E-02 0.  1.
    10030    2    1    2    0    0  0.00000000000E+00  0.00000000000E+00 -0.60274093166E+02  0.23000024850E+04  0.22992125749E+04 0.  0.
        2    1    3    3  502    0  0.11031304909E+04  0.20481697074E+03  0.22044401211E+03  0.11434344904E+04  0.25500000920E-02 0. -1.
       -2    1    3    3    0  502 -0.11031304909E+04 -0.20481697074E+03 -0.28071810527E+03  0.11565679946E+04  0.25500000920E-02 0.  1.
</event>
<event>
 5   0  0.8108242E-07  0.2299878E+04  0.7818609E-02  0.8477969E-01
       -1   -1    0    0    0  501  0.00000000000E+00  0.00000000000E+00  0.10416832276E+04  0.10416832276E+04  0.50400001928E-02 0. -1.
        1   -1    0    0  501    0  0.00000000000E+00  0.00000000000E+00 -0.12694451283E+04  0.12694451283E+04  0.50400001928E-02 0.  1.
    10030    2    1    2    0    0  0.00000000000E+00  0.00000000000E+00 -0.22776190062E+03  0.23111283559E+04  0.22998779955E+04 0.  0.
        4    1    3    3  502    0  0.79496049224E+03  0.76285845885E+03  0.21703658101E+03  0.11229522264E+04  0.12699999809E+01 0. -1.
       -4    1    3    3    0  502 -0.79496049224E+03 -0.76285845885E+03 -0.44479848163E+03  0.11881761295E+04  0.12699999809E+01 0.  1.
</event>
<event>
 5   0  0.7607231E-07  0.2299642E+04  0.7818609E-02  0.8478062E-01
       -1   -1    0    0    0  501  0.00000000000E+00  0.00000000000E+00  0.81851387843E+03  0.81851387845E+03  0.50400001928E-02 0.  1.
        1   -1    0    0  501    0  0.00000000000E+00  0.00000000000E+00 -0.16152302019E+04  0.16152302019E+04  0.50400001928E-02 0. -1.
    10030    2    1    2    0    0  0.00000000000E+00  0.00000000000E+00 -0.79671632347E+03  0.24337440804E+04  0.22996420044E+04 0.  0.
        2    1    3    3  502    0 -0.24025159182E+03 -0.61688742342E+03 -0.13932960126E+04  0.15425772912E+04  0.25500000920E-02 0. -1.
       -2    1    3    3    0  502  0.24025159182E+03  0.61688742342E+03  0.59657968916E+03  0.89116678914E+03  0.25500000920E-02 0.  1.
</event>
<event>
 5   0  0.1888779E-06  0.2300165E+04  0.7818609E-02  0.8477856E-01
       -2   -1    0    0    0  501  0.00000000000E+00  0.00000000000E+00  0.11946790350E+04  0.11946790350E+04  0.25500000920E-02 0. -1.
        2   -1    0    0  501    0  0.00000000000E+00  0.00000000000E+00 -0.11071511201E+04  0.11071511201E+04  0.25500000920E-02 0.  1.
    10030    2    1    2    0    0  0.00000000000E+00  0.00000000000E+00  0.87527914913E+02  0.23018301551E+04  0.23001654129E+04 0.  0.
        4    1    3    3  502    0  0.97861388653E+03 -0.17580039851E+03 -0.53466622889E+03  0.11289200628E+04  0.12699999809E+01 0.  1.
       -4    1    3    3    0  502 -0.97861388653E+03  0.17580039851E+03  0.62219414380E+03  0.11729100922E+04  0.12699999809E+01 0. -1.
</event>
<event>
 5   0  0.1888779E-06  0.2300491E+04  0.7818609E-02  0.8477727E-01
        2   -1    0    0  501    0  0.00000000000E+00  0.00000000000E+00  0.26626828890E+04  0.26626828890E+04  0.25500000920E-02 0. -1.
       -2   -1    0    0    0  501  0.00000000000E+00  0.00000000000E+00 -0.49689175601E+03  0.49689175602E+03  0.25500000920E-02 0.  1.
    10030    2    1    2    0    0  0.00000000000E+00  0.00000000000E+00  0.21657911330E+04  0.31595746450E+04  0.23004914053E+04 0.  0.
        4    1    3    3  502    0 -0.40048228546E+03 -0.12830730965E+03  0.25533142046E+04  0.25877140234E+04  0.12699999809E+01 0. -1.
       -4    1    3    3    0  502  0.40048228546E+03  0.12830730965E+03 -0.38752307158E+03  0.57186062164E+03  0.12699999809E+01 0.  1.
</event>
<event>
 5   0  0.8108242E-07  0.2294298E+04  0.7818609E-02  0.8480173E-01
       -1   -1    0    0    0  501  0.00000000000E+00  0.00000000000E+00  0.17406040298E+04  0.17406040298E+04  0.50400001928E-02 0.  1.
        1   -1    0    0  501    0  0.00000000000E+00  0.00000000000E+00 -0.75603124322E+03  0.75603124324E+03  0.50400001928E-02 0. -1.
    10030    2    1    2    0    0  0.00000000000E+00  0.00000000000E+00  0.98457278662E+03  0.24966352731E+04  0.22942981748E+04 0.  0.
        4    1    3    3  502    0 -0.78069220075E+03  0.82039567511E+03  0.29335252700E+03  0.11698661009E+04  0.12699999809E+01 0.  1.
       -4    1    3    3    0  502  0.78069220075E+03 -0.82039567511E+03  0.69122025962E+03  0.13267691722E+04  0.12699999809E+01 0. -1.
</event>
<event>
 5   0  0.7607231E-07  0.2295583E+04  0.7818609E-02  0.8479665E-01
        1   -1    0    0  501    0  0.00000000000E+00  0.00000000000E+00  0.87793910939E+03  0.87793910940E+03  0.50400001928E-02 0. -1.
       -1   -1    0    0    0  501  0.00000000000E+00  0.00000000000E+00 -0.15005886120E+04  0.15005886120E+04  0.50400001928E-02 0.  1.
    10030    2    1    2    0    0  0.00000000000E+00  0.00000000000E+00 -0.62264950257E+03  0.23785277214E+04  0.22955830889E+04 0.  0.
        2    1    3    3  502    0 -0.53933483977E+03 -0.41300648244E+03  0.64729024865E+03  0.93831822423E+03  0.25500000920E-02 0. -1.
       -2    1    3    3    0  502  0.53933483977E+03  0.41300648244E+03 -0.12699397512E+04  0.14402094971E+04  0.25500000920E-02 0.  1.
</event>
<event>
 5   0  0.1825521E-06  0.2300175E+04  0.7818609E-02  0.8477852E-01
       -2   -1    0    0    0  501  0.00000000000E+00  0.00000000000E+00  0.70788428415E+03  0.70788428416E+03  0.25500000920E-02 0.  1.
        2   -1    0    0  501    0  0.00000000000E+00  0.00000000000E+00 -0.18685283062E+04  0.18685283062E+04  0.25500000920E-02 0. -1.
    10030    2    1    2    0    0  0.00000000000E+00  0.00000000000E+00 -0.11606440221E+04  0.25764125904E+04  0.23001754911E+04 0.  0.
        5    1    3    3  502    0 -0.54926489303E+03 -0.57457446106E+03  0.35067213516E+03  0.86880421868E+03  0.46999998093E+01 0.  1.
       -5    1    3    3    0  502  0.54926489303E+03  0.57457446106E+03 -0.15113161572E+04  0.17076083717E+04  0.46999998093E+01 0. -1.
</event>
<event>
 5   0  0.1825521E-06  0.2299887E+04  0.7818609E-02  0.8477966E-01
        2   -1    0    0  501    0  0.00000000000E+00  0.00000000000E+00  0.16722006866E+04  0.16722006866E+04  0.25500000920E-02 0.  1.
       -2   -1    0    0    0  501  0.00000000000E+00  0.00000000000E+00 -0.79079630673E+03  0.79079630673E+03  0.25500000920E-02 0. -1.
    10030    2    1    2    0    0  0.00000000000E+00  0.00000000000E+00  0.88140437984E+03  0.24629969933E+04  0.22998870642E+04 0.  0.
        5    1    3    3  502    0 -0.94413844665E+03 -0.53647214810E+03  0.84588444324E+03  0.13764964052E+04  0.46999998093E+01 0.  1.
       -5    1    3    3    0  502  0.94413844665E+03  0.53647214810E+03  0.35519936604E+02  0.10865005881E+04  0.46999998093E+01 0. -1.
</event>
<event>
 5   0  0.7932912E-07  0.2300288E+04  0.7818609E-02  0.8477808E-01
        1   -1    0    0  501    0  0.00000000000E+00  0.00000000000E+00  0.12351130543E+04  0.12351130543E+04  0.50400001928E-02 0. -1.
       -1   -1    0    0    0  501  0.00000000000E+00  0.00000000000E+00 -0.10710199581E+04  0.10710199581E+04  0.50400001928E-02 0.  1.
    10030    2    1    2    0    0  0.00000000000E+00  0.00000000000E+00  0.16409309621E+03  0.23061330125E+04  0.23002875748E+04 0.  0.
        5    1    3    3  502    0 -0.11333344665E+03  0.11009333533E+04  0.39574731059E+03  0.11753879114E+04  0.46999998093E+01 0.  1.
       -5    1    3    3    0  502  0.11333344665E+03 -0.11009333533E+04 -0.23165421438E+03  0.11307451010E+04  0.46999998093E+01 0. -1.
</event>
<event>
 5   0  0.1689444E-06  0.2299780E+04  0.7818609E-02  0.8478008E-01
       -2   -1    0    0    0  501  0.00000000000E+00  0.00000000000E+00  0.98798062015E+03  0.98798062015E+03  0.25500000920E-02 0.  1.
        2   -1    0    0  501    0  0.00000000000E+00  0.00000000000E+00 -0.13383328538E+04  0.13383328539E+04  0.25500000920E-02 0. -1.
    10030    2    1    2    0    0  0.00000000000E+00  0.00000000000E+00 -0.35035223370E+03  0.23263134740E+04  0.22997799224E+04 0.  0.
        2    1    3    3  502    0 -0.84707814214E+03 -0.43550587783E+03  0.47649282969E+03  0.10650127536E+04  0.25500000920E-02 0.  1.
       -2    1    3    3    0  502  0.84707814214E+03  0.43550587783E+03 -0.82684506339E+03  0.12613007204E+04  0.25500000920E-02 0. -1.
</event>
<event>
 5   0  0.8108242E-07  0.2300734E+04  0.7818609E-02  0.8477632E-01
        1   -1    0    0  501    0  0.00000000000E+00  0.00000000000E+00  0.14789886435E+04  0.14789886435E+04  0.50400001928E-02 0. -1.
       -1   -1    0    0    0  501  0.00000000000E+00  0.00000000000E+00 -0.89476272748E+03  0.89476272749E+03  0.50400001928E-02 0.  1.
    10030    2    1    2    0    0  0.00000000000E+00  0.00000000000E+00  0.58422591599E+03  0.23737513710E+04  0.23007337200E+04 0.  0.
        4    1    3    3  502    0 -0.57482941322E+02 -0.28682399160E+03  0.14399727641E+04  0.14693860844E+04  0.12699999809E+01 0. -1.
       -4    1    3    3    0  502  0.57482941322E+02  0.28682399160E+03 -0.85574684809E+03  0.90436528661E+03  0.12699999809E+01 0.  1.
</event>
<event>
 5   0  0.1828646E-06  0.2300718E+04  0.7818609E-02  0.8477638E-01
       -2   -1    0    0    0  501  0.00000000000E+00  0.00000000000E+00  0.13707649656E+04  0.13707649656E+04  0.25500000920E-02 0. -1.
        2   -1    0    0  501    0  0.00000000000E+00  0.00000000000E+00 -0.96539184747E+03  0.96539184747E+03  0.25500000920E-02 0.  1.
    10030    2    1    2    0    0  0.00000000000E+00  0.00000000000E+00  0.40537311808E+03  0.23361568130E+04  0.23007175598E+04 0.  0.
        3    1    3    3  502    0 -0.10310838084E+04  0.11761148555E+03 -0.30130461081E+03  0.10806251710E+04  0.10100000352E+00 0.  1.
       -3    1    3    3    0  502  0.10310838084E+04 -0.11761148555E+03  0.70667772889E+03  0.12555316420E+04  0.10100000352E+00 0. -1.
</event>
<event>
 5   0  0.1825521E-06  0.2299983E+04  0.7818609E-02  0.8477928E-01
       -2   -1    0    0    0  501  0.00000000000E+00  0.00000000000E+00  0.65830399088E+03  0.65830399088E+03  0.25500000920E-02 0. -1.
        2   -1    0    0  501    0  0.00000000000E+00  0.00000000000E+00 -0.20089200581E+04  0.20089200581E+04  0.25500000920E-02 0.  1.
    10030    2    1    2    0    0  0.00000000000E+00  0.00000000000E+00 -0.13506160672E+04  0.26672240490E+04  0.22999826883E+04 0.  0.
        5    1    3    3  502    0  0.76444525468E+03  0.63008331209E+03  0.19603675793E+01  0.99066011357E+03  0.46999998093E+01 0. -1.
       -5    1    3    3    0  502 -0.76444525468E+03 -0.63008331209E+03 -0.13525764348E+04  0.16765639354E+04  0.46999998093E+01 0.  1.
</event>
<event>
 5   0  0.1689444E-06  0.2300065E+04  0.7818609E-02  0.8477896E-01
       -2   -1    0    0    0  501  0.00000000000E+00  0.00000000000E+00  0.81961266590E+03  0.81961266590E+03  0.25500000920E-02 0. -1.
        2   -1    0    0  501    0  0.00000000000E+00  0.00000000000E+00 -0.16136578523E+04  0.16136578523E+04  0.25500000920E-02 0.  1.
    10030    2    1    2    0    0  0.00000000000E+00  0.00000000000E+00 -0.79404518644E+03  0.24332705182E+04  0.23000647071E+04 0.  0.
        2    1    3    3  502    0 -0.54771299088E+03  0.95695088914E+02  0.66797015146E+03  0.86909791949E+03  0.25500000920E-02 0. -1.
       -2    1    3    3    0  502  0.54771299088E+03 -0.95695088914E+02 -0.14620153379E+04  0.15641725988E+04  0.25500000920E-02 0.  1.
</event>
<event>
 5   0  0.8097672E-07  0.2291043E+04  0.7818609E-02  0.8481461E-01
        1   -1    0    0  501    0  0.00000000000E+00  0.00000000000E+00  0.92014520400E+03  0.92014520401E+03  0.50400001928E-02 0. -1.
       -1   -1    0    0    0  501  0.00000000000E+00  0.00000000000E+00 -0.14261004015E+04  0.14261004015E+04  0.50400001928E-02 0.  1.
    10030    2    1    2    0    0  0.00000000000E+00  0.00000000000E+00 -0.50595519745E+03  0.23462456055E+04  0.22910429458E+04 0.  0.
        3    1    3    3  502    0 -0.24306905879E+03 -0.11168442818E+04 -0.17501364579E+03  0.11563102972E+04  0.10100000352E+00 0.  1.
       -3    1    3    3    0  502  0.24306905879E+03  0.11168442818E+04 -0.33094155166E+03  0.11899353083E+04  0.10100000352E+00 0. -1.
</event>
<event>
 5   0  0.1689444E-06  0.2300078E+04  0.7818609E-02  0.8477890E-01
       -2   -1    0    0    0  501  0.00000000000E+00  0.00000000000E+00  0.57892846676E+03  0.57892846677E+03  0.25500000920E-02 0.  1.
        2   -1    0    0  501    0  0.00000000000E+00  0.00000000000E+00 -0.22845479462E+04  0.22845479462E+04  0.25500000920E-02 0. -1.
    10030    2    1    2    0    0  0.00000000000E+00  0.00000000000E+00 -0.17056194794E+04  0.28634764129E+04  0.23000781202E+04 0.  0.
        2    1    3    3  502    0 -0.10770534580E+04 -0.39993056816E+03 -0.91630485452E+03  0.14695588444E+04  0.25500000920E-02 0.  1.
       -2    1    3    3    0  502  0.10770534580E+04  0.39993056816E+03 -0.78931462488E+03  0.13939175685E+04  0.25500000920E-02 0. -1.
</event>
<event>
 5   0  0.7932912E-07  0.2299524E+04  0.7818609E-02  0.8478109E-01
       -1   -1    0    0    0  501  0.00000000000E+00  0.00000000000E+00  0.90204469637E+03  0.90204469639E+03  0.50400001928E-02 0. -1.
        1   -1    0    0  501    0  0.00000000000E+00  0.00000000000E+00 -0.14655067071E+04  0.14655067071E+04  0.50400001928E-02 0.  1.
    10030    2    1    2    0    0  0.00000000000E+00  0.00000000000E+00 -0.56346201071E+03  0.23675514035E+04  0.22995239096E+04 0.  0.
        5    1    3    3  502    0  0.84216249989E+03 -0.36768483199E+03  0.42972569098E+03  0.10144535827E+04  0.46999998093E+01 0. -1.
       -5    1    3    3    0  502 -0.84216249989E+03  0.36768483199E+03 -0.99318770169E+03  0.13530978208E+04  0.46999998093E+01 0.  1.
</event>
<event>
 5   0  0.8108242E-07  0.2298961E+04  0.7818609E-02  0.8478331E-01
       -1   -1    0    0    0  501  0.00000000000E+00  0.00000000000E+00  0.11914605524E+04  0.11914605524E+04  0.50400001928E-02 0. -1.
        1   -1    0    0  501    0  0.00000000000E+00  0.00000000000E+00 -0.11089795123E+04  0.11089795123E+04  0.50400001928E-02 0.  1.
    10030    2    1    2    0    0  0.00000000000E+00  0.00000000000E+00  0.82481040087E+02  0.23004400647E+04  0.22989609325E+04 0.  0.
        4    1    3    3  502    0 -0.10903838372E+04  0.33246418618E+03  0.18910020677E+03  0.11555214618E+04  0.12699999809E+01 0. -1.
       -4    1    3    3    0  502  0.10903838372E+04 -0.33246418618E+03 -0.10661916668E+03  0.11449186029E+04  0.12699999809E+01 0.  1.
</event>
<event>
 5   0  0.1828646E-06  0.2297626E+04  0.7818609E-02  0.8478858E-01
       -2   -1    0    0    0  501  0.00000000000E+00  0.00000000000E+00  0.71389525967E+03  0.71389525968E+03  0.25500000920E-02 0. -1.
        2   -1    0    0  501    0  0.00000000000E+00  0.00000000000E+00 -0.18486909735E+04  0.18486909735E+04  0.25500000920E-02 0.  1.
    10030    2    1    2    0    0  0.00000000000E+00  0.00000000000E+00 -0.11347957138E+04  0.25625862332E+04  0.22976263600E+04 0.  0.
        3    1    3    3  502    0  0.90888183177E+03 -0.18450836249E+03 -0.13235661720E+04  0.16161487994E+04  0.10100000352E+00 0.  1.
       -3    1    3    3    0  502 -0.90888183177E+03  0.18450836249E+03  0.18877045817E+03  0.94643743377E+03  0.10100000352E+00 0. -1.
</event>
<event>
 5   0  0.8097672E-07  0.2300034E+04  0.7818609E-02  0.8477908E-01
        1   -1    0    0  501    0  0.00000000000E+00  0.00000000000E+00  0.80020925016E+03  0.80020925017E+03  0.50400001928E-02 0. -1.
       -1   -1    0    0    0  501  0.00000000000E+00  0.00000000000E+00 -0.16527420569E+04  0.16527420569E+04  0.50400001928E-02 0.  1.
    10030    2    1    2    0    0  0.00000000000E+00  0.00000000000E+00 -0.85253280678E+03  0.24529513071E+04  0.23000343320E+04 0.  0.
        3    1    3    3  502    0 -0.64340790236E+02 -0.12301382815E+03  0.79124030635E+03  0.80332644162E+03  0.10100000352E+00 0. -1.
       -3    1    3    3    0  502  0.64340790236E+02  0.12301382815E+03 -0.16437731131E+04  0.16496248655E+04  0.10100000352E+00 0.  1.
</event>
<event>
 5   0  0.7607231E-07  0.2299508E+04  0.7818609E-02  0.8478115E-01
        1   -1    0    0  501    0  0.00000000000E+00  0.00000000000E+00  0.24458338210E+04  0.24458338210E+04  0.50400001928E-02 0. -1.
       -1   -1    0    0    0  501  0.00000000000E+00  0.00000000000E+00 -0.54048393539E+03  0.54048393541E+03  0.50400001928E-02 0.  1.
    10030    2    1    2    0    0  0.00000000000E+00  0.00000000000E+00  0.19053498856E+04  0.29863177564E+04  0.22995076768E+04 0.  0.
        2    1    3    3  502    0 -0.41135055698E+03  0.10272649494E+04  0.13580854892E+04  0.17518215528E+04  0.25500000920E-02 0.  1.
       -2    1    3    3    0  502  0.41135055698E+03 -0.10272649494E+04  0.54726439635E+03  0.12344962035E+04  0.25500000920E-02 0. -1.
</event>
<event>
 5   0  0.7607231E-07  0.2300751E+04  0.7818609E-02  0.8477625E-01
       -1   -1    0    0    0  501  0.00000000000E+00  0.00000000000E+00  0.92523788545E+03  0.92523788547E+03  0.50400001928E-02 0. -1.
        1   -1    0    0  501    0  0.00000000000E+00  0.00000000000E+00 -0.14302960981E+04  0.14302960981E+04  0.50400001928E-02 0.  1.
    10030    2    1    2    0    0  0.00000000000E+00  0.00000000000E+00 -0.50505821265E+03  0.23555339836E+04  0.23007513011E+04 0.  0.
        2    1    3    3  502    0  0.22474131420E+03 -0.82566844154E+03  0.53462566860E+03  0.10089904059E+04  0.25500000920E-02 0. -1.
       -2    1    3    3    0  502 -0.22474131420E+03  0.82566844154E+03 -0.10396838812E+04  0.13465435777E+04  0.25500000920E-02 0.  1.
</event>
<event>
 5   0  0.1888779E-06  0.2299528E+04  0.7818609E-02  0.8478107E-01
        2   -1    0    0  501    0  0.00000000000E+00  0.00000000000E+00  0.15847408509E+04  0.15847408509E+04  0.25500000920E-02 0. -1.
       -2   -1    0    0    0  501  0.00000000000E+00  0.00000000000E+00 -0.83417863460E+03  0.83417863460E+03  0.25500000920E-02 0.  1.
    10030    2    1    2    0    0  0.00000000000E+00  0.00000000000E+00  0.75056221631E+03  0.24189194855E+04  0.22995277421E+04 0.  0.
        4    1    3    3  502    0 -0.11256493696E+04 -0.23279473330E+03  0.34794220712E+03  0.12009768039E+04  0.12699999809E+01 0. -1.
       -4    1    3    3    0  502  0.11256493696E+04  0.23279473330E+03  0.40262000918E+03  0.12179426816E+04  0.12699999809E+01 0.  1.
</event>
<event>
 5   0  0.8108242E-07  0.2300513E+04  0.7818609E-02  0.8477719E-01
        1   -1    0    0  501    0  0.00000000000E+00  0.00000000000E+00  0.92120430941E+03  0.92120430942E+03  0.50400001928E-02 0.  1.
       -1   -1    0    0    0  501  0.00000000000E+00  0.00000000000E+00 -0.14362611711E+04  0.14362611711E+04  0.50400001928E-02 0. -1.
    10030    2    1    2    0    0  0.00000000000E+00  0.00000000000E+00 -0.51505686172E+03  0.23574654806E+04  0.23005129692E+04 0.  0.
        4    1    3    3  502    0  0.60515947235E+02 -0.37976880523E+03 -0.13684333455E+04  0.14214422110E+04  0.12699999809E+01 0. -1.
       -4    1    3    3    0  502 -0.60515947235E+02  0.37976880523E+03  0.85337648374E+03  0.93602326958E+03  0.12699999809E+01 0.  1.
</event>
<event>
 5   0  0.7761069E-07  0.2300060E+04  0.7818609E-02  0.8477897E-01
        1   -1    0    0  501    0  0.00000000000E+00  0.00000000000E+00  0.20751590151E+04  0.20751590151E+04  0.50400001928E-02 0. -1.
       -1   -1    0    0    0  501  0.00000000000E+00  0.00000000000E+00 -0.63733403636E+03  0.63733403638E+03  0.50400001928E-02 0.  1.
    10030    2    1    2    0    0  0.00000000000E+00  0.00000000000E+00  0.14378249787E+04  0.27124930514E+04  0.23000604089E+04 0.  0.
        1    1    3    3  502    0  0.84343720105E+03  0.29216350025E+03  0.15740765658E+04  0.18095476943E+04  0.50400001928E-02 0. -1.
       -1    1    3    3    0  502 -0.84343720105E+03 -0.29216350025E+03 -0.13625158706E+03  0.90294535715E+03  0.50400001928E-02 0.  1.
</event>
<event>
 5   0  0.1825521E-06  0.2304563E+04  0.7818609E-02  0.8476124E-01
        2   -1    0    0  501    0  0.00000000000E+00  0.00000000000E+00  0.24083492335E+04  0.24083492335E+04  0.25500000920E-02 0. -1.
       -2   -1    0    0    0  501  0.00000000000E+00  0.00000000000E+00 -0.55131236515E+03  0.55131236516E+03  0.25500000920E-02 0.  1.
    10030    2    1    2    0    0  0.00000000000E+00  0.00000000000E+00  0.18570368683E+04  0.29596615986E+04  0.23045630493E+04 0.  0.
        5    1    3    3  502    0 -0.10665099175E+04 -0.16278722302E+03  0.40876916115E+03  0.11537146100E+04  0.46999998093E+01 0. -1.
       -5    1    3    3    0  502  0.10665099175E+04  0.16278722302E+03  0.14482677072E+04  0.18059469886E+04  0.46999998093E+01 0.  1.
</event>
<event>
 5   0  0.1744876E-06  0.2300718E+04  0.7818609E-02  0.8477638E-01
        2   -1    0    0  501    0  0.00000000000E+00  0.00000000000E+00  0.12890048113E+04  0.12890048113E+04  0.25500000920E-02 0.  1.
       -2   -1    0    0    0  501  0.00000000000E+00  0.00000000000E+00 -0.10266264182E+04  0.10266264182E+04  0.25500000920E-02 0. -1.
    10030    2    1    2    0    0  0.00000000000E+00  0.00000000000E+00  0.26237839307E+03  0.23156312295E+04  0.23007184899E+04 0.  0.
        1    1    3    3  502    0 -0.38472365650E+03  0.10837190933E+04  0.16082538092E+03  0.11611736168E+04  0.50400001928E-02 0. -1.
       -1    1    3    3    0  502  0.38472365650E+03 -0.10837190933E+04  0.10155301216E+03  0.11544576127E+04  0.50400001928E-02 0.  1.
</event>
<event>
 5   0  0.1744876E-06  0.2299950E+04  0.7818609E-02  0.8477941E-01
        2   -1    0    0  501    0  0.00000000000E+00  0.00000000000E+00  0.26363589603E+04  0.26363589603E+04  0.25500000920E-02 0.  1.
       -2   -1    0    0    0  501  0.00000000000E+00  0.00000000000E+00 -0.50161690699E+03  0.50161690699E+03  0.25500000920E-02 0. -1.
    10030    2    1    2    0    0  0.00000000000E+00  0.00000000000E+00  0.21347420533E+04  0.31379758673E+04  0.22999497624E+04 0.  0.
        1    1    3    3  502    0 -0.65555535632E+03  0.20036261900E+03  0.23271365175E+04  0.24259971919E+04  0.50400001928E-02 0.  1.
       -1    1    3    3    0  502  0.65555535632E+03 -0.20036261900E+03 -0.19239446417E+03  0.71197867535E+03  0.50400001928E-02 0. -1.
</event>
<event>
 5   0  0.8097672E-07  0.2299560E+04  0.7818609E-02  0.8478095E-01
        1   -1    0    0  501    0  0.00000000000E+00  0.00000000000E+00  0.11550075137E+04  0.11550075137E+04  0.50400001928E-02 0. -1.
       -1   -1    0    0    0  501  0.00000000000E+00  0.00000000000E+00 -0.11445758476E+04  0.11445758476E+04  0.50400001928E-02 0.  1.
    10030    2    1    2    0    0  0.00000000000E+00  0.00000000000E+00  0.10431666087E+02  0.22995833613E+04  0.22995597005E+04 0.  0.
        3    1    3    3  502    0  0.11036852908E+04 -0.39070559849E+02 -0.31470301618E+03  0.11483404236E+04  0.10100000352E+00 0.  1.
       -3    1    3    3    0  502 -0.11036852908E+04  0.39070559849E+02  0.32513468226E+03  0.11512429377E+04  0.10100000352E+00 0. -1.
</event>
<event>
 5   0  0.1825521E-06  0.2300337E+04  0.7818609E-02  0.8477788E-01
        2   -1    0    0  501    0  0.00000000000E+00  0.00000000000E+00  0.22820203306E+04  0.22820203306E+04  0.25500000920E-02 0. -1.
       -2   -1    0    0    0  501  0.00000000000E+00  0.00000000000E+00 -0.57970033013E+03  0.57970033014E+03  0.25500000920E-02 0.  1.
    10030    2    1    2    0    0  0.00000000000E+00  0.00000000000E+00  0.17023200005E+04  0.28617206607E+04  0.23003373136E+04 0.  0.
        5    1    3    3  502    0 -0.92474177892E+03 -0.28482099893E+03  0.77653252861E+02  0.97073295854E+03  0.46999998093E+01 0.  1.
       -5    1    3    3    0  502  0.92474177892E+03  0.28482099893E+03  0.16246667476E+04  0.18909877022E+04  0.46999998093E+01 0. -1.
</event>
<event>
 5   0  0.1689444E-06  0.2300760E+04  0.7818609E-02  0.8477622E-01
       -2   -1    0    0    0  501  0.00000000000E+00  0.00000000000E+00  0.56226604864E+03  0.56226604864E+03  0.25500000920E-02 0.  1.
        2   -1    0    0  501    0  0.00000000000E+00  0.00000000000E+00 -0.23536436914E+04  0.23536436914E+04  0.25500000920E-02 0. -1.
    10030    2    1    2    0    0  0.00000000000E+00  0.00000000000E+00 -0.17913776428E+04  0.29159097401E+04  0.23007598208E+04 0.  0.
        2    1    3    3  502    0  0.11022900578E+03 -0.11211389959E+04 -0.11909362536E+04  0.16393389650E+04  0.25500000920E-02 0. -1.
       -2    1    3    3    0  502 -0.11022900578E+03  0.11211389959E+04 -0.60044138916E+03  0.12765707751E+04  0.25500000920E-02 0.  1.
</event>
<event>
 5   0  0.7932912E-07  0.2299745E+04  0.7818609E-02  0.8478022E-01
        1   -1    0    0  501    0  0.00000000000E+00  0.00000000000E+00  0.13675460953E+04  0.13675460953E+04  0.50400001928E-02 0. -1.
       -1   -1    0    0    0  501  0.00000000000E+00  0.00000000000E+00 -0.96684638826E+03  0.96684638827E+03  0.50400001928E-02 0.  1.
    10030    2    1    2    0    0  0.00000000000E+00  0.00000000000E+00  0.40069970708E+03  0.23343924836E+04  0.22997452060E+04 0.  0.
        5    1    3    3  502    0  0.26084518710E+03 -0.96440909412E+03 -0.37748899205E+03  0.10680098977E+04  0.46999998093E+01 0.  1.
       -5    1    3    3    0  502 -0.26084518710E+03  0.96440909412E+03  0.77818869913E+03  0.12663825859E+04  0.46999998093E+01 0. -1.
</event>
<event>
 5   0  0.1744876E-06  0.2299778E+04  0.7818609E-02  0.8478009E-01
        2   -1    0    0  501    0  0.00000000000E+00  0.00000000000E+00  0.16229459230E+04  0.16229459230E+04  0.25500000920E-02 0. -1.
       -2   -1    0    0    0  501  0.00000000000E+00  0.00000000000E+00 -0.81471907506E+03  0.81471907507E+03  0.25500000920E-02 0.  1.
    10030    2    1    2    0    0  0.00000000000E+00  0.00000000000E+00  0.80822684790E+03  0.24376649980E+04  0.22997782513E+04 0.  0.
        1    1    3    3  502    0  0.10392338271E+04  0.88894401841E+02 -0.10899295754E+03  0.10487080752E+04  0.50400001928E-02 0.  1.
       -1    1    3    3    0  502 -0.10392338271E+04 -0.88894401841E+02  0.91721980544E+03  0.13889569229E+04  0.50400001928E-02 0. -1.
</event>
<event>
 5   0  0.1888779E-06  0.2299658E+04  0.7818609E-02  0.8478056E-01
       -2   -1    0    0    0  501  0.00000000000E+00  0.00000000000E+00  0.78475188644E+03  0.78475188644E+03  0.25500000920E-02 0. -1.
        2   -1    0    0  501    0  0.00000000000E+00  0.00000000000E+00 -0.16847445764E+04  0.16847445764E+04  0.25500000920E-02 0.  1.
    10030    2    1    2    0    0  0.00000000000E+00  0.00000000000E+00 -0.89999268991E+03  0.24694964628E+04  0.22996577871E+04 0.  0.
        4    1    3    3  502    0  0.19460679791E+03  0.11101211200E+03 -0.16610775928E+04  0.16761192908E+04  0.12699999809E+01 0.  1.
       -4    1    3    3    0  502 -0.19460679791E+03 -0.11101211200E+03  0.76108490286E+03  0.79337717201E+03  0.12699999809E+01 0. -1.
</event>
<event>
 5   0  0.1744876E-06  0.2288051E+04  0.7818609E-02  0.8482647E-01
        2   -1    0    0  501    0  0.00000000000E+00  0.00000000000E+00  0.12484254405E+04  0.12484254405E+04  0.25500000920E-02 0.  1.
       -2   -1    0    0    0  501  0.00000000000E+00  0.00000000000E+00 -0.10483558973E+04  0.10483558973E+04  0.25500000920E-02 0. -1.
    10030    2    1    2    0    0  0.00000000000E+00  0.00000000000E+00  0.20006954317E+03  0.22967813378E+04  0.22880508498E+04 0.  0.
        1    1    3    3  502    0  0.67059232920E+03  0.67899700936E+03 -0.53329510085E+03  0.10932221528E+04  0.50400001928E-02 0. -1.
       -1    1    3    3    0  502 -0.67059232920E+03 -0.67899700936E+03  0.73336464401E+03  0.12035591850E+04  0.50400001928E-02 0.  1.
</event>
<event>
 5   0  0.1689444E-06  0.2296592E+04  0.7818609E-02  0.8479266E-01
        2   -1    0    0  501    0  0.00000000000E+00  0.00000000000E+00  0.16281090407E+04  0.16281090407E+04  0.25500000920E-02 0. -1.
       -2   -1    0    0    0  501  0.00000000000E+00  0.00000000000E+00 -0.80988687102E+03  0.80988687102E+03  0.25500000920E-02 0.  1.
    10030    2    1    2    0    0  0.00000000000E+00  0.00000000000E+00  0.81822216968E+03  0.24379959117E+04  0.22965923771E+04 0.  0.
        2    1    3    3  502    0 -0.87978844837E+02  0.69805815152E+03 -0.55426603488E+03  0.89567644686E+03  0.25500000920E-02 0.  1.
       -2    1    3    3    0  502  0.87978844837E+02 -0.69805815152E+03  0.13724882046E+04  0.15423194649E+04  0.25500000920E-02 0. -1.
</event>
<event>
 5   0  0.7607231E-07  0.2300543E+04  0.7818609E-02  0.8477707E-01
        1   -1    0    0  501    0  0.00000000000E+00  0.00000000000E+00  0.10844770122E+04  0.10844770122E+04  0.50400001928E-02 0. -1.
       -1   -1    0    0    0  501  0.00000000000E+00  0.00000000000E+00 -0.12200579323E+04  0.12200579323E+04  0.50400001928E-02 0.  1.
    10030    2    1    2    0    0  0.00000000000E+00  0.00000000000E+00 -0.13558092006E+03  0.23045349445E+04  0.23005432238E+04 0.  0.
        2    1    3    3  502    0 -0.15053231104E+03 -0.99450531955E+03 -0.62681248821E+03  0.11851559824E+04  0.25500000920E-02 0.  1.
       -2    1    3    3    0  502  0.15053231104E+03  0.99450531955E+03  0.49123156815E+03  0.11193789621E+04  0.25500000920E-02 0. -1.
</event>
<event>
 5   0  0.7607231E-07  0.2300787E+04  0.7818609E-02  0.8477611E-01
        1   -1    0    0  501    0  0.00000000000E+00  0.00000000000E+00  0.12324175121E+04  0.12324175121E+04  0.50400001928E-02 0. -1.
       -1   -1    0    0    0  501  0.00000000000E+00  0.00000000000E+00 -0.10738283818E+04  0.10738283818E+04  0.50400001928E-02 0.  1.
    10030    2    1    2    0    0  0.00000000000E+00  0.00000000000E+00  0.15858913035E+03  0.23062458939E+04  0.23007867374E+04 0.  0.
        2    1    3    3  502    0 -0.69329616134E+03  0.60573131777E+03 -0.61215004209E+03  0.11055757191E+04  0.25500000920E-02 0.  1.
       -2    1    3    3    0  502  0.69329616134E+03 -0.60573131777E+03  0.77073917244E+03  0.12006701748E+04  0.25500000920E-02 0. -1.
</event>
<event>
 5   0  0.1744876E-06  0.2300499E+04  0.7818609E-02  0.8477724E-01
        2   -1    0    0  501    0  0.00000000000E+00  0.00000000000E+00  0.19444497548E+04  0.19444497548E+04  0.25500000920E-02 0. -1.
       -2   -1    0    0    0  501  0.00000000000E+00  0.00000000000E+00 -0.68043626105E+03  0.68043626105E+03  0.25500000920E-02 0.  1.
    10030    2    1    2    0    0  0.00000000000E+00  0.00000000000E+00  0.12640134938E+04  0.26248860159E+04  0.23004991815E+04 0.  0.
        1    1    3    3  502    0  0.30734217515E+03  0.95989736450E+03 -0.41591556978E+00  0.10078999633E+04  0.50400001928E-02 0.  1.
       -1    1    3    3    0  502 -0.30734217515E+03 -0.95989736450E+03  0.12644294094E+04  0.16169860526E+04  0.50400001928E-02 0. -1.
</event>
<event>
 5   0  0.7761069E-07  0.2301453E+04  0.7818609E-02  0.8477348E-01
       -1   -1    0    0    0  501  0.00000000000E+00  0.00000000000E+00  0.10135880065E+04  0.10135880065E+04  0.50400001928E-02 0.  1.
        1   -1    0    0  501    0  0.00000000000E+00  0.00000000000E+00 -0.13064201690E+04  0.13064201690E+04  0.50400001928E-02 0. -1.
    10030    2    1    2    0    0  0.00000000000E+00  0.00000000000E+00 -0.29283216251E+03  0.23200081755E+04  0.23014532928E+04 0.  0.
        1    1    3    3  502    0 -0.10282327286E+04 -0.38411555339E+03  0.20186105390E+03  0.11160444381E+04  0.50400001928E-02 0.  1.
       -1    1    3    3    0  502  0.10282327286E+04  0.38411555339E+03 -0.49469321641E+03  0.12039637374E+04  0.50400001928E-02 0. -1.
</event>
<event>
 5   0  0.7932912E-07  0.2300418E+04  0.7818609E-02  0.8477756E-01
        1   -1    0    0  501    0  0.00000000000E+00  0.00000000000E+00  0.79115344331E+03  0.79115344333E+03  0.50400001928E-02 0. -1.
       -1   -1    0    0    0  501  0.00000000000E+00  0.00000000000E+00 -0.16722174431E+04  0.16722174431E+04  0.50400001928E-02 0.  1.
    10030    2    1    2    0    0  0.00000000000E+00  0.00000000000E+00 -0.88106399976E+03  0.24633708864E+04  0.23004178647E+04 0.  0.
        5    1    3    3  502    0 -0.33978570786E+03 -0.10688383312E+04 -0.71372915998E+03  0.13293987774E+04  0.46999998093E+01 0. -1.
       -5    1    3    3    0  502  0.33978570786E+03  0.10688383312E+04 -0.16733483978E+03  0.11339721090E+04  0.46999998093E+01 0.  1.
</event>
<event>
 5   0  0.1744876E-06  0.2300075E+04  0.7818609E-02  0.8477892E-01
       -2   -1    0    0    0  501  0.00000000000E+00  0.00000000000E+00  0.74804943832E+03  0.74804943833E+03  0.25500000920E-02 0.  1.
        2   -1    0    0  501    0  0.00000000000E+00  0.00000000000E+00 -0.17680459318E+04  0.17680459318E+04  0.25500000920E-02 0. -1.
    10030    2    1    2    0    0  0.00000000000E+00  0.00000000000E+00 -0.10199964934E+04  0.25160953701E+04  0.23000745781E+04 0.  0.
        1    1    3    3  502    0  0.79656787000E+03  0.57294276069E+03 -0.11661691368E+04  0.15240519133E+04  0.50400001928E-02 0. -1.
       -1    1    3    3    0  502 -0.79656787000E+03 -0.57294276069E+03  0.14617264341E+03  0.99204345684E+03  0.50400001928E-02 0.  1.
</event>
<event>
 5   0  0.8108242E-07  0.2313031E+04  0.7818609E-02  0.8472801E-01
        1   -1    0    0  501    0  0.00000000000E+00  0.00000000000E+00  0.19042036400E+04  0.19042036400E+04  0.50400001928E-02 0. -1.
       -1   -1    0    0    0  501  0.00000000000E+00  0.00000000000E+00 -0.70240825478E+03  0.70240825480E+03  0.50400001928E-02 0.  1.
    10030    2    1    2    0    0  0.00000000000E+00  0.00000000000E+00  0.12017953852E+04  0.26066118948E+04  0.23130312195E+04 0.  0.
        4    1    3    3  502    0  0.74610143828E+03  0.85094759054E+03  0.33244450284E+03  0.11795338564E+04  0.12699999809E+01 0.  1.
       -4    1    3    3    0  502 -0.74610143828E+03 -0.85094759054E+03  0.86935088237E+03  0.14270780384E+04  0.12699999809E+01 0. -1.
</event>
<event>
 5   0  0.1689444E-06  0.2300537E+04  0.7818609E-02  0.8477710E-01
       -2   -1    0    0    0  501  0.00000000000E+00  0.00000000000E+00  0.81000082508E+03  0.81000082509E+03  0.25500000920E-02 0.  1.
        2   -1    0    0  501    0  0.00000000000E+00  0.00000000000E+00 -0.16334762409E+04  0.16334762409E+04  0.25500000920E-02 0. -1.
    10030    2    1    2    0    0  0.00000000000E+00  0.00000000000E+00 -0.82347541586E+03  0.24434770660E+04  0.23005365487E+04 0.  0.
        2    1    3    3  502    0 -0.87365599893E+03 -0.71105003022E+03 -0.16434914746E+03  0.11383661942E+04  0.25500000920E-02 0. -1.
       -2    1    3    3    0  502  0.87365599893E+03  0.71105003022E+03 -0.65912626841E+03  0.13051108718E+04  0.25500000920E-02 0.  1.
</event>
<event>
 5   0  0.8108242E-07  0.2305475E+04  0.7818609E-02  0.8475766E-01
        1   -1    0    0  501    0  0.00000000000E+00  0.00000000000E+00  0.13402424370E+04  0.13402424370E+04  0.50400001928E-02 0. -1.
       -1   -1    0    0    0  501  0.00000000000E+00  0.00000000000E+00 -0.99146500292E+03  0.99146500294E+03  0.50400001928E-02 0.  1.
    10030    2    1    2    0    0  0.00000000000E+00  0.00000000000E+00  0.34877743408E+03  0.23317074399E+04  0.23054747639E+04 0.  0.
        4    1    3    3  502    0 -0.70923967996E+02  0.13617001157E+03 -0.98107711018E+03  0.99301882676E+03  0.12699999809E+01 0.  1.
       -4    1    3    3    0  502  0.70923967996E+02 -0.13617001157E+03  0.13298545443E+04  0.13386886132E+04  0.12699999809E+01 0. -1.
</event>
<event>
 5   0  0.7761069E-07  0.2299070E+04  0.7818609E-02  0.8478288E-01
       -1   -1    0    0    0  501  0.00000000000E+00  0.00000000000E+00  0.50277672613E+03  0.50277672615E+03  0.50400001928E-02 0. -1.
        1   -1    0    0  501    0  0.00000000000E+00  0.00000000000E+00 -0.26282664139E+04  0.26282664139E+04  0.50400001928E-02 0.  1.
    10030    2    1    2    0    0  0.00000000000E+00  0.00000000000E+00 -0.21254896878E+04  0.31310431401E+04  0.22990704061E+04 0.  0.
        1    1    3    3  502    0 -0.10006920649E+04  0.41109213038E+03 -0.53345092136E+03  0.12062135938E+04  0.50400001928E-02 0. -1.
       -1    1    3    3    0  502  0.10006920649E+04 -0.41109213038E+03 -0.15920387664E+04  0.19248295463E+04  0.50400001928E-02 0.  1.
</event>
<event>
 5   0  0.1825521E-06  0.2300083E+04  0.7818609E-02  0.8477888E-01
        2   -1    0    0  501    0  0.00000000000E+00  0.00000000000E+00  0.14458191711E+04  0.14458191711E+04  0.25500000920E-02 0. -1.
       -2   -1    0    0    0  501  0.00000000000E+00  0.00000000000E+00 -0.91477254474E+03  0.91477254474E+03  0.25500000920E-02 0.  1.
    10030    2    1    2    0    0  0.00000000000E+00  0.00000000000E+00  0.53104662634E+03  0.23605917158E+04  0.23000832006E+04 0.  0.
        5    1    3    3  502    0 -0.77677224773E+03 -0.81538052889E+03  0.26252715240E+02  0.11264687420E+04  0.46999998093E+01 0.  1.
       -5    1    3    3    0  502  0.77677224773E+03  0.81538052889E+03  0.50479391110E+03  0.12341229738E+04  0.46999998093E+01 0. -1.
</event>
<event>
 5   0  0.8097672E-07  0.2300393E+04  0.7818609E-02  0.8477766E-01
       -1   -1    0    0    0  501  0.00000000000E+00  0.00000000000E+00  0.18097393830E+04  0.18097393831E+04  0.50400001928E-02 0. -1.
        1   -1    0    0  501    0  0.00000000000E+00  0.00000000000E+00 -0.73101810134E+03  0.73101810135E+03  0.50400001928E-02 0.  1.
    10030    2    1    2    0    0  0.00000000000E+00  0.00000000000E+00  0.10787212817E+04  0.25407574844E+04  0.23003932253E+04 0.  0.
        3    1    3    3  502    0 -0.97984762331E+03 -0.39555394564E+03  0.37592248010E+02  0.10573445399E+04  0.10100000352E+00 0.  1.
       -3    1    3    3    0  502  0.97984762331E+03  0.39555394564E+03  0.10411290337E+04  0.14834129445E+04  0.10100000352E+00 0. -1.
</event>
<event>
 5   0  0.8097672E-07  0.2300087E+04  0.7818609E-02  0.8477887E-01
        1   -1    0    0  501    0  0.00000000000E+00  0.00000000000E+00  0.12660575520E+04  0.12660575520E+04  0.50400001928E-02 0. -1.
       -1   -1    0    0    0  501  0.00000000000E+00  0.00000000000E+00 -0.10446598427E+04  0.10446598427E+04  0.50400001928E-02 0.  1.
    10030    2    1    2    0    0  0.00000000000E+00  0.00000000000E+00  0.22139770933E+03  0.23107173947E+04  0.23000865054E+04 0.  0.
        3    1    3    3  502    0 -0.54675235923E+03 -0.38942714333E+03  0.10488284914E+04  0.12452440953E+04  0.10100000352E+00 0. -1.
       -3    1    3    3    0  502  0.54675235923E+03  0.38942714333E+03 -0.82743078211E+03  0.10654732994E+04  0.10100000352E+00 0.  1.
</event>
<event>
 5   0  0.1689444E-06  0.2299983E+04  0.7818609E-02  0.8477928E-01
       -2   -1    0    0    0  501  0.00000000000E+00  0.00000000000E+00  0.10899808690E+04  0.10899808690E+04  0.25500000920E-02 0. -1.
        2   -1    0    0  501    0  0.00000000000E+00  0.00000000000E+00 -0.12133058919E+04  0.12133058919E+04  0.25500000920E-02 0.  1.
    10030    2    1    2    0    0  0.00000000000E+00  0.00000000000E+00 -0.12332502283E+03  0.23032867609E+04  0.22999827916E+04 0.  0.
        2    1    3    3  502    0  0.11909439949E+03  0.62230187246E+03 -0.10227479340E+04  0.12031028356E+04  0.25500000920E-02 0.  1.
       -2    1    3    3    0  502 -0.11909439949E+03 -0.62230187246E+03  0.89942291115E+03  0.11001839253E+04  0.25500000920E-02 0. -1.
</event>
<event>
 5   0  0.1888779E-06  0.2301253E+04  0.7818609E-02  0.8477427E-01
       -2   -1    0    0    0  501  0.00000000000E+00  0.00000000000E+00  0.10474319082E+04  0.10474319082E+04  0.25500000920E-02 0.  1.
        2   -1    0    0  501    0  0.00000000000E+00  0.00000000000E+00 -0.12639876897E+04  0.12639876897E+04  0.25500000920E-02 0. -1.
    10030    2    1    2    0    0  0.00000000000E+00  0.00000000000E+00 -0.21655578153E+03  0.23114195979E+04  0.23012527351E+04 0.  0.
        4    1    3    3  502    0  0.11015340768E+04  0.26886132032E+03 -0.30478397608E+03  0.11741203588E+04  0.12699999809E+01 0.  1.
       -4    1    3    3    0  502 -0.11015340768E+04 -0.26886132032E+03  0.88228194552E+02  0.11372992391E+04  0.12699999809E+01 0. -1.
</event>
<event>
 5   0  0.8097672E-07  0.2310991E+04  0.7818609E-02  0.8473600E-01
       -1   -1    0    0    0  501  0.00000000000E+00  0.00000000000E+00  0.88341395553E+03  0.88341395554E+03  0.50400001928E-02 0.  1.
        1   -1    0    0  501    0  0.00000000000E+00  0.00000000000E+00 -0.15113745491E+04  0.15113745491E+04  0.50400001928E-02 0. -1.
    10030    2    1    2    0    0  0.00000000000E+00  0.00000000000E+00 -0.62796059360E+03  0.23947885047E+04  0.23109905831E+04 0.  0.
        3    1    3    3  502    0  0.13854096982E+03 -0.42659274050E+03  0.78952505160E+03  0.90803347068E+03  0.10100000352E+00 0.  1.
       -3    1    3    3    0  502 -0.13854096982E+03  0.42659274050E+03 -0.14174856452E+04  0.14867550340E+04  0.10100000352E+00 0. -1.
</event>
<event>
 5   0  0.1689444E-06  0.2299404E+04  0.7818609E-02  0.8478156E-01
       -2   -1    0    0    0  501  0.00000000000E+00  0.00000000000E+00  0.11836355952E+04  0.11836355952E+04  0.25500000920E-02 0.  1.
        2   -1    0    0  501    0  0.00000000000E+00  0.00000000000E+00 -0.11167410610E+04  0.11167410610E+04  0.25500000920E-02 0. -1.
    10030    2    1    2    0    0  0.00000000000E+00  0.00000000000E+00  0.66894534244E+02  0.23003766562E+04  0.22994038101E+04 0.  0.
        2    1    3    3  502    0  0.22426849893E+03 -0.86173737379E+03 -0.69413397746E+03  0.11290303980E+04  0.25500000920E-02 0. -1.
       -2    1    3    3    0  502 -0.22426849893E+03  0.86173737379E+03  0.76102851171E+03  0.11713462582E+04  0.25500000920E-02 0.  1.
</event>
<event>
 5   0  0.1888779E-06  0.2299437E+04  0.7818609E-02  0.8478143E-01
       -2   -1    0    0    0  501  0.00000000000E+00  0.00000000000E+00  0.93436093332E+03  0.93436093333E+03  0.25500000920E-02 0. -1.
        2   -1    0    0  501    0  0.00000000000E+00  0.00000000000E+00 -0.14147124778E+04  0.14147124778E+04  0.25500000920E-02 0.  1.
    10030    2    1    2    0    0  0.00000000000E+00  0.00000000000E+00 -0.48035154444E+03  0.23490734111E+04  0.22994365146E+04 0.  0.
        4    1    3    3  502    0 -0.95835992828E+03 -0.46460716874E+03 -0.68257923176E+03  0.12650018158E+04  0.12699999809E+01 0.  1.
       -4    1    3    3    0  502  0.95835992828E+03  0.46460716874E+03  0.20222768732E+03  0.10840715953E+04  0.12699999809E+01 0. -1.
</event>
<event>
 5   0  0.1828646E-06  0.2300975E+04  0.7818609E-02  0.8477537E-01
       -2   -1    0    0    0  501  0.00000000000E+00  0.00000000000E+00  0.11512193549E+04  0.11512193549E+04  0.25500000920E-02 0.  1.
        2   -1    0    0  501    0  0.00000000000E+00  0.00000000000E+00 -0.11497560565E+04  0.11497560565E+04  0.25500000920E-02 0. -1.
    10030    2    1    2    0    0  0.00000000000E+00  0.00000000000E+00  0.14632984096E+01  0.23009754113E+04  0.23009749460E+04 0.  0.
        3    1    3    3  502    0 -0.10474295925E+04 -0.24522546702E+02 -0.47456972899E+03  0.11501854392E+04  0.10100000352E+00 0. -1.
       -3    1    3    3    0  502  0.10474295925E+04  0.24522546702E+02  0.47603302740E+03  0.11507899721E+04  0.10100000352E+00 0.  1.
</event>
<event>
 5   0  0.8097672E-07  0.2300461E+04  0.7818609E-02  0.8477740E-01
        1   -1    0    0  501    0  0.00000000000E+00  0.00000000000E+00  0.14730348214E+04  0.14730348214E+04  0.50400001928E-02 0.  1.
       -1   -1    0    0    0  501  0.00000000000E+00  0.00000000000E+00 -0.89816595883E+03  0.89816595885E+03  0.50400001928E-02 0. -1.
    10030    2    1    2    0    0  0.00000000000E+00  0.00000000000E+00  0.57486886257E+03  0.23712007803E+04  0.23004605911E+04 0.  0.
        3    1    3    3  502    0  0.89940600315E+03  0.70068552160E+03  0.13064389162E+03  0.11475884259E+04  0.10100000352E+00 0. -1.
       -3    1    3    3    0  502 -0.89940600315E+03 -0.70068552160E+03  0.44422497095E+03  0.12236123543E+04  0.10100000352E+00 0.  1.
</event>
<event>
 5   0  0.1689444E-06  0.2300168E+04  0.7818609E-02  0.8477855E-01
        2   -1    0    0  501    0  0.00000000000E+00  0.00000000000E+00  0.12931535052E+04  0.12931535052E+04  0.25500000920E-02 0.  1.
       -2   -1    0    0    0  501  0.00000000000E+00  0.00000000000E+00 -0.10228434113E+04  0.10228434113E+04  0.25500000920E-02 0. -1.
    10030    2    1    2    0    0  0.00000000000E+00  0.00000000000E+00  0.27031009388E+03  0.23159969165E+04  0.23001682917E+04 0.  0.
        2    1    3    3  502    0 -0.94874551246E+03  0.15127348623E+03 -0.50140737685E+03  0.10837024834E+04  0.25500000920E-02 0. -1.
       -2    1    3    3    0  502  0.94874551246E+03 -0.15127348623E+03  0.77171747073E+03  0.12322944330E+04  0.25500000920E-02 0.  1.
</event>
<event>
 5   0  0.7932912E-07  0.2300094E+04  0.7818609E-02  0.8477884E-01
       -1   -1    0    0    0  501  0.00000000000E+00  0.00000000000E+00  0.57431351714E+03  0.57431351716E+03  0.50400001928E-02 0.  1.
        1   -1    0    0  501    0  0.00000000000E+00  0.00000000000E+00 -0.23029378008E+04  0.23029378008E+04  0.50400001928E-02 0. -1.
    10030    2    1    2    0    0  0.00000000000E+00  0.00000000000E+00 -0.17286242837E+04  0.28772513180E+04  0.23000941791E+04 0.  0.
        5    1    3    3  502    0 -0.44427939771E+03  0.55753359160E+03  0.26454750875E+03  0.76041788733E+03  0.46999998093E+01 0.  1.
       -5    1    3    3    0  502  0.44427939771E+03 -0.55753359160E+03 -0.19931717924E+04  0.21168334307E+04  0.46999998093E+01 0. -1.
</event>
<event>
 5   0  0.8108242E-07  0.2297602E+04  0.7818609E-02  0.8478867E-01
        1   -1    0    0  501    0  0.00000000000E+00  0.00000000000E+00  0.58221649990E+03  0.58221649992E+03  0.50400001928E-02 0. -1.
       -1   -1    0    0    0  501  0.00000000000E+00  0.00000000000E+00 -0.22667579626E+04  0.22667579626E+04  0.50400001928E-02 0.  1.
    10030    2    1    2    0    0  0.00000000000E+00  0.00000000000E+00 -0.16845414627E+04  0.28489744626E+04  0.22976021302E+04 0.  0.
        4    1    3    3  502    0  0.13921509947E+03  0.29743101086E+03 -0.22073140931E+04  0.22316099948E+04  0.12699999809E+01 0.  1.
       -4    1    3    3    0  502 -0.13921509947E+03 -0.29743101086E+03  0.52277263038E+03  0.61736446781E+03  0.12699999809E+01 0. -1.
</event>
<event>
 5   0  0.1689444E-06  0.2299611E+04  0.7818609E-02  0.8478075E-01
       -2   -1    0    0    0  501  0.00000000000E+00  0.00000000000E+00  0.82778306331E+03  0.82778306331E+03  0.25500000920E-02 0.  1.
        2   -1    0    0  501    0  0.00000000000E+00  0.00000000000E+00 -0.15971000025E+04  0.15971000026E+04  0.25500000920E-02 0. -1.
    10030    2    1    2    0    0  0.00000000000E+00  0.00000000000E+00 -0.76931693924E+03  0.24248830659E+04  0.22996106910E+04 0.  0.
        2    1    3    3  502    0  0.93340813910E+03  0.88162219529E+02 -0.10865218116E+04  0.14351142736E+04  0.25500000920E-02 0. -1.
       -2    1    3    3    0  502 -0.93340813910E+03 -0.88162219529E+02  0.31720487239E+03  0.98976879227E+03  0.25500000920E-02 0.  1.
</event>
<event>
 5   0  0.7932912E-07  0.2300582E+04  0.7818609E-02  0.8477692E-01
       -1   -1    0    0    0  501  0.00000000000E+00  0.00000000000E+00  0.85814934402E+03  0.85814934403E+03  0.50400001928E-02 0. -1.
        1   -1    0    0  501    0  0.00000000000E+00  0.00000000000E+00 -0.15418873565E+04  0.15418873565E+04  0.50400001928E-02 0.  1.
    10030    2    1    2    0    0  0.00000000000E+00  0.00000000000E+00 -0.68373801249E+03  0.24000367006E+04  0.23005822077E+04 0.  0.
        5    1    3    3  502    0 -0.77538296920E+03  0.40414234031E+03 -0.11215729277E+04  0.14221454575E+04  0.46999998093E+01 0.  1.
       -5    1    3    3    0  502  0.77538296920E+03 -0.40414234031E+03  0.43783491526E+03  0.97789124301E+03  0.46999998093E+01 0. -1.
</event>
<event>
 5   0  0.8097672E-07  0.2302351E+04  0.7818609E-02  0.8476995E-01
       -1   -1    0    0    0  501  0.00000000000E+00  0.00000000000E+00  0.86143784361E+03  0.86143784363E+03  0.50400001928E-02 0.  1.
        1   -1    0    0  501    0  0.00000000000E+00  0.00000000000E+00 -0.15383637263E+04  0.15383637263E+04  0.50400001928E-02 0. -1.
    10030    2    1    2    0    0  0.00000000000E+00  0.00000000000E+00 -0.67692588265E+03  0.23998015699E+04  0.23023507388E+04 0.  0.
        3    1    3    3  502    0  0.97267340136E+03 -0.27860691865E+03 -0.91078415471E+03  0.13613387336E+04  0.10100000352E+00 0. -1.
       -3    1    3    3    0  502 -0.97267340136E+03  0.27860691865E+03  0.23385827206E+03  0.10384628363E+04  0.10100000352E+00 0.  1.
</event>
<event>
 5   0  0.8097672E-07  0.2299893E+04  0.7818609E-02  0.8477963E-01
        1   -1    0    0  501    0  0.00000000000E+00  0.00000000000E+00  0.18216614648E+04  0.18216614648E+04  0.50400001928E-02 0.  1.
       -1   -1    0    0    0  501  0.00000000000E+00  0.00000000000E+00 -0.72591823869E+03  0.72591823871E+03  0.50400001928E-02 0. -1.
    10030    2    1    2    0    0  0.00000000000E+00  0.00000000000E+00  0.10957432261E+04  0.25475797035E+04  0.22998932862E+04 0.  0.
        3    1    3    3  502    0 -0.64297540946E+03  0.51601531331E+03  0.14358864479E+04  0.16557352090E+04  0.10100000352E+00 0. -1.
       -3    1    3    3    0  502  0.64297540946E+03 -0.51601531331E+03 -0.34014322187E+03  0.89184449447E+03  0.10100000352E+00 0.  1.
</event>
<event>
 5   0  0.7607231E-07  0.2301245E+04  0.7818609E-02  0.8477430E-01
       -1   -1    0    0    0  501  0.00000000000E+00  0.00000000000E+00  0.11794485503E+04  0.11794485503E+04  0.50400001928E-02 0.  1.
        1   -1    0    0  501    0  0.00000000000E+00  0.00000000000E+00 -0.11225007972E+04  0.11225007972E+04  0.50400001928E-02 0. -1.
    10030    2    1    2    0    0  0.00000000000E+00  0.00000000000E+00  0.56947753087E+02  0.23019493476E+04  0.23012448267E+04 0.  0.
        2    1    3    3  502    0  0.95910559557E+03 -0.55442756866E+03  0.33946850401E+03  0.11586683467E+04  0.25500000920E-02 0.  1.
       -2    1    3    3    0  502 -0.95910559557E+03  0.55442756866E+03 -0.28252075092E+03  0.11432810009E+04  0.25500000920E-02 0. -1.
</event>
<event>
 5   0  0.1825521E-06  0.2298727E+04  0.7818609E-02  0.8478423E-01
        2   -1    0    0  501    0  0.00000000000E+00  0.00000000000E+00  0.13411541408E+04  0.13411541408E+04  0.25500000920E-02 0.  1.
       -2   -1    0    0    0  501  0.00000000000E+00  0.00000000000E+00 -0.98499947230E+03  0.98499947231E+03  0.25500000920E-02 0. -1.
    10030    2    1    2    0    0  0.00000000000E+00  0.00000000000E+00  0.35615466854E+03  0.23261536132E+04  0.22987267093E+04 0.  0.
        5    1    3    3  502    0  0.10237572281E+04  0.33466574483E+03 -0.22787492520E+03  0.11009219293E+04  0.46999998093E+01 0. -1.
       -5    1    3    3    0  502 -0.10237572281E+04 -0.33466574483E+03  0.58402959375E+03  0.12252316839E+04  0.46999998093E+01 0.  1.
</event>
<event>
 5   0  0.8108242E-07  0.2299163E+04  0.7818609E-02  0.8478251E-01
       -1   -1    0    0    0  501  0.00000000000E+00  0.00000000000E+00  0.15146803067E+04  0.15146803067E+04  0.50400001928E-02 0. -1.
        1   -1    0    0  501    0  0.00000000000E+00  0.00000000000E+00 -0.87248641436E+03  0.87248641438E+03  0.50400001928E-02 0.  1.
    10030    2    1    2    0    0  0.00000000000E+00  0.00000000000E+00  0.64219389236E+03  0.23871667211E+04  0.22991633172E+04 0.  0.
        4    1    3    3  502    0  0.38208257177E+03 -0.19690491684E+02  0.14466389839E+04  0.14963758785E+04  0.12699999809E+01 0. -1.
       -4    1    3    3    0  502 -0.38208257177E+03  0.19690491684E+02 -0.80444509153E+03  0.89079084262E+03  0.12699999809E+01 0.  1.
</event>
<event>
 5   0  0.8097672E-07  0.2295312E+04  0.7818609E-02  0.8479772E-01
        1   -1    0    0  501    0  0.00000000000E+00  0.00000000000E+00  0.14620032835E+04  0.14620032835E+04  0.50400001928E-02 0.  1.
       -1   -1    0    0    0  501  0.00000000000E+00  0.00000000000E+00 -0.90089677571E+03  0.90089677572E+03  0.50400001928E-02 0. -1.
    10030    2    1    2    0    0  0.00000000000E+00  0.00000000000E+00  0.56110650783E+03  0.23629000593E+04  0.22953117821E+04 0.  0.
        3    1    3    3  502    0 -0.75471655829E+03 -0.67178468016E+03  0.84084282365E+03  0.13144992979E+04  0.10100000352E+00 0.  1.
       -3    1    3    3    0  502  0.75471655829E+03  0.67178468016E+03 -0.27973631583E+03  0.10484007614E+04  0.10100000352E+00 0. -1.
</event>
<event>
 5   0  0.1689444E-06  0.2301735E+04  0.7818609E-02  0.8477237E-01
       -2   -1    0    0    0  501  0.00000000000E+00  0.00000000000E+00  0.56213527889E+03  0.56213527889E+03  0.25500000920E-02 0.  1.
        2   -1    0    0  501    0  0.00000000000E+00  0.00000000000E+00 -0.23561867209E+04  0.23561867209E+04  0.25500000920E-02 0. -1.
    10030    2    1    2    0    0  0.00000000000E+00  0.00000000000E+00 -0.17940514420E+04  0.29183219998E+04  0.23017347193E+04 0.  0.
        2    1    3    3  502    0  0.59251936449E+03  0.18801540830E+03 -0.21250156284E+04  0.22140732626E+04  0.25500000920E-02 0. -1.
       -2    1    3    3    0  502 -0.59251936449E+03 -0.18801540830E+03  0.33096418646E+03  0.70424873715E+03  0.25500000920E-02 0.  1.
</event>
<event>
 5   0  0.7607231E-07  0.2299681E+04  0.7818609E-02  0.8478047E-01
       -1   -1    0    0    0  501  0.00000000000E+00  0.00000000000E+00  0.13310202738E+04  0.13310202738E+04  0.50400001928E-02 0. -1.
        1   -1    0    0  501    0  0.00000000000E+00  0.00000000000E+00 -0.99332305255E+03  0.99332305257E+03  0.50400001928E-02 0.  1.
    10030    2    1    2    0    0  0.00000000000E+00  0.00000000000E+00  0.33769722121E+03  0.23243433263E+04  0.22996809530E+04 0.  0.
        2    1    3    3  502    0  0.55084594416E+03 -0.15953810827E+03  0.11761556248E+04  0.13085204300E+04  0.25500000920E-02 0. -1.
       -2    1    3    3    0  502 -0.55084594416E+03  0.15953810827E+03 -0.83845840354E+03  0.10158228963E+04  0.25500000920E-02 0.  1.
</event>
<event>
 5   0  0.1825521E-06  0.2299947E+04  0.7818609E-02  0.8477942E-01
        2   -1    0    0  501    0  0.00000000000E+00  0.00000000000E+00  0.11166199072E+04  0.11166199072E+04  0.25500000920E-02 0. -1.
       -2   -1    0    0    0  501  0.00000000000E+00  0.00000000000E+00 -0.11843230124E+04  0.11843230124E+04  0.25500000920E-02 0.  1.
    10030    2    1    2    0    0  0.00000000000E+00  0.00000000000E+00 -0.67703105225E+02  0.23009429196E+04  0.22999466535E+04 0.  0.
        5    1    3    3  502    0 -0.15859827871E+03  0.32348977643E+01  0.11056118241E+04  0.11169438098E+04  0.46999998093E+01 0. -1.
       -5    1    3    3    0  502  0.15859827871E+03 -0.32348977643E+01 -0.11733149294E+04  0.11839991098E+04  0.46999998093E+01 0.  1.
</event>
<event>
 5   0  0.7761069E-07  0.2299062E+04  0.7818609E-02  0.8478291E-01
        1   -1    0    0  501    0  0.00000000000E+00  0.00000000000E+00  0.24324518666E+04  0.24324518666E+04  0.50400001928E-02 0. -1.
       -1   -1    0    0    0  501  0.00000000000E+00  0.00000000000E+00 -0.54324678882E+03  0.54324678885E+03  0.50400001928E-02 0.  1.
    10030    2    1    2    0    0  0.00000000000E+00  0.00000000000E+00  0.18892050778E+04  0.29756986555E+04  0.22990621267E+04 0.  0.
        1    1    3    3  502    0  0.32086927128E+03  0.68154468747E+03  0.20684640600E+04  0.22013640812E+04  0.50400001928E-02 0. -1.
       -1    1    3    3    0  502 -0.32086927128E+03 -0.68154468747E+03 -0.17925898220E+03  0.77433457432E+03  0.50400001928E-02 0.  1.
</event>
<event>
 5   0  0.1828646E-06  0.2300356E+04  0.7818609E-02  0.8477781E-01
       -2   -1    0    0    0  501  0.00000000000E+00  0.00000000000E+00  0.11078784919E+04  0.11078784919E+04  0.25500000920E-02 0.  1.
        2   -1    0    0  501    0  0.00000000000E+00  0.00000000000E+00 -0.11940928348E+04  0.11940928348E+04  0.25500000920E-02 0. -1.
    10030    2    1    2    0    0  0.00000000000E+00  0.00000000000E+00 -0.86214342888E+02  0.23019713266E+04  0.23003562932E+04 0.  0.
        3    1    3    3  502    0  0.75748837031E+03  0.47692646485E+02 -0.90791674512E+03  0.11833748544E+04  0.10100000352E+00 0. -1.
       -3    1    3    3    0  502 -0.75748837031E+03 -0.47692646485E+02  0.82170240224E+03  0.11185964722E+04  0.10100000352E+00 0.  1.
</event>
<event>
 5   0  0.1825521E-06  0.2300387E+04  0.7818609E-02  0.8477768E-01
        2   -1    0    0  501    0  0.00000000000E+00  0.00000000000E+00  0.10442742127E+04  0.10442742127E+04  0.25500000920E-02 0.  1.
       -2   -1    0    0    0  501  0.00000000000E+00  0.00000000000E+00 -0.12668564413E+04  0.12668564413E+04  0.25500000920E-02 0. -1.
    10030    2    1    2    0    0  0.00000000000E+00  0.00000000000E+00 -0.22258222854E+03  0.23111306540E+04  0.23003873699E+04 0.  0.
        5    1    3    3  502    0 -0.28587089910E+02 -0.79726820970E+03  0.72111292529E+03  0.10753974897E+04  0.46999998093E+01 0.  1.
       -5    1    3    3    0  502  0.28587089910E+02  0.79726820970E+03 -0.94369515383E+03  0.12357331643E+04  0.46999998093E+01 0. -1.
</event>
<event>
 5   0  0.7761069E-07  0.2296968E+04  0.7818609E-02  0.8479118E-01
       -1   -1    0    0    0  501  0.00000000000E+00  0.00000000000E+00  0.12402018832E+04  0.12402018832E+04  0.50400001928E-02 0. -1.
        1   -1    0    0  501    0  0.00000000000E+00  0.00000000000E+00 -0.10635487883E+04  0.10635487883E+04  0.50400001928E-02 0.  1.
    10030    2    1    2    0    0  0.00000000000E+00  0.00000000000E+00  0.17665309497E+03  0.23037506715E+04  0.22969677491E+04 0.  0.
        1    1    3    3  502    0 -0.11466360249E+04 -0.65079279322E+02  0.90726067909E+02  0.11520593325E+04  0.50400001928E-02 0.  1.
       -1    1    3    3    0  502  0.11466360249E+04  0.65079279322E+02  0.85927027060E+02  0.11516913390E+04  0.50400001928E-02 0. -1.
</event>
<event>
 5   0  0.1689444E-06  0.2300412E+04  0.7818609E-02  0.8477759E-01
        2   -1    0    0  501    0  0.00000000000E+00  0.00000000000E+00  0.16141253559E+04  0.16141253559E+04  0.25500000920E-02 0. -1.
       -2   -1    0    0    0  501  0.00000000000E+00  0.00000000000E+00 -0.81962263635E+03  0.81962263636E+03  0.25500000920E-02 0.  1.
    10030    2    1    2    0    0  0.00000000000E+00  0.00000000000E+00  0.79450271955E+03  0.24337479923E+04  0.23004118584E+04 0.  0.
        2    1    3    3  502    0  0.13189204842E+03 -0.10592111159E+04 -0.56131868217E+02  0.10688659818E+04  0.25500000920E-02 0.  1.
       -2    1    3    3    0  502 -0.13189204842E+03  0.10592111159E+04  0.85063458777E+03  0.13648820104E+04  0.25500000920E-02 0. -1.
</event>
<event>
 5   0  0.1825521E-06  0.2300040E+04  0.7818609E-02  0.8477905E-01
        2   -1    0    0  501    0  0.00000000000E+00  0.00000000000E+00  0.18749861117E+04  0.18749861117E+04  0.25500000920E-02 0. -1.
       -2   -1    0    0    0  501  0.00000000000E+00  0.00000000000E+00 -0.70536331641E+03  0.70536331642E+03  0.25500000920E-02 0.  1.
    10030    2    1    2    0    0  0.00000000000E+00  0.00000000000E+00  0.11696227953E+04  0.25803494281E+04  0.23000403666E+04 0.  0.
        5    1    3    3  502    0  0.10718137230E+04 -0.22486005177E+03  0.19107189402E+03  0.11117001657E+04  0.46999998093E+01 0.  1.
       -5    1    3    3    0  502 -0.10718137230E+04  0.22486005177E+03  0.97855090126E+03  0.14686492624E+04  0.46999998093E+01 0. -1.
</event>
<event>
 5   0  0.7607231E-07  0.2302225E+04  0.7818609E-02  0.8477044E-01
        1   -1    0    0  501    0  0.00000000000E+00  0.00000000000E+00  0.12557903249E+04  0.12557903249E+04  0.50400001928E-02 0. -1.
       -1   -1    0    0    0  501  0.00000000000E+00  0.00000000000E+00 -0.10551603473E+04  0.10551603473E+04  0.50400001928E-02 0.  1.
    10030    2    1    2    0    0  0.00000000000E+00  0.00000000000E+00  0.20062997768E+03  0.23109506722E+04  0.23022251457E+04 0.  0.
        2    1    3    3  502    0  0.15927718839E+03 -0.35327385127E+03  0.11883458456E+04  0.12499349925E+04  0.25500000920E-02 0. -1.
       -2    1    3    3    0  502 -0.15927718839E+03  0.35327385127E+03 -0.98771586795E+03  0.10610156797E+04  0.25500000920E-02 0.  1.
</event>
<event>
 5   0  0.1825521E-06  0.2299225E+04  0.7818609E-02  0.8478227E-01
       -2   -1    0    0    0  501  0.00000000000E+00  0.00000000000E+00  0.11253754515E+04  0.11253754515E+04  0.25500000920E-02 0.  1.
        2   -1    0    0  501    0  0.00000000000E+00  0.00000000000E+00 -0.11743719112E+04  0.11743719112E+04  0.25500000920E-02 0. -1.
    10030    2    1    2    0    0  0.00000000000E+00  0.00000000000E+00 -0.48996459664E+02  0.22997473627E+04  0.22992253650E+04 0.  0.
        5    1    3    3  502    0  0.10221092064E+03  0.70856535500E+03 -0.92418857033E+03  0.11690417179E+04  0.46999998093E+01 0. -1.
       -5    1    3    3    0  502 -0.10221092064E+03 -0.70856535500E+03  0.87519211067E+03  0.11307056448E+04  0.46999998093E+01 0.  1.
</event>
<event>
 5   0  0.8108242E-07  0.2298288E+04  0.7818609E-02  0.8478596E-01
       -1   -1    0    0    0  501  0.00000000000E+00  0.00000000000E+00  0.95335442928E+03  0.95335442929E+03  0.50400001928E-02 0. -1.
        1   -1    0    0  501    0  0.00000000000E+00  0.00000000000E+00 -0.13851432889E+04  0.13851432889E+04  0.50400001928E-02 0.  1.
    10030    2    1    2    0    0  0.00000000000E+00  0.00000000000E+00 -0.43178885961E+03  0.23384977182E+04  0.22982884847E+04 0.  0.
        4    1    3    3  502    0  0.21509205138E+03 -0.21444782778E+03  0.91177243510E+03  0.96103228234E+03  0.12699999809E+01 0. -1.
       -4    1    3    3    0  502 -0.21509205138E+03  0.21444782778E+03 -0.13435612947E+04  0.13774654358E+04  0.12699999809E+01 0.  1.
</event>
<event>
 5   0  0.7932912E-07  0.2301120E+04  0.7818609E-02  0.8477480E-01
        1   -1    0    0  501    0  0.00000000000E+00  0.00000000000E+00  0.22336513268E+04  0.22336513268E+04  0.50400001928E-02 0. -1.
       -1   -1    0    0    0  501  0.00000000000E+00  0.00000000000E+00 -0.59265643029E+03  0.59265643031E+03  0.50400001928E-02 0.  1.
    10030    2    1    2    0    0  0.00000000000E+00  0.00000000000E+00  0.16409948965E+04  0.28263077571E+04  0.23011195726E+04 0.  0.
        5    1    3    3  502    0 -0.15593699150E+03 -0.10614621895E+04  0.31000886667E+03  0.11167568726E+04  0.46999998093E+01 0.  1.
       -5    1    3    3    0  502  0.15593699150E+03  0.10614621895E+04  0.13309860298E+04  0.17095508845E+04  0.46999998093E+01 0. -1.
</event>
<event>
 5   0  0.7932912E-07  0.2299308E+04  0.7818609E-02  0.8478194E-01
       -1   -1    0    0    0  501  0.00000000000E+00  0.00000000000E+00  0.15864316886E+04  0.15864316886E+04  0.50400001928E-02 0. -1.
        1   -1    0    0  501    0  0.00000000000E+00  0.00000000000E+00 -0.83313010297E+03  0.83313010299E+03  0.50400001928E-02 0.  1.
    10030    2    1    2    0    0  0.00000000000E+00  0.00000000000E+00  0.75330158562E+03  0.24195617916E+04  0.22993077185E+04 0.  0.
        5    1    3    3  502    0 -0.47234744035E+03  0.59571512853E+03 -0.53082813928E+03  0.92724819883E+03  0.46999998093E+01 0.  1.
       -5    1    3    3    0  502  0.47234744035E+03 -0.59571512853E+03  0.12841297249E+04  0.14923135928E+04  0.46999998093E+01 0. -1.
</event>
<event>
 5   0  0.7932912E-07  0.2299174E+04  0.7818609E-02  0.8478247E-01
       -1   -1    0    0    0  501  0.00000000000E+00  0.00000000000E+00  0.91799952349E+03  0.91799952350E+03  0.50400001928E-02 0.  1.
        1   -1    0    0  501    0  0.00000000000E+00  0.00000000000E+00 -0.14395983574E+04  0.14395983574E+04  0.50400001928E-02 0. -1.
    10030    2    1    2    0    0  0.00000000000E+00  0.00000000000E+00 -0.52159883388E+03  0.23575978809E+04  0.22991742919E+04 0.  0.
        5    1    3    3  502    0  0.68168911132E+03 -0.72725555746E+03  0.32640183451E+03  0.10488855695E+04  0.46999998093E+01 0.  1.
       -5    1    3    3    0  502 -0.68168911132E+03  0.72725555746E+03 -0.84800066839E+03  0.13087123114E+04  0.46999998093E+01 0. -1.
</event>
<event>
 5   0  0.1828646E-06  0.2299982E+04  0.7818609E-02  0.8477928E-01
       -2   -1    0    0    0  501  0.00000000000E+00  0.00000000000E+00  0.88552265321E+03  0.88552265321E+03  0.25500000920E-02 0.  1.
        2   -1    0    0  501    0  0.00000000000E+00  0.00000000000E+00 -0.14934447831E+04  0.14934447831E+04  0.25500000920E-02 0. -1.
    10030    2    1    2    0    0  0.00000000000E+00  0.00000000000E+00 -0.60792212992E+03  0.23789674364E+04  0.22999819015E+04 0.  0.
        3    1    3    3  502    0  0.11249606672E+04 -0.45672933539E+02 -0.61702718887E+02  0.11275769398E+04  0.10100000352E+00 0.  1.
       -3    1    3    3    0  502 -0.11249606672E+04  0.45672933539E+02 -0.54621941104E+03  0.12513904965E+04  0.10100000352E+00 0. -1.
</event>
<event>
 5   0  0.7932912E-07  0.2299026E+04  0.7818609E-02  0.8478305E-01
        1   -1    0    0  501    0  0.00000000000E+00  0.00000000000E+00  0.14440756534E+04  0.14440756534E+04  0.50400001928E-02 0.  1.
       -1   -1    0    0    0  501  0.00000000000E+00  0.00000000000E+00 -0.91503494324E+03  0.91503494326E+03  0.50400001928E-02 0. -1.
    10030    2    1    2    0    0  0.00000000000E+00  0.00000000000E+00  0.52904071014E+03  0.23591105966E+04  0.22990256054E+04 0.  0.
        5    1    3    3  502    0  0.17365029087E+03  0.85600595016E+03  0.10313508161E+04  0.13515203313E+04  0.46999998093E+01 0.  1.
       -5    1    3    3    0  502 -0.17365029087E+03 -0.85600595016E+03 -0.50231010592E+03  0.10075902653E+04  0.46999998093E+01 0. -1.
</event>
<event>
 5   0  0.7932912E-07  0.2299454E+04  0.7818609E-02  0.8478136E-01
        1   -1    0    0  501    0  0.00000000000E+00  0.00000000000E+00  0.18428989825E+04  0.18428989825E+04  0.50400001928E-02 0.  1.
       -1   -1    0    0    0  501  0.00000000000E+00  0.00000000000E+00 -0.71727878056E+03  0.71727878057E+03  0.50400001928E-02 0. -1.
    10030    2    1    2    0    0  0.00000000000E+00  0.00000000000E+00  0.11256202020E+04  0.25601777631E+04  0.22994541395E+04 0.  0.
        5    1    3    3  502    0  0.17439748890E+03  0.34686179507E+03 -0.64207756884E+03  0.75034211092E+03  0.46999998093E+01 0. -1.
       -5    1    3    3    0  502 -0.17439748890E+03 -0.34686179507E+03  0.17676977708E+04  0.18098356522E+04  0.46999998093E+01 0.  1.
</event>
<event>
 5   0  0.1828646E-06  0.2299576E+04  0.7818609E-02  0.8478088E-01
       -2   -1    0    0    0  501  0.00000000000E+00  0.00000000000E+00  0.11968774727E+04  0.11968774727E+04  0.25500000920E-02 0. -1.
        2   -1    0    0  501    0  0.00000000000E+00  0.00000000000E+00 -0.11045515576E+04  0.11045515576E+04  0.25500000920E-02 0.  1.
    10030    2    1    2    0    0  0.00000000000E+00  0.00000000000E+00  0.92325915101E+02  0.23014290303E+04  0.22995763755E+04 0.  0.
        3    1    3    3  502    0 -0.78625778162E+03  0.78533487625E+03  0.34146117465E+03  0.11625609279E+04  0.10100000352E+00 0.  1.
       -3    1    3    3    0  502  0.78625778162E+03 -0.78533487625E+03 -0.24913525955E+03  0.11388681024E+04  0.10100000352E+00 0. -1.
</event>
<event>
 5   0  0.1744876E-06  0.2300992E+04  0.7818609E-02  0.8477530E-01
       -2   -1    0    0    0  501  0.00000000000E+00  0.00000000000E+00  0.71002198376E+03  0.71002198376E+03  0.25500000920E-02 0. -1.
        2   -1    0    0  501    0  0.00000000000E+00  0.00000000000E+00 -0.18642256432E+04  0.18642256432E+04  0.25500000920E-02 0.  1.
    10030    2    1    2    0    0  0.00000000000E+00  0.00000000000E+00 -0.11542036594E+04  0.25742476269E+04  0.23009921246E+04 0.  0.
        1    1    3    3  502    0  0.55966901363E+03 -0.60975982709E+03 -0.14711301102E+04  0.16879751932E+04  0.50400001928E-02 0.  1.
       -1    1    3    3    0  502 -0.55966901363E+03  0.60975982709E+03  0.31692645082E+03  0.88627243374E+03  0.50400001928E-02 0. -1.
</event>
<event>
 5   0  0.1888779E-06  0.2300370E+04  0.7818609E-02  0.8477775E-01
       -2   -1    0    0    0  501  0.00000000000E+00  0.00000000000E+00  0.72932616963E+03  0.72932616963E+03  0.25500000920E-02 0.  1.
        2   -1    0    0  501    0  0.00000000000E+00  0.00000000000E+00 -0.18139009804E+04  0.18139009804E+04  0.25500000920E-02 0. -1.
    10030    2    1    2    0    0  0.00000000000E+00  0.00000000000E+00 -0.10845748108E+04  0.25432271501E+04  0.23003699304E+04 0.  0.
        4    1    3    3  502    0  0.51597749980E+03 -0.77879871030E+03  0.19948841266E+03  0.95527872956E+03  0.12699999809E+01 0.  1.
       -4    1    3    3    0  502 -0.51597749980E+03  0.77879871030E+03 -0.12840632235E+04  0.15879484205E+04  0.12699999809E+01 0. -1.
</event>
<event>
 5   0  0.7607231E-07  0.2300101E+04  0.7818609E-02  0.8477881E-01
        1   -1    0    0  501    0  0.00000000000E+00  0.00000000000E+00  0.25733498135E+04  0.25733498135E+04  0.50400001928E-02 0. -1.
       -1   -1    0    0    0  501  0.00000000000E+00  0.00000000000E+00 -0.51396681284E+03  0.51396681287E+03  0.50400001928E-02 0.  1.
    10030    2    1    2    0    0  0.00000000000E+00  0.00000000000E+00  0.20593830006E+04  0.30873166263E+04  0.23001012169E+04 0.  0.
        2    1    3    3  502    0 -0.67667194938E+03 -0.83773889945E+03  0.15714779062E+04  0.19050549075E+04  0.25500000920E-02 0.  1.
       -2    1    3    3    0  502  0.67667194938E+03  0.83773889945E+03  0.48790509440E+03  0.11822617189E+04  0.25500000920E-02 0. -1.
</event>
<event>
 5   0  0.1825521E-06  0.2300148E+04  0.7818609E-02  0.8477863E-01
       -2   -1    0    0    0  501  0.00000000000E+00  0.00000000000E+00  0.63247612961E+03  0.63247612962E+03  0.25500000920E-02 0. -1.
        2   -1    0    0  501    0  0.00000000000E+00  0.00000000000E+00 -0.20912573666E+04  0.20912573666E+04  0.25500000920E-02 0.  1.
    10030    2    1    2    0    0  0.00000000000E+00  0.00000000000E+00 -0.14587812369E+04  0.27237334962E+04  0.23001481389E+04 0.  0.
        5    1    3    3  502    0 -0.43600672140E+03  0.82757166273E+03 -0.15216886112E+04  0.17862068855E+04  0.46999998093E+01 0.  1.
       -5    1    3    3    0  502  0.43600672140E+03 -0.82757166273E+03  0.62907374297E+02  0.93752661072E+03  0.46999998093E+01 0. -1.
</event>
<event>
 5   0  0.8108242E-07  0.2299567E+04  0.7818609E-02  0.8478092E-01
        1   -1    0    0  501    0  0.00000000000E+00  0.00000000000E+00  0.12700609448E+04  0.12700609448E+04  0.50400001928E-02 0.  1.
       -1   -1    0    0    0  501  0.00000000000E+00  0.00000000000E+00 -0.10408967965E+04  0.10408967965E+04  0.50400001928E-02 0. -1.
    10030    2    1    2    0    0  0.00000000000E+00  0.00000000000E+00  0.22916414831E+03  0.23109577414E+04  0.22995672366E+04 0.  0.
        4    1    3    3  502    0 -0.39277442185E+03 -0.23735814129E+03 -0.94486473648E+03  0.10504197336E+04  0.12699999809E+01 0. -1.
       -4    1    3    3    0  502  0.39277442185E+03  0.23735814129E+03  0.11740288848E+04  0.12605380077E+04  0.12699999809E+01 0.  1.
</event>
<event>
 5   0  0.1744876E-06  0.2301744E+04  0.7818609E-02  0.8477234E-01
       -2   -1    0    0    0  501  0.00000000000E+00  0.00000000000E+00  0.24376544554E+04  0.24376544554E+04  0.25500000920E-02 0. -1.
        2   -1    0    0  501    0  0.00000000000E+00  0.00000000000E+00 -0.54335269905E+03  0.54335269905E+03  0.25500000920E-02 0.  1.
    10030    2    1    2    0    0  0.00000000000E+00  0.00000000000E+00  0.18943017564E+04  0.29810071545E+04  0.23017437978E+04 0.  0.
        1    1    3    3  502    0 -0.50620939220E+03  0.66324774837E+03  0.19737727458E+04  0.21428775925E+04  0.50400001928E-02 0. -1.
       -1    1    3    3    0  502  0.50620939220E+03 -0.66324774837E+03 -0.79470989403E+02  0.83812956197E+03  0.50400001928E-02 0.  1.
</event>
<event>
 5   0  0.1825521E-06  0.2301842E+04  0.7818609E-02  0.8477195E-01
       -2   -1    0    0    0  501  0.00000000000E+00  0.00000000000E+00  0.83675873424E+03  0.83675873425E+03  0.25500000920E-02 0. -1.
        2   -1    0    0  501    0  0.00000000000E+00  0.00000000000E+00 -0.15830358461E+04  0.15830358461E+04  0.25500000920E-02 0.  1.
    10030    2    1    2    0    0  0.00000000000E+00  0.00000000000E+00 -0.74627711184E+03  0.24197945803E+04  0.23018419327E+04 0.  0.
        5    1    3    3  502    0 -0.32027934802E+03  0.10641004461E+04 -0.68799998528E+03  0.13070021767E+04  0.46999998093E+01 0.  1.
       -5    1    3    3    0  502  0.32027934802E+03 -0.10641004461E+04 -0.58277126568E+02  0.11127924036E+04  0.46999998093E+01 0. -1.
</event>
<event>
 5   0  0.1689444E-06  0.2299803E+04  0.7818609E-02  0.8477999E-01
        2   -1    0    0  501    0  0.00000000000E+00  0.00000000000E+00  0.96380018925E+03  0.96380018926E+03  0.25500000920E-02 0.  1.
       -2   -1    0    0    0  501  0.00000000000E+00  0.00000000000E+00 -0.13719376726E+04  0.13719376726E+04  0.25500000920E-02 0. -1.
    10030    2    1    2    0    0  0.00000000000E+00  0.00000000000E+00 -0.40813748333E+03  0.23357378618E+04  0.22998032859E+04 0.  0.
        2    1    3    3  502    0  0.15270761313E+03  0.11008087827E+04 -0.50393485404E+03  0.12202663349E+04  0.25500000920E-02 0.  1.
       -2    1    3    3    0  502 -0.15270761313E+03 -0.11008087827E+04  0.95797370704E+02  0.11154715269E+04  0.25500000920E-02 0. -1.
</event>
<event>
 5   0  0.7761069E-07  0.2299346E+04  0.7818609E-02  0.8478179E-01
        1   -1    0    0  501    0  0.00000000000E+00  0.00000000000E+00  0.10341547783E+04  0.10341547783E+04  0.50400001928E-02 0.  1.
       -1   -1    0    0    0  501  0.00000000000E+00  0.00000000000E+00 -0.12780945041E+04  0.12780945041E+04  0.50400001928E-02 0. -1.
    10030    2    1    2    0    0  0.00000000000E+00  0.00000000000E+00 -0.24393972580E+03  0.23122492825E+04  0.22993455927E+04 0.  0.
        1    1    3    3  502    0 -0.25081277340E+03 -0.50214563352E+03  0.88700032568E+03  0.10496794093E+04  0.50400001928E-02 0.  1.
       -1    1    3    3    0  502  0.25081277340E+03  0.50214563352E+03 -0.11309400515E+04  0.12625698732E+04  0.50400001928E-02 0. -1.
</event>
<event>
 5   0  0.8108242E-07  0.2300044E+04  0.7818609E-02  0.8477904E-01
       -1   -1    0    0    0  501  0.00000000000E+00  0.00000000000E+00  0.79604023570E+03  0.79604023572E+03  0.50400001928E-02 0.  1.
        1   -1    0    0  501    0  0.00000000000E+00  0.00000000000E+00 -0.16614113770E+04  0.16614113770E+04  0.50400001928E-02 0. -1.
    10030    2    1    2    0    0  0.00000000000E+00  0.00000000000E+00 -0.86537114128E+03  0.24574516127E+04  0.23000437423E+04 0.  0.
        4    1    3    3  502    0 -0.20454455233E+03 -0.96727166733E+03 -0.10603372255E+04  0.14497481150E+04  0.12699999809E+01 0. -1.
       -4    1    3    3    0  502  0.20454455233E+03  0.96727166733E+03  0.19496608425E+03  0.10077034977E+04  0.12699999809E+01 0.  1.
</event>
<event>
 5   0  0.1689444E-06  0.2301287E+04  0.7818609E-02  0.8477414E-01
        2   -1    0    0  501    0  0.00000000000E+00  0.00000000000E+00  0.19949398287E+04  0.19949398287E+04  0.25500000920E-02 0. -1.
       -2   -1    0    0    0  501  0.00000000000E+00  0.00000000000E+00 -0.66366916773E+03  0.66366916774E+03  0.25500000920E-02 0.  1.
    10030    2    1    2    0    0  0.00000000000E+00  0.00000000000E+00  0.13312706610E+04  0.26586089964E+04  0.23012866452E+04 0.  0.
        2    1    3    3  502    0  0.61826747003E+03 -0.61093670550E+03  0.15366831741E+04  0.17654725997E+04  0.25500000920E-02 0. -1.
       -2    1    3    3    0  502 -0.61826747003E+03  0.61093670550E+03 -0.20541251316E+03  0.89313639675E+03  0.25500000920E-02 0.  1.
</event>
<event>
 5   0  0.1825521E-06  0.2300260E+04  0.7818609E-02  0.8477819E-01
       -2   -1    0    0    0  501  0.00000000000E+00  0.00000000000E+00  0.86172606596E+03  0.86172606597E+03  0.25500000920E-02 0.  1.
        2   -1    0    0  501    0  0.00000000000E+00  0.00000000000E+00 -0.15350569095E+04  0.15350569095E+04  0.25500000920E-02 0. -1.
    10030    2    1    2    0    0  0.00000000000E+00  0.00000000000E+00 -0.67333084352E+03  0.23967829755E+04  0.23002595955E+04 0.  0.
        5    1    3    3  502    0 -0.29738912329E+03  0.70842575669E+03  0.55509156306E+03  0.94786922978E+03  0.46999998093E+01 0.  1.
       -5    1    3    3    0  502  0.29738912329E+03 -0.70842575669E+03 -0.12284224066E+04  0.14489137457E+04  0.46999998093E+01 0. -1.
</event>
<event>
 5   0  0.8108242E-07  0.2299539E+04  0.7818609E-02  0.8478103E-01
        1   -1    0    0  501    0  0.00000000000E+00  0.00000000000E+00  0.10853126997E+04  0.10853126997E+04  0.50400001928E-02 0. -1.
       -1   -1    0    0    0  501  0.00000000000E+00  0.00000000000E+00 -0.12180546038E+04  0.12180546038E+04  0.50400001928E-02 0.  1.
    10030    2    1    2    0    0  0.00000000000E+00  0.00000000000E+00 -0.13274190414E+03  0.23033673035E+04  0.22995391977E+04 0.  0.
        4    1    3    3  502    0  0.10915942732E+04  0.29680367570E+03  0.13963629322E+03  0.11398115574E+04  0.12699999809E+01 0. -1.
       -4    1    3    3    0  502 -0.10915942732E+04 -0.29680367570E+03 -0.27237819736E+03  0.11635557461E+04  0.12699999809E+01 0.  1.
</event>
<event>
 5   0  0.7607231E-07  0.2301146E+04  0.7818609E-02  0.8477469E-01
        1   -1    0    0  501    0  0.00000000000E+00  0.00000000000E+00  0.16735250367E+04  0.16735250367E+04  0.50400001928E-02 0.  1.
       -1   -1    0    0    0  501  0.00000000000E+00  0.00000000000E+00 -0.79103590107E+03  0.79103590109E+03  0.50400001928E-02 0. -1.
    10030    2    1    2    0    0  0.00000000000E+00  0.00000000000E+00  0.88248913567E+03  0.24645609378E+04  0.23011461365E+04 0.  0.
        2    1    3    3  502    0 -0.30540845473E+03 -0.61619583271E+03 -0.54667374270E+03  0.87853503597E+03  0.25500000920E-02 0. -1.
       -2    1    3    3    0  502  0.30540845473E+03  0.61619583271E+03  0.14291628784E+04  0.15860259019E+04  0.25500000920E-02 0.  1.
</event>
<event>
 5   0  0.1888779E-06  0.2300006E+04  0.7818609E-02  0.8477919E-01
        2   -1    0    0  501    0  0.00000000000E+00  0.00000000000E+00  0.13821192882E+04  0.13821192882E+04  0.25500000920E-02 0.  1.
       -2   -1    0    0    0  501  0.00000000000E+00  0.00000000000E+00 -0.95686917012E+03  0.95686917012E+03  0.25500000920E-02 0. -1.
    10030    2    1    2    0    0  0.00000000000E+00  0.00000000000E+00  0.42525011804E+03  0.23389884583E+04  0.23000063794E+04 0.  0.
        4    1    3    3  502    0  0.32890740910E+03  0.92313400974E+03 -0.39936282907E+03  0.10582290706E+04  0.12699999809E+01 0. -1.
       -4    1    3    3    0  502 -0.32890740910E+03 -0.92313400974E+03  0.82461294712E+03  0.12807593877E+04  0.12699999809E+01 0.  1.
</event>
<event>
 5   0  0.7932912E-07  0.2299675E+04  0.7818609E-02  0.8478049E-01
       -1   -1    0    0    0  501  0.00000000000E+00  0.00000000000E+00  0.10969315315E+04  0.10969315315E+04  0.50400001928E-02 0. -1.
        1   -1    0    0  501    0  0.00000000000E+00  0.00000000000E+00 -0.12052956634E+04  0.12052956634E+04  0.50400001928E-02 0.  1.
    10030    2    1    2    0    0  0.00000000000E+00  0.00000000000E+00 -0.10836413195E+03  0.23022271949E+04  0.22996754710E+04 0.  0.
        5    1    3    3  502    0  0.58303349399E+03 -0.55284269465E+02  0.93642098023E+03  0.11044866445E+04  0.46999998093E+01 0. -1.
       -5    1    3    3    0  502 -0.58303349399E+03  0.55284269465E+02 -0.10447851122E+04  0.11977405504E+04  0.46999998093E+01 0.  1.
</event>
<event>
 5   0  0.1888779E-06  0.2299454E+04  0.7818609E-02  0.8478136E-01
        2   -1    0    0  501    0  0.00000000000E+00  0.00000000000E+00  0.15649469633E+04  0.15649469633E+04  0.25500000920E-02 0. -1.
       -2   -1    0    0    0  501  0.00000000000E+00  0.00000000000E+00 -0.84467537033E+03  0.84467537034E+03  0.25500000920E-02 0.  1.
    10030    2    1    2    0    0  0.00000000000E+00  0.00000000000E+00  0.72027159294E+03  0.24096223336E+04  0.22994539837E+04 0.  0.
        4    1    3    3  502    0 -0.12879820076E+03 -0.31955447214E+03  0.15095779593E+04  0.15483963528E+04  0.12699999809E+01 0. -1.
       -4    1    3    3    0  502  0.12879820076E+03  0.31955447214E+03 -0.78930636636E+03  0.86122598084E+03  0.12699999809E+01 0.  1.
</event>
<event>
 5   0  0.1888779E-06  0.2301042E+04  0.7818609E-02  0.8477510E-01
        2   -1    0    0  501    0  0.00000000000E+00  0.00000000000E+00  0.70430047640E+03  0.70430047641E+03  0.25500000920E-02 0. -1.
       -2   -1    0    0    0  501  0.00000000000E+00  0.00000000000E+00 -0.18794513791E+04  0.18794513791E+04  0.25500000920E-02 0.  1.
    10030    2    1    2    0    0  0.00000000000E+00  0.00000000000E+00 -0.11751509027E+04  0.25837518555E+04  0.23010419394E+04 0.  0.
        4    1    3    3  502    0 -0.10994847069E+04  0.33392825173E+03 -0.52285544599E+03  0.12624397524E+04  0.12699999809E+01 0. -1.
       -4    1    3    3    0  502  0.10994847069E+04 -0.33392825173E+03 -0.65229545673E+03  0.13213121031E+04  0.12699999809E+01 0.  1.
</event>
<event>
 5   0  0.1828646E-06  0.2299334E+04  0.7818609E-02  0.8478184E-01
       -2   -1    0    0    0  501  0.00000000000E+00  0.00000000000E+00  0.75154473936E+03  0.75154473936E+03  0.25500000920E-02 0.  1.
        2   -1    0    0  501    0  0.00000000000E+00  0.00000000000E+00 -0.17586892929E+04  0.17586892929E+04  0.25500000920E-02 0. -1.
    10030    2    1    2    0    0  0.00000000000E+00  0.00000000000E+00 -0.10071445535E+04  0.25102340322E+04  0.22993335436E+04 0.  0.
        3    1    3    3  502    0  0.36022438348E+03 -0.31608881341E+03 -0.16444404757E+04  0.17128509079E+04  0.10100000352E+00 0. -1.
       -3    1    3    3    0  502 -0.36022438348E+03  0.31608881341E+03  0.63729592215E+03  0.79738312436E+03  0.10100000352E+00 0.  1.
</event>
<event>
 5   0  0.7607231E-07  0.2301762E+04  0.7818609E-02  0.8477227E-01
        1   -1    0    0  501    0  0.00000000000E+00  0.00000000000E+00  0.16957646438E+04  0.16957646438E+04  0.50400001928E-02 0.  1.
       -1   -1    0    0    0  501  0.00000000000E+00  0.00000000000E+00 -0.78107950787E+03  0.78107950788E+03  0.50400001928E-02 0. -1.
    10030    2    1    2    0    0  0.00000000000E+00  0.00000000000E+00  0.91468513593E+03  0.24768441517E+04  0.23017619455E+04 0.  0.
        2    1    3    3  502    0  0.90085011553E+03 -0.17218602393E+03  0.12054573966E+04  0.15146968319E+04  0.25500000920E-02 0.  1.
       -2    1    3    3    0  502 -0.90085011553E+03  0.17218602393E+03 -0.29077226064E+03  0.96214731983E+03  0.25500000920E-02 0. -1.
</event>
<event>
 5   0  0.8108242E-07  0.2299237E+04  0.7818609E-02  0.8478222E-01
       -1   -1    0    0    0  501  0.00000000000E+00  0.00000000000E+00  0.16911341814E+04  0.16911341814E+04  0.50400001928E-02 0. -1.
        1   -1    0    0  501    0  0.00000000000E+00  0.00000000000E+00 -0.78150087788E+03  0.78150087789E+03  0.50400001928E-02 0.  1.
    10030    2    1    2    0    0  0.00000000000E+00  0.00000000000E+00  0.90963330353E+03  0.24726350593E+04  0.22992371321E+04 0.  0.
        4    1    3    3  502    0 -0.24110803051E+03 -0.42984851021E+03 -0.66212452973E+03  0.82541706420E+03  0.12699999809E+01 0.  1.
       -4    1    3    3    0  502  0.24110803051E+03  0.42984851021E+03  0.15717578333E+04  0.16472179951E+04  0.12699999809E+01 0. -1.
</event>
<event>
 5   0  0.7932912E-07  0.2298002E+04  0.7818609E-02  0.8478709E-01
       -1   -1    0    0    0  501  0.00000000000E+00  0.00000000000E+00  0.76409166157E+03  0.76409166159E+03  0.50400001928E-02 0. -1.
        1   -1    0    0  501    0  0.00000000000E+00  0.00000000000E+00 -0.17278080774E+04  0.17278080774E+04  0.50400001928E-02 0.  1.
    10030    2    1    2    0    0  0.00000000000E+00  0.00000000000E+00 -0.96371641578E+03  0.24918997390E+04  0.22980023888E+04 0.  0.
        5    1    3    3  502    0  0.36037074832E+02 -0.35222019678E+03  0.70345204886E+03  0.78754340377E+03  0.46999998093E+01 0. -1.
       -5    1    3    3    0  502 -0.36037074832E+02  0.35222019678E+03 -0.16671684646E+04  0.17043563352E+04  0.46999998093E+01 0.  1.
</event>
<event>
 5   0  0.1744876E-06  0.2299047E+04  0.7818609E-02  0.8478297E-01
       -2   -1    0    0    0  501  0.00000000000E+00  0.00000000000E+00  0.10202168630E+04  0.10202168630E+04  0.25500000920E-02 0. -1.
        2   -1    0    0  501    0  0.00000000000E+00  0.00000000000E+00 -0.12952185131E+04  0.12952185131E+04  0.25500000920E-02 0.  1.
    10030    2    1    2    0    0  0.00000000000E+00  0.00000000000E+00 -0.27500165008E+03  0.23154353761E+04  0.22990465575E+04 0.  0.
        1    1    3    3  502    0  0.42861593089E+03 -0.89638171712E+03 -0.71971517176E+03  0.12268666299E+04  0.50400001928E-02 0. -1.
       -1    1    3    3    0  502 -0.42861593089E+03  0.89638171712E+03  0.44471352167E+03  0.10885687463E+04  0.50400001928E-02 0.  1.
</event>
<event>
 5   0  0.1825521E-06  0.2299752E+04  0.7818609E-02  0.8478019E-01
       -2   -1    0    0    0  501  0.00000000000E+00  0.00000000000E+00  0.21556595188E+04  0.21556595188E+04  0.25500000920E-02 0. -1.
        2   -1    0    0  501    0  0.00000000000E+00  0.00000000000E+00 -0.61336898873E+03  0.61336898873E+03  0.25500000920E-02 0.  1.
    10030    2    1    2    0    0  0.00000000000E+00  0.00000000000E+00  0.15422905300E+04  0.27690285075E+04  0.22997518989E+04 0.  0.
        5    1    3    3  502    0 -0.44787506997E+03 -0.30405461958E+03  0.19926244153E+04  0.20648524016E+04  0.46999998093E+01 0. -1.
       -5    1    3    3    0  502  0.44787506997E+03  0.30405461958E+03 -0.45033388522E+03  0.70417610593E+03  0.46999998093E+01 0.  1.
</event>
<event>
 5   0  0.1888779E-06  0.2297957E+04  0.7818609E-02  0.8478727E-01
       -2   -1    0    0    0  501  0.00000000000E+00  0.00000000000E+00  0.12350359113E+04  0.12350359113E+04  0.25500000920E-02 0.  1.
        2   -1    0    0  501    0  0.00000000000E+00  0.00000000000E+00 -0.10689176499E+04  0.10689176499E+04  0.25500000920E-02 0. -1.
    10030    2    1    2    0    0  0.00000000000E+00  0.00000000000E+00  0.16611826140E+03  0.23039535612E+04  0.22979570787E+04 0.  0.
        4    1    3    3  502    0  0.74211717316E+03 -0.74805496255E+03  0.54232207171E+03  0.11850902784E+04  0.12699999809E+01 0.  1.
       -4    1    3    3    0  502 -0.74211717316E+03  0.74805496255E+03 -0.37620381031E+03  0.11188632827E+04  0.12699999809E+01 0. -1.
</event>
<event>
 5   0  0.7932912E-07  0.2297382E+04  0.7818609E-02  0.8478954E-01
        1   -1    0    0  501    0  0.00000000000E+00  0.00000000000E+00  0.85166731443E+03  0.85166731445E+03  0.50400001928E-02 0. -1.
       -1   -1    0    0    0  501  0.00000000000E+00  0.00000000000E+00 -0.15493032348E+04  0.15493032348E+04  0.50400001928E-02 0.  1.
    10030    2    1    2    0    0  0.00000000000E+00  0.00000000000E+00 -0.69763592037E+03  0.24009705493E+04  0.22973819232E+04 0.  0.
        5    1    3    3  502    0  0.17177260291E+03 -0.49695946363E+02  0.83702212234E+03  0.85592268195E+03  0.46999998093E+01 0. -1.
       -5    1    3    3    0  502 -0.17177260291E+03  0.49695946363E+02 -0.15346580427E+04  0.15450478673E+04  0.46999998093E+01 0.  1.
</event>
<event>
 5   0  0.7761069E-07  0.2299902E+04  0.7818609E-02  0.8477960E-01
       -1   -1    0    0    0  501  0.00000000000E+00  0.00000000000E+00  0.89371573231E+03  0.89371573233E+03  0.50400001928E-02 0.  1.
        1   -1    0    0  501    0  0.00000000000E+00  0.00000000000E+00 -0.14796514581E+04  0.14796514581E+04  0.50400001928E-02 0. -1.
    10030    2    1    2    0    0  0.00000000000E+00  0.00000000000E+00 -0.58593572578E+03  0.23733671904E+04  0.22999024209E+04 0.  0.
        1    1    3    3  502    0 -0.75701563222E+03 -0.16255928419E+03 -0.11703555022E+04  0.14032926245E+04  0.50400001928E-02 0. -1.
       -1    1    3    3    0  502  0.75701563222E+03  0.16255928419E+03  0.58441977647E+03  0.97007456593E+03  0.50400001928E-02 0.  1.
</event>
<event>
 5   0  0.7607231E-07  0.2299916E+04  0.7818609E-02  0.8477954E-01
       -1   -1    0    0    0  501  0.00000000000E+00  0.00000000000E+00  0.10305157148E+04  0.10305157148E+04  0.50400001928E-02 0.  1.
        1   -1    0    0  501    0  0.00000000000E+00  0.00000000000E+00 -0.12832440153E+04  0.12832440153E+04  0.50400001928E-02 0. -1.
    10030    2    1    2    0    0  0.00000000000E+00  0.00000000000E+00 -0.25272830049E+03  0.23137597301E+04  0.22999157582E+04 0.  0.
        2    1    3    3  502    0 -0.63290006048E+03 -0.65949235221E+03 -0.82835408931E+03  0.12335571111E+04  0.25500000920E-02 0. -1.
       -2    1    3    3    0  502  0.63290006048E+03  0.65949235221E+03  0.57562578882E+03  0.10802026189E+04  0.25500000920E-02 0.  1.
</event>
<event>
 5   0  0.7607231E-07  0.2299994E+04  0.7818609E-02  0.8477924E-01
       -1   -1    0    0    0  501  0.00000000000E+00  0.00000000000E+00  0.10569617701E+04  0.10569617701E+04  0.50400001928E-02 0. -1.
        1   -1    0    0  501    0  0.00000000000E+00  0.00000000000E+00 -0.12512210329E+04  0.12512210329E+04  0.50400001928E-02 0.  1.
    10030    2    1    2    0    0  0.00000000000E+00  0.00000000000E+00 -0.19425926277E+03  0.23081828030E+04  0.22999937371E+04 0.  0.
        2    1    3    3  502    0 -0.94060101446E+03  0.61706736849E+03 -0.33670621631E+03  0.11742544366E+04  0.25500000920E-02 0.  1.
       -2    1    3    3    0  502  0.94060101446E+03 -0.61706736849E+03  0.14244695354E+03  0.11339283664E+04  0.25500000920E-02 0. -1.
</event>
<event>
 5   0  0.8097672E-07  0.2299991E+04  0.7818609E-02  0.8477925E-01
        1   -1    0    0  501    0  0.00000000000E+00  0.00000000000E+00  0.18405577623E+04  0.18405577623E+04  0.50400001928E-02 0. -1.
       -1   -1    0    0    0  501  0.00000000000E+00  0.00000000000E+00 -0.71852666286E+03  0.71852666288E+03  0.50400001928E-02 0.  1.
    10030    2    1    2    0    0  0.00000000000E+00  0.00000000000E+00  0.11220310995E+04  0.25590844252E+04  0.22999911537E+04 0.  0.
        3    1    3    3  502    0  0.70179626067E+03  0.29396880595E+03  0.15204487743E+04  0.17002059098E+04  0.10100000352E+00 0. -1.
       -3    1    3    3    0  502 -0.70179626067E+03 -0.29396880595E+03 -0.39841767484E+03  0.85887851538E+03  0.10100000352E+00 0.  1.
</event>
<event>
 5   0  0.1744876E-06  0.2301226E+04  0.7818609E-02  0.8477438E-01
       -2   -1    0    0    0  501  0.00000000000E+00  0.00000000000E+00  0.63383939521E+03  0.63383939522E+03  0.25500000920E-02 0.  1.
        2   -1    0    0  501    0  0.00000000000E+00  0.00000000000E+00 -0.20887156646E+04  0.20887156646E+04  0.25500000920E-02 0. -1.
    10030    2    1    2    0    0  0.00000000000E+00  0.00000000000E+00 -0.14548762694E+04  0.27225550598E+04  0.23012259981E+04 0.  0.
        1    1    3    3  502    0 -0.48012619501E+03  0.10438351119E+04 -0.80034339070E+03  0.14002365682E+04  0.50400001928E-02 0. -1.
       -1    1    3    3    0  502  0.48012619501E+03 -0.10438351119E+04 -0.65453287870E+03  0.13223184916E+04  0.50400001928E-02 0.  1.
</event>
<event>
 5   0  0.7607231E-07  0.2299739E+04  0.7818609E-02  0.8478024E-01
       -1   -1    0    0    0  501  0.00000000000E+00  0.00000000000E+00  0.63198652657E+03  0.63198652659E+03  0.50400001928E-02 0.  1.
        1   -1    0    0  501    0  0.00000000000E+00  0.00000000000E+00 -0.20921333298E+04  0.20921333298E+04  0.50400001928E-02 0. -1.
    10030    2    1    2    0    0  0.00000000000E+00  0.00000000000E+00 -0.14601468032E+04  0.27241198564E+04  0.22997391820E+04 0.  0.
        2    1    3    3  502    0  0.47933190204E+03 -0.28510988663E+03  0.46104831047E+03  0.72361057508E+03  0.25500000920E-02 0.  1.
       -2    1    3    3    0  502 -0.47933190204E+03  0.28510988663E+03 -0.19211951137E+04  0.20005092813E+04  0.25500000920E-02 0. -1.
</event>
<event>
 5   0  0.7761069E-07  0.2299299E+04  0.7818609E-02  0.8478197E-01
        1   -1    0    0  501    0  0.00000000000E+00  0.00000000000E+00  0.18890822061E+04  0.18890822061E+04  0.50400001928E-02 0. -1.
       -1   -1    0    0    0  501  0.00000000000E+00  0.00000000000E+00 -0.69964885179E+03  0.69964885181E+03  0.50400001928E-02 0.  1.
    10030    2    1    2    0    0  0.00000000000E+00  0.00000000000E+00  0.11894333543E+04  0.25887310579E+04  0.22992991945E+04 0.  0.
        1    1    3    3  502    0  0.61122704699E+03  0.51156729166E+03 -0.33806149767E+03  0.86578587024E+03  0.50400001928E-02 0.  1.
       -1    1    3    3    0  502 -0.61122704699E+03 -0.51156729166E+03  0.15274948520E+04  0.17229451877E+04  0.50400001928E-02 0. -1.
</event>
<event>
 5   0  0.1888779E-06  0.2299503E+04  0.7818609E-02  0.8478117E-01
       -2   -1    0    0    0  501  0.00000000000E+00  0.00000000000E+00  0.13028139571E+04  0.13028139571E+04  0.25500000920E-02 0.  1.
        2   -1    0    0  501    0  0.00000000000E+00  0.00000000000E+00 -0.10146716598E+04  0.10146716598E+04  0.25500000920E-02 0. -1.
    10030    2    1    2    0    0  0.00000000000E+00  0.00000000000E+00  0.28814229726E+03  0.23174856169E+04  0.22995029031E+04 0.  0.
        4    1    3    3  502    0 -0.40831721804E+03  0.10740617854E+04  0.10381988864E+03  0.11537382076E+04  0.12699999809E+01 0.  1.
       -4    1    3    3    0  502  0.40831721804E+03 -0.10740617854E+04  0.18432240861E+03  0.11637474093E+04  0.12699999809E+01 0. -1.
</event>
<event>
 5   0  0.7932912E-07  0.2299475E+04  0.7818609E-02  0.8478128E-01
        1   -1    0    0  501    0  0.00000000000E+00  0.00000000000E+00  0.21675030200E+04  0.21675030200E+04  0.50400001928E-02 0. -1.
       -1   -1    0    0    0  501  0.00000000000E+00  0.00000000000E+00 -0.60987068583E+03  0.60987068585E+03  0.50400001928E-02 0.  1.
    10030    2    1    2    0    0  0.00000000000E+00  0.00000000000E+00  0.15576323342E+04  0.27773737059E+04  0.22994752040E+04 0.  0.
        5    1    3    3  502    0  0.95478118943E+03 -0.42523482993E+03  0.13573685614E+04  0.17131559420E+04  0.46999998093E+01 0. -1.
       -5    1    3    3    0  502 -0.95478118943E+03  0.42523482993E+03  0.20026377286E+03  0.10642177639E+04  0.46999998093E+01 0.  1.
</event>
<event>
 5   0  0.7932912E-07  0.2299001E+04  0.7818609E-02  0.8478315E-01
        1   -1    0    0  501    0  0.00000000000E+00  0.00000000000E+00  0.10806798841E+04  0.10806798841E+04  0.50400001928E-02 0. -1.
       -1   -1    0    0    0  501  0.00000000000E+00  0.00000000000E+00 -0.12227040916E+04  0.12227040916E+04  0.50400001928E-02 0.  1.
    10030    2    1    2    0    0  0.00000000000E+00  0.00000000000E+00 -0.14202420746E+03  0.23033839757E+04  0.22990012754E+04 0.  0.
        5    1    3    3  502    0 -0.10335531926E+04 -0.33004752002E+03  0.30940377978E+03  0.11282359489E+04  0.46999998093E+01 0. -1.
       -5    1    3    3    0  502  0.10335531926E+04  0.33004752002E+03 -0.45142798724E+03  0.11751480269E+04  0.46999998093E+01 0.  1.
</event>
<event>
 5   0  0.7607231E-07  0.2298280E+04  0.7818609E-02  0.8478599E-01
       -1   -1    0    0    0  501  0.00000000000E+00  0.00000000000E+00  0.14750202418E+04  0.14750202418E+04  0.50400001928E-02 0.  1.
        1   -1    0    0  501    0  0.00000000000E+00  0.00000000000E+00 -0.89525757017E+03  0.89525757018E+03  0.50400001928E-02 0. -1.
    10030    2    1    2    0    0  0.00000000000E+00  0.00000000000E+00  0.57976267164E+03  0.23702778120E+04  0.22982802594E+04 0.  0.
        2    1    3    3  502    0  0.35762655989E+03  0.40867472016E+03 -0.75456866190E+03  0.92966964497E+03  0.25500000920E-02 0. -1.
       -2    1    3    3    0  502 -0.35762655989E+03 -0.40867472016E+03  0.13343313335E+04  0.14406081670E+04  0.25500000920E-02 0.  1.
</event>
<event>
 5   0  0.1744876E-06  0.2298869E+04  0.7818609E-02  0.8478367E-01
       -2   -1    0    0    0  501  0.00000000000E+00  0.00000000000E+00  0.65238773347E+03  0.65238773348E+03  0.25500000920E-02 0.  1.
        2   -1    0    0  501    0  0.00000000000E+00  0.00000000000E+00 -0.20251756820E+04  0.20251756820E+04  0.25500000920E-02 0. -1.
    10030    2    1    2    0    0  0.00000000000E+00  0.00000000000E+00 -0.13727879485E+04  0.26775634154E+04  0.22988690898E+04 0.  0.
        1    1    3    3  502    0 -0.58460325469E+03  0.98957188367E+03 -0.70229136127E+03  0.13469323051E+04  0.50400001928E-02 0.  1.
       -1    1    3    3    0  502  0.58460325469E+03 -0.98957188367E+03 -0.67049658723E+03  0.13306311104E+04  0.50400001928E-02 0. -1.
</event>
<event>
 5   0  0.7607231E-07  0.2296546E+04  0.7818609E-02  0.8479284E-01
       -1   -1    0    0    0  501  0.00000000000E+00  0.00000000000E+00  0.12859678073E+04  0.12859678073E+04  0.50400001928E-02 0. -1.
        1   -1    0    0  501    0  0.00000000000E+00  0.00000000000E+00 -0.10253215487E+04  0.10253215487E+04  0.50400001928E-02 0.  1.
    10030    2    1    2    0    0  0.00000000000E+00  0.00000000000E+00  0.26064625861E+03  0.23112893559E+04  0.22965456701E+04 0.  0.
        2    1    3    3  502    0 -0.63890640796E+03 -0.73449751622E+03 -0.48255480481E+03  0.10865298611E+04  0.25500000920E-02 0. -1.
       -2    1    3    3    0  502  0.63890640796E+03  0.73449751622E+03  0.74320106341E+03  0.12247594948E+04  0.25500000920E-02 0.  1.
</event>
<event>
 5   0  0.1744876E-06  0.2299600E+04  0.7818609E-02  0.8478079E-01
        2   -1    0    0  501    0  0.00000000000E+00  0.00000000000E+00  0.16326902550E+04  0.16326902550E+04  0.25500000920E-02 0.  1.
       -2   -1    0    0    0  501  0.00000000000E+00  0.00000000000E+00 -0.80973084348E+03  0.80973084348E+03  0.25500000920E-02 0. -1.
    10030    2    1    2    0    0  0.00000000000E+00  0.00000000000E+00  0.82295941155E+03  0.24424210985E+04  0.22995996672E+04 0.  0.
        1    1    3    3  502    0  0.55428088252E+03  0.66385668255E+03 -0.39327699294E+03  0.95005251692E+03  0.50400001928E-02 0. -1.
       -1    1    3    3    0  502 -0.55428088252E+03 -0.66385668255E+03  0.12162364045E+04  0.14923685816E+04  0.50400001928E-02 0.  1.
</event>
<event>
 5   0  0.1828646E-06  0.2299622E+04  0.7818609E-02  0.8478070E-01
       -2   -1    0    0    0  501  0.00000000000E+00  0.00000000000E+00  0.53217847229E+03  0.53217847230E+03  0.25500000920E-02 0.  1.
        2   -1    0    0  501    0  0.00000000000E+00  0.00000000000E+00 -0.24842518565E+04  0.24842518565E+04  0.25500000920E-02 0. -1.
    10030    2    1    2    0    0  0.00000000000E+00  0.00000000000E+00 -0.19520733842E+04  0.30164303288E+04  0.22996220192E+04 0.  0.
        3    1    3    3  502    0  0.49247598765E+03 -0.67275749715E+03  0.62558722498E+02  0.83609141387E+03  0.10100000352E+00 0.  1.
       -3    1    3    3    0  502 -0.49247598765E+03  0.67275749715E+03 -0.20146321067E+04  0.21803389149E+04  0.10100000352E+00 0. -1.
</event>
<event>
 5   0  0.1828646E-06  0.2304133E+04  0.7818609E-02  0.8476293E-01
        2   -1    0    0  501    0  0.00000000000E+00  0.00000000000E+00  0.22139142540E+04  0.22139142540E+04  0.25500000920E-02 0.  1.
       -2   -1    0    0    0  501  0.00000000000E+00  0.00000000000E+00 -0.59950715331E+03  0.59950715331E+03  0.25500000920E-02 0. -1.
    10030    2    1    2    0    0  0.00000000000E+00  0.00000000000E+00  0.16144071007E+04  0.28134214073E+04  0.23041331837E+04 0.  0.
        3    1    3    3  502    0 -0.56982762843E+03  0.60641800314E+03  0.17800615749E+04  0.19649594249E+04  0.10100000352E+00 0.  1.
       -3    1    3    3    0  502  0.56982762843E+03 -0.60641800314E+03 -0.16565447421E+03  0.84846198246E+03  0.10100000352E+00 0. -1.
</event>
<event>
 5   0  0.7761069E-07  0.2300135E+04  0.7818609E-02  0.8477868E-01
       -1   -1    0    0    0  501  0.00000000000E+00  0.00000000000E+00  0.13533619077E+04  0.13533619077E+04  0.50400001928E-02 0.  1.
        1   -1    0    0  501    0  0.00000000000E+00  0.00000000000E+00 -0.97731117518E+03  0.97731117519E+03  0.50400001928E-02 0. -1.
    10030    2    1    2    0    0  0.00000000000E+00  0.00000000000E+00  0.37605073250E+03  0.23306730829E+04  0.23001354016E+04 0.  0.
        1    1    3    3  502    0 -0.29996382692E+03 -0.20548258650E+02 -0.93678234708E+03  0.98385044301E+03  0.50400001928E-02 0. -1.
       -1    1    3    3    0  502  0.29996382692E+03  0.20548258650E+02  0.13128330796E+04  0.13468226399E+04  0.50400001928E-02 0.  1.
</event>
<event>
 5   0  0.7932912E-07  0.2299814E+04  0.7818609E-02  0.8477994E-01
       -1   -1    0    0    0  501  0.00000000000E+00  0.00000000000E+00  0.12282069522E+04  0.12282069522E+04  0.50400001928E-02 0.  1.
        1   -1    0    0  501    0  0.00000000000E+00  0.00000000000E+00 -0.10765991462E+04  0.10765991462E+04  0.50400001928E-02 0. -1.
    10030    2    1    2    0    0  0.00000000000E+00  0.00000000000E+00  0.15160780605E+03  0.23048060984E+04  0.22998143891E+04 0.  0.
        5    1    3    3  502    0 -0.60550077578E+03 -0.97008341936E+03 -0.45170304356E+02  0.11444454886E+04  0.46999998093E+01 0. -1.
       -5    1    3    3    0  502  0.60550077578E+03  0.97008341936E+03  0.19677811041E+03  0.11603606098E+04  0.46999998093E+01 0.  1.
</event>
<event>
 5   0  0.1828646E-06  0.2299240E+04  0.7818609E-02  0.8478221E-01
       -2   -1    0    0    0  501  0.00000000000E+00  0.00000000000E+00  0.89849562938E+03  0.89849562938E+03  0.25500000920E-02 0.  1.
        2   -1    0    0  501    0  0.00000000000E+00  0.00000000000E+00 -0.14709324097E+04  0.14709324097E+04  0.25500000920E-02 0. -1.
    10030    2    1    2    0    0  0.00000000000E+00  0.00000000000E+00 -0.57243678031E+03  0.23694280391E+04  0.22992401712E+04 0.  0.
        3    1    3    3  502    0 -0.65931558044E+03  0.69866140392E+03  0.36456670481E+03  0.10274890191E+04  0.10100000352E+00 0.  1.
       -3    1    3    3    0  502  0.65931558044E+03 -0.69866140392E+03 -0.93700348513E+03  0.13419390200E+04  0.10100000352E+00 0. -1.
</event>
<event>
 5   0  0.7932912E-07  0.2300260E+04  0.7818609E-02  0.8477819E-01
        1   -1    0    0  501    0  0.00000000000E+00  0.00000000000E+00  0.15836497881E+04  0.15836497881E+04  0.50400001928E-02 0. -1.
       -1   -1    0    0    0  501  0.00000000000E+00  0.00000000000E+00 -0.83528481477E+03  0.83528481478E+03  0.50400001928E-02 0.  1.
    10030    2    1    2    0    0  0.00000000000E+00  0.00000000000E+00  0.74836497336E+03  0.24189346029E+04  0.23002596549E+04 0.  0.
        5    1    3    3  502    0  0.10977239537E+04 -0.35013395252E+02  0.73319406864E+03  0.13205375605E+04  0.46999998093E+01 0. -1.
       -5    1    3    3    0  502 -0.10977239537E+04  0.35013395252E+02  0.15170904712E+02  0.10983970424E+04  0.46999998093E+01 0.  1.
</event>
<event>
 5   0  0.1689444E-06  0.2300066E+04  0.7818609E-02  0.8477895E-01
        2   -1    0    0  501    0  0.00000000000E+00  0.00000000000E+00  0.99965891082E+03  0.99965891082E+03  0.25500000920E-02 0.  1.
       -2   -1    0    0    0  501  0.00000000000E+00  0.00000000000E+00 -0.13230274424E+04  0.13230274424E+04  0.25500000920E-02 0. -1.
    10030    2    1    2    0    0  0.00000000000E+00  0.00000000000E+00 -0.32336853154E+03  0.23226863532E+04  0.23000662356E+04 0.  0.
        2    1    3    3  502    0 -0.69405902150E+02 -0.10468919189E+04  0.31387844634E+03  0.10951344887E+04  0.25500000920E-02 0.  1.
       -2    1    3    3    0  502  0.69405902150E+02  0.10468919189E+04 -0.63724697788E+03  0.12275518645E+04  0.25500000920E-02 0. -1.
</event>
<event>
 5   0  0.7761069E-07  0.2299152E+04  0.7818609E-02  0.8478255E-01
        1   -1    0    0  501    0  0.00000000000E+00  0.00000000000E+00  0.18978514514E+04  0.18978514514E+04  0.50400001928E-02 0.  1.
       -1   -1    0    0    0  501  0.00000000000E+00  0.00000000000E+00 -0.69632697604E+03  0.69632697606E+03  0.50400001928E-02 0. -1.
    10030    2    1    2    0    0  0.00000000000E+00  0.00000000000E+00  0.12015244753E+04  0.25941784274E+04  0.22991521586E+04 0.  0.
        1    1    3    3  502    0  0.96848910606E+03  0.61058637105E+03  0.48383926833E+03  0.12429349551E+04  0.50400001928E-02 0. -1.
       -1    1    3    3    0  502 -0.96848910606E+03 -0.61058637105E+03  0.71768520698E+03  0.13512434723E+04  0.50400001928E-02 0.  1.
</event>
<event>
 5   0  0.7761069E-07  0.2299856E+04  0.7818609E-02  0.8477978E-01
        1   -1    0    0  501    0  0.00000000000E+00  0.00000000000E+00  0.18529453211E+04  0.18529453211E+04  0.50400001928E-02 0.  1.
       -1   -1    0    0    0  501  0.00000000000E+00  0.00000000000E+00 -0.71363947866E+03  0.71363947867E+03  0.50400001928E-02 0. -1.
    10030    2    1    2    0    0  0.00000000000E+00  0.00000000000E+00  0.11393058424E+04  0.25665847998E+04  0.22998564590E+04 0.  0.
        1    1    3    3  502    0  0.56798005618E+03 -0.91499171252E+03  0.10195501419E+04  0.14830015745E+04  0.50400001928E-02 0.  1.
       -1    1    3    3    0  502 -0.56798005618E+03  0.91499171252E+03  0.11975570056E+03  0.10835832252E+04  0.50400001928E-02 0. -1.
</event>
<event>
 5   0  0.7607231E-07  0.2300942E+04  0.7818609E-02  0.8477550E-01
       -1   -1    0    0    0  501  0.00000000000E+00  0.00000000000E+00  0.71254700438E+03  0.71254700439E+03  0.50400001928E-02 0. -1.
        1   -1    0    0  501    0  0.00000000000E+00  0.00000000000E+00 -0.18575392261E+04  0.18575392261E+04  0.50400001928E-02 0.  1.
    10030    2    1    2    0    0  0.00000000000E+00  0.00000000000E+00 -0.11449922217E+04  0.25700862305E+04  0.23009424252E+04 0.  0.
        2    1    3    3  502    0 -0.10471796572E+04 -0.39539162031E+03 -0.86941771554E+03  0.14173238628E+04  0.25500000920E-02 0.  1.
       -2    1    3    3    0  502  0.10471796572E+04  0.39539162031E+03 -0.27557450613E+03  0.11527623677E+04  0.25500000920E-02 0. -1.
</event>
<event>
 5   0  0.1689444E-06  0.2299474E+04  0.7818609E-02  0.8478129E-01
        2   -1    0    0  501    0  0.00000000000E+00  0.00000000000E+00  0.15980858689E+04  0.15980858689E+04  0.25500000920E-02 0. -1.
       -2   -1    0    0    0  501  0.00000000000E+00  0.00000000000E+00 -0.82717398053E+03  0.82717398054E+03  0.25500000920E-02 0.  1.
    10030    2    1    2    0    0  0.00000000000E+00  0.00000000000E+00  0.77091188839E+03  0.24252598495E+04  0.22994738959E+04 0.  0.
        2    1    3    3  502    0 -0.20815467868E+02 -0.71590696832E+03  0.13340658914E+04  0.15141624331E+04  0.25500000920E-02 0. -1.
       -2    1    3    3    0  502  0.20815467868E+02  0.71590696832E+03 -0.56315400305E+03  0.91109741639E+03  0.25500000920E-02 0.  1.
</event>
<event>
 5   0  0.8097672E-07  0.2299904E+04  0.7818609E-02  0.8477959E-01
        1   -1    0    0  501    0  0.00000000000E+00  0.00000000000E+00  0.74845338033E+03  0.74845338035E+03  0.50400001928E-02 0. -1.
       -1   -1    0    0    0  501  0.00000000000E+00  0.00000000000E+00 -0.17668290157E+04  0.17668290157E+04  0.50400001928E-02 0.  1.
    10030    2    1    2    0    0  0.00000000000E+00  0.00000000000E+00 -0.10183756354E+04  0.25152823961E+04  0.22999036061E+04 0.  0.
        3    1    3    3  502    0 -0.66022301494E+03 -0.94088618913E+03 -0.47086507108E+03  0.12421252657E+04  0.10100000352E+00 0.  1.
       -3    1    3    3    0  502  0.66022301494E+03  0.94088618913E+03 -0.54751056431E+03  0.12731571304E+04  0.10100000352E+00 0. -1.
</event>
<event>
 5   0  0.7932912E-07  0.2300114E+04  0.7818609E-02  0.8477876E-01
        1   -1    0    0  501    0  0.00000000000E+00  0.00000000000E+00  0.10094897262E+04  0.10094897262E+04  0.50400001928E-02 0. -1.
       -1   -1    0    0    0  501  0.00000000000E+00  0.00000000000E+00 -0.13101981176E+04  0.13101981176E+04  0.50400001928E-02 0.  1.
    10030    2    1    2    0    0  0.00000000000E+00  0.00000000000E+00 -0.30070839144E+03  0.23196878438E+04  0.23001143789E+04 0.  0.
        5    1    3    3  502    0  0.40595876305E+03  0.72344118980E+03 -0.95364966125E+03  0.12639776259E+04  0.46999998093E+01 0.  1.
       -5    1    3    3    0  502 -0.40595876305E+03 -0.72344118980E+03  0.65294126982E+03  0.10557102179E+04  0.46999998093E+01 0. -1.
</event>
<event>
 5   0  0.7607231E-07  0.2301305E+04  0.7818609E-02  0.8477407E-01
       -1   -1    0    0    0  501  0.00000000000E+00  0.00000000000E+00  0.94663694228E+03  0.94663694229E+03  0.50400001928E-02 0. -1.
        1   -1    0    0  501    0  0.00000000000E+00  0.00000000000E+00 -0.13986370567E+04  0.13986370567E+04  0.50400001928E-02 0.  1.
    10030    2    1    2    0    0  0.00000000000E+00  0.00000000000E+00 -0.45200011444E+03  0.23452739990E+04  0.23013052877E+04 0.  0.
        2    1    3    3  502    0 -0.60364817146E+02 -0.85728399537E+03 -0.10057471767E+04  0.13229161513E+04  0.25500000920E-02 0.  1.
       -2    1    3    3    0  502  0.60364817146E+02  0.85728399537E+03  0.55374706226E+03  0.10223578477E+04  0.25500000920E-02 0. -1.
</event>
<event>
 5   0  0.1689444E-06  0.2299700E+04  0.7818609E-02  0.8478040E-01
        2   -1    0    0  501    0  0.00000000000E+00  0.00000000000E+00  0.16177760275E+04  0.16177760275E+04  0.25500000920E-02 0. -1.
       -2   -1    0    0    0  501  0.00000000000E+00  0.00000000000E+00 -0.81726676493E+03  0.81726676493E+03  0.25500000920E-02 0.  1.
    10030    2    1    2    0    0  0.00000000000E+00  0.00000000000E+00  0.80050926255E+03  0.24350427924E+04  0.22996996155E+04 0.  0.
        2    1    3    3  502    0  0.95535835638E+02  0.22644218961E+03 -0.78913017431E+03  0.82651654136E+03  0.25500000920E-02 0.  1.
       -2    1    3    3    0  502 -0.95535835638E+02 -0.22644218961E+03  0.15896394369E+04  0.16085262511E+04  0.25500000920E-02 0. -1.
</event>
<event>
 5   0  0.1888779E-06  0.2302732E+04  0.7818609E-02  0.8476845E-01
       -2   -1    0    0    0  501  0.00000000000E+00  0.00000000000E+00  0.17163356348E+04  0.17163356348E+04  0.25500000920E-02 0. -1.
        2   -1    0    0  501    0  0.00000000000E+00  0.00000000000E+00 -0.77236862706E+03  0.77236862707E+03  0.25500000920E-02 0.  1.
    10030    2    1    2    0    0  0.00000000000E+00  0.00000000000E+00  0.94396700775E+03  0.24887042619E+04  0.23027321146E+04 0.  0.
        4    1    3    3  502    0  0.97510733588E+03 -0.29316446009E+03  0.10528488027E+04  0.14646746845E+04  0.12699999809E+01 0. -1.
       -4    1    3    3    0  502 -0.97510733588E+03  0.29316446009E+03 -0.10888179497E+03  0.10240295774E+04  0.12699999809E+01 0.  1.
</event>
<event>
 5   0  0.1888779E-06  0.2300212E+04  0.7818609E-02  0.8477837E-01
        2   -1    0    0  501    0  0.00000000000E+00  0.00000000000E+00  0.10552156985E+04  0.10552156985E+04  0.25500000920E-02 0.  1.
       -2   -1    0    0    0  501  0.00000000000E+00  0.00000000000E+00 -0.12535295197E+04  0.12535295197E+04  0.25500000920E-02 0. -1.
    10030    2    1    2    0    0  0.00000000000E+00  0.00000000000E+00 -0.19831382120E+03  0.23087452181E+04  0.23002121882E+04 0.  0.
        4    1    3    3  502    0  0.18696927269E+03 -0.10888195487E+04 -0.42011949745E+03  0.11819422675E+04  0.12699999809E+01 0. -1.
       -4    1    3    3    0  502 -0.18696927269E+03  0.10888195487E+04  0.22180567624E+03  0.11268029506E+04  0.12699999809E+01 0.  1.
</event>
<event>
 5   0  0.8108242E-07  0.2301367E+04  0.7818609E-02  0.8477382E-01
       -1   -1    0    0    0  501  0.00000000000E+00  0.00000000000E+00  0.13640109932E+04  0.13640109932E+04  0.50400001928E-02 0.  1.
        1   -1    0    0  501    0  0.00000000000E+00  0.00000000000E+00 -0.97071999301E+03  0.97071999302E+03  0.50400001928E-02 0. -1.
    10030    2    1    2    0    0  0.00000000000E+00  0.00000000000E+00  0.39329100021E+03  0.23347309862E+04  0.23013671952E+04 0.  0.
        4    1    3    3  502    0 -0.22550405434E+03 -0.18312701556E+03 -0.93290680886E+03  0.97708971403E+03  0.12699999809E+01 0. -1.
       -4    1    3    3    0  502  0.22550405434E+03  0.18312701556E+03  0.13261978091E+04  0.13576412722E+04  0.12699999809E+01 0.  1.
</event>
<event>
 5   0  0.1689444E-06  0.2299597E+04  0.7818609E-02  0.8478080E-01
       -2   -1    0    0    0  501  0.00000000000E+00  0.00000000000E+00  0.11579739270E+04  0.11579739270E+04  0.25500000920E-02 0. -1.
        2   -1    0    0  501    0  0.00000000000E+00  0.00000000000E+00 -0.11416805796E+04  0.11416805796E+04  0.25500000920E-02 0.  1.
    10030    2    1    2    0    0  0.00000000000E+00  0.00000000000E+00  0.16293347357E+02  0.22996545066E+04  0.22995967856E+04 0.  0.
        2    1    3    3  502    0  0.10438035856E+04 -0.19226722782E+03  0.45036104306E+03  0.11529603989E+04  0.25500000920E-02 0. -1.
       -2    1    3    3    0  502 -0.10438035856E+04  0.19226722782E+03 -0.43406769571E+03  0.11466941077E+04  0.25500000920E-02 0.  1.
</event>
<event>
 5   0  0.1888779E-06  0.2294655E+04  0.7818609E-02  0.8480031E-01
       -2   -1    0    0    0  501  0.00000000000E+00  0.00000000000E+00  0.87900637211E+03  0.87900637212E+03  0.25500000920E-02 0.  1.
        2   -1    0    0  501    0  0.00000000000E+00  0.00000000000E+00 -0.14975551705E+04  0.14975551705E+04  0.25500000920E-02 0. -1.
    10030    2    1    2    0    0  0.00000000000E+00  0.00000000000E+00 -0.61854879843E+03  0.23765615427E+04  0.22946551266E+04 0.  0.
        4    1    3    3  502    0 -0.77374544859E+02 -0.12291255768E+03 -0.14879950484E+04  0.14950669530E+04  0.12699999809E+01 0. -1.
       -4    1    3    3    0  502  0.77374544859E+02  0.12291255768E+03  0.86944624999E+03  0.88149458963E+03  0.12699999809E+01 0.  1.
</event>
<event>
 5   0  0.1825521E-06  0.2301098E+04  0.7818609E-02  0.8477488E-01
        2   -1    0    0  501    0  0.00000000000E+00  0.00000000000E+00  0.10751108418E+04  0.10751108418E+04  0.25500000920E-02 0.  1.
       -2   -1    0    0    0  501  0.00000000000E+00  0.00000000000E+00 -0.12312807152E+04  0.12312807153E+04  0.25500000920E-02 0. -1.
    10030    2    1    2    0    0  0.00000000000E+00  0.00000000000E+00 -0.15616987340E+03  0.23063915571E+04  0.23010982129E+04 0.  0.
        5    1    3    3  502    0 -0.53868210688E+03  0.24390149625E+03 -0.10673075585E+04  0.12201778012E+04  0.46999998093E+01 0. -1.
       -5    1    3    3    0  502  0.53868210688E+03 -0.24390149625E+03  0.91113768513E+03  0.10862137559E+04  0.46999998093E+01 0.  1.
</event>
<event>
 5   0  0.6319125E-07  0.2300009E+04  0.7818609E-02  0.8477918E-01
       -4   -1    0    0    0  501  0.00000000000E+00  0.00000000000E+00  0.94077239134E+03  0.94077324856E+03  0.12699999809E+01 0. -1.
        4   -1    0    0  501    0  0.00000000000E+00  0.00000000000E+00 -0.14057686393E+04  0.14057692129E+04  0.12699999809E+01 0.  1.
    10030    2    1    2    0    0  0.00000000000E+00  0.00000000000E+00 -0.46499624793E+03  0.23465424615E+04  0.23000086985E+04 0.  0.
        2    1    3    3  502    0 -0.54317487677E+03  0.36333528426E+03  0.73293384813E+03  0.98195901202E+03  0.25500000920E-02 0. -1.
       -2    1    3    3    0  502  0.54317487677E+03 -0.36333528426E+03 -0.11979300961E+04  0.13645834495E+04  0.25500000920E-02 0.  1.
</event>
<event>
 5   0  0.1828646E-06  0.2300886E+04  0.7818609E-02  0.8477572E-01
        2   -1    0    0  501    0  0.00000000000E+00  0.00000000000E+00  0.15267238991E+04  0.15267238991E+04  0.25500000920E-02 0. -1.
       -2   -1    0    0    0  501  0.00000000000E+00  0.00000000000E+00 -0.86690144350E+03  0.86690144350E+03  0.25500000920E-02 0.  1.
    10030    2    1    2    0    0  0.00000000000E+00  0.00000000000E+00  0.65982245564E+03  0.23936253426E+04  0.23008860484E+04 0.  0.
        3    1    3    3  502    0  0.54379319184E+03 -0.83605968920E+02 -0.72116751948E+03  0.90707419481E+03  0.10100000352E+00 0.  1.
       -3    1    3    3    0  502 -0.54379319184E+03  0.83605968920E+02  0.13809899751E+04  0.14865511478E+04  0.10100000352E+00 0. -1.
</event>
<event>
 5   0  0.7932912E-07  0.2300066E+04  0.7818609E-02  0.8477895E-01
       -1   -1    0    0    0  501  0.00000000000E+00  0.00000000000E+00  0.54572065583E+03  0.54572065585E+03  0.50400001928E-02 0.  1.
        1   -1    0    0  501    0  0.00000000000E+00  0.00000000000E+00 -0.24235408908E+04  0.24235408908E+04  0.50400001928E-02 0. -1.
    10030    2    1    2    0    0  0.00000000000E+00  0.00000000000E+00 -0.18778202350E+04  0.29692615467E+04  0.23000663681E+04 0.  0.
        5    1    3    3  502    0  0.26290671361E+03  0.11130845854E+04 -0.78358296658E+03  0.13863987845E+04  0.46999998093E+01 0.  1.
       -5    1    3    3    0  502 -0.26290671361E+03 -0.11130845854E+04 -0.10942372684E+04  0.15828627621E+04  0.46999998093E+01 0. -1.
</event>
<event>
 5   0  0.7607231E-07  0.2300310E+04  0.7818609E-02  0.8477799E-01
        1   -1    0    0  501    0  0.00000000000E+00  0.00000000000E+00  0.17431217810E+04  0.17431217810E+04  0.50400001928E-02 0. -1.
       -1   -1    0    0    0  501  0.00000000000E+00  0.00000000000E+00 -0.75890098275E+03  0.75890098277E+03  0.50400001928E-02 0.  1.
    10030    2    1    2    0    0  0.00000000000E+00  0.00000000000E+00  0.98422079824E+03  0.25020227638E+04  0.23003102684E+04 0.  0.
        2    1    3    3  502    0  0.94815755803E+03  0.75615301471E+02 -0.21122719019E+03  0.97433944524E+03  0.25500000920E-02 0.  1.
       -2    1    3    3    0  502 -0.94815755803E+03 -0.75615301471E+02  0.11954479884E+04  0.15276833185E+04  0.25500000920E-02 0. -1.
</event>
<event>
 5   0  0.1744876E-06  0.2304583E+04  0.7818609E-02  0.8476116E-01
        2   -1    0    0  501    0  0.00000000000E+00  0.00000000000E+00  0.12440786105E+04  0.12440786105E+04  0.25500000920E-02 0.  1.
       -2   -1    0    0    0  501  0.00000000000E+00  0.00000000000E+00 -0.10672765616E+04  0.10672765616E+04  0.25500000920E-02 0. -1.
    10030    2    1    2    0    0  0.00000000000E+00  0.00000000000E+00  0.17680204887E+03  0.23113551722E+04  0.23045832090E+04 0.  0.
        1    1    3    3  502    0 -0.79692918863E+03 -0.54200297538E+02  0.92134860705E+03  0.12193920861E+04  0.50400001928E-02 0.  1.
       -1    1    3    3    0  502  0.79692918863E+03  0.54200297538E+02 -0.74454655819E+03  0.10919630860E+04  0.50400001928E-02 0. -1.
</event>
<event>
 5   0  0.8108242E-07  0.2302104E+04  0.7818609E-02  0.8477092E-01
        1   -1    0    0  501    0  0.00000000000E+00  0.00000000000E+00  0.10355955365E+04  0.10355955365E+04  0.50400001928E-02 0.  1.
       -1   -1    0    0    0  501  0.00000000000E+00  0.00000000000E+00 -0.12793807174E+04  0.12793807174E+04  0.50400001928E-02 0. -1.
    10030    2    1    2    0    0  0.00000000000E+00  0.00000000000E+00 -0.24378518089E+03  0.23149762539E+04  0.23021042204E+04 0.  0.
        4    1    3    3  502    0  0.46669087319E+03  0.19944077091E+03 -0.11607918373E+04  0.12668923769E+04  0.12699999809E+01 0. -1.
       -4    1    3    3    0  502 -0.46669087319E+03 -0.19944077091E+03  0.91700665646E+03  0.10480838769E+04  0.12699999809E+01 0.  1.
</event>
<event>
 5   0  0.1828646E-06  0.2300617E+04  0.7818609E-02  0.8477678E-01
        2   -1    0    0  501    0  0.00000000000E+00  0.00000000000E+00  0.57200529191E+03  0.57200529191E+03  0.25500000920E-02 0.  1.
       -2   -1    0    0    0  501  0.00000000000E+00  0.00000000000E+00 -0.23132825506E+04  0.23132825506E+04  0.25500000920E-02 0. -1.
    10030    2    1    2    0    0  0.00000000000E+00  0.00000000000E+00 -0.17412772587E+04  0.28852878425E+04  0.23006171873E+04 0.  0.
        3    1    3    3  502    0 -0.56936607020E+03  0.88695403863E+03 -0.29272164284E+03  0.10938698089E+04  0.10100000352E+00 0.  1.
       -3    1    3    3    0  502  0.56936607020E+03 -0.88695403863E+03 -0.14485556158E+04  0.17914180335E+04  0.10100000352E+00 0. -1.
</event>
<event>
 5   0  0.7932912E-07  0.2300597E+04  0.7818609E-02  0.8477686E-01
        1   -1    0    0  501    0  0.00000000000E+00  0.00000000000E+00  0.84140126451E+03  0.84140126453E+03  0.50400001928E-02 0. -1.
       -1   -1    0    0    0  501  0.00000000000E+00  0.00000000000E+00 -0.15725990328E+04  0.15725990328E+04  0.50400001928E-02 0.  1.
    10030    2    1    2    0    0  0.00000000000E+00  0.00000000000E+00 -0.73119776833E+03  0.24140002974E+04  0.23005971528E+04 0.  0.
        5    1    3    3  502    0  0.67236101977E+03  0.90286744715E+03 -0.11745551407E+03  0.11318378222E+04  0.46999998093E+01 0. -1.
       -5    1    3    3    0  502 -0.67236101977E+03 -0.90286744715E+03 -0.61374225426E+03  0.12821624752E+04  0.46999998093E+01 0.  1.
</event>
<event>
 5   0  0.8097672E-07  0.2300350E+04  0.7818609E-02  0.8477783E-01
       -1   -1    0    0    0  501  0.00000000000E+00  0.00000000000E+00  0.76076266019E+03  0.76076266020E+03  0.50400001928E-02 0. -1.
        1   -1    0    0  501    0  0.00000000000E+00  0.00000000000E+00 -0.17389160350E+04  0.17389160350E+04  0.50400001928E-02 0.  1.
    10030    2    1    2    0    0  0.00000000000E+00  0.00000000000E+00 -0.97815337484E+03  0.24996786952E+04  0.23003498766E+04 0.  0.
        3    1    3    3  502    0 -0.55181212680E+03  0.25564630085E+03 -0.15499128126E+04  0.16649568737E+04  0.10100000352E+00 0.  1.
       -3    1    3    3    0  502  0.55181212680E+03 -0.25564630085E+03  0.57175943778E+03  0.83472182152E+03  0.10100000352E+00 0. -1.
</event>
<event>
 5   0  0.6319125E-07  0.2299272E+04  0.7818609E-02  0.8478208E-01
        3   -1    0    0  501    0  0.00000000000E+00  0.00000000000E+00  0.66033888867E+03  0.66033889639E+03  0.10100000352E+00 0.  1.
       -3   -1    0    0    0  501  0.00000000000E+00  0.00000000000E+00 -0.20014925575E+04  0.20014925601E+04  0.10100000352E+00 0. -1.
    10030    2    1    2    0    0  0.00000000000E+00  0.00000000000E+00 -0.13411536689E+04  0.26618314565E+04  0.22992723934E+04 0.  0.
        2    1    3    3  502    0 -0.77995994645E+03 -0.18701196699E+03 -0.16240704912E+04  0.18113298855E+04  0.25500000920E-02 0. -1.
       -2    1    3    3    0  502  0.77995994645E+03  0.18701196699E+03  0.28291682230E+03  0.85050157096E+03  0.25500000920E-02 0.  1.
</event>
<event>
 5   0  0.1689444E-06  0.2299835E+04  0.7818609E-02  0.8477986E-01
        2   -1    0    0  501    0  0.00000000000E+00  0.00000000000E+00  0.15619394271E+04  0.15619394271E+04  0.25500000920E-02 0.  1.
       -2   -1    0    0    0  501  0.00000000000E+00  0.00000000000E+00 -0.84658225183E+03  0.84658225183E+03  0.25500000920E-02 0. -1.
    10030    2    1    2    0    0  0.00000000000E+00  0.00000000000E+00  0.71535717527E+03  0.24085216789E+04  0.22998349483E+04 0.  0.
        2    1    3    3  502    0  0.70218056988E+03  0.90727440280E+03  0.27584619038E+03  0.11799557261E+04  0.25500000920E-02 0. -1.
       -2    1    3    3    0  502 -0.70218056988E+03 -0.90727440280E+03  0.43951098489E+03  0.12285659529E+04  0.25500000920E-02 0.  1.
</event>
<event>
 5   0  0.1825521E-06  0.2296676E+04  0.7818609E-02  0.8479233E-01
       -2   -1    0    0    0  501  0.00000000000E+00  0.00000000000E+00  0.90343732171E+03  0.90343732172E+03  0.25500000920E-02 0. -1.
        2   -1    0    0  501    0  0.00000000000E+00  0.00000000000E+00 -0.14596256143E+04  0.14596256143E+04  0.25500000920E-02 0.  1.
    10030    2    1    2    0    0  0.00000000000E+00  0.00000000000E+00 -0.55618829255E+03  0.23630629360E+04  0.22966760813E+04 0.  0.
        5    1    3    3  502    0 -0.73930764177E+03  0.79240728327E+03 -0.66877094469E+03  0.12734841021E+04  0.46999998093E+01 0.  1.
       -5    1    3    3    0  502  0.73930764177E+03 -0.79240728327E+03  0.11258265214E+03  0.10895788339E+04  0.46999998093E+01 0. -1.
</event>
<event>
 5   0  0.8108242E-07  0.2300274E+04  0.7818609E-02  0.8477813E-01
        1   -1    0    0  501    0  0.00000000000E+00  0.00000000000E+00  0.12683496724E+04  0.12683496725E+04  0.50400001928E-02 0.  1.
       -1   -1    0    0    0  501  0.00000000000E+00  0.00000000000E+00 -0.10429422660E+04  0.10429422660E+04  0.50400001928E-02 0. -1.
    10030    2    1    2    0    0  0.00000000000E+00  0.00000000000E+00  0.22540740643E+03  0.23112919385E+04  0.23002743154E+04 0.  0.
        4    1    3    3  502    0 -0.81841691316E+03 -0.44513560359E+03 -0.56496115372E+03  0.10895570969E+04  0.12699999809E+01 0. -1.
       -4    1    3    3    0  502  0.81841691316E+03  0.44513560359E+03  0.79036856015E+03  0.12217348416E+04  0.12699999809E+01 0.  1.
</event>
<event>
 5   0  0.1888779E-06  0.2300489E+04  0.7818609E-02  0.8477729E-01
        2   -1    0    0  501    0  0.00000000000E+00  0.00000000000E+00  0.17815423393E+04  0.17815423393E+04  0.25500000920E-02 0.  1.
       -2   -1    0    0    0  501  0.00000000000E+00  0.00000000000E+00 -0.74264967538E+03  0.74264967539E+03  0.25500000920E-02 0. -1.
    10030    2    1    2    0    0  0.00000000000E+00  0.00000000000E+00  0.10388926639E+04  0.25241920147E+04  0.23004885046E+04 0.  0.
        4    1    3    3  502    0 -0.10626389070E+03  0.95520967677E+03  0.12128325231E+04  0.15474759717E+04  0.12699999809E+01 0.  1.
       -4    1    3    3    0  502  0.10626389070E+03 -0.95520967677E+03 -0.17393985919E+03  0.97671604296E+03  0.12699999809E+01 0. -1.
</event>
<event>
 5   0  0.7932912E-07  0.2300266E+04  0.7818609E-02  0.8477816E-01
       -1   -1    0    0    0  501  0.00000000000E+00  0.00000000000E+00  0.13668071512E+04  0.13668071512E+04  0.50400001928E-02 0. -1.
        1   -1    0    0  501    0  0.00000000000E+00  0.00000000000E+00 -0.96780719242E+03  0.96780719243E+03  0.50400001928E-02 0.  1.
    10030    2    1    2    0    0  0.00000000000E+00  0.00000000000E+00  0.39899995875E+03  0.23346143436E+04  0.23002658903E+04 0.  0.
        5    1    3    3  502    0 -0.46130247990E+03  0.23538401893E+03 -0.84276100645E+03  0.98917835516E+03  0.46999998093E+01 0.  1.
       -5    1    3    3    0  502  0.46130247990E+03 -0.23538401893E+03  0.12417609652E+04  0.13454359884E+04  0.46999998093E+01 0. -1.
</event>
<event>
 5   0  0.1689444E-06  0.2300054E+04  0.7818609E-02  0.8477900E-01
        2   -1    0    0  501    0  0.00000000000E+00  0.00000000000E+00  0.12342266491E+04  0.12342266491E+04  0.25500000920E-02 0.  1.
       -2   -1    0    0    0  501  0.00000000000E+00  0.00000000000E+00 -0.10715713239E+04  0.10715713239E+04  0.25500000920E-02 0. -1.
    10030    2    1    2    0    0  0.00000000000E+00  0.00000000000E+00  0.16265532516E+03  0.23057979730E+04  0.23000538119E+04 0.  0.
        2    1    3    3  502    0  0.80740509331E+03 -0.15622171089E+03  0.88723436876E+03  0.12097491611E+04  0.25500000920E-02 0.  1.
       -2    1    3    3    0  502 -0.80740509331E+03  0.15622171089E+03 -0.72457904360E+03  0.10960488119E+04  0.25500000920E-02 0. -1.
</event>
<event>
 5   0  0.1828646E-06  0.2305320E+04  0.7818609E-02  0.8475826E-01
        2   -1    0    0  501    0  0.00000000000E+00  0.00000000000E+00  0.73360415957E+03  0.73360415958E+03  0.25500000920E-02 0.  1.
       -2   -1    0    0    0  501  0.00000000000E+00  0.00000000000E+00 -0.18110926591E+04  0.18110926591E+04  0.25500000920E-02 0. -1.
    10030    2    1    2    0    0  0.00000000000E+00  0.00000000000E+00 -0.10774884996E+04  0.25446968187E+04  0.23053200282E+04 0.  0.
        3    1    3    3  502    0 -0.42745308310E+03  0.93590797333E+03 -0.11122989229E+04  0.15152058530E+04  0.10100000352E+00 0. -1.
       -3    1    3    3    0  502  0.42745308310E+03 -0.93590797333E+03  0.34810423336E+02  0.10294909657E+04  0.10100000352E+00 0.  1.
</event>
<event>
 5   0  0.7607231E-07  0.2299477E+04  0.7818609E-02  0.8478127E-01
        1   -1    0    0  501    0  0.00000000000E+00  0.00000000000E+00  0.75207982738E+03  0.75207982740E+03  0.50400001928E-02 0.  1.
       -1   -1    0    0    0  501  0.00000000000E+00  0.00000000000E+00 -0.17576575169E+04  0.17576575169E+04  0.50400001928E-02 0. -1.
    10030    2    1    2    0    0  0.00000000000E+00  0.00000000000E+00 -0.10055776895E+04  0.25097373443E+04  0.22994771248E+04 0.  0.
        2    1    3    3  502    0 -0.75009870127E+03 -0.82411586839E+03 -0.19392196469E+03  0.11311148282E+04  0.25500000920E-02 0.  1.
       -2    1    3    3    0  502  0.75009870127E+03  0.82411586839E+03 -0.81165572478E+03  0.13786225161E+04  0.25500000920E-02 0. -1.
</event>
<event>
 5   0  0.7932912E-07  0.2299948E+04  0.7818609E-02  0.8477942E-01
       -1   -1    0    0    0  501  0.00000000000E+00  0.00000000000E+00  0.90806292745E+03  0.90806292746E+03  0.50400001928E-02 0. -1.
        1   -1    0    0  501    0  0.00000000000E+00  0.00000000000E+00 -0.14563311720E+04  0.14563311720E+04  0.50400001928E-02 0.  1.
    10030    2    1    2    0    0  0.00000000000E+00  0.00000000000E+00 -0.54826824459E+03  0.23643940995E+04  0.22999481276E+04 0.  0.
        5    1    3    3  502    0  0.82617451565E+03  0.42006405837E+03  0.42567547447E+03  0.10199214887E+04  0.46999998093E+01 0. -1.
       -5    1    3    3    0  502 -0.82617451565E+03 -0.42006405837E+03 -0.97394371906E+03  0.13444726109E+04  0.46999998093E+01 0.  1.
</event>
<event>
 5   0  0.1828646E-06  0.2299475E+04  0.7818609E-02  0.8478128E-01
        2   -1    0    0  501    0  0.00000000000E+00  0.00000000000E+00  0.96200422698E+03  0.96200422699E+03  0.25500000920E-02 0.  1.
       -2   -1    0    0    0  501  0.00000000000E+00  0.00000000000E+00 -0.13741065952E+04  0.13741065952E+04  0.25500000920E-02 0. -1.
    10030    2    1    2    0    0  0.00000000000E+00  0.00000000000E+00 -0.41210236819E+03  0.23361108222E+04  0.22994750296E+04 0.  0.
        3    1    3    3  502    0 -0.87388570503E+02 -0.55739871045E+03  0.81169098391E+03  0.98852028216E+03  0.10100000352E+00 0.  1.
       -3    1    3    3    0  502  0.87388570503E+02  0.55739871045E+03 -0.12237933521E+04  0.13475905400E+04  0.10100000352E+00 0. -1.
</event>
<event>
 5   0  0.1828646E-06  0.2299941E+04  0.7818609E-02  0.8477944E-01
        2   -1    0    0  501    0  0.00000000000E+00  0.00000000000E+00  0.24441574078E+04  0.24441574078E+04  0.25500000920E-02 0. -1.
       -2   -1    0    0    0  501  0.00000000000E+00  0.00000000000E+00 -0.54105842499E+03  0.54105842500E+03  0.25500000920E-02 0.  1.
    10030    2    1    2    0    0  0.00000000000E+00  0.00000000000E+00  0.19030989828E+04  0.29852158328E+04  0.22999408318E+04 0.  0.
        3    1    3    3  502    0  0.49549611476E+03 -0.12190435925E+03 -0.38606988477E+03  0.63986485970E+03  0.10100000352E+00 0.  1.
       -3    1    3    3    0  502 -0.49549611476E+03  0.12190435925E+03  0.22891688675E+04  0.23453509731E+04  0.10100000352E+00 0. -1.
</event>
<event>
 5   0  0.1689444E-06  0.2299760E+04  0.7818609E-02  0.8478016E-01
        2   -1    0    0  501    0  0.00000000000E+00  0.00000000000E+00  0.25299497587E+04  0.25299497587E+04  0.25500000920E-02 0. -1.
       -2   -1    0    0    0  501  0.00000000000E+00  0.00000000000E+00 -0.52262834243E+03  0.52262834244E+03  0.25500000920E-02 0.  1.
    10030    2    1    2    0    0  0.00000000000E+00  0.00000000000E+00  0.20073214163E+04  0.30525781012E+04  0.22997595082E+04 0.  0.
        2    1    3    3  502    0 -0.33839984024E+03  0.40021767356E+03 -0.35486728973E+03  0.63294504614E+03  0.25500000920E-02 0.  1.
       -2    1    3    3    0  502  0.33839984024E+03 -0.40021767356E+03  0.23621887060E+04  0.24196330550E+04  0.25500000920E-02 0. -1.
</event>
<event>
 5   0  0.7761069E-07  0.2305348E+04  0.7818609E-02  0.8475816E-01
       -1   -1    0    0    0  501  0.00000000000E+00  0.00000000000E+00  0.13972837285E+04  0.13972837285E+04  0.50400001928E-02 0. -1.
        1   -1    0    0  501    0  0.00000000000E+00  0.00000000000E+00 -0.95088557274E+03  0.95088557276E+03  0.50400001928E-02 0.  1.
    10030    2    1    2    0    0  0.00000000000E+00  0.00000000000E+00  0.44639815572E+03  0.23481693012E+04  0.23053476427E+04 0.  0.
        1    1    3    3  502    0  0.33168829550E+03  0.30839934732E+03  0.13028546997E+04  0.13793323209E+04  0.50400001928E-02 0. -1.
       -1    1    3    3    0  502 -0.33168829550E+03 -0.30839934732E+03 -0.85645654398E+03  0.96883698038E+03  0.50400001928E-02 0.  1.
</event>
<event>
 5   0  0.1888779E-06  0.2300305E+04  0.7818609E-02  0.8477801E-01
        2   -1    0    0  501    0  0.00000000000E+00  0.00000000000E+00  0.76795196879E+03  0.76795196880E+03  0.25500000920E-02 0. -1.
       -2   -1    0    0    0  501  0.00000000000E+00  0.00000000000E+00 -0.17225700315E+04  0.17225700315E+04  0.25500000920E-02 0.  1.
    10030    2    1    2    0    0  0.00000000000E+00  0.00000000000E+00 -0.95461806272E+03  0.24905220003E+04  0.23003052381E+04 0.  0.
        4    1    3    3  502    0  0.56842126197E+02 -0.11122798199E+04 -0.16641990294E+03  0.11260970749E+04  0.12699999809E+01 0. -1.
       -4    1    3    3    0  502 -0.56842126197E+02  0.11122798199E+04 -0.78819815978E+03  0.13644249254E+04  0.12699999809E+01 0.  1.
</event>
<event>
 5   0  0.1828646E-06  0.2300009E+04  0.7818609E-02  0.8477917E-01
        2   -1    0    0  501    0  0.00000000000E+00  0.00000000000E+00  0.91289581790E+03  0.91289581790E+03  0.25500000920E-02 0. -1.
       -2   -1    0    0    0  501  0.00000000000E+00  0.00000000000E+00 -0.14486985005E+04  0.14486985005E+04  0.25500000920E-02 0.  1.
    10030    2    1    2    0    0  0.00000000000E+00  0.00000000000E+00 -0.53580268261E+03  0.23615943184E+04  0.23000093935E+04 0.  0.
        3    1    3    3  502    0 -0.27416625345E+03 -0.94844511156E+03  0.33763147235E+03  0.10434128069E+04  0.10100000352E+00 0. -1.
       -3    1    3    3    0  502  0.27416625345E+03  0.94844511156E+03 -0.87343415496E+03  0.13181815116E+04  0.10100000352E+00 0.  1.
</event>
<event>
 5   0  0.7607231E-07  0.2299949E+04  0.7818609E-02  0.8477941E-01
        1   -1    0    0  501    0  0.00000000000E+00  0.00000000000E+00  0.18277020570E+04  0.18277020570E+04  0.50400001928E-02 0.  1.
       -1   -1    0    0    0  501  0.00000000000E+00  0.00000000000E+00 -0.72355387339E+03  0.72355387340E+03  0.50400001928E-02 0. -1.
    10030    2    1    2    0    0  0.00000000000E+00  0.00000000000E+00  0.11041481836E+04  0.25512559304E+04  0.22999486105E+04 0.  0.
        2    1    3    3  502    0  0.49461248455E+03 -0.60839252849E+03  0.14852157584E+04  0.16794787369E+04  0.25500000920E-02 0.  1.
       -2    1    3    3    0  502 -0.49461248455E+03  0.60839252849E+03 -0.38106757479E+03  0.87177719353E+03  0.25500000920E-02 0. -1.
</event>
<event>
 5   0  0.7761069E-07  0.2303679E+04  0.7818609E-02  0.8476472E-01
        1   -1    0    0  501    0  0.00000000000E+00  0.00000000000E+00  0.91841568767E+03  0.91841568769E+03  0.50400001928E-02 0.  1.
       -1   -1    0    0    0  501  0.00000000000E+00  0.00000000000E+00 -0.14445900901E+04  0.14445900901E+04  0.50400001928E-02 0. -1.
    10030    2    1    2    0    0  0.00000000000E+00  0.00000000000E+00 -0.52617440238E+03  0.23630057778E+04  0.23036789716E+04 0.  0.
        1    1    3    3  502    0 -0.65714585205E+03  0.54027872033E+03 -0.10596110015E+04  0.13588661601E+04  0.50400001928E-02 0. -1.
       -1    1    3    3    0  502  0.65714585205E+03 -0.54027872033E+03  0.53343659910E+03  0.10041396177E+04  0.50400001928E-02 0.  1.
</event>
<event>
 5   0  0.1744876E-06  0.2299833E+04  0.7818609E-02  0.8477987E-01
       -2   -1    0    0    0  501  0.00000000000E+00  0.00000000000E+00  0.53992775254E+03  0.53992775255E+03  0.25500000920E-02 0.  1.
        2   -1    0    0  501    0  0.00000000000E+00  0.00000000000E+00 -0.24490467421E+04  0.24490467421E+04  0.25500000920E-02 0. -1.
    10030    2    1    2    0    0  0.00000000000E+00  0.00000000000E+00 -0.19091189896E+04  0.29889744946E+04  0.22998333012E+04 0.  0.
        1    1    3    3  502    0  0.33255293494E+03 -0.11000423841E+04 -0.10069274533E+04  0.15279357308E+04  0.50400001928E-02 0. -1.
       -1    1    3    3    0  502 -0.33255293494E+03  0.11000423841E+04 -0.90219153630E+03  0.14610387639E+04  0.50400001928E-02 0.  1.
</event>
<event>
 5   0  0.7932912E-07  0.2300400E+04  0.7818609E-02  0.8477763E-01
       -1   -1    0    0    0  501  0.00000000000E+00  0.00000000000E+00  0.14501781211E+04  0.14501781211E+04  0.50400001928E-02 0. -1.
        1   -1    0    0  501    0  0.00000000000E+00  0.00000000000E+00 -0.91227440702E+03  0.91227440703E+03  0.50400001928E-02 0.  1.
    10030    2    1    2    0    0  0.00000000000E+00  0.00000000000E+00  0.53790371405E+03  0.23624525281E+04  0.23004003004E+04 0.  0.
        5    1    3    3  502    0 -0.28507982407E+03 -0.96455645776E+03 -0.30403977414E+03  0.10507625519E+04  0.46999998093E+01 0.  1.
       -5    1    3    3    0  502  0.28507982407E+03  0.96455645776E+03  0.84194348819E+03  0.13116899762E+04  0.46999998093E+01 0. -1.
</event>
<event>
 5   0  0.8108242E-07  0.2300555E+04  0.7818609E-02  0.8477702E-01
       -1   -1    0    0    0  501  0.00000000000E+00  0.00000000000E+00  0.98186310318E+03  0.98186310319E+03  0.50400001928E-02 0.  1.
        1   -1    0    0  501    0  0.00000000000E+00  0.00000000000E+00 -0.13475797362E+04  0.13475797362E+04  0.50400001928E-02 0. -1.
    10030    2    1    2    0    0  0.00000000000E+00  0.00000000000E+00 -0.36571663306E+03  0.23294428394E+04  0.23005554300E+04 0.  0.
        4    1    3    3  502    0 -0.64316659270E+03 -0.56759338968E+03  0.59312731148E+03  0.10428936391E+04  0.12699999809E+01 0.  1.
       -4    1    3    3    0  502  0.64316659270E+03  0.56759338968E+03 -0.95884394454E+03  0.12865492003E+04  0.12699999809E+01 0. -1.
</event>
<event>
 5   0  0.1828646E-06  0.2300168E+04  0.7818609E-02  0.8477855E-01
       -2   -1    0    0    0  501  0.00000000000E+00  0.00000000000E+00  0.70190046906E+03  0.70190046906E+03  0.25500000920E-02 0.  1.
        2   -1    0    0  501    0  0.00000000000E+00  0.00000000000E+00 -0.18844457686E+04  0.18844457686E+04  0.25500000920E-02 0. -1.
    10030    2    1    2    0    0  0.00000000000E+00  0.00000000000E+00 -0.11825452995E+04  0.25863462376E+04  0.23001681407E+04 0.  0.
        3    1    3    3  502    0  0.36316247875E+03 -0.10875995740E+04 -0.49112043234E+03  0.12473808996E+04  0.10100000352E+00 0.  1.
       -3    1    3    3    0  502 -0.36316247875E+03  0.10875995740E+04 -0.69142486718E+03  0.13389653381E+04  0.10100000352E+00 0. -1.
</event>
<event>
 5   0  0.8108242E-07  0.2299429E+04  0.7818609E-02  0.8478146E-01
       -1   -1    0    0    0  501  0.00000000000E+00  0.00000000000E+00  0.63318656165E+03  0.63318656167E+03  0.50400001928E-02 0.  1.
        1   -1    0    0  501    0  0.00000000000E+00  0.00000000000E+00 -0.20876053180E+04  0.20876053181E+04  0.50400001928E-02 0. -1.
    10030    2    1    2    0    0  0.00000000000E+00  0.00000000000E+00 -0.14544187564E+04  0.27207918797E+04  0.22994291756E+04 0.  0.
        4    1    3    3  502    0 -0.29131498886E+03  0.44400672167E+03 -0.19337935734E+04  0.20053841500E+04  0.12699999809E+01 0. -1.
       -4    1    3    3    0  502  0.29131498886E+03 -0.44400672167E+03  0.47937481703E+03  0.71540772971E+03  0.12699999809E+01 0.  1.
</event>
<event>
 5   0  0.7761069E-07  0.2299484E+04  0.7818609E-02  0.8478125E-01
        1   -1    0    0  501    0  0.00000000000E+00  0.00000000000E+00  0.10495328068E+04  0.10495328068E+04  0.50400001928E-02 0. -1.
       -1   -1    0    0    0  501  0.00000000000E+00  0.00000000000E+00 -0.12595188524E+04  0.12595188524E+04  0.50400001928E-02 0.  1.
    10030    2    1    2    0    0  0.00000000000E+00  0.00000000000E+00 -0.20998604557E+03  0.23090516592E+04  0.22994837302E+04 0.  0.
        1    1    3    3  502    0 -0.83350810411E+03  0.75507644625E+03  0.13481051843E+03  0.11327180034E+04  0.50400001928E-02 0. -1.
       -1    1    3    3    0  502  0.83350810411E+03 -0.75507644625E+03 -0.34479656400E+03  0.11763336558E+04  0.50400001928E-02 0.  1.
</event>
<event>
 5   0  0.7607231E-07  0.2299690E+04  0.7818609E-02  0.8478043E-01
       -1   -1    0    0    0  501  0.00000000000E+00  0.00000000000E+00  0.10799191373E+04  0.10799191373E+04  0.50400001928E-02 0.  1.
        1   -1    0    0  501    0  0.00000000000E+00  0.00000000000E+00 -0.12242989824E+04  0.12242989824E+04  0.50400001928E-02 0. -1.
    10030    2    1    2    0    0  0.00000000000E+00  0.00000000000E+00 -0.14437984510E+03  0.23042181197E+04  0.22996903278E+04 0.  0.
        2    1    3    3  502    0  0.57804660362E+03 -0.98118418236E+03 -0.23151124437E+03  0.11620919636E+04  0.25500000920E-02 0. -1.
       -2    1    3    3    0  502 -0.57804660362E+03  0.98118418236E+03  0.87131399264E+02  0.11421261561E+04  0.25500000920E-02 0.  1.
</event>
<event>
 5   0  0.1744876E-06  0.2299526E+04  0.7818609E-02  0.8478108E-01
        2   -1    0    0  501    0  0.00000000000E+00  0.00000000000E+00  0.18435828920E+04  0.18435828920E+04  0.25500000920E-02 0.  1.
       -2   -1    0    0    0  501  0.00000000000E+00  0.00000000000E+00 -0.71705767662E+03  0.71705767663E+03  0.25500000920E-02 0. -1.
    10030    2    1    2    0    0  0.00000000000E+00  0.00000000000E+00  0.11265252154E+04  0.25606405686E+04  0.22995262688E+04 0.  0.
        1    1    3    3  502    0 -0.17316016745E+03 -0.11047430581E+04  0.86104880159E+03  0.14113279940E+04  0.50400001928E-02 0.  1.
       -1    1    3    3    0  502  0.17316016745E+03  0.11047430581E+04  0.26547641381E+03  0.11493125746E+04  0.50400001928E-02 0. -1.
</event>
<event>
 5   0  0.7932912E-07  0.2300302E+04  0.7818609E-02  0.8477802E-01
        1   -1    0    0  501    0  0.00000000000E+00  0.00000000000E+00  0.13442931741E+04  0.13442931741E+04  0.50400001928E-02 0.  1.
       -1   -1    0    0    0  501  0.00000000000E+00  0.00000000000E+00 -0.98404676884E+03  0.98404676885E+03  0.50400001928E-02 0. -1.
    10030    2    1    2    0    0  0.00000000000E+00  0.00000000000E+00  0.36024640527E+03  0.23283399430E+04  0.23003020275E+04 0.  0.
        5    1    3    3  502    0 -0.59672669274E+03 -0.86811013542E+03  0.64740738409E+03  0.12364693138E+04  0.46999998093E+01 0.  1.
       -5    1    3    3    0  502  0.59672669274E+03  0.86811013542E+03 -0.28716097882E+03  0.10918706291E+04  0.46999998093E+01 0. -1.
</event>
<event>
 5   0  0.1828646E-06  0.2300685E+04  0.7818609E-02  0.8477651E-01
       -2   -1    0    0    0  501  0.00000000000E+00  0.00000000000E+00  0.70074019157E+03  0.70074019158E+03  0.25500000920E-02 0.  1.
        2   -1    0    0  501    0  0.00000000000E+00  0.00000000000E+00 -0.18884146634E+04  0.18884146634E+04  0.25500000920E-02 0. -1.
    10030    2    1    2    0    0  0.00000000000E+00  0.00000000000E+00 -0.11876744718E+04  0.25891548550E+04  0.23006851614E+04 0.  0.
        3    1    3    3  502    0  0.16670496932E+03  0.11018082122E+04 -0.91514608726E+03  0.14419654138E+04  0.10100000352E+00 0.  1.
       -3    1    3    3    0  502 -0.16670496932E+03 -0.11018082122E+04 -0.27252838456E+03  0.11471894412E+04  0.10100000352E+00 0. -1.
</event>
<event>
 5   0  0.1689444E-06  0.2299059E+04  0.7818609E-02  0.8478292E-01
       -2   -1    0    0    0  501  0.00000000000E+00  0.00000000000E+00  0.56293226840E+03  0.56293226841E+03  0.25500000920E-02 0. -1.
        2   -1    0    0  501    0  0.00000000000E+00  0.00000000000E+00 -0.23473837789E+04  0.23473837789E+04  0.25500000920E-02 0.  1.
    10030    2    1    2    0    0  0.00000000000E+00  0.00000000000E+00 -0.17844515105E+04  0.29103160473E+04  0.22990590036E+04 0.  0.
        2    1    3    3  502    0  0.77526629747E+03 -0.67759718917E+03 -0.15392369277E+04  0.18518709735E+04  0.25500000920E-02 0.  1.
       -2    1    3    3    0  502 -0.77526629747E+03  0.67759718917E+03 -0.24521458281E+03  0.10584450739E+04  0.25500000920E-02 0. -1.
</event>
<event>
 5   0  0.1888779E-06  0.2301341E+04  0.7818609E-02  0.8477393E-01
       -2   -1    0    0    0  501  0.00000000000E+00  0.00000000000E+00  0.94495826963E+03  0.94495826963E+03  0.25500000920E-02 0. -1.
        2   -1    0    0  501    0  0.00000000000E+00  0.00000000000E+00 -0.14011646316E+04  0.14011646316E+04  0.25500000920E-02 0.  1.
    10030    2    1    2    0    0  0.00000000000E+00  0.00000000000E+00 -0.45620636197E+03  0.23461229012E+04  0.23013405708E+04 0.  0.
        4    1    3    3  502    0 -0.27242931779E+03  0.10299904580E+04 -0.67123669550E+03  0.12592292845E+04  0.12699999809E+01 0.  1.
       -4    1    3    3    0  502  0.27242931779E+03 -0.10299904580E+04  0.21503033353E+03  0.10868936167E+04  0.12699999809E+01 0. -1.
</event>
<event>
 5   0  0.1828646E-06  0.2299383E+04  0.7818609E-02  0.8478164E-01
       -2   -1    0    0    0  501  0.00000000000E+00  0.00000000000E+00  0.88775127784E+03  0.88775127784E+03  0.25500000920E-02 0. -1.
        2   -1    0    0  501    0  0.00000000000E+00  0.00000000000E+00 -0.14889197777E+04  0.14889197777E+04  0.25500000920E-02 0.  1.
    10030    2    1    2    0    0  0.00000000000E+00  0.00000000000E+00 -0.60116849982E+03  0.23766710555E+04  0.22993829044E+04 0.  0.
        3    1    3    3  502    0 -0.28354807427E+03 -0.38370682292E+03  0.78059622390E+03  0.91485567787E+03  0.10100000352E+00 0. -1.
       -3    1    3    3    0  502  0.28354807427E+03  0.38370682292E+03 -0.13817647237E+04  0.14618153776E+04  0.10100000352E+00 0.  1.
</event>
<event>
 5   0  0.7761069E-07  0.2300032E+04  0.7818609E-02  0.8477909E-01
        1   -1    0    0  501    0  0.00000000000E+00  0.00000000000E+00  0.15967718429E+04  0.15967718429E+04  0.50400001928E-02 0.  1.
       -1   -1    0    0    0  501  0.00000000000E+00  0.00000000000E+00 -0.82825643300E+03  0.82825643301E+03  0.50400001928E-02 0. -1.
    10030    2    1    2    0    0  0.00000000000E+00  0.00000000000E+00  0.76851540989E+03  0.24250282759E+04  0.23000317832E+04 0.  0.
        1    1    3    3  502    0  0.50807084431E+03  0.95015339560E+02  0.14674009304E+04  0.15557729231E+04  0.50400001928E-02 0.  1.
       -1    1    3    3    0  502 -0.50807084431E+03 -0.95015339560E+02 -0.69888552052E+03  0.86925535282E+03  0.50400001928E-02 0. -1.
</event>
<event>
 5   0  0.7932912E-07  0.2298107E+04  0.7818609E-02  0.8478668E-01
       -1   -1    0    0    0  501  0.00000000000E+00  0.00000000000E+00  0.72029908079E+03  0.72029908081E+03  0.50400001928E-02 0.  1.
        1   -1    0    0  501    0  0.00000000000E+00  0.00000000000E+00 -0.18330211740E+04  0.18330211741E+04  0.50400001928E-02 0. -1.
    10030    2    1    2    0    0  0.00000000000E+00  0.00000000000E+00 -0.11127220933E+04  0.25533202549E+04  0.22981065831E+04 0.  0.
        5    1    3    3  502    0 -0.53629220878E+02  0.51789224331E+03 -0.16944257026E+04  0.17726220749E+04  0.46999998093E+01 0. -1.
       -5    1    3    3    0  502  0.53629220878E+02 -0.51789224331E+03  0.58170360933E+03  0.78069817991E+03  0.46999998093E+01 0.  1.
</event>
<event>
 5   0  0.6319125E-07  0.2299836E+04  0.7818609E-02  0.8477986E-01
        3   -1    0    0  501    0  0.00000000000E+00  0.00000000000E+00  0.15158039954E+04  0.15158039987E+04  0.10100000352E+00 0. -1.
       -3   -1    0    0    0  501  0.00000000000E+00  0.00000000000E+00 -0.87235001930E+03  0.87235002514E+03  0.10100000352E+00 0.  1.
    10030    2    1    2    0    0  0.00000000000E+00  0.00000000000E+00  0.64345397606E+03  0.23881540239E+04  0.22998362164E+04 0.  0.
        1    1    3    3  502    0  0.95684976503E+03 -0.14166435304E+03  0.96744375277E+03  0.13680561672E+04  0.50400001928E-02 0. -1.
       -1    1    3    3    0  502 -0.95684976503E+03  0.14166435304E+03 -0.32398977671E+03  0.10200978567E+04  0.50400001928E-02 0.  1.
</event>
<event>
 5   0  0.1888779E-06  0.2301539E+04  0.7818609E-02  0.8477315E-01
        2   -1    0    0  501    0  0.00000000000E+00  0.00000000000E+00  0.19372978616E+04  0.19372978616E+04  0.25500000920E-02 0.  1.
       -2   -1    0    0    0  501  0.00000000000E+00  0.00000000000E+00 -0.68356557033E+03  0.68356557034E+03  0.25500000920E-02 0. -1.
    10030    2    1    2    0    0  0.00000000000E+00  0.00000000000E+00  0.12537322913E+04  0.26208634320E+04  0.23015387181E+04 0.  0.
        4    1    3    3  502    0  0.10427096654E+04  0.21304346838E+03  0.12836472700E+03  0.10719655227E+04  0.12699999809E+01 0. -1.
       -4    1    3    3    0  502 -0.10427096654E+04 -0.21304346838E+03  0.11253675643E+04  0.15488979093E+04  0.12699999809E+01 0.  1.
</event>
<event>
 5   0  0.1689444E-06  0.2301301E+04  0.7818609E-02  0.8477408E-01
        2   -1    0    0  501    0  0.00000000000E+00  0.00000000000E+00  0.23947042624E+04  0.23947042624E+04  0.25500000920E-02 0. -1.
       -2   -1    0    0    0  501  0.00000000000E+00  0.00000000000E+00 -0.55288528474E+03  0.55288528474E+03  0.25500000920E-02 0.  1.
    10030    2    1    2    0    0  0.00000000000E+00  0.00000000000E+00  0.18418189777E+04  0.29475895471E+04  0.23013011519E+04 0.  0.
        2    1    3    3  502    0  0.79989416325E+03  0.62547684268E+03  0.16141540096E+04  0.19069727633E+04  0.25500000920E-02 0. -1.
       -2    1    3    3    0  502 -0.79989416325E+03 -0.62547684268E+03  0.22766496801E+03  0.10406167838E+04  0.25500000920E-02 0.  1.
</event>
<event>
 5   0  0.7607231E-07  0.2299745E+04  0.7818609E-02  0.8478022E-01
       -1   -1    0    0    0  501  0.00000000000E+00  0.00000000000E+00  0.12255694038E+04  0.12255694039E+04  0.50400001928E-02 0.  1.
        1   -1    0    0  501    0  0.00000000000E+00  0.00000000000E+00 -0.10788511037E+04  0.10788511037E+04  0.50400001928E-02 0. -1.
    10030    2    1    2    0    0  0.00000000000E+00  0.00000000000E+00  0.14671830017E+03  0.23044205075E+04  0.22997451198E+04 0.  0.
        2    1    3    3  502    0 -0.79931626617E+02  0.44928183643E+03  0.11309496458E+04  0.12195451344E+04  0.25500000920E-02 0.  1.
       -2    1    3    3    0  502  0.79931626617E+02 -0.44928183643E+03 -0.98423134564E+03  0.10848753731E+04  0.25500000920E-02 0. -1.
</event>
<event>
 5   0  0.6319125E-07  0.2306626E+04  0.7818609E-02  0.8475313E-01
        4   -1    0    0  501    0  0.00000000000E+00  0.00000000000E+00  0.14189904409E+04  0.14189910093E+04  0.12699999809E+01 0.  1.
       -4   -1    0    0    0  501  0.00000000000E+00  0.00000000000E+00 -0.93737729146E+03  0.93737815178E+03  0.12699999809E+01 0. -1.
    10030    2    1    2    0    0  0.00000000000E+00  0.00000000000E+00  0.48161314948E+03  0.23563691610E+04  0.23066261937E+04 0.  0.
        4    1    3    3  502    0 -0.10275887105E+04  0.18445760593E+03 -0.25982952538E+03  0.10758606608E+04  0.12699999809E+01 0. -1.
       -4    1    3    3    0  502  0.10275887105E+04 -0.18445760593E+03  0.74144267487E+03  0.12805085003E+04  0.12699999809E+01 0.  1.
</event>
<event>
 5   0  0.1744876E-06  0.2301958E+04  0.7818609E-02  0.8477150E-01
        2   -1    0    0  501    0  0.00000000000E+00  0.00000000000E+00  0.13135787299E+04  0.13135787299E+04  0.25500000920E-02 0. -1.
       -2   -1    0    0    0  501  0.00000000000E+00  0.00000000000E+00 -0.10085060918E+04  0.10085060918E+04  0.25500000920E-02 0.  1.
    10030    2    1    2    0    0  0.00000000000E+00  0.00000000000E+00  0.30507263808E+03  0.23220848217E+04  0.23019575593E+04 0.  0.
        1    1    3    3  502    0 -0.76103167032E+03 -0.20529915044E+03 -0.69350742361E+03  0.10498902281E+04  0.50400001928E-02 0.  1.
       -1    1    3    3    0  502  0.76103167032E+03  0.20529915044E+03  0.99858006169E+03  0.12721945936E+04  0.50400001928E-02 0. -1.
</event>
<event>
 5   0  0.8108242E-07  0.2299848E+04  0.7818609E-02  0.8477981E-01
        1   -1    0    0  501    0  0.00000000000E+00  0.00000000000E+00  0.11309350396E+04  0.11309350396E+04  0.50400001928E-02 0.  1.
       -1   -1    0    0    0  501  0.00000000000E+00  0.00000000000E+00 -0.11692317215E+04  0.11692317215E+04  0.50400001928E-02 0. -1.
    10030    2    1    2    0    0  0.00000000000E+00  0.00000000000E+00 -0.38296681938E+02  0.23001667611E+04  0.22998479282E+04 0.  0.
        4    1    3    3  502    0 -0.79873036335E+03  0.22138940793E+03 -0.81634105064E+03  0.11633562598E+04  0.12699999809E+01 0. -1.
       -4    1    3    3    0  502  0.79873036335E+03 -0.22138940793E+03  0.77804436870E+03  0.11368105013E+04  0.12699999809E+01 0.  1.
</event>
<event>
 5   0  0.7932912E-07  0.2300141E+04  0.7818609E-02  0.8477865E-01
       -1   -1    0    0    0  501  0.00000000000E+00  0.00000000000E+00  0.70977655515E+03  0.70977655516E+03  0.50400001928E-02 0. -1.
        1   -1    0    0  501    0  0.00000000000E+00  0.00000000000E+00 -0.18634910851E+04  0.18634910851E+04  0.50400001928E-02 0.  1.
    10030    2    1    2    0    0  0.00000000000E+00  0.00000000000E+00 -0.11537145299E+04  0.25732676402E+04  0.23001411113E+04 0.  0.
        5    1    3    3  502    0 -0.49220460168E+03 -0.62627257778E+03 -0.15049137207E+04  0.17027243196E+04  0.46999998093E+01 0.  1.
       -5    1    3    3    0  502  0.49220460168E+03  0.62627257778E+03  0.35119919079E+03  0.87054332070E+03  0.46999998093E+01 0. -1.
</event>
<event>
 5   0  0.7761069E-07  0.2300629E+04  0.7818609E-02  0.8477673E-01
       -1   -1    0    0    0  501  0.00000000000E+00  0.00000000000E+00  0.94082531361E+03  0.94082531362E+03  0.50400001928E-02 0. -1.
        1   -1    0    0  501    0  0.00000000000E+00  0.00000000000E+00 -0.14064495992E+04  0.14064495992E+04  0.50400001928E-02 0.  1.
    10030    2    1    2    0    0  0.00000000000E+00  0.00000000000E+00 -0.46562428557E+03  0.23472749128E+04  0.23006289447E+04 0.  0.
        1    1    3    3  502    0  0.96474341382E+03  0.61232104305E+03 -0.97624813373E+02  0.11468206130E+04  0.50400001928E-02 0. -1.
       -1    1    3    3    0  502 -0.96474341382E+03 -0.61232104305E+03 -0.36799947220E+03  0.12004542998E+04  0.50400001928E-02 0.  1.
</event>
<event>
 5   0  0.8097672E-07  0.2286659E+04  0.7818609E-02  0.8483200E-01
        1   -1    0    0  501    0  0.00000000000E+00  0.00000000000E+00  0.14354903993E+04  0.14354903993E+04  0.50400001928E-02 0. -1.
       -1   -1    0    0    0  501  0.00000000000E+00  0.00000000000E+00 -0.91063081469E+03  0.91063081471E+03  0.50400001928E-02 0.  1.
    10030    2    1    2    0    0  0.00000000000E+00  0.00000000000E+00  0.52485958457E+03  0.23461212140E+04  0.22866585156E+04 0.  0.
        3    1    3    3  502    0 -0.89278273144E+03  0.44857994002E+03 -0.30782626458E+03  0.10454864837E+04  0.10100000352E+00 0.  1.
       -3    1    3    3    0  502  0.89278273144E+03 -0.44857994002E+03  0.83268584915E+03  0.13006347303E+04  0.10100000352E+00 0. -1.
</event>
<event>
 5   0  0.1744876E-06  0.2300224E+04  0.7818609E-02  0.8477833E-01
        2   -1    0    0  501    0  0.00000000000E+00  0.00000000000E+00  0.21274724917E+04  0.21274724917E+04  0.25500000920E-02 0.  1.
       -2   -1    0    0    0  501  0.00000000000E+00  0.00000000000E+00 -0.62175074417E+03  0.62175074418E+03  0.25500000920E-02 0. -1.
    10030    2    1    2    0    0  0.00000000000E+00  0.00000000000E+00  0.15057217476E+04  0.27492232359E+04  0.23002239934E+04 0.  0.
        1    1    3    3  502    0 -0.26617850124E+03 -0.63406719432E+03  0.18546917841E+04  0.19780732584E+04  0.50400001928E-02 0.  1.
       -1    1    3    3    0  502  0.26617850124E+03  0.63406719432E+03 -0.34897003654E+03  0.77114997754E+03  0.50400001928E-02 0. -1.
</event>
<event>
 5   0  0.1744876E-06  0.2300510E+04  0.7818609E-02  0.8477720E-01
        2   -1    0    0  501    0  0.00000000000E+00  0.00000000000E+00  0.85001006455E+03  0.85001006455E+03  0.25500000920E-02 0. -1.
       -2   -1    0    0    0  501  0.00000000000E+00  0.00000000000E+00 -0.15565542333E+04  0.15565542333E+04  0.25500000920E-02 0.  1.
    10030    2    1    2    0    0  0.00000000000E+00  0.00000000000E+00 -0.70654416879E+03  0.24065642979E+04  0.23005101733E+04 0.  0.
        1    1    3    3  502    0 -0.71188686501E+03 -0.12736820635E+03 -0.12889800855E+04  0.14779970329E+04  0.50400001928E-02 0.  1.
       -1    1    3    3    0  502  0.71188686501E+03  0.12736820635E+03  0.58243591666E+03  0.92856726499E+03  0.50400001928E-02 0. -1.
</event>
<event>
 5   0  0.6319125E-07  0.2299954E+04  0.7818609E-02  0.8477939E-01
       -3   -1    0    0    0  501  0.00000000000E+00  0.00000000000E+00  0.11627118680E+04  0.11627118724E+04  0.10100000352E+00 0.  1.
        3   -1    0    0  501    0  0.00000000000E+00  0.00000000000E+00 -0.11373814557E+04  0.11373814602E+04  0.10100000352E+00 0. -1.
    10030    2    1    2    0    0  0.00000000000E+00  0.00000000000E+00  0.25330412231E+02  0.23000933326E+04  0.22999538493E+04 0.  0.
        2    1    3    3  502    0  0.32106852610E+03 -0.63377877923E+03 -0.89164976654E+03  0.11400876482E+04  0.25500000920E-02 0. -1.
       -2    1    3    3    0  502 -0.32106852610E+03  0.63377877923E+03  0.91698017878E+03  0.11600056844E+04  0.25500000920E-02 0.  1.
</event>
<event>
 5   0  0.1888779E-06  0.2307251E+04  0.7818609E-02  0.8475068E-01
       -2   -1    0    0    0  501  0.00000000000E+00  0.00000000000E+00  0.69602576373E+03  0.69602576374E+03  0.25500000920E-02 0.  1.
        2   -1    0    0  501    0  0.00000000000E+00  0.00000000000E+00 -0.19120724333E+04  0.19120724333E+04  0.25500000920E-02 0. -1.
    10030    2    1    2    0    0  0.00000000000E+00  0.00000000000E+00 -0.12160466696E+04  0.26080981970E+04  0.23072508972E+04 0.  0.
        4    1    3    3  502    0 -0.92069918767E+03  0.78931790126E+02  0.17262911990E+03  0.94006364019E+03  0.12699999809E+01 0.  1.
       -4    1    3    3    0  502  0.92069918767E+03 -0.78931790126E+02 -0.13886757895E+04  0.16680345568E+04  0.12699999809E+01 0. -1.
</event>
<event>
 5   0  0.7607231E-07  0.2300051E+04  0.7818609E-02  0.8477901E-01
        1   -1    0    0  501    0  0.00000000000E+00  0.00000000000E+00  0.97011200903E+03  0.97011200904E+03  0.50400001928E-02 0.  1.
       -1   -1    0    0    0  501  0.00000000000E+00  0.00000000000E+00 -0.13633050645E+04  0.13633050645E+04  0.50400001928E-02 0. -1.
    10030    2    1    2    0    0  0.00000000000E+00  0.00000000000E+00 -0.39319305545E+03  0.23334170735E+04  0.23000509690E+04 0.  0.
        2    1    3    3  502    0  0.98974165264E+03  0.31065598329E+03  0.30705565467E+03  0.10818404938E+04  0.25500000920E-02 0.  1.
       -2    1    3    3    0  502 -0.98974165264E+03 -0.31065598329E+03 -0.70024871012E+03  0.12515765797E+04  0.25500000920E-02 0. -1.
</event>
<event>
 5   0  0.1825521E-06  0.2300927E+04  0.7818609E-02  0.8477556E-01
        2   -1    0    0  501    0  0.00000000000E+00  0.00000000000E+00  0.17946888706E+04  0.17946888706E+04  0.25500000920E-02 0.  1.
       -2   -1    0    0    0  501  0.00000000000E+00  0.00000000000E+00 -0.73749049085E+03  0.73749049085E+03  0.25500000920E-02 0. -1.
    10030    2    1    2    0    0  0.00000000000E+00  0.00000000000E+00  0.10571983797E+04  0.25321793614E+04  0.23009267490E+04 0.  0.
        5    1    3    3  502    0  0.10208258060E+04 -0.36664954832E+03  0.95057711293E+03  0.14422677127E+04  0.46999998093E+01 0.  1.
       -5    1    3    3    0  502 -0.10208258060E+04  0.36664954832E+03  0.10662126680E+03  0.10899116487E+04  0.46999998093E+01 0. -1.
</event>
<event>
 5   0  0.1825521E-06  0.2299597E+04  0.7818609E-02  0.8478080E-01
       -2   -1    0    0    0  501  0.00000000000E+00  0.00000000000E+00  0.94604975516E+03  0.94604975516E+03  0.25500000920E-02 0.  1.
        2   -1    0    0  501    0  0.00000000000E+00  0.00000000000E+00 -0.13974282603E+04  0.13974282603E+04  0.25500000920E-02 0. -1.
    10030    2    1    2    0    0  0.00000000000E+00  0.00000000000E+00 -0.45137850515E+03  0.23434780155E+04  0.22995970634E+04 0.  0.
        5    1    3    3  502    0  0.57776383695E+02 -0.38390316955E+02  0.94390556596E+03  0.94646274855E+03  0.46999998093E+01 0.  1.
       -5    1    3    3    0  502 -0.57776383695E+02  0.38390316955E+02 -0.13952840711E+04  0.13970152669E+04  0.46999998093E+01 0. -1.
</event>
<event>
 5   0  0.1828646E-06  0.2310907E+04  0.7818609E-02  0.8473633E-01
        2   -1    0    0  501    0  0.00000000000E+00  0.00000000000E+00  0.13985668786E+04  0.13985668786E+04  0.25500000920E-02 0.  1.
       -2   -1    0    0    0  501  0.00000000000E+00  0.00000000000E+00 -0.95460092028E+03  0.95460092028E+03  0.25500000920E-02 0. -1.
    10030    2    1    2    0    0  0.00000000000E+00  0.00000000000E+00  0.44396595831E+03  0.23531677989E+04  0.23109073797E+04 0.  0.
        3    1    3    3  502    0 -0.28523989807E+02  0.11317315561E+04  0.45738865748E+03  0.12209972675E+04  0.10100000352E+00 0.  1.
       -3    1    3    3    0  502  0.28523989807E+02 -0.11317315561E+04 -0.13422699174E+02  0.11321705314E+04  0.10100000352E+00 0. -1.
</event>
<event>
 5   0  0.1825521E-06  0.2314713E+04  0.7818609E-02  0.8472142E-01
       -2   -1    0    0    0  501  0.00000000000E+00  0.00000000000E+00  0.13020681815E+04  0.13020681815E+04  0.25500000920E-02 0. -1.
        2   -1    0    0  501    0  0.00000000000E+00  0.00000000000E+00 -0.10287282694E+04  0.10287282694E+04  0.25500000920E-02 0.  1.
    10030    2    1    2    0    0  0.00000000000E+00  0.00000000000E+00  0.27333991209E+03  0.23307964508E+04  0.23147132409E+04 0.  0.
        5    1    3    3  502    0  0.11489373830E+04  0.80363767335E+00  0.27690173946E+03  0.11818436526E+04  0.46999998093E+01 0. -1.
       -5    1    3    3    0  502 -0.11489373830E+04 -0.80363767335E+00 -0.35618273751E+01  0.11489527982E+04  0.46999998093E+01 0.  1.
</event>
<event>
 5   0  0.1689444E-06  0.2299395E+04  0.7818609E-02  0.8478160E-01
       -2   -1    0    0    0  501  0.00000000000E+00  0.00000000000E+00  0.70703590284E+03  0.70703590284E+03  0.25500000920E-02 0.  1.
        2   -1    0    0  501    0  0.00000000000E+00  0.00000000000E+00 -0.18695005877E+04  0.18695005877E+04  0.25500000920E-02 0. -1.
    10030    2    1    2    0    0  0.00000000000E+00  0.00000000000E+00 -0.11624646848E+04  0.25765364905E+04  0.22993947342E+04 0.  0.
        2    1    3    3  502    0 -0.79824365163E+03  0.24396807095E+03 -0.14671518812E+04  0.16879715606E+04  0.25500000920E-02 0. -1.
       -2    1    3    3    0  502  0.79824365163E+03 -0.24396807095E+03  0.30468719634E+03  0.88856492990E+03  0.25500000920E-02 0.  1.
</event>
<event>
 5   0  0.1825521E-06  0.2301392E+04  0.7818609E-02  0.8477372E-01
       -2   -1    0    0    0  501  0.00000000000E+00  0.00000000000E+00  0.91128060338E+03  0.91128060338E+03  0.25500000920E-02 0.  1.
        2   -1    0    0  501    0  0.00000000000E+00  0.00000000000E+00 -0.14530116971E+04  0.14530116971E+04  0.25500000920E-02 0. -1.
    10030    2    1    2    0    0  0.00000000000E+00  0.00000000000E+00 -0.54173109368E+03  0.23642923004E+04  0.23013920796E+04 0.  0.
        5    1    3    3  502    0  0.66686640773E+02 -0.27466568931E+03 -0.14167849432E+04  0.14447110487E+04  0.46999998093E+01 0. -1.
       -5    1    3    3    0  502 -0.66686640773E+02  0.27466568931E+03  0.87505384954E+03  0.91958125173E+03  0.46999998093E+01 0.  1.
</event>
<event>
 5   0  0.1689444E-06  0.2302414E+04  0.7818609E-02  0.8476970E-01
        2   -1    0    0  501    0  0.00000000000E+00  0.00000000000E+00  0.14287426532E+04  0.14287426532E+04  0.25500000920E-02 0.  1.
       -2   -1    0    0    0  501  0.00000000000E+00  0.00000000000E+00 -0.92758283529E+03  0.92758283529E+03  0.25500000920E-02 0. -1.
    10030    2    1    2    0    0  0.00000000000E+00  0.00000000000E+00  0.50115981796E+03  0.23563254885E+04  0.23024136563E+04 0.  0.
        2    1    3    3  502    0 -0.31330574375E+03 -0.10343673129E+04 -0.15518967495E+03  0.10918608255E+04  0.25500000920E-02 0. -1.
       -2    1    3    3    0  502  0.31330574375E+03  0.10343673129E+04  0.65634949291E+03  0.12644646630E+04  0.25500000920E-02 0.  1.
</event>
<event>
 5   0  0.1888779E-06  0.2303484E+04  0.7818609E-02  0.8476549E-01
        2   -1    0    0  501    0  0.00000000000E+00  0.00000000000E+00  0.15163320700E+04  0.15163320700E+04  0.25500000920E-02 0. -1.
       -2   -1    0    0    0  501  0.00000000000E+00  0.00000000000E+00 -0.87481448660E+03  0.87481448661E+03  0.25500000920E-02 0.  1.
    10030    2    1    2    0    0  0.00000000000E+00  0.00000000000E+00  0.64151758344E+03  0.23911465566E+04  0.23034836760E+04 0.  0.
        4    1    3    3  502    0  0.51259752352E+03 -0.52442399033E+03  0.12426623386E+04  0.14429095756E+04  0.12699999809E+01 0. -1.
       -4    1    3    3    0  502 -0.51259752352E+03  0.52442399033E+03 -0.60114475512E+03  0.94823698106E+03  0.12699999809E+01 0.  1.
</event>
<event>
 5   0  0.1744876E-06  0.2297666E+04  0.7818609E-02  0.8478842E-01
       -2   -1    0    0    0  501  0.00000000000E+00  0.00000000000E+00  0.74125675847E+03  0.74125675847E+03  0.25500000920E-02 0.  1.
        2   -1    0    0  501    0  0.00000000000E+00  0.00000000000E+00 -0.17805134894E+04  0.17805134894E+04  0.25500000920E-02 0. -1.
    10030    2    1    2    0    0  0.00000000000E+00  0.00000000000E+00 -0.10392567309E+04  0.25217702478E+04  0.22976663444E+04 0.  0.
        1    1    3    3  502    0  0.94201175552E+03 -0.38944380634E+03 -0.11011823855E+04  0.15005516559E+04  0.50400001928E-02 0.  1.
       -1    1    3    3    0  502 -0.94201175552E+03  0.38944380634E+03  0.61925654583E+02  0.10212185920E+04  0.50400001928E-02 0. -1.
</event>
<event>
 5   0  0.7761069E-07  0.2300966E+04  0.7818609E-02  0.8477540E-01
       -1   -1    0    0    0  501  0.00000000000E+00  0.00000000000E+00  0.55741214528E+03  0.55741214530E+03  0.50400001928E-02 0. -1.
        1   -1    0    0  501    0  0.00000000000E+00  0.00000000000E+00 -0.23745640415E+04  0.23745640415E+04  0.50400001928E-02 0.  1.
    10030    2    1    2    0    0  0.00000000000E+00  0.00000000000E+00 -0.18171518963E+04  0.29319761868E+04  0.23009657421E+04 0.  0.
        1    1    3    3  502    0 -0.12600884689E+03  0.48051836437E+03 -0.22308601482E+04  0.22855006298E+04  0.50400001928E-02 0.  1.
       -1    1    3    3    0  502  0.12600884689E+03 -0.48051836437E+03  0.41370825199E+03  0.64647555699E+03  0.50400001928E-02 0. -1.
</event>
<event>
 5   0  0.7932912E-07  0.2300680E+04  0.7818609E-02  0.8477653E-01
       -1   -1    0    0    0  501  0.00000000000E+00  0.00000000000E+00  0.77789467423E+03  0.77789467425E+03  0.50400001928E-02 0.  1.
        1   -1    0    0  501    0  0.00000000000E+00  0.00000000000E+00 -0.17011076745E+04  0.17011076745E+04  0.50400001928E-02 0. -1.
    10030    2    1    2    0    0  0.00000000000E+00  0.00000000000E+00 -0.92321300026E+03  0.24790023487E+04  0.23006804214E+04 0.  0.
        5    1    3    3  502    0 -0.15487201754E+03  0.83655694050E+03  0.37264361243E+03  0.92881548673E+03  0.46999998093E+01 0.  1.
       -5    1    3    3    0  502  0.15487201754E+03 -0.83655694050E+03 -0.12958566127E+04  0.15501868620E+04  0.46999998093E+01 0. -1.
</event>
<event>
 5   0  0.7607231E-07  0.2300369E+04  0.7818609E-02  0.8477776E-01
       -1   -1    0    0    0  501  0.00000000000E+00  0.00000000000E+00  0.19634699943E+04  0.19634699943E+04  0.50400001928E-02 0. -1.
        1   -1    0    0  501    0  0.00000000000E+00  0.00000000000E+00 -0.67376865726E+03  0.67376865728E+03  0.50400001928E-02 0.  1.
    10030    2    1    2    0    0  0.00000000000E+00  0.00000000000E+00  0.12897013370E+04  0.26372386516E+04  0.23003691370E+04 0.  0.
        2    1    3    3  502    0  0.21323011001E+03  0.98622117671E+03  0.12778122796E+04  0.16281595472E+04  0.25500000920E-02 0. -1.
       -2    1    3    3    0  502 -0.21323011001E+03 -0.98622117671E+03  0.11889057425E+02  0.10090791044E+04  0.25500000920E-02 0.  1.
</event>
<event>
 5   0  0.7932912E-07  0.2300183E+04  0.7818609E-02  0.8477849E-01
        1   -1    0    0  501    0  0.00000000000E+00  0.00000000000E+00  0.19219925720E+04  0.19219925720E+04  0.50400001928E-02 0.  1.
       -1   -1    0    0    0  501  0.00000000000E+00  0.00000000000E+00 -0.68819771097E+03  0.68819771099E+03  0.50400001928E-02 0. -1.
    10030    2    1    2    0    0  0.00000000000E+00  0.00000000000E+00  0.12337948610E+04  0.26101902829E+04  0.23001833740E+04 0.  0.
        5    1    3    3  502    0 -0.59470419971E+03 -0.37389957553E+02  0.17331477895E+04  0.18327286882E+04  0.46999998093E+01 0.  1.
       -5    1    3    3    0  502  0.59470419971E+03  0.37389957553E+02 -0.49935292856E+03  0.77746159477E+03  0.46999998093E+01 0. -1.
</event>
<event>
 5   0  0.1744876E-06  0.2299808E+04  0.7818609E-02  0.8477997E-01
       -2   -1    0    0    0  501  0.00000000000E+00  0.00000000000E+00  0.10171366180E+04  0.10171366180E+04  0.25500000920E-02 0. -1.
        2   -1    0    0  501    0  0.00000000000E+00  0.00000000000E+00 -0.13000011756E+04  0.13000011756E+04  0.25500000920E-02 0.  1.
    10030    2    1    2    0    0  0.00000000000E+00  0.00000000000E+00 -0.28286455761E+03  0.23171377937E+04  0.22998076435E+04 0.  0.
        1    1    3    3  502    0 -0.47100832361E+03  0.65620608395E+03  0.68316243968E+03  0.10579065103E+04  0.50400001928E-02 0. -1.
       -1    1    3    3    0  502  0.47100832361E+03 -0.65620608395E+03 -0.96602699729E+03  0.12592312834E+04  0.50400001928E-02 0.  1.
</event>
<event>
 5   0  0.1689444E-06  0.2299984E+04  0.7818609E-02  0.8477928E-01
       -2   -1    0    0    0  501  0.00000000000E+00  0.00000000000E+00  0.11914509018E+04  0.11914509018E+04  0.25500000920E-02 0. -1.
        2   -1    0    0  501    0  0.00000000000E+00  0.00000000000E+00 -0.11099753519E+04  0.11099753519E+04  0.25500000920E-02 0.  1.
    10030    2    1    2    0    0  0.00000000000E+00  0.00000000000E+00  0.81475549934E+02  0.23014262536E+04  0.22999835947E+04 0.  0.
        2    1    3    3  502    0 -0.10383974631E+04 -0.43946238706E+03  0.26689868754E+03  0.11587197204E+04  0.25500000920E-02 0. -1.
       -2    1    3    3    0  502  0.10383974631E+04  0.43946238706E+03 -0.18542313761E+03  0.11427065332E+04  0.25500000920E-02 0.  1.
</event>
<event>
 5   0  0.8108242E-07  0.2298967E+04  0.7818609E-02  0.8478329E-01
       -1   -1    0    0    0  501  0.00000000000E+00  0.00000000000E+00  0.75178055934E+03  0.75178055936E+03  0.50400001928E-02 0. -1.
        1   -1    0    0  501    0  0.00000000000E+00  0.00000000000E+00 -0.17575766295E+04  0.17575766295E+04  0.50400001928E-02 0.  1.
    10030    2    1    2    0    0  0.00000000000E+00  0.00000000000E+00 -0.10057960701E+04  0.25093571888E+04  0.22989666736E+04 0.  0.
        4    1    3    3  502    0 -0.83425277833E+03 -0.74330883492E+03 -0.79745471903E+03  0.13727422788E+04  0.12699999809E+01 0.  1.
       -4    1    3    3    0  502  0.83425277833E+03  0.74330883492E+03 -0.20834135110E+03  0.11366149100E+04  0.12699999809E+01 0. -1.
</event>
<event>
 5   0  0.7607231E-07  0.2299411E+04  0.7818609E-02  0.8478153E-01
        1   -1    0    0  501    0  0.00000000000E+00  0.00000000000E+00  0.18046429000E+04  0.18046429000E+04  0.50400001928E-02 0. -1.
       -1   -1    0    0    0  501  0.00000000000E+00  0.00000000000E+00 -0.73245689202E+03  0.73245689204E+03  0.50400001928E-02 0.  1.
    10030    2    1    2    0    0  0.00000000000E+00  0.00000000000E+00  0.10721860080E+04  0.25370997920E+04  0.22994113419E+04 0.  0.
        2    1    3    3  502    0  0.65592792356E+02  0.92352181034E+03  0.12881896541E+04  0.15863882039E+04  0.25500000920E-02 0. -1.
       -2    1    3    3    0  502 -0.65592792356E+02 -0.92352181034E+03 -0.21600364615E+03  0.95071158810E+03  0.25500000920E-02 0.  1.
</event>
<event>
 5   0  0.7607231E-07  0.2300861E+04  0.7818609E-02  0.8477582E-01
        1   -1    0    0  501    0  0.00000000000E+00  0.00000000000E+00  0.12076214192E+04  0.12076214192E+04  0.50400001928E-02 0. -1.
       -1   -1    0    0    0  501  0.00000000000E+00  0.00000000000E+00 -0.10959480061E+04  0.10959480061E+04  0.50400001928E-02 0.  1.
    10030    2    1    2    0    0  0.00000000000E+00  0.00000000000E+00  0.11167341305E+03  0.23035694253E+04  0.23008609575E+04 0.  0.
        2    1    3    3  502    0  0.11238512872E+04  0.61210260683E+02  0.29423856665E+03  0.11633420589E+04  0.25500000920E-02 0. -1.
       -2    1    3    3    0  502 -0.11238512872E+04 -0.61210260683E+02 -0.18256515360E+03  0.11402273664E+04  0.25500000920E-02 0.  1.
</event>
<event>
 5   0  0.1689444E-06  0.2301661E+04  0.7818609E-02  0.8477267E-01
       -2   -1    0    0    0  501  0.00000000000E+00  0.00000000000E+00  0.13801428428E+04  0.13801428428E+04  0.25500000920E-02 0.  1.
        2   -1    0    0  501    0  0.00000000000E+00  0.00000000000E+00 -0.95961826854E+03  0.95961826854E+03  0.25500000920E-02 0. -1.
    10030    2    1    2    0    0  0.00000000000E+00  0.00000000000E+00  0.42052457424E+03  0.23397611113E+04  0.23016605181E+04 0.  0.
        2    1    3    3  502    0  0.91385252805E+03 -0.36013651687E+03 -0.39931861832E+03  0.10603207594E+04  0.25500000920E-02 0. -1.
       -2    1    3    3    0  502 -0.91385252805E+03  0.36013651687E+03  0.81984319256E+03  0.12794403520E+04  0.25500000920E-02 0.  1.
</event>
<event>
 5   0  0.7761069E-07  0.2301766E+04  0.7818609E-02  0.8477225E-01
        1   -1    0    0  501    0  0.00000000000E+00  0.00000000000E+00  0.11811246032E+04  0.11811246033E+04  0.50400001928E-02 0.  1.
       -1   -1    0    0    0  501  0.00000000000E+00  0.00000000000E+00 -0.11214158268E+04  0.11214158268E+04  0.50400001928E-02 0. -1.
    10030    2    1    2    0    0  0.00000000000E+00  0.00000000000E+00  0.59708776450E+02  0.23025404301E+04  0.23017661250E+04 0.  0.
        1    1    3    3  502    0  0.77124479895E+03  0.69195215919E+03  0.53093755032E+03  0.11642641508E+04  0.50400001928E-02 0.  1.
       -1    1    3    3    0  502 -0.77124479895E+03 -0.69195215919E+03 -0.47122877387E+03  0.11382762792E+04  0.50400001928E-02 0. -1.
</event>
<event>
 5   0  0.7607231E-07  0.2307803E+04  0.7818609E-02  0.8474851E-01
       -1   -1    0    0    0  501  0.00000000000E+00  0.00000000000E+00  0.10482090341E+04  0.10482090341E+04  0.50400001928E-02 0. -1.
        1   -1    0    0  501    0  0.00000000000E+00  0.00000000000E+00 -0.12702514921E+04  0.12702514921E+04  0.50400001928E-02 0.  1.
    10030    2    1    2    0    0  0.00000000000E+00  0.00000000000E+00 -0.22204245799E+03  0.23184605262E+04  0.23078033622E+04 0.  0.
        2    1    3    3  502    0  0.71914980227E+03  0.34676666586E+03 -0.94797436837E+03  0.12393865264E+04  0.25500000920E-02 0.  1.
       -2    1    3    3    0  502 -0.71914980227E+03 -0.34676666586E+03  0.72593191038E+03  0.10790739999E+04  0.25500000920E-02 0. -1.
</event>
<event>
 5   0  0.8097672E-07  0.2299807E+04  0.7818609E-02  0.8477997E-01
       -1   -1    0    0    0  501  0.00000000000E+00  0.00000000000E+00  0.83821213415E+03  0.83821213417E+03  0.50400001928E-02 0. -1.
        1   -1    0    0  501    0  0.00000000000E+00  0.00000000000E+00 -0.15774977617E+04  0.15774977617E+04  0.50400001928E-02 0.  1.
    10030    2    1    2    0    0  0.00000000000E+00  0.00000000000E+00 -0.73928562756E+03  0.24157098959E+04  0.22998067445E+04 0.  0.
        3    1    3    3  502    0 -0.71330837149E+03 -0.21374015147E+03  0.55074950107E+03  0.92618502920E+03  0.10100000352E+00 0. -1.
       -3    1    3    3    0  502  0.71330837149E+03  0.21374015147E+03 -0.12900351286E+04  0.14895248667E+04  0.10100000352E+00 0.  1.
</event>
<event>
 5   0  0.8108242E-07  0.2300951E+04  0.7818609E-02  0.8477546E-01
        1   -1    0    0  501    0  0.00000000000E+00  0.00000000000E+00  0.13387644872E+04  0.13387644872E+04  0.50400001928E-02 0.  1.
       -1   -1    0    0    0  501  0.00000000000E+00  0.00000000000E+00 -0.98866853468E+03  0.98866853469E+03  0.50400001928E-02 0. -1.
    10030    2    1    2    0    0  0.00000000000E+00  0.00000000000E+00  0.35009595254E+03  0.23274330219E+04  0.23009513892E+04 0.  0.
        4    1    3    3  502    0 -0.53506627012E+03 -0.88430809175E+03  0.68613134683E+03  0.12405944352E+04  0.12699999809E+01 0.  1.
       -4    1    3    3    0  502  0.53506627012E+03  0.88430809175E+03 -0.33603539429E+03  0.10868385868E+04  0.12699999809E+01 0. -1.
</event>
<event>
 5   0  0.1888779E-06  0.2300441E+04  0.7818609E-02  0.8477747E-01
        2   -1    0    0  501    0  0.00000000000E+00  0.00000000000E+00  0.10740490233E+04  0.10740490233E+04  0.25500000920E-02 0. -1.
       -2   -1    0    0    0  501  0.00000000000E+00  0.00000000000E+00 -0.12317942640E+04  0.12317942640E+04  0.25500000920E-02 0.  1.
    10030    2    1    2    0    0  0.00000000000E+00  0.00000000000E+00 -0.15774524064E+03  0.23058432873E+04  0.23004411978E+04 0.  0.
        4    1    3    3  502    0 -0.14055267544E+03  0.77267815084E+02 -0.12205294704E+04  0.12310236272E+04  0.12699999809E+01 0.  1.
       -4    1    3    3    0  502  0.14055267544E+03 -0.77267815084E+02  0.10627842297E+04  0.10748196601E+04  0.12699999809E+01 0. -1.
</event>
<event>
 5   0  0.1689444E-06  0.2295379E+04  0.7818609E-02  0.8479745E-01
       -2   -1    0    0    0  501  0.00000000000E+00  0.00000000000E+00  0.62629374730E+03  0.62629374730E+03  0.25500000920E-02 0.  1.
        2   -1    0    0  501    0  0.00000000000E+00  0.00000000000E+00 -0.21031526277E+04  0.21031526277E+04  0.25500000920E-02 0. -1.
    10030    2    1    2    0    0  0.00000000000E+00  0.00000000000E+00 -0.14768588804E+04  0.27294463750E+04  0.22953791324E+04 0.  0.
        2    1    3    3  502    0 -0.61826621613E+03 -0.96692083367E+03 -0.74024365395E+03  0.13657048290E+04  0.25500000920E-02 0. -1.
       -2    1    3    3    0  502  0.61826621613E+03  0.96692083367E+03 -0.73661522647E+03  0.13637415461E+04  0.25500000920E-02 0.  1.
</event>
<event>
 5   0  0.1825521E-06  0.2299017E+04  0.7818609E-02  0.8478309E-01
       -2   -1    0    0    0  501  0.00000000000E+00  0.00000000000E+00  0.52187972282E+03  0.52187972282E+03  0.25500000920E-02 0.  1.
        2   -1    0    0  501    0  0.00000000000E+00  0.00000000000E+00 -0.25319429463E+04  0.25319429463E+04  0.25500000920E-02 0. -1.
    10030    2    1    2    0    0  0.00000000000E+00  0.00000000000E+00 -0.20100632234E+04  0.30538226691E+04  0.22990169055E+04 0.  0.
        5    1    3    3  502    0 -0.86876615606E+03  0.13736708167E+00 -0.20048870872E+04  0.21850283694E+04  0.46999998093E+01 0. -1.
       -5    1    3    3    0  502  0.86876615606E+03 -0.13736708167E+00 -0.51761362839E+01  0.86879429969E+03  0.46999998093E+01 0.  1.
</event>
<event>
 5   0  0.1828646E-06  0.2298992E+04  0.7818609E-02  0.8478319E-01
        2   -1    0    0  501    0  0.00000000000E+00  0.00000000000E+00  0.12121569765E+04  0.12121569765E+04  0.25500000920E-02 0. -1.
       -2   -1    0    0    0  501  0.00000000000E+00  0.00000000000E+00 -0.10900740042E+04  0.10900740042E+04  0.25500000920E-02 0.  1.
    10030    2    1    2    0    0  0.00000000000E+00  0.00000000000E+00  0.12208297236E+03  0.23022309807E+04  0.22989917869E+04 0.  0.
        3    1    3    3  502    0 -0.50707187304E+02  0.59655263953E+03 -0.92161298251E+03  0.10990071748E+04  0.10100000352E+00 0.  1.
       -3    1    3    3    0  502  0.50707187304E+02 -0.59655263953E+03  0.10436959549E+04  0.12032238059E+04  0.10100000352E+00 0. -1.
</event>
<event>
 5   0  0.1744876E-06  0.2298984E+04  0.7818609E-02  0.8478322E-01
       -2   -1    0    0    0  501  0.00000000000E+00  0.00000000000E+00  0.95705019675E+03  0.95705019675E+03  0.25500000920E-02 0.  1.
        2   -1    0    0  501    0  0.00000000000E+00  0.00000000000E+00 -0.13806299359E+04  0.13806299359E+04  0.25500000920E-02 0. -1.
    10030    2    1    2    0    0  0.00000000000E+00  0.00000000000E+00 -0.42357973918E+03  0.23376801327E+04  0.22989842556E+04 0.  0.
        1    1    3    3  502    0 -0.36418715748E+03  0.23069916943E+03  0.87173380494E+03  0.97250923860E+03  0.50400001928E-02 0.  1.
       -1    1    3    3    0  502  0.36418715748E+03 -0.23069916943E+03 -0.12953135441E+04  0.13651708941E+04  0.50400001928E-02 0. -1.
</event>
<event>
 5   0  0.8097672E-07  0.2300398E+04  0.7818609E-02  0.8477764E-01
       -1   -1    0    0    0  501  0.00000000000E+00  0.00000000000E+00  0.62792744541E+03  0.62792744543E+03  0.50400001928E-02 0.  1.
        1   -1    0    0  501    0  0.00000000000E+00  0.00000000000E+00 -0.21068631299E+04  0.21068631299E+04  0.50400001928E-02 0. -1.
    10030    2    1    2    0    0  0.00000000000E+00  0.00000000000E+00 -0.14789356845E+04  0.27347905753E+04  0.23003975161E+04 0.  0.
        3    1    3    3  502    0  0.10654376159E+03 -0.11093413081E+04 -0.10777479400E+04  0.15503323332E+04  0.10100000352E+00 0.  1.
       -3    1    3    3    0  502 -0.10654376159E+03  0.11093413081E+04 -0.40118774452E+03  0.11844582422E+04  0.10100000352E+00 0. -1.
</event>
<event>
 5   0  0.8097672E-07  0.2300243E+04  0.7818609E-02  0.8477825E-01
        1   -1    0    0  501    0  0.00000000000E+00  0.00000000000E+00  0.19046856661E+04  0.19046856661E+04  0.50400001928E-02 0.  1.
       -1   -1    0    0    0  501  0.00000000000E+00  0.00000000000E+00 -0.69448703439E+03  0.69448703441E+03  0.50400001928E-02 0. -1.
    10030    2    1    2    0    0  0.00000000000E+00  0.00000000000E+00  0.12101986317E+04  0.25991727005E+04  0.23002430304E+04 0.  0.
        3    1    3    3  502    0 -0.42747490238E+03  0.10677270691E+04  0.60724423925E+03  0.13005850462E+04  0.10100000352E+00 0. -1.
       -3    1    3    3    0  502  0.42747490238E+03 -0.10677270691E+04  0.60295439244E+03  0.12985876543E+04  0.10100000352E+00 0.  1.
</event>
<event>
 5   0  0.1828646E-06  0.2299308E+04  0.7818609E-02  0.8478194E-01
        2   -1    0    0  501    0  0.00000000000E+00  0.00000000000E+00  0.21607379021E+04  0.21607379021E+04  0.25500000920E-02 0.  1.
       -2   -1    0    0    0  501  0.00000000000E+00  0.00000000000E+00 -0.61169107365E+03  0.61169107366E+03  0.25500000920E-02 0. -1.
    10030    2    1    2    0    0  0.00000000000E+00  0.00000000000E+00  0.15490468284E+04  0.27724289758E+04  0.22993077978E+04 0.  0.
        3    1    3    3  502    0 -0.11398474747E+04  0.13925351547E+03  0.70782075040E+03  0.13489455260E+04  0.10100000352E+00 0.  1.
       -3    1    3    3    0  502  0.11398474747E+04 -0.13925351547E+03  0.84122607803E+03  0.14234834498E+04  0.10100000352E+00 0. -1.
</event>
<event>
 5   0  0.8108242E-07  0.2299670E+04  0.7818609E-02  0.8478051E-01
        1   -1    0    0  501    0  0.00000000000E+00  0.00000000000E+00  0.13593404523E+04  0.13593404523E+04  0.50400001928E-02 0. -1.
       -1   -1    0    0    0  501  0.00000000000E+00  0.00000000000E+00 -0.97261898039E+03  0.97261898040E+03  0.50400001928E-02 0.  1.
    10030    2    1    2    0    0  0.00000000000E+00  0.00000000000E+00  0.38672147193E+03  0.23319594327E+04  0.22996698239E+04 0.  0.
        4    1    3    3  502    0  0.25647189543E+02 -0.77874258754E+03  0.10508227261E+04  0.13081772856E+04  0.12699999809E+01 0. -1.
       -4    1    3    3    0  502 -0.25647189543E+02  0.77874258754E+03 -0.66410125421E+03  0.10237821471E+04  0.12699999809E+01 0.  1.
</event>
<event>
 5   0  0.1744876E-06  0.2300803E+04  0.7818609E-02  0.8477605E-01
        2   -1    0    0  501    0  0.00000000000E+00  0.00000000000E+00  0.98561427321E+03  0.98561427321E+03  0.25500000920E-02 0.  1.
       -2   -1    0    0    0  501  0.00000000000E+00  0.00000000000E+00 -0.13427399221E+04  0.13427399221E+04  0.25500000920E-02 0. -1.
    10030    2    1    2    0    0  0.00000000000E+00  0.00000000000E+00 -0.35712564892E+03  0.23283541953E+04  0.23008030185E+04 0.  0.
        1    1    3    3  502    0  0.10777698694E+04 -0.38291806836E+03 -0.53759259110E+02  0.11450345830E+04  0.50400001928E-02 0.  1.
       -1    1    3    3    0  502 -0.10777698694E+04  0.38291806836E+03 -0.30336638981E+03  0.11833196123E+04  0.50400001928E-02 0. -1.
</event>
<event>
 5   0  0.1828646E-06  0.2299894E+04  0.7818609E-02  0.8477963E-01
        2   -1    0    0  501    0  0.00000000000E+00  0.00000000000E+00  0.95563401266E+03  0.95563401267E+03  0.25500000920E-02 0.  1.
       -2   -1    0    0    0  501  0.00000000000E+00  0.00000000000E+00 -0.13837708910E+04  0.13837708910E+04  0.25500000920E-02 0. -1.
    10030    2    1    2    0    0  0.00000000000E+00  0.00000000000E+00 -0.42813687829E+03  0.23394049036E+04  0.22998943707E+04 0.  0.
        3    1    3    3  502    0  0.10352725238E+04 -0.45185253059E+03  0.50826209805E+01  0.11295953927E+04  0.10100000352E+00 0. -1.
       -3    1    3    3    0  502 -0.10352725238E+04  0.45185253059E+03 -0.43321949927E+03  0.12098095109E+04  0.10100000352E+00 0.  1.
</event>
<event>
 5   0  0.7761069E-07  0.2296625E+04  0.7818609E-02  0.8479253E-01
       -1   -1    0    0    0  501  0.00000000000E+00  0.00000000000E+00  0.64253811598E+03  0.64253811600E+03  0.50400001928E-02 0. -1.
        1   -1    0    0  501    0  0.00000000000E+00  0.00000000000E+00 -0.20522072813E+04  0.20522072813E+04  0.50400001928E-02 0.  1.
    10030    2    1    2    0    0  0.00000000000E+00  0.00000000000E+00 -0.14096691653E+04  0.26947453973E+04  0.22966248280E+04 0.  0.
        1    1    3    3  502    0  0.30690478053E+03  0.76289707587E+03  0.23561786375E+03  0.85540532522E+03  0.50400001928E-02 0. -1.
       -1    1    3    3    0  502 -0.30690478053E+03 -0.76289707587E+03 -0.16452870290E+04  0.18393400720E+04  0.50400001928E-02 0.  1.
</event>
<event>
 5   0  0.1828646E-06  0.2300459E+04  0.7818609E-02  0.8477740E-01
        2   -1    0    0  501    0  0.00000000000E+00  0.00000000000E+00  0.10771742344E+04  0.10771742344E+04  0.25500000920E-02 0.  1.
       -2   -1    0    0    0  501  0.00000000000E+00  0.00000000000E+00 -0.12282389514E+04  0.12282389514E+04  0.25500000920E-02 0. -1.
    10030    2    1    2    0    0  0.00000000000E+00  0.00000000000E+00 -0.15106471698E+03  0.23054131857E+04  0.23004585213E+04 0.  0.
        3    1    3    3  502    0  0.28751970585E+03 -0.51227659279E+03 -0.10665669076E+04  0.12176452141E+04  0.10100000352E+00 0. -1.
       -3    1    3    3    0  502 -0.28751970585E+03  0.51227659279E+03  0.91550219066E+03  0.10877679716E+04  0.10100000352E+00 0.  1.
</event>
<event>
 5   0  0.1744876E-06  0.2300332E+04  0.7818609E-02  0.8477790E-01
        2   -1    0    0  501    0  0.00000000000E+00  0.00000000000E+00  0.16992723264E+04  0.16992723264E+04  0.25500000920E-02 0.  1.
       -2   -1    0    0    0  501  0.00000000000E+00  0.00000000000E+00 -0.77849917335E+03  0.77849917335E+03  0.25500000920E-02 0. -1.
    10030    2    1    2    0    0  0.00000000000E+00  0.00000000000E+00  0.92077315306E+03  0.24777714998E+04  0.23003322381E+04 0.  0.
        1    1    3    3  502    0 -0.55486868105E+03 -0.59134312586E+03 -0.41820032045E+03  0.91239106405E+03  0.50400001928E-02 0. -1.
       -1    1    3    3    0  502  0.55486868105E+03  0.59134312586E+03  0.13389734735E+04  0.15653804357E+04  0.50400001928E-02 0.  1.
</event>
<event>
 5   0  0.7607231E-07  0.2300445E+04  0.7818609E-02  0.8477746E-01
       -1   -1    0    0    0  501  0.00000000000E+00  0.00000000000E+00  0.11527346211E+04  0.11527346211E+04  0.50400001928E-02 0.  1.
        1   -1    0    0  501    0  0.00000000000E+00  0.00000000000E+00 -0.11477153975E+04  0.11477153976E+04  0.50400001928E-02 0. -1.
    10030    2    1    2    0    0  0.00000000000E+00  0.00000000000E+00  0.50192235834E+01  0.23004500187E+04  0.23004445431E+04 0.  0.
        2    1    3    3  502    0  0.25015438339E+03 -0.13171126698E+03 -0.11124307984E+04  0.11477923831E+04  0.25500000920E-02 0. -1.
       -2    1    3    3    0  502 -0.25015438339E+03  0.13171126698E+03  0.11174500220E+04  0.11526576356E+04  0.25500000920E-02 0.  1.
</event>
<event>
 5   0  0.1888779E-06  0.2302966E+04  0.7818609E-02  0.8476752E-01
       -2   -1    0    0    0  501  0.00000000000E+00  0.00000000000E+00  0.14455669159E+04  0.14455669159E+04  0.25500000920E-02 0.  1.
        2   -1    0    0  501    0  0.00000000000E+00  0.00000000000E+00 -0.91722723290E+03  0.91722723290E+03  0.25500000920E-02 0. -1.
    10030    2    1    2    0    0  0.00000000000E+00  0.00000000000E+00  0.52833968298E+03  0.23627941488E+04  0.23029662110E+04 0.  0.
        4    1    3    3  502    0 -0.84992351052E+03 -0.40036097464E+03  0.94723807206E+03  0.13341365979E+04  0.12699999809E+01 0.  1.
       -4    1    3    3    0  502  0.84992351052E+03  0.40036097464E+03 -0.41889838908E+03  0.10286575509E+04  0.12699999809E+01 0. -1.
</event>
<event>
 5   0  0.1689444E-06  0.2317264E+04  0.7818609E-02  0.8471145E-01
        2   -1    0    0  501    0  0.00000000000E+00  0.00000000000E+00  0.17495039126E+04  0.17495039126E+04  0.25500000920E-02 0.  1.
       -2   -1    0    0    0  501  0.00000000000E+00  0.00000000000E+00 -0.76731956791E+03  0.76731956792E+03  0.25500000920E-02 0. -1.
    10030    2    1    2    0    0  0.00000000000E+00  0.00000000000E+00  0.98218434466E+03  0.25168234805E+04  0.23172644098E+04 0.  0.
        2    1    3    3  502    0  0.52476603102E+03  0.57754182039E+03  0.14212906816E+04  0.16214194841E+04  0.25500000920E-02 0.  1.
       -2    1    3    3    0  502 -0.52476603102E+03 -0.57754182039E+03 -0.43910633697E+03  0.89540399642E+03  0.25500000920E-02 0. -1.
</event>
<event>
 5   0  0.8097672E-07  0.2299920E+04  0.7818609E-02  0.8477953E-01
        1   -1    0    0  501    0  0.00000000000E+00  0.00000000000E+00  0.14973909468E+04  0.14973909468E+04  0.50400001928E-02 0. -1.
       -1   -1    0    0    0  501  0.00000000000E+00  0.00000000000E+00 -0.88314119656E+03  0.88314119658E+03  0.50400001928E-02 0.  1.
    10030    2    1    2    0    0  0.00000000000E+00  0.00000000000E+00  0.61424975022E+03  0.23805321434E+04  0.22999196790E+04 0.  0.
        3    1    3    3  502    0  0.44244420650E+03 -0.87893270580E+03 -0.30881956830E+03  0.10313336575E+04  0.10100000352E+00 0.  1.
       -3    1    3    3    0  502 -0.44244420650E+03  0.87893270580E+03  0.92306931852E+03  0.13491984858E+04  0.10100000352E+00 0. -1.
</event>
<event>
 5   0  0.8108242E-07  0.2300117E+04  0.7818609E-02  0.8477875E-01
        1   -1    0    0  501    0  0.00000000000E+00  0.00000000000E+00  0.13757700166E+04  0.13757700166E+04  0.50400001928E-02 0.  1.
       -1   -1    0    0    0  501  0.00000000000E+00  0.00000000000E+00 -0.96137791850E+03  0.96137791851E+03  0.50400001928E-02 0. -1.
    10030    2    1    2    0    0  0.00000000000E+00  0.00000000000E+00  0.41439209807E+03  0.23371479351E+04  0.23001173143E+04 0.  0.
        4    1    3    3  502    0 -0.95824165083E+03 -0.10739776447E+03  0.84408209389E+03  0.12814981605E+04  0.12699999809E+01 0.  1.
       -4    1    3    3    0  502  0.95824165083E+03  0.10739776447E+03 -0.42968999583E+03  0.10556497746E+04  0.12699999809E+01 0. -1.
</event>
<event>
 5   0  0.7932912E-07  0.2300554E+04  0.7818609E-02  0.8477703E-01
        1   -1    0    0  501    0  0.00000000000E+00  0.00000000000E+00  0.13688136427E+04  0.13688136427E+04  0.50400001928E-02 0.  1.
       -1   -1    0    0    0  501  0.00000000000E+00  0.00000000000E+00 -0.96663095667E+03  0.96663095669E+03  0.50400001928E-02 0. -1.
    10030    2    1    2    0    0  0.00000000000E+00  0.00000000000E+00  0.40218268601E+03  0.23354445994E+04  0.23005544036E+04 0.  0.
        5    1    3    3  502    0  0.26802541467E+03  0.85423911406E+03 -0.53204792024E+03  0.10414697146E+04  0.46999998093E+01 0. -1.
       -5    1    3    3    0  502 -0.26802541467E+03 -0.85423911406E+03  0.93423060625E+03  0.12939748848E+04  0.46999998093E+01 0.  1.
</event>
<event>
 5   0  0.8108242E-07  0.2302267E+04  0.7818609E-02  0.8477028E-01
       -1   -1    0    0    0  501  0.00000000000E+00  0.00000000000E+00  0.96147988788E+03  0.96147988789E+03  0.50400001928E-02 0.  1.
        1   -1    0    0  501    0  0.00000000000E+00  0.00000000000E+00 -0.13781965441E+04  0.13781965441E+04  0.50400001928E-02 0. -1.
    10030    2    1    2    0    0  0.00000000000E+00  0.00000000000E+00 -0.41671665619E+03  0.23396764320E+04  0.23022669339E+04 0.  0.
        4    1    3    3  502    0 -0.27163809469E+03  0.80917209628E+03 -0.99328151155E+03  0.13096398398E+04  0.12699999809E+01 0. -1.
       -4    1    3    3    0  502  0.27163809469E+03 -0.80917209628E+03  0.57656485536E+03  0.10300365922E+04  0.12699999809E+01 0.  1.
</event>
<event>
 5   0  0.7761069E-07  0.2303516E+04  0.7818609E-02  0.8476536E-01
        1   -1    0    0  501    0  0.00000000000E+00  0.00000000000E+00  0.19774562818E+04  0.19774562818E+04  0.50400001928E-02 0.  1.
       -1   -1    0    0    0  501  0.00000000000E+00  0.00000000000E+00 -0.67083490918E+03  0.67083490920E+03  0.50400001928E-02 0. -1.
    10030    2    1    2    0    0  0.00000000000E+00  0.00000000000E+00  0.13066213726E+04  0.26482911910E+04  0.23035161864E+04 0.  0.
        1    1    3    3  502    0  0.52148001704E+03 -0.50200410386E+03  0.16832776183E+04  0.18323135836E+04  0.50400001928E-02 0.  1.
       -1    1    3    3    0  502 -0.52148001704E+03  0.50200410386E+03 -0.37665624561E+03  0.81597760744E+03  0.50400001928E-02 0. -1.
</event>
<event>
 5   0  0.1825521E-06  0.2299617E+04  0.7818609E-02  0.8478072E-01
       -2   -1    0    0    0  501  0.00000000000E+00  0.00000000000E+00  0.75027428155E+03  0.75027428156E+03  0.25500000920E-02 0. -1.
        2   -1    0    0  501    0  0.00000000000E+00  0.00000000000E+00 -0.17621019904E+04  0.17621019904E+04  0.25500000920E-02 0.  1.
    10030    2    1    2    0    0  0.00000000000E+00  0.00000000000E+00 -0.10118277088E+04  0.25123762720E+04  0.22996171898E+04 0.  0.
        5    1    3    3  502    0 -0.27046026888E+03 -0.10692414030E+04 -0.15086728753E+03  0.11131976300E+04  0.46999998093E+01 0. -1.
       -5    1    3    3    0  502  0.27046026888E+03  0.10692414030E+04 -0.86096042132E+03  0.13991786419E+04  0.46999998093E+01 0.  1.
</event>
<event>
 5   0  0.8108242E-07  0.2297858E+04  0.7818609E-02  0.8478766E-01
        1   -1    0    0  501    0  0.00000000000E+00  0.00000000000E+00  0.15981117594E+04  0.15981117595E+04  0.50400001928E-02 0.  1.
       -1   -1    0    0    0  501  0.00000000000E+00  0.00000000000E+00 -0.82599819883E+03  0.82599819885E+03  0.50400001928E-02 0. -1.
    10030    2    1    2    0    0  0.00000000000E+00  0.00000000000E+00  0.77211356061E+03  0.24241099583E+04  0.22978576412E+04 0.  0.
        4    1    3    3  502    0  0.95025785346E+03  0.59613333675E+03  0.12407610066E+03  0.11286104000E+04  0.12699999809E+01 0. -1.
       -4    1    3    3    0  502 -0.95025785346E+03 -0.59613333675E+03  0.64803745995E+03  0.12954995583E+04  0.12699999809E+01 0.  1.
</event>
<event>
 5   0  0.1825521E-06  0.2301111E+04  0.7818609E-02  0.8477483E-01
       -2   -1    0    0    0  501  0.00000000000E+00  0.00000000000E+00  0.82550121777E+03  0.82550121777E+03  0.25500000920E-02 0. -1.
        2   -1    0    0  501    0  0.00000000000E+00  0.00000000000E+00 -0.16036049146E+04  0.16036049146E+04  0.25500000920E-02 0.  1.
    10030    2    1    2    0    0  0.00000000000E+00  0.00000000000E+00 -0.77810369684E+03  0.24291061324E+04  0.23011108707E+04 0.  0.
        5    1    3    3  502    0  0.91669226213E+02 -0.91451580912E+03 -0.11196570094E+04  0.14485842471E+04  0.46999998093E+01 0.  1.
       -5    1    3    3    0  502 -0.91669226213E+02  0.91451580912E+03  0.34155331260E+03  0.98052188528E+03  0.46999998093E+01 0. -1.
</event>
<event>
 5   0  0.1828646E-06  0.2299383E+04  0.7818609E-02  0.8478164E-01
        2   -1    0    0  501    0  0.00000000000E+00  0.00000000000E+00  0.92686889118E+03  0.92686889119E+03  0.25500000920E-02 0.  1.
       -2   -1    0    0    0  501  0.00000000000E+00  0.00000000000E+00 -0.14260819557E+04  0.14260819557E+04  0.25500000920E-02 0. -1.
    10030    2    1    2    0    0  0.00000000000E+00  0.00000000000E+00 -0.49921306448E+03  0.23529508469E+04  0.22993833965E+04 0.  0.
        3    1    3    3  502    0 -0.79932058081E+03  0.51203841451E+03  0.41411324393E+03  0.10356575292E+04  0.10100000352E+00 0.  1.
       -3    1    3    3    0  502  0.79932058081E+03 -0.51203841451E+03 -0.91332630841E+03  0.13172933176E+04  0.10100000352E+00 0. -1.
</event>
<event>
 5   0  0.1828646E-06  0.2299844E+04  0.7818609E-02  0.8477983E-01
       -2   -1    0    0    0  501  0.00000000000E+00  0.00000000000E+00  0.73157553149E+03  0.73157553149E+03  0.25500000920E-02 0.  1.
        2   -1    0    0  501    0  0.00000000000E+00  0.00000000000E+00 -0.18074966272E+04  0.18074966272E+04  0.25500000920E-02 0. -1.
    10030    2    1    2    0    0  0.00000000000E+00  0.00000000000E+00 -0.10759210957E+04  0.25390721587E+04  0.22998437388E+04 0.  0.
        3    1    3    3  502    0 -0.25143389020E+03  0.10332065041E+04 -0.10211953030E+04  0.14743047644E+04  0.10100000352E+00 0. -1.
       -3    1    3    3    0  502  0.25143389020E+03 -0.10332065041E+04 -0.54725792659E+02  0.10647673942E+04  0.10100000352E+00 0.  1.
</event>
<event>
 5   0  0.7932912E-07  0.2300516E+04  0.7818609E-02  0.8477718E-01
        1   -1    0    0  501    0  0.00000000000E+00  0.00000000000E+00  0.12269343634E+04  0.12269343634E+04  0.50400001928E-02 0. -1.
       -1   -1    0    0    0  501  0.00000000000E+00  0.00000000000E+00 -0.10783736589E+04  0.10783736589E+04  0.50400001928E-02 0.  1.
    10030    2    1    2    0    0  0.00000000000E+00  0.00000000000E+00  0.14856070454E+03  0.23053080223E+04  0.23005162018E+04 0.  0.
        5    1    3    3  502    0  0.77825711260E+03 -0.26778979679E+03 -0.73093309846E+03  0.11007637317E+04  0.46999998093E+01 0.  1.
       -5    1    3    3    0  502 -0.77825711260E+03  0.26778979679E+03  0.87949380300E+03  0.12045442906E+04  0.46999998093E+01 0. -1.
</event>
<event>
 5   0  0.1825521E-06  0.2300856E+04  0.7818609E-02  0.8477584E-01
       -2   -1    0    0    0  501  0.00000000000E+00  0.00000000000E+00  0.10487388435E+04  0.10487388435E+04  0.25500000920E-02 0.  1.
        2   -1    0    0  501    0  0.00000000000E+00  0.00000000000E+00 -0.12619767916E+04  0.12619767916E+04  0.25500000920E-02 0. -1.
    10030    2    1    2    0    0  0.00000000000E+00  0.00000000000E+00 -0.21323794811E+03  0.23107156351E+04  0.23008555635E+04 0.  0.
        5    1    3    3  502    0  0.38939599711E+02  0.64409753312E+02 -0.12594918384E+04  0.12617474747E+04  0.46999998093E+01 0. -1.
       -5    1    3    3    0  502 -0.38939599711E+02 -0.64409753312E+02  0.10462538903E+04  0.10489681605E+04  0.46999998093E+01 0.  1.
</event>
<event>
 5   0  0.1828646E-06  0.2300193E+04  0.7818609E-02  0.8477845E-01
       -2   -1    0    0    0  501  0.00000000000E+00  0.00000000000E+00  0.14318307100E+04  0.14318307100E+04  0.25500000920E-02 0. -1.
        2   -1    0    0  501    0  0.00000000000E+00  0.00000000000E+00 -0.92379740463E+03  0.92379740463E+03  0.25500000920E-02 0.  1.
    10030    2    1    2    0    0  0.00000000000E+00  0.00000000000E+00  0.50803330539E+03  0.23556281147E+04  0.23001925952E+04 0.  0.
        3    1    3    3  502    0  0.10837576374E+04 -0.11301382743E+02 -0.14004666931E+03  0.10928272588E+04  0.10100000352E+00 0. -1.
       -3    1    3    3    0  502 -0.10837576374E+04  0.11301382743E+02  0.64807997470E+03  0.12628008559E+04  0.10100000352E+00 0.  1.
</event>
<event>
 5   0  0.8097672E-07  0.2299405E+04  0.7818609E-02  0.8478156E-01
        1   -1    0    0  501    0  0.00000000000E+00  0.00000000000E+00  0.10660846035E+04  0.10660846036E+04  0.50400001928E-02 0.  1.
       -1   -1    0    0    0  501  0.00000000000E+00  0.00000000000E+00 -0.12398789901E+04  0.12398789902E+04  0.50400001928E-02 0. -1.
    10030    2    1    2    0    0  0.00000000000E+00  0.00000000000E+00 -0.17379438660E+03  0.23059635937E+04  0.22994050550E+04 0.  0.
        3    1    3    3  502    0  0.98250894218E+03  0.39582226512E+03 -0.53518091547E+03  0.11867677572E+04  0.10100000352E+00 0.  1.
       -3    1    3    3    0  502 -0.98250894218E+03 -0.39582226512E+03  0.36138652887E+03  0.11191958365E+04  0.10100000352E+00 0. -1.
</event>
<event>
 5   0  0.8097672E-07  0.2299945E+04  0.7818609E-02  0.8477943E-01
        1   -1    0    0  501    0  0.00000000000E+00  0.00000000000E+00  0.79256982881E+03  0.79256982883E+03  0.50400001928E-02 0. -1.
       -1   -1    0    0    0  501  0.00000000000E+00  0.00000000000E+00 -0.16685427037E+04  0.16685427038E+04  0.50400001928E-02 0.  1.
    10030    2    1    2    0    0  0.00000000000E+00  0.00000000000E+00 -0.87597287494E+03  0.24611125326E+04  0.22999448733E+04 0.  0.
        3    1    3    3  502    0 -0.89196100838E+03 -0.33754635887E+03 -0.11255912556E+04  0.14752924014E+04  0.10100000352E+00 0. -1.
       -3    1    3    3    0  502  0.89196100838E+03  0.33754635887E+03  0.24961838064E+03  0.98582013116E+03  0.10100000352E+00 0.  1.
</event>
<event>
 5   0  0.8108242E-07  0.2300699E+04  0.7818609E-02  0.8477645E-01
        1   -1    0    0  501    0  0.00000000000E+00  0.00000000000E+00  0.66387169767E+03  0.66387169769E+03  0.50400001928E-02 0.  1.
       -1   -1    0    0    0  501  0.00000000000E+00  0.00000000000E+00 -0.19933136246E+04  0.19933136246E+04  0.50400001928E-02 0. -1.
    10030    2    1    2    0    0  0.00000000000E+00  0.00000000000E+00 -0.13294419269E+04  0.26571853222E+04  0.23006994588E+04 0.  0.
        4    1    3    3  502    0  0.66050123312E+03  0.92302388316E+03 -0.88100125842E+03  0.14368019342E+04  0.12699999809E+01 0. -1.
       -4    1    3    3    0  502 -0.66050123312E+03 -0.92302388316E+03 -0.44844066846E+03  0.12203833881E+04  0.12699999809E+01 0.  1.
</event>
<event>
 5   0  0.1744876E-06  0.2299840E+04  0.7818609E-02  0.8477984E-01
        2   -1    0    0  501    0  0.00000000000E+00  0.00000000000E+00  0.21383189661E+04  0.21383189661E+04  0.25500000920E-02 0. -1.
       -2   -1    0    0    0  501  0.00000000000E+00  0.00000000000E+00 -0.61839026874E+03  0.61839026875E+03  0.25500000920E-02 0.  1.
    10030    2    1    2    0    0  0.00000000000E+00  0.00000000000E+00  0.15199286973E+04  0.27567092348E+04  0.22998396815E+04 0.  0.
        1    1    3    3  502    0 -0.43531183770E+03  0.11400067127E+03 -0.50847033093E+03  0.67899530673E+03  0.50400001928E-02 0.  1.
       -1    1    3    3    0  502  0.43531183770E+03 -0.11400067127E+03  0.20283990283E+04  0.20777139281E+04  0.50400001928E-02 0. -1.
</event>
<event>
 5   0  0.1825521E-06  0.2299902E+04  0.7818609E-02  0.8477960E-01
       -2   -1    0    0    0  501  0.00000000000E+00  0.00000000000E+00  0.90412298432E+03  0.90412298432E+03  0.25500000920E-02 0.  1.
        2   -1    0    0  501    0  0.00000000000E+00  0.00000000000E+00 -0.14626194610E+04  0.14626194610E+04  0.25500000920E-02 0. -1.
    10030    2    1    2    0    0  0.00000000000E+00  0.00000000000E+00 -0.55849647666E+03  0.23667424453E+04  0.22999024953E+04 0.  0.
        5    1    3    3  502    0 -0.26564062302E+03 -0.41620820532E+03 -0.13479734621E+04  0.14355656569E+04  0.46999998093E+01 0. -1.
       -5    1    3    3    0  502  0.26564062302E+03  0.41620820532E+03  0.78947698542E+03  0.93117678841E+03  0.46999998093E+01 0.  1.
</event>
<event>
 5   0  0.1689444E-06  0.2300141E+04  0.7818609E-02  0.8477865E-01
       -2   -1    0    0    0  501  0.00000000000E+00  0.00000000000E+00  0.74374129071E+03  0.74374129072E+03  0.25500000920E-02 0. -1.
        2   -1    0    0  501    0  0.00000000000E+00  0.00000000000E+00 -0.17783902781E+04  0.17783902781E+04  0.25500000920E-02 0.  1.
    10030    2    1    2    0    0  0.00000000000E+00  0.00000000000E+00 -0.10346489874E+04  0.25221315688E+04  0.23001411094E+04 0.  0.
        2    1    3    3  502    0 -0.37690446904E+03  0.36138101076E+03 -0.16409194545E+04  0.17219958972E+04  0.25500000920E-02 0.  1.
       -2    1    3    3    0  502  0.37690446904E+03 -0.36138101076E+03  0.60627046712E+03  0.80013567164E+03  0.25500000920E-02 0. -1.
</event>
<event>
 5   0  0.1828646E-06  0.2300192E+04  0.7818609E-02  0.8477846E-01
       -2   -1    0    0    0  501  0.00000000000E+00  0.00000000000E+00  0.13209354162E+04  0.13209354162E+04  0.25500000920E-02 0.  1.
        2   -1    0    0  501    0  0.00000000000E+00  0.00000000000E+00 -0.10013511945E+04  0.10013511945E+04  0.25500000920E-02 0. -1.
    10030    2    1    2    0    0  0.00000000000E+00  0.00000000000E+00  0.31958422173E+03  0.23222866108E+04  0.23001915198E+04 0.  0.
        3    1    3    3  502    0  0.96540264220E+01  0.25174212530E+03  0.12927357581E+04  0.13170546869E+04  0.10100000352E+00 0.  1.
       -3    1    3    3    0  502 -0.96540264220E+01 -0.25174212530E+03 -0.97315153634E+03  0.10052319239E+04  0.10100000352E+00 0. -1.
</event>
<event>
 5   0  0.7607231E-07  0.2301620E+04  0.7818609E-02  0.8477283E-01
       -1   -1    0    0    0  501  0.00000000000E+00  0.00000000000E+00  0.12159175370E+04  0.12159175370E+04  0.50400001928E-02 0.  1.
        1   -1    0    0  501    0  0.00000000000E+00  0.00000000000E+00 -0.10891885397E+04  0.10891885397E+04  0.50400001928E-02 0. -1.
    10030    2    1    2    0    0  0.00000000000E+00  0.00000000000E+00  0.12672899728E+03  0.23051060767E+04  0.23016198179E+04 0.  0.
        2    1    3    3  502    0  0.77205868047E+03 -0.32795558065E+03  0.85242460451E+03  0.11959335999E+04  0.25500000920E-02 0.  1.
       -2    1    3    3    0  502 -0.77205868047E+03  0.32795558065E+03 -0.72569560723E+03  0.11091724768E+04  0.25500000920E-02 0. -1.
</event>
<event>
 5   0  0.7761069E-07  0.2299712E+04  0.7818609E-02  0.8478035E-01
       -1   -1    0    0    0  501  0.00000000000E+00  0.00000000000E+00  0.78168962486E+03  0.78168962488E+03  0.50400001928E-02 0. -1.
        1   -1    0    0  501    0  0.00000000000E+00  0.00000000000E+00 -0.16914238934E+04  0.16914238934E+04  0.50400001928E-02 0.  1.
    10030    2    1    2    0    0  0.00000000000E+00  0.00000000000E+00 -0.90973426856E+03  0.24731135183E+04  0.22997117287E+04 0.  0.
        1    1    3    3  502    0  0.27983928821E+03 -0.60279626811E+03  0.55423269558E+03  0.86535960673E+03  0.50400001928E-02 0. -1.
       -1    1    3    3    0  502 -0.27983928821E+03  0.60279626811E+03 -0.14639669641E+04  0.16077539116E+04  0.50400001928E-02 0.  1.
</event>
<event>
 5   0  0.1828646E-06  0.2298280E+04  0.7818609E-02  0.8478600E-01
        2   -1    0    0  501    0  0.00000000000E+00  0.00000000000E+00  0.81995703273E+03  0.81995703274E+03  0.25500000920E-02 0. -1.
       -2   -1    0    0    0  501  0.00000000000E+00  0.00000000000E+00 -0.16104778830E+04  0.16104778830E+04  0.25500000920E-02 0.  1.
    10030    2    1    2    0    0  0.00000000000E+00  0.00000000000E+00 -0.79052085024E+03  0.24304349157E+04  0.22982799361E+04 0.  0.
        3    1    3    3  502    0  0.43109820747E+03  0.92837790366E+03 -0.94758765509E+03  0.13948668649E+04  0.10100000352E+00 0.  1.
       -3    1    3    3    0  502 -0.43109820747E+03 -0.92837790366E+03  0.15706680485E+03  0.10355680508E+04  0.10100000352E+00 0. -1.
</event>
<event>
 5   0  0.1825521E-06  0.2299179E+04  0.7818609E-02  0.8478245E-01
        2   -1    0    0  501    0  0.00000000000E+00  0.00000000000E+00  0.69444693657E+03  0.69444693657E+03  0.25500000920E-02 0.  1.
       -2   -1    0    0    0  501  0.00000000000E+00  0.00000000000E+00 -0.19030346308E+04  0.19030346308E+04  0.25500000920E-02 0. -1.
    10030    2    1    2    0    0  0.00000000000E+00  0.00000000000E+00 -0.12085876943E+04  0.25974815674E+04  0.22991794794E+04 0.  0.
        5    1    3    3  502    0  0.68748256893E+03 -0.65112508860E+03  0.13215493096E+03  0.95607697356E+03  0.46999998093E+01 0.  1.
       -5    1    3    3    0  502 -0.68748256893E+03  0.65112508860E+03 -0.13407426252E+04  0.16414045939E+04  0.46999998093E+01 0. -1.
</event>
<event>
 5   0  0.8097672E-07  0.2300360E+04  0.7818609E-02  0.8477779E-01
       -1   -1    0    0    0  501  0.00000000000E+00  0.00000000000E+00  0.67261658778E+03  0.67261658780E+03  0.50400001928E-02 0. -1.
        1   -1    0    0  501    0  0.00000000000E+00  0.00000000000E+00 -0.19668172957E+04  0.19668172957E+04  0.50400001928E-02 0.  1.
    10030    2    1    2    0    0  0.00000000000E+00  0.00000000000E+00 -0.12942007079E+04  0.26394338835E+04  0.23003599182E+04 0.  0.
        3    1    3    3  502    0  0.89141164756E+03 -0.55928214759E+03 -0.11445108462E+03  0.10585415944E+04  0.10100000352E+00 0. -1.
       -3    1    3    3    0  502 -0.89141164756E+03  0.55928214759E+03 -0.11797496233E+04  0.15808922892E+04  0.10100000352E+00 0.  1.
</event>
<event>
 5   0  0.7607231E-07  0.2300077E+04  0.7818609E-02  0.8477891E-01
       -1   -1    0    0    0  501  0.00000000000E+00  0.00000000000E+00  0.11361828270E+04  0.11361828270E+04  0.50400001928E-02 0. -1.
        1   -1    0    0  501    0  0.00000000000E+00  0.00000000000E+00 -0.11640631437E+04  0.11640631437E+04  0.50400001928E-02 0.  1.
    10030    2    1    2    0    0  0.00000000000E+00  0.00000000000E+00 -0.27880316683E+02  0.23002459708E+04  0.23000770017E+04 0.  0.
        2    1    3    3  502    0 -0.10511906649E+04  0.86241289853E+02  0.44451382704E+03  0.11445662569E+04  0.25500000920E-02 0. -1.
       -2    1    3    3    0  502  0.10511906649E+04 -0.86241289853E+02 -0.47239414372E+03  0.11556797139E+04  0.25500000920E-02 0.  1.
</event>
<event>
 5   0  0.7607231E-07  0.2299075E+04  0.7818609E-02  0.8478286E-01
        1   -1    0    0  501    0  0.00000000000E+00  0.00000000000E+00  0.17312272954E+04  0.17312272954E+04  0.50400001928E-02 0. -1.
       -1   -1    0    0    0  501  0.00000000000E+00  0.00000000000E+00 -0.76329471538E+03  0.76329471540E+03  0.50400001928E-02 0.  1.
    10030    2    1    2    0    0  0.00000000000E+00  0.00000000000E+00  0.96793258003E+03  0.24945220108E+04  0.22990751582E+04 0.  0.
        2    1    3    3  502    0 -0.11125715052E+03 -0.37175064795E+03 -0.69008385520E+03  0.79170223254E+03  0.25500000920E-02 0.  1.
       -2    1    3    3    0  502  0.11125715052E+03  0.37175064795E+03  0.16580164352E+04  0.17028197783E+04  0.25500000920E-02 0. -1.
</event>
<event>
 5   0  0.1888779E-06  0.2301300E+04  0.7818609E-02  0.8477409E-01
       -2   -1    0    0    0  501  0.00000000000E+00  0.00000000000E+00  0.78251906737E+03  0.78251906737E+03  0.25500000920E-02 0.  1.
        2   -1    0    0  501    0  0.00000000000E+00  0.00000000000E+00 -0.16919663057E+04  0.16919663057E+04  0.25500000920E-02 0. -1.
    10030    2    1    2    0    0  0.00000000000E+00  0.00000000000E+00 -0.90944723828E+03  0.24744853730E+04  0.23013004111E+04 0.  0.
        4    1    3    3  502    0 -0.84436388801E+03  0.60099738146E+03  0.82738455156E+02  0.10397093309E+04  0.12699999809E+01 0.  1.
       -4    1    3    3    0  502  0.84436388801E+03 -0.60099738146E+03 -0.99218569344E+03  0.14347760421E+04  0.12699999809E+01 0. -1.
</event>
<event>
 5   0  0.7932912E-07  0.2299829E+04  0.7818609E-02  0.8477989E-01
        1   -1    0    0  501    0  0.00000000000E+00  0.00000000000E+00  0.11989188079E+04  0.11989188079E+04  0.50400001928E-02 0. -1.
       -1   -1    0    0    0  501  0.00000000000E+00  0.00000000000E+00 -0.11029129527E+04  0.11029129528E+04  0.50400001928E-02 0.  1.
    10030    2    1    2    0    0  0.00000000000E+00  0.00000000000E+00  0.96005855111E+02  0.23018317606E+04  0.22998287610E+04 0.  0.
        5    1    3    3  502    0 -0.83169937741E+03  0.61907987670E+03  0.54572593408E+03  0.11716751398E+04  0.46999998093E+01 0. -1.
       -5    1    3    3    0  502  0.83169937741E+03 -0.61907987670E+03 -0.44972007897E+03  0.11301566208E+04  0.46999998093E+01 0.  1.
</event>
<event>
 5   0  0.1825521E-06  0.2300306E+04  0.7818609E-02  0.8477801E-01
        2   -1    0    0  501    0  0.00000000000E+00  0.00000000000E+00  0.27960681074E+04  0.27960681074E+04  0.25500000920E-02 0.  1.
       -2   -1    0    0    0  501  0.00000000000E+00  0.00000000000E+00 -0.47311143806E+03  0.47311143806E+03  0.25500000920E-02 0. -1.
    10030    2    1    2    0    0  0.00000000000E+00  0.00000000000E+00  0.23229566694E+04  0.32691795455E+04  0.23003058955E+04 0.  0.
        5    1    3    3  502    0 -0.76511517905E+03  0.80988559766E+03  0.75571879782E+03  0.13462722273E+04  0.46999998093E+01 0. -1.
       -5    1    3    3    0  502  0.76511517905E+03 -0.80988559766E+03  0.15672378716E+04  0.19229073183E+04  0.46999998093E+01 0.  1.
</event>
<event>
 5   0  0.7607231E-07  0.2299946E+04  0.7818609E-02  0.8477943E-01
        1   -1    0    0  501    0  0.00000000000E+00  0.00000000000E+00  0.33627212488E+04  0.33627212489E+04  0.50400001928E-02 0. -1.
       -1   -1    0    0    0  501  0.00000000000E+00  0.00000000000E+00 -0.39326405504E+03  0.39326405507E+03  0.50400001928E-02 0.  1.
    10030    2    1    2    0    0  0.00000000000E+00  0.00000000000E+00  0.29694571938E+04  0.37559853039E+04  0.22999455597E+04 0.  0.
        2    1    3    3  502    0  0.85343448288E+03  0.41631069430E+03  0.42540183966E+03  0.10404959087E+04  0.25500000920E-02 0.  1.
       -2    1    3    3    0  502 -0.85343448288E+03 -0.41631069430E+03  0.25440553542E+04  0.27154893953E+04  0.25500000920E-02 0. -1.
</event>
<event>
 5   0  0.1744876E-06  0.2298909E+04  0.7818609E-02  0.8478351E-01
        2   -1    0    0  501    0  0.00000000000E+00  0.00000000000E+00  0.91518079100E+03  0.91518079100E+03  0.25500000920E-02 0. -1.
       -2   -1    0    0    0  501  0.00000000000E+00  0.00000000000E+00 -0.14436996297E+04  0.14436996297E+04  0.25500000920E-02 0.  1.
    10030    2    1    2    0    0  0.00000000000E+00  0.00000000000E+00 -0.52851883872E+03  0.23588804207E+04  0.22989094537E+04 0.  0.
        1    1    3    3  502    0  0.77503930177E+02 -0.70469378145E+03  0.66413415801E+03  0.97142903223E+03  0.50400001928E-02 0. -1.
       -1    1    3    3    0  502 -0.77503930177E+02  0.70469378145E+03 -0.11926529967E+04  0.13874513885E+04  0.50400001928E-02 0.  1.
</event>
<event>
 5   0  0.7932912E-07  0.2300369E+04  0.7818609E-02  0.8477776E-01
       -1   -1    0    0    0  501  0.00000000000E+00  0.00000000000E+00  0.62333682093E+03  0.62333682095E+03  0.50400001928E-02 0.  1.
        1   -1    0    0  501    0  0.00000000000E+00  0.00000000000E+00 -0.21223273202E+04  0.21223273202E+04  0.50400001928E-02 0. -1.
    10030    2    1    2    0    0  0.00000000000E+00  0.00000000000E+00 -0.14989904993E+04  0.27456641412E+04  0.23003693310E+04 0.  0.
        5    1    3    3  502    0  0.37250884875E+03  0.38410665724E+03  0.46572737060E+03  0.70938342260E+03  0.46999998093E+01 0.  1.
       -5    1    3    3    0  502 -0.37250884875E+03 -0.38410665724E+03 -0.19647178699E+04  0.20362807186E+04  0.46999998093E+01 0. -1.
</event>
<event>
 5   0  0.6319125E-07  0.2286070E+04  0.7818609E-02  0.8483434E-01
        4   -1    0    0  501    0  0.00000000000E+00  0.00000000000E+00  0.11764069872E+04  0.11764076727E+04  0.12699999809E+01 0.  1.
       -4   -1    0    0    0  501  0.00000000000E+00  0.00000000000E+00 -0.11106084299E+04  0.11106091560E+04  0.12699999809E+01 0. -1.
    10030    2    1    2    0    0  0.00000000000E+00  0.00000000000E+00  0.65798557266E+02  0.22870168287E+04  0.22860701049E+04 0.  0.
        5    1    3    3  502    0 -0.62910002453E+03  0.14350000955E+03 -0.91096796263E+03  0.11163529068E+04  0.46999998093E+01 0. -1.
       -5    1    3    3    0  502  0.62910002453E+03 -0.14350000955E+03  0.97676651989E+03  0.11706639219E+04  0.46999998093E+01 0.  1.
</event>
<event>
 5   0  0.1689444E-06  0.2294910E+04  0.7818609E-02  0.8479931E-01
        2   -1    0    0  501    0  0.00000000000E+00  0.00000000000E+00  0.10421350773E+04  0.10421350773E+04  0.25500000920E-02 0.  1.
       -2   -1    0    0    0  501  0.00000000000E+00  0.00000000000E+00 -0.12634191909E+04  0.12634191909E+04  0.25500000920E-02 0. -1.
    10030    2    1    2    0    0  0.00000000000E+00  0.00000000000E+00 -0.22128411351E+03  0.23055542682E+04  0.22949104176E+04 0.  0.
        2    1    3    3  502    0 -0.67644007315E+03  0.74150946584E+03  0.44803605176E+03  0.10991559326E+04  0.25500000920E-02 0.  1.
       -2    1    3    3    0  502  0.67644007315E+03 -0.74150946584E+03 -0.66932016527E+03  0.12063983356E+04  0.25500000920E-02 0. -1.
</event>
<event>
 5   0  0.1689444E-06  0.2298826E+04  0.7818609E-02  0.8478384E-01
       -2   -1    0    0    0  501  0.00000000000E+00  0.00000000000E+00  0.99661182143E+03  0.99661182143E+03  0.25500000920E-02 0.  1.
        2   -1    0    0  501    0  0.00000000000E+00  0.00000000000E+00 -0.13256419480E+04  0.13256419480E+04  0.25500000920E-02 0. -1.
    10030    2    1    2    0    0  0.00000000000E+00  0.00000000000E+00 -0.32903012656E+03  0.23222537694E+04  0.22988261669E+04 0.  0.
        2    1    3    3  502    0 -0.86088004657E+03  0.28997754045E+03 -0.87592848989E+03  0.12619239866E+04  0.25500000920E-02 0. -1.
       -2    1    3    3    0  502  0.86088004657E+03 -0.28997754045E+03  0.54689836332E+03  0.10603297828E+04  0.25500000920E-02 0.  1.
</event>
<event>
 5   0  0.1888779E-06  0.2299703E+04  0.7818609E-02  0.8478038E-01
        2   -1    0    0  501    0  0.00000000000E+00  0.00000000000E+00  0.93384089656E+03  0.93384089657E+03  0.25500000920E-02 0.  1.
       -2   -1    0    0    0  501  0.00000000000E+00  0.00000000000E+00 -0.14158288481E+04  0.14158288481E+04  0.25500000920E-02 0. -1.
    10030    2    1    2    0    0  0.00000000000E+00  0.00000000000E+00 -0.48198795150E+03  0.23496697446E+04  0.22997033555E+04 0.  0.
        4    1    3    3  502    0 -0.91990067795E+03 -0.15741199264E+03 -0.92727345001E+03  0.13156114383E+04  0.12699999809E+01 0. -1.
       -4    1    3    3    0  502  0.91990067795E+03  0.15741199264E+03  0.44528549851E+03  0.10340583063E+04  0.12699999809E+01 0.  1.
</event>
<event>
 5   0  0.1689444E-06  0.2299780E+04  0.7818609E-02  0.8478008E-01
       -2   -1    0    0    0  501  0.00000000000E+00  0.00000000000E+00  0.75812352636E+03  0.75812352636E+03  0.25500000920E-02 0. -1.
        2   -1    0    0  501    0  0.00000000000E+00  0.00000000000E+00 -0.17441057157E+04  0.17441057157E+04  0.25500000920E-02 0.  1.
    10030    2    1    2    0    0  0.00000000000E+00  0.00000000000E+00 -0.98598218931E+03  0.25022292420E+04  0.22997804900E+04 0.  0.
        2    1    3    3  502    0 -0.22596823853E+03 -0.77361307052E+03 -0.13853801749E+04  0.16027529619E+04  0.25500000920E-02 0.  1.
       -2    1    3    3    0  502  0.22596823853E+03  0.77361307052E+03  0.39939798560E+03  0.89947628018E+03  0.25500000920E-02 0. -1.
</event>
<event>
 5   0  0.1689444E-06  0.2299766E+04  0.7818609E-02  0.8478013E-01
       -2   -1    0    0    0  501  0.00000000000E+00  0.00000000000E+00  0.53842415407E+03  0.53842415407E+03  0.25500000920E-02 0.  1.
        2   -1    0    0  501    0  0.00000000000E+00  0.00000000000E+00 -0.24557425253E+04  0.24557425253E+04  0.25500000920E-02 0. -1.
    10030    2    1    2    0    0  0.00000000000E+00  0.00000000000E+00 -0.19173183713E+04  0.29941666794E+04  0.22997661549E+04 0.  0.
        2    1    3    3  502    0  0.50672560194E+03  0.74896163295E+03 -0.18834214084E+04  0.20892559836E+04  0.25500000920E-02 0. -1.
       -2    1    3    3    0  502 -0.50672560194E+03 -0.74896163295E+03 -0.33896962845E+02  0.90491069581E+03  0.25500000920E-02 0.  1.
</event>
<event>
 5   0  0.1828646E-06  0.2300443E+04  0.7818609E-02  0.8477746E-01
        2   -1    0    0  501    0  0.00000000000E+00  0.00000000000E+00  0.11446506046E+04  0.11446506046E+04  0.25500000920E-02 0. -1.
       -2   -1    0    0    0  501  0.00000000000E+00  0.00000000000E+00 -0.11558196585E+04  0.11558196585E+04  0.25500000920E-02 0.  1.
    10030    2    1    2    0    0  0.00000000000E+00  0.00000000000E+00 -0.11169053845E+02  0.23004702631E+04  0.23004431494E+04 0.  0.
        3    1    3    3  502    0  0.11133613452E+03  0.10632715362E+04  0.41876416319E+03  0.11481748687E+04  0.10100000352E+00 0. -1.
       -3    1    3    3    0  502 -0.11133613452E+03 -0.10632715362E+04 -0.42993321703E+03  0.11522953944E+04  0.10100000352E+00 0.  1.
</event>
<event>
 5   0  0.8108242E-07  0.2301168E+04  0.7818609E-02  0.8477461E-01
       -1   -1    0    0    0  501  0.00000000000E+00  0.00000000000E+00  0.72996274348E+03  0.72996274350E+03  0.50400001928E-02 0.  1.
        1   -1    0    0  501    0  0.00000000000E+00  0.00000000000E+00 -0.18135761803E+04  0.18135761803E+04  0.50400001928E-02 0. -1.
    10030    2    1    2    0    0  0.00000000000E+00  0.00000000000E+00 -0.10836134368E+04  0.25435389238E+04  0.23011675681E+04 0.  0.
        4    1    3    3  502    0 -0.10658818728E+04 -0.24970200200E+03 -0.93320144483E+03  0.14385137490E+04  0.12699999809E+01 0.  1.
       -4    1    3    3    0  502  0.10658818728E+04  0.24970200200E+03 -0.15041199195E+03  0.11050251747E+04  0.12699999809E+01 0. -1.
</event>
<event>
 5   0  0.7761069E-07  0.2299785E+04  0.7818609E-02  0.8478006E-01
       -1   -1    0    0    0  501  0.00000000000E+00  0.00000000000E+00  0.13356022410E+04  0.13356022410E+04  0.50400001928E-02 0. -1.
        1   -1    0    0  501    0  0.00000000000E+00  0.00000000000E+00 -0.99000461604E+03  0.99000461605E+03  0.50400001928E-02 0.  1.
    10030    2    1    2    0    0  0.00000000000E+00  0.00000000000E+00  0.34559762495E+03  0.23256068571E+04  0.22997846715E+04 0.  0.
        1    1    3    3  502    0 -0.10124866446E+04  0.22684121345E+03 -0.32841365530E+03  0.10883205735E+04  0.50400001928E-02 0.  1.
       -1    1    3    3    0  502  0.10124866446E+04 -0.22684121345E+03  0.67401128025E+03  0.12372862836E+04  0.50400001928E-02 0. -1.
</event>
<event>
 5   0  0.8097672E-07  0.2299399E+04  0.7818609E-02  0.8478158E-01
        1   -1    0    0  501    0  0.00000000000E+00  0.00000000000E+00  0.16761252220E+04  0.16761252220E+04  0.50400001928E-02 0. -1.
       -1   -1    0    0    0  501  0.00000000000E+00  0.00000000000E+00 -0.78860988495E+03  0.78860988497E+03  0.50400001928E-02 0.  1.
    10030    2    1    2    0    0  0.00000000000E+00  0.00000000000E+00  0.88751533701E+03  0.24647351069E+04  0.22993989810E+04 0.  0.
        3    1    3    3  502    0  0.44294755700E+03 -0.53346028417E+03 -0.53925871348E+03  0.87839762255E+03  0.10100000352E+00 0.  1.
       -3    1    3    3    0  502 -0.44294755700E+03  0.53346028417E+03  0.14267740505E+04  0.15863374844E+04  0.10100000352E+00 0. -1.
</event>
<event>
 5   0  0.7607231E-07  0.2297307E+04  0.7818609E-02  0.8478984E-01
        1   -1    0    0  501    0  0.00000000000E+00  0.00000000000E+00  0.11634661180E+04  0.11634661180E+04  0.50400001928E-02 0.  1.
       -1   -1    0    0    0  501  0.00000000000E+00  0.00000000000E+00 -0.11340290328E+04  0.11340290328E+04  0.50400001928E-02 0. -1.
    10030    2    1    2    0    0  0.00000000000E+00  0.00000000000E+00  0.29437085197E+02  0.22974951508E+04  0.22973065590E+04 0.  0.
        2    1    3    3  502    0 -0.74925662160E+03 -0.39992050897E+03  0.78813994019E+03  0.11586571813E+04  0.25500000920E-02 0.  1.
       -2    1    3    3    0  502  0.74925662160E+03  0.39992050897E+03 -0.75870285500E+03  0.11388379695E+04  0.25500000920E-02 0. -1.
</event>
<event>
 5   0  0.7761069E-07  0.2299856E+04  0.7818609E-02  0.8477978E-01
       -1   -1    0    0    0  501  0.00000000000E+00  0.00000000000E+00  0.60584524899E+03  0.60584524901E+03  0.50400001928E-02 0. -1.
        1   -1    0    0  501    0  0.00000000000E+00  0.00000000000E+00 -0.21826267286E+04  0.21826267286E+04  0.50400001928E-02 0.  1.
    10030    2    1    2    0    0  0.00000000000E+00  0.00000000000E+00 -0.15767814796E+04  0.27884719776E+04  0.22998556771E+04 0.  0.
        1    1    3    3  502    0 -0.60214798245E+03  0.12174288715E+02  0.39932261963E+03  0.72262643229E+03  0.50400001928E-02 0. -1.
       -1    1    3    3    0  502  0.60214798245E+03 -0.12174288715E+02 -0.19761040993E+04  0.20658455453E+04  0.50400001928E-02 0.  1.
</event>
<event>
 5   0  0.1888779E-06  0.2299322E+04  0.7818609E-02  0.8478188E-01
        2   -1    0    0  501    0  0.00000000000E+00  0.00000000000E+00  0.17722744498E+04  0.17722744498E+04  0.25500000920E-02 0. -1.
       -2   -1    0    0    0  501  0.00000000000E+00  0.00000000000E+00 -0.74577646206E+03  0.74577646207E+03  0.25500000920E-02 0.  1.
    10030    2    1    2    0    0  0.00000000000E+00  0.00000000000E+00  0.10264979878E+04  0.25180509119E+04  0.22993221340E+04 0.  0.
        4    1    3    3  502    0  0.73884844298E+03  0.12626500074E+03  0.14678830686E+04  0.16481875464E+04  0.12699999809E+01 0. -1.
       -4    1    3    3    0  502 -0.73884844298E+03 -0.12626500074E+03 -0.44138508086E+03  0.86986336548E+03  0.12699999809E+01 0.  1.
</event>
<event>
 5   0  0.1888779E-06  0.2301014E+04  0.7818609E-02  0.8477521E-01
       -2   -1    0    0    0  501  0.00000000000E+00  0.00000000000E+00  0.12446848937E+04  0.12446848937E+04  0.25500000920E-02 0. -1.
        2   -1    0    0  501    0  0.00000000000E+00  0.00000000000E+00 -0.10634551125E+04  0.10634551125E+04  0.25500000920E-02 0.  1.
    10030    2    1    2    0    0  0.00000000000E+00  0.00000000000E+00  0.18122978117E+03  0.23081400061E+04  0.23010141361E+04 0.  0.
        4    1    3    3  502    0 -0.73512580430E+03  0.84477014982E+03  0.35528488851E+03  0.11748512753E+04  0.12699999809E+01 0. -1.
       -4    1    3    3    0  502  0.73512580430E+03 -0.84477014982E+03 -0.17405510734E+03  0.11332887308E+04  0.12699999809E+01 0.  1.
</event>
<event>
 5   0  0.1689444E-06  0.2299570E+04  0.7818609E-02  0.8478091E-01
        2   -1    0    0  501    0  0.00000000000E+00  0.00000000000E+00  0.27332198362E+04  0.27332198362E+04  0.25500000920E-02 0. -1.
       -2   -1    0    0    0  501  0.00000000000E+00  0.00000000000E+00 -0.48368065302E+03  0.48368065303E+03  0.25500000920E-02 0.  1.
    10030    2    1    2    0    0  0.00000000000E+00  0.00000000000E+00  0.22495391831E+04  0.32169004892E+04  0.22995700078E+04 0.  0.
        2    1    3    3  502    0 -0.67787958695E+03 -0.74124409371E+03  0.34207504879E+03  0.10611215198E+04  0.25500000920E-02 0.  1.
       -2    1    3    3    0  502  0.67787958695E+03  0.74124409371E+03  0.19074641344E+04  0.21557789694E+04  0.25500000920E-02 0. -1.
</event>
<event>
 5   0  0.7932912E-07  0.2298529E+04  0.7818609E-02  0.8478501E-01
        1   -1    0    0  501    0  0.00000000000E+00  0.00000000000E+00  0.11882360309E+04  0.11882360309E+04  0.50400001928E-02 0.  1.
       -1   -1    0    0    0  501  0.00000000000E+00  0.00000000000E+00 -0.11115711540E+04  0.11115711540E+04  0.50400001928E-02 0. -1.
    10030    2    1    2    0    0  0.00000000000E+00  0.00000000000E+00  0.76664876916E+02  0.22998071850E+04  0.22985290045E+04 0.  0.
        5    1    3    3  502    0 -0.90153043593E+03 -0.10092207819E+03 -0.66764083033E+03  0.11263697266E+04  0.46999998093E+01 0. -1.
       -5    1    3    3    0  502  0.90153043593E+03  0.10092207819E+03  0.74430570724E+03  0.11734374583E+04  0.46999998093E+01 0.  1.
</event>
<event>
 5   0  0.8108242E-07  0.2299690E+04  0.7818609E-02  0.8478043E-01
        1   -1    0    0  501    0  0.00000000000E+00  0.00000000000E+00  0.30718308750E+04  0.30718308750E+04  0.50400001928E-02 0.  1.
       -1   -1    0    0    0  501  0.00000000000E+00  0.00000000000E+00 -0.43040905050E+03  0.43040905053E+03  0.50400001928E-02 0. -1.
    10030    2    1    2    0    0  0.00000000000E+00  0.00000000000E+00  0.26414218245E+04  0.35022399255E+04  0.22996902489E+04 0.  0.
        4    1    3    3  502    0 -0.23547096952E+03 -0.25602042775E+03 -0.34836089715E+03  0.49229052853E+03  0.12699999809E+01 0. -1.
       -4    1    3    3    0  502  0.23547096952E+03  0.25602042775E+03  0.29897827217E+04  0.30099493970E+04  0.12699999809E+01 0.  1.
</event>
<event>
 5   0  0.8097672E-07  0.2300970E+04  0.7818609E-02  0.8477539E-01
        1   -1    0    0  501    0  0.00000000000E+00  0.00000000000E+00  0.13140117547E+04  0.13140117547E+04  0.50400001928E-02 0. -1.
       -1   -1    0    0    0  501  0.00000000000E+00  0.00000000000E+00 -0.10073090385E+04  0.10073090385E+04  0.50400001928E-02 0.  1.
    10030    2    1    2    0    0  0.00000000000E+00  0.00000000000E+00  0.30670271618E+03  0.23213207933E+04  0.23009701582E+04 0.  0.
        3    1    3    3  502    0  0.86988601653E+03 -0.75223855206E+03  0.18606322227E+03  0.11649824264E+04  0.10100000352E+00 0.  1.
       -3    1    3    3    0  502 -0.86988601653E+03  0.75223855206E+03  0.12063949390E+03  0.11563383668E+04  0.10100000352E+00 0. -1.
</event>
<event>
 5   0  0.8108242E-07  0.2300132E+04  0.7818609E-02  0.8477869E-01
        1   -1    0    0  501    0  0.00000000000E+00  0.00000000000E+00  0.20929827876E+04  0.20929827876E+04  0.50400001928E-02 0. -1.
       -1   -1    0    0    0  501  0.00000000000E+00  0.00000000000E+00 -0.63194585108E+03  0.63194585110E+03  0.50400001928E-02 0.  1.
    10030    2    1    2    0    0  0.00000000000E+00  0.00000000000E+00  0.14610369365E+04  0.27249286387E+04  0.23001319867E+04 0.  0.
        4    1    3    3  502    0  0.17467435864E+03 -0.26661544574E+03 -0.57857312281E+03  0.66056294084E+03  0.12699999809E+01 0.  1.
       -4    1    3    3    0  502 -0.17467435864E+03  0.26661544574E+03  0.20396100593E+04  0.20643656978E+04  0.12699999809E+01 0. -1.
</event>
<event>
 5   0  0.7607231E-07  0.2293563E+04  0.7818609E-02  0.8480464E-01
        1   -1    0    0  501    0  0.00000000000E+00  0.00000000000E+00  0.23117500450E+04  0.23117500450E+04  0.50400001928E-02 0.  1.
       -1   -1    0    0    0  501  0.00000000000E+00  0.00000000000E+00 -0.56887951259E+03  0.56887951261E+03  0.50400001928E-02 0. -1.
    10030    2    1    2    0    0  0.00000000000E+00  0.00000000000E+00  0.17428705324E+04  0.28806295576E+04  0.22935625031E+04 0.  0.
        2    1    3    3  502    0 -0.64806679312E+03 -0.63824207880E+03  0.17486008422E+04  0.19710272511E+04  0.25500000920E-02 0.  1.
       -2    1    3    3    0  502  0.64806679312E+03  0.63824207880E+03 -0.57303097628E+01  0.90960230648E+03  0.25500000920E-02 0. -1.
</event>
<event>
 5   0  0.1744876E-06  0.2299987E+04  0.7818609E-02  0.8477926E-01
       -2   -1    0    0    0  501  0.00000000000E+00  0.00000000000E+00  0.72802777242E+03  0.72802777242E+03  0.25500000920E-02 0. -1.
        2   -1    0    0  501    0  0.00000000000E+00  0.00000000000E+00 -0.18165304320E+04  0.18165304320E+04  0.25500000920E-02 0.  1.
    10030    2    1    2    0    0  0.00000000000E+00  0.00000000000E+00 -0.10885026596E+04  0.25445582044E+04  0.22999866121E+04 0.  0.
        1    1    3    3  502    0 -0.87273626957E+03  0.56015897429E+03  0.56299087953E+01  0.10370527318E+04  0.50400001928E-02 0. -1.
       -1    1    3    3    0  502  0.87273626957E+03 -0.56015897429E+03 -0.10941325684E+04  0.15075054726E+04  0.50400001928E-02 0.  1.
</event>
<event>
 5   0  0.1689444E-06  0.2299206E+04  0.7818609E-02  0.8478234E-01
        2   -1    0    0  501    0  0.00000000000E+00  0.00000000000E+00  0.20284037963E+04  0.20284037963E+04  0.25500000920E-02 0.  1.
       -2   -1    0    0    0  501  0.00000000000E+00  0.00000000000E+00 -0.65154023658E+03  0.65154023658E+03  0.25500000920E-02 0. -1.
    10030    2    1    2    0    0  0.00000000000E+00  0.00000000000E+00  0.13768635597E+04  0.26799440329E+04  0.22992056796E+04 0.  0.
        2    1    3    3  502    0 -0.11830221696E+03 -0.10800607268E+04  0.11262058117E+04  0.15648853372E+04  0.25500000920E-02 0.  1.
       -2    1    3    3    0  502  0.11830221696E+03  0.10800607268E+04  0.25065774801E+03  0.11150586957E+04  0.25500000920E-02 0. -1.
</event>
<event>
 5   0  0.1828646E-06  0.2300287E+04  0.7818609E-02  0.8477808E-01
        2   -1    0    0  501    0  0.00000000000E+00  0.00000000000E+00  0.21720196512E+04  0.21720196512E+04  0.25500000920E-02 0.  1.
       -2   -1    0    0    0  501  0.00000000000E+00  0.00000000000E+00 -0.60903227525E+03  0.60903227525E+03  0.25500000920E-02 0. -1.
    10030    2    1    2    0    0  0.00000000000E+00  0.00000000000E+00  0.15629873760E+04  0.27810519265E+04  0.23002869996E+04 0.  0.
        3    1    3    3  502    0  0.22242410654E+03  0.47522801899E+03 -0.45589854649E+03  0.69509542374E+03  0.10100000352E+00 0. -1.
       -3    1    3    3    0  502 -0.22242410654E+03 -0.47522801899E+03  0.20188859225E+04  0.20859565028E+04  0.10100000352E+00 0.  1.
</event>
<event>
 5   0  0.1825521E-06  0.2300317E+04  0.7818609E-02  0.8477796E-01
       -2   -1    0    0    0  501  0.00000000000E+00  0.00000000000E+00  0.11783844828E+04  0.11783844829E+04  0.25500000920E-02 0. -1.
        2   -1    0    0  501    0  0.00000000000E+00  0.00000000000E+00 -0.11226089269E+04  0.11226089269E+04  0.25500000920E-02 0.  1.
    10030    2    1    2    0    0  0.00000000000E+00  0.00000000000E+00  0.55775555931E+02  0.23009934098E+04  0.23003173171E+04 0.  0.
        5    1    3    3  502    0 -0.83090278280E+03  0.28437753508E+03  0.77078555637E+03  0.11685043778E+04  0.46999998093E+01 0. -1.
       -5    1    3    3    0  502  0.83090278280E+03 -0.28437753508E+03 -0.71501000044E+03  0.11324890320E+04  0.46999998093E+01 0.  1.
</event>
<event>
 5   0  0.7932912E-07  0.2301921E+04  0.7818609E-02  0.8477164E-01
       -1   -1    0    0    0  501  0.00000000000E+00  0.00000000000E+00  0.73807858409E+03  0.73807858411E+03  0.50400001928E-02 0.  1.
        1   -1    0    0  501    0  0.00000000000E+00  0.00000000000E+00 -0.17948094195E+04  0.17948094195E+04  0.50400001928E-02 0. -1.
    10030    2    1    2    0    0  0.00000000000E+00  0.00000000000E+00 -0.10567308354E+04  0.25328880036E+04  0.23019212802E+04 0.  0.
        5    1    3    3  502    0 -0.67870289951E+03 -0.20990939078E+03  0.46802481169E+03  0.85074607992E+03  0.46999998093E+01 0.  1.
       -5    1    3    3    0  502  0.67870289951E+03  0.20990939078E+03 -0.15247556471E+04  0.16821419237E+04  0.46999998093E+01 0. -1.
</event>
<event>
 5   0  0.7607231E-07  0.2299404E+04  0.7818609E-02  0.8478156E-01
       -1   -1    0    0    0  501  0.00000000000E+00  0.00000000000E+00  0.15999894253E+04  0.15999894253E+04  0.50400001928E-02 0. -1.
        1   -1    0    0  501    0  0.00000000000E+00  0.00000000000E+00 -0.82613963977E+03  0.82613963978E+03  0.50400001928E-02 0.  1.
    10030    2    1    2    0    0  0.00000000000E+00  0.00000000000E+00  0.77384978549E+03  0.24261290650E+04  0.22994039988E+04 0.  0.
        2    1    3    3  502    0  0.20147929335E+03 -0.11308358376E+04  0.33490144342E+03  0.11964708831E+04  0.25500000920E-02 0. -1.
       -2    1    3    3    0  502 -0.20147929335E+03  0.11308358376E+04  0.43894834208E+03  0.12296581819E+04  0.25500000920E-02 0.  1.
</event>
<event>
 5   0  0.7932912E-07  0.2294790E+04  0.7818609E-02  0.8479978E-01
        1   -1    0    0  501    0  0.00000000000E+00  0.00000000000E+00  0.92205476791E+03  0.92205476792E+03  0.50400001928E-02 0.  1.
       -1   -1    0    0    0  501  0.00000000000E+00  0.00000000000E+00 -0.14278061238E+04  0.14278061238E+04  0.50400001928E-02 0. -1.
    10030    2    1    2    0    0  0.00000000000E+00  0.00000000000E+00 -0.50575135587E+03  0.23498608917E+04  0.22947901378E+04 0.  0.
        5    1    3    3  502    0 -0.41730635890E+03 -0.49999420571E+03 -0.12201906285E+04  0.13831218539E+04  0.46999998093E+01 0. -1.
       -5    1    3    3    0  502  0.41730635890E+03  0.49999420571E+03  0.71443927262E+03  0.96673903779E+03  0.46999998093E+01 0.  1.
</event>
<event>
 5   0  0.1689444E-06  0.2299129E+04  0.7818609E-02  0.8478265E-01
        2   -1    0    0  501    0  0.00000000000E+00  0.00000000000E+00  0.14222332036E+04  0.14222332036E+04  0.25500000920E-02 0.  1.
       -2   -1    0    0    0  501  0.00000000000E+00  0.00000000000E+00 -0.92917131148E+03  0.92917131148E+03  0.25500000920E-02 0. -1.
    10030    2    1    2    0    0  0.00000000000E+00  0.00000000000E+00  0.49306189209E+03  0.23514045151E+04  0.22991287837E+04 0.  0.
        2    1    3    3  502    0 -0.60575220826E+03  0.18087277817E+03 -0.73542863475E+03  0.96979687384E+03  0.25500000920E-02 0. -1.
       -2    1    3    3    0  502  0.60575220826E+03 -0.18087277817E+03  0.12284905268E+04  0.13816076412E+04  0.25500000920E-02 0.  1.
</event>
<event>
 5   0  0.1744876E-06  0.2301023E+04  0.7818609E-02  0.8477518E-01
        2   -1    0    0  501    0  0.00000000000E+00  0.00000000000E+00  0.17159258659E+04  0.17159258659E+04  0.25500000920E-02 0. -1.
       -2   -1    0    0    0  501  0.00000000000E+00  0.00000000000E+00 -0.77140674780E+03  0.77140674781E+03  0.25500000920E-02 0.  1.
    10030    2    1    2    0    0  0.00000000000E+00  0.00000000000E+00  0.94451911809E+03  0.24873326137E+04  0.23010230696E+04 0.  0.
        1    1    3    3  502    0 -0.18280345364E+03 -0.65239709454E+03 -0.53288836586E+03  0.86197974577E+03  0.50400001928E-02 0.  1.
       -1    1    3    3    0  502  0.18280345364E+03  0.65239709454E+03  0.14774074839E+04  0.16253528679E+04  0.50400001928E-02 0. -1.
</event>
<event>
 5   0  0.1744876E-06  0.2301733E+04  0.7818609E-02  0.8477238E-01
       -2   -1    0    0    0  501  0.00000000000E+00  0.00000000000E+00  0.12989904019E+04  0.12989904019E+04  0.25500000920E-02 0. -1.
        2   -1    0    0  501    0  0.00000000000E+00  0.00000000000E+00 -0.10196336021E+04  0.10196336021E+04  0.25500000920E-02 0.  1.
    10030    2    1    2    0    0  0.00000000000E+00  0.00000000000E+00  0.27935679976E+03  0.23186240040E+04  0.23017334881E+04 0.  0.
        1    1    3    3  502    0  0.37581025493E+03  0.93783034052E+02  0.12313586473E+04  0.12908418662E+04  0.50400001928E-02 0. -1.
       -1    1    3    3    0  502 -0.37581025493E+03 -0.93783034052E+02 -0.95200184751E+03  0.10277821378E+04  0.50400001928E-02 0.  1.
</event>
<event>
 5   0  0.1828646E-06  0.2299852E+04  0.7818609E-02  0.8477979E-01
       -2   -1    0    0    0  501  0.00000000000E+00  0.00000000000E+00  0.52780235720E+03  0.52780235721E+03  0.25500000920E-02 0.  1.
        2   -1    0    0  501    0  0.00000000000E+00  0.00000000000E+00 -0.25053502695E+04  0.25053502695E+04  0.25500000920E-02 0. -1.
    10030    2    1    2    0    0  0.00000000000E+00  0.00000000000E+00 -0.19775479123E+04  0.30331526268E+04  0.22998519760E+04 0.  0.
        3    1    3    3  502    0  0.58876977532E+03  0.42199231494E+03  0.18906959159E+03  0.74864857100E+03  0.10100000352E+00 0.  1.
       -3    1    3    3    0  502 -0.58876977532E+03 -0.42199231494E+03 -0.21666175039E+04  0.22845040558E+04  0.10100000352E+00 0. -1.
</event>
<event>
 5   0  0.8108242E-07  0.2300586E+04  0.7818609E-02  0.8477690E-01
       -1   -1    0    0    0  501  0.00000000000E+00  0.00000000000E+00  0.12802632102E+04  0.12802632102E+04  0.50400001928E-02 0. -1.
        1   -1    0    0  501    0  0.00000000000E+00  0.00000000000E+00 -0.10335171711E+04  0.10335171711E+04  0.50400001928E-02 0.  1.
    10030    2    1    2    0    0  0.00000000000E+00  0.00000000000E+00  0.24674603916E+03  0.23137803813E+04  0.23005860221E+04 0.  0.
        4    1    3    3  502    0  0.63191040828E+03  0.60307715888E+03 -0.62935752510E+03  0.10766175416E+04  0.12699999809E+01 0.  1.
       -4    1    3    3    0  502 -0.63191040828E+03 -0.60307715888E+03  0.87610356426E+03  0.12371628397E+04  0.12699999809E+01 0. -1.
</event>
<event>
 5   0  0.1744876E-06  0.2301043E+04  0.7818609E-02  0.8477510E-01
       -2   -1    0    0    0  501  0.00000000000E+00  0.00000000000E+00  0.20330751359E+04  0.20330751359E+04  0.25500000920E-02 0.  1.
        2   -1    0    0  501    0  0.00000000000E+00  0.00000000000E+00 -0.65108230723E+03  0.65108230724E+03  0.25500000920E-02 0. -1.
    10030    2    1    2    0    0  0.00000000000E+00  0.00000000000E+00  0.13819928287E+04  0.26841574432E+04  0.23010425900E+04 0.  0.
        1    1    3    3  502    0  0.38660900936E+03  0.10250794367E+04  0.11008416182E+04  0.15530958264E+04  0.50400001928E-02 0.  1.
       -1    1    3    3    0  502 -0.38660900936E+03 -0.10250794367E+04  0.28115121052E+03  0.11310616168E+04  0.50400001928E-02 0. -1.
</event>
<event>
 5   0  0.7607231E-07  0.2299471E+04  0.7818609E-02  0.8478130E-01
        1   -1    0    0  501    0  0.00000000000E+00  0.00000000000E+00  0.97767580278E+03  0.97767580279E+03  0.50400001928E-02 0.  1.
       -1   -1    0    0    0  501  0.00000000000E+00  0.00000000000E+00 -0.13520752750E+04  0.13520752751E+04  0.50400001928E-02 0. -1.
    10030    2    1    2    0    0  0.00000000000E+00  0.00000000000E+00 -0.37439947226E+03  0.23297510778E+04  0.22994706173E+04 0.  0.
        2    1    3    3  502    0  0.37185008923E+03 -0.79852749145E+03 -0.93582950959E+03  0.12851830665E+04  0.25500000920E-02 0. -1.
       -2    1    3    3    0  502 -0.37185008923E+03  0.79852749145E+03  0.56143003733E+03  0.10445680113E+04  0.25500000920E-02 0.  1.
</event>
<event>
 5   0  0.1825521E-06  0.2299939E+04  0.7818609E-02  0.8477945E-01
        2   -1    0    0  501    0  0.00000000000E+00  0.00000000000E+00  0.10269660244E+04  0.10269660244E+04  0.25500000920E-02 0.  1.
       -2   -1    0    0    0  501  0.00000000000E+00  0.00000000000E+00 -0.12877055369E+04  0.12877055369E+04  0.25500000920E-02 0. -1.
    10030    2    1    2    0    0  0.00000000000E+00  0.00000000000E+00 -0.26073951250E+03  0.23146715613E+04  0.22999389868E+04 0.  0.
        5    1    3    3  502    0 -0.66308673224E+02  0.33105591311E+03  0.97595017065E+03  0.10327127787E+04  0.46999998093E+01 0.  1.
       -5    1    3    3    0  502  0.66308673224E+02 -0.33105591311E+03 -0.12366896832E+04  0.12819587825E+04  0.46999998093E+01 0. -1.
</event>
<event>
 5   0  0.1828646E-06  0.2299291E+04  0.7818609E-02  0.8478201E-01
       -2   -1    0    0    0  501  0.00000000000E+00  0.00000000000E+00  0.84630938937E+03  0.84630938937E+03  0.25500000920E-02 0.  1.
        2   -1    0    0  501    0  0.00000000000E+00  0.00000000000E+00 -0.15617035405E+04  0.15617035405E+04  0.25500000920E-02 0. -1.
    10030    2    1    2    0    0  0.00000000000E+00  0.00000000000E+00 -0.71539415117E+03  0.24080129299E+04  0.22992906469E+04 0.  0.
        3    1    3    3  502    0 -0.24662411614E+03  0.23533610083E+03  0.79216183411E+03  0.86239603237E+03  0.10100000352E+00 0.  1.
       -3    1    3    3    0  502  0.24662411614E+03 -0.23533610083E+03 -0.15075559853E+04  0.15456168975E+04  0.10100000352E+00 0. -1.
</event>
<event>
 5   0  0.7607231E-07  0.2299770E+04  0.7818609E-02  0.8478012E-01
        1   -1    0    0  501    0  0.00000000000E+00  0.00000000000E+00  0.14082378434E+04  0.14082378435E+04  0.50400001928E-02 0.  1.
       -1   -1    0    0    0  501  0.00000000000E+00  0.00000000000E+00 -0.93892942200E+03  0.93892942201E+03  0.50400001928E-02 0. -1.
    10030    2    1    2    0    0  0.00000000000E+00  0.00000000000E+00  0.46930842145E+03  0.23471672655E+04  0.22997703750E+04 0.  0.
        2    1    3    3  502    0 -0.80550216989E+02 -0.10628424596E+04  0.67495404082E+03  0.12616201443E+04  0.25500000920E-02 0.  1.
       -2    1    3    3    0  502  0.80550216989E+02  0.10628424596E+04 -0.20564561938E+03  0.10855471211E+04  0.25500000920E-02 0. -1.
</event>
<event>
 5   0  0.7607231E-07  0.2298896E+04  0.7818609E-02  0.8478356E-01
       -1   -1    0    0    0  501  0.00000000000E+00  0.00000000000E+00  0.58851594856E+03  0.58851594859E+03  0.50400001928E-02 0. -1.
        1   -1    0    0  501    0  0.00000000000E+00  0.00000000000E+00 -0.22450216828E+04  0.22450216828E+04  0.50400001928E-02 0.  1.
    10030    2    1    2    0    0  0.00000000000E+00  0.00000000000E+00 -0.16565057342E+04  0.28335376314E+04  0.22988963136E+04 0.  0.
        2    1    3    3  502    0 -0.10654597824E+04 -0.14648888779E+03 -0.32823943970E+03  0.11244575012E+04  0.25500000920E-02 0.  1.
       -2    1    3    3    0  502  0.10654597824E+04  0.14648888779E+03 -0.13282662945E+04  0.17090801302E+04  0.25500000920E-02 0. -1.
</event>
<event>
 5   0  0.7932912E-07  0.2300953E+04  0.7818609E-02  0.8477546E-01
       -1   -1    0    0    0  501  0.00000000000E+00  0.00000000000E+00  0.89503552667E+03  0.89503552668E+03  0.50400001928E-02 0. -1.
        1   -1    0    0  501    0  0.00000000000E+00  0.00000000000E+00 -0.14788192857E+04  0.14788192857E+04  0.50400001928E-02 0.  1.
    10030    2    1    2    0    0  0.00000000000E+00  0.00000000000E+00 -0.58378375903E+03  0.23738548124E+04  0.23009526707E+04 0.  0.
        5    1    3    3  502    0 -0.82221707327E+03 -0.81893797204E+02  0.53398745125E+03  0.98382528819E+03  0.46999998093E+01 0. -1.
       -5    1    3    3    0  502  0.82221707327E+03  0.81893797204E+02 -0.11177712103E+04  0.13900295242E+04  0.46999998093E+01 0.  1.
</event>
<event>
 5   0  0.1689444E-06  0.2300539E+04  0.7818609E-02  0.8477709E-01
       -2   -1    0    0    0  501  0.00000000000E+00  0.00000000000E+00  0.12559775620E+04  0.12559775620E+04  0.25500000920E-02 0. -1.
        2   -1    0    0  501    0  0.00000000000E+00  0.00000000000E+00 -0.10534582802E+04  0.10534582802E+04  0.25500000920E-02 0.  1.
    10030    2    1    2    0    0  0.00000000000E+00  0.00000000000E+00  0.20251928177E+03  0.23094358422E+04  0.23005390346E+04 0.  0.
        2    1    3    3  502    0 -0.23128121302E+01  0.94840434041E+03  0.75465603448E+03  0.12120156238E+04  0.25500000920E-02 0. -1.
       -2    1    3    3    0  502  0.23128121302E+01 -0.94840434041E+03 -0.55213675272E+03  0.10974202184E+04  0.25500000920E-02 0.  1.
</event>
<event>
 5   0  0.1689444E-06  0.2299962E+04  0.7818609E-02  0.8477936E-01
       -2   -1    0    0    0  501  0.00000000000E+00  0.00000000000E+00  0.11790784919E+04  0.11790784919E+04  0.25500000920E-02 0.  1.
        2   -1    0    0  501    0  0.00000000000E+00  0.00000000000E+00 -0.11216012804E+04  0.11216012804E+04  0.25500000920E-02 0. -1.
    10030    2    1    2    0    0  0.00000000000E+00  0.00000000000E+00  0.57477211494E+02  0.23006797723E+04  0.22999616920E+04 0.  0.
        2    1    3    3  502    0 -0.26698119118E+03 -0.69342955552E+03  0.90669847585E+03  0.11722737014E+04  0.25500000920E-02 0.  1.
       -2    1    3    3    0  502  0.26698119118E+03  0.69342955552E+03 -0.84922126435E+03  0.11284060709E+04  0.25500000920E-02 0. -1.
</event>
<event>
 5   0  0.8097672E-07  0.2299323E+04  0.7818609E-02  0.8478188E-01
       -1   -1    0    0    0  501  0.00000000000E+00  0.00000000000E+00  0.15692353473E+04  0.15692353473E+04  0.50400001928E-02 0. -1.
        1   -1    0    0  501    0  0.00000000000E+00  0.00000000000E+00 -0.84227092583E+03  0.84227092584E+03  0.50400001928E-02 0.  1.
    10030    2    1    2    0    0  0.00000000000E+00  0.00000000000E+00  0.72696442151E+03  0.24115062732E+04  0.22993227776E+04 0.  0.
        3    1    3    3  502    0  0.89514494093E+02 -0.11286041884E+04  0.15382642802E+03  0.11425510224E+04  0.10100000352E+00 0. -1.
       -3    1    3    3    0  502 -0.89514494093E+02  0.11286041884E+04  0.57313799349E+03  0.12689552508E+04  0.10100000352E+00 0.  1.
</event>
<event>
 5   0  0.1888779E-06  0.2296820E+04  0.7818609E-02  0.8479176E-01
       -2   -1    0    0    0  501  0.00000000000E+00  0.00000000000E+00  0.13601577231E+04  0.13601577231E+04  0.25500000920E-02 0. -1.
        2   -1    0    0  501    0  0.00000000000E+00  0.00000000000E+00 -0.96962731687E+03  0.96962731687E+03  0.25500000920E-02 0.  1.
    10030    2    1    2    0    0  0.00000000000E+00  0.00000000000E+00  0.39053040623E+03  0.23297850400E+04  0.22968204837E+04 0.  0.
        4    1    3    3  502    0 -0.97909904927E+03 -0.59952363020E+03  0.16691883540E+03  0.11601409578E+04  0.12699999809E+01 0. -1.
       -4    1    3    3    0  502  0.97909904927E+03  0.59952363020E+03  0.22361157082E+03  0.11696440822E+04  0.12699999809E+01 0.  1.
</event>
<event>
 5   0  0.7761069E-07  0.2302941E+04  0.7818609E-02  0.8476763E-01
        1   -1    0    0  501    0  0.00000000000E+00  0.00000000000E+00  0.10564681676E+04  0.10564681676E+04  0.50400001928E-02 0. -1.
       -1   -1    0    0    0  501  0.00000000000E+00  0.00000000000E+00 -0.12550155207E+04  0.12550155207E+04  0.50400001928E-02 0.  1.
    10030    2    1    2    0    0  0.00000000000E+00  0.00000000000E+00 -0.19854735308E+03  0.23114836883E+04  0.23029406831E+04 0.  0.
        1    1    3    3  502    0 -0.84720855298E+03  0.12762202265E+03 -0.87143513888E+03  0.12220674753E+04  0.50400001928E-02 0.  1.
       -1    1    3    3    0  502  0.84720855298E+03 -0.12762202265E+03  0.67288778579E+03  0.10894162130E+04  0.50400001928E-02 0. -1.
</event>
<event>
 5   0  0.1689444E-06  0.2300581E+04  0.7818609E-02  0.8477692E-01
       -2   -1    0    0    0  501  0.00000000000E+00  0.00000000000E+00  0.12191993316E+04  0.12191993316E+04  0.25500000920E-02 0.  1.
        2   -1    0    0  501    0  0.00000000000E+00  0.00000000000E+00 -0.10852763592E+04  0.10852763592E+04  0.25500000920E-02 0. -1.
    10030    2    1    2    0    0  0.00000000000E+00  0.00000000000E+00  0.13392297247E+03  0.23044756908E+04  0.23005809803E+04 0.  0.
        2    1    3    3  502    0 -0.96674066779E+03 -0.31310158420E+03  0.60689914537E+03  0.11836159400E+04  0.25500000920E-02 0.  1.
       -2    1    3    3    0  502  0.96674066779E+03  0.31310158420E+03 -0.47297617289E+03  0.11208597508E+04  0.25500000920E-02 0. -1.
</event>
<event>
 5   0  0.8097672E-07  0.2300115E+04  0.7818609E-02  0.8477876E-01
        1   -1    0    0  501    0  0.00000000000E+00  0.00000000000E+00  0.10873677441E+04  0.10873677441E+04  0.50400001928E-02 0.  1.
       -1   -1    0    0    0  501  0.00000000000E+00  0.00000000000E+00 -0.12163619847E+04  0.12163619847E+04  0.50400001928E-02 0. -1.
    10030    2    1    2    0    0  0.00000000000E+00  0.00000000000E+00 -0.12899424066E+03  0.23037297288E+04  0.23001154643E+04 0.  0.
        3    1    3    3  502    0 -0.55623653634E+03  0.50630196502E+03  0.80686534840E+03  0.11030740976E+04  0.10100000352E+00 0.  1.
       -3    1    3    3    0  502  0.55623653634E+03 -0.50630196502E+03 -0.93585958906E+03  0.12006556312E+04  0.10100000352E+00 0. -1.
</event>
<event>
 5   0  0.1744876E-06  0.2293084E+04  0.7818609E-02  0.8480653E-01
       -2   -1    0    0    0  501  0.00000000000E+00  0.00000000000E+00  0.10893701304E+04  0.10893701304E+04  0.25500000920E-02 0. -1.
        2   -1    0    0  501    0  0.00000000000E+00  0.00000000000E+00 -0.12067146598E+04  0.12067146598E+04  0.25500000920E-02 0.  1.
    10030    2    1    2    0    0  0.00000000000E+00  0.00000000000E+00 -0.11734452943E+03  0.22960847903E+04  0.22930843041E+04 0.  0.
        1    1    3    3  502    0 -0.11463213414E+04  0.13815637456E+02 -0.76455478002E+02  0.11489512304E+04  0.50400001928E-02 0.  1.
       -1    1    3    3    0  502  0.11463213414E+04 -0.13815637456E+02 -0.40889051423E+02  0.11471335599E+04  0.50400001928E-02 0. -1.
</event>
<event>
 5   0  0.1825521E-06  0.2300275E+04  0.7818609E-02  0.8477813E-01
        2   -1    0    0  501    0  0.00000000000E+00  0.00000000000E+00  0.21512327795E+04  0.21512327795E+04  0.25500000920E-02 0. -1.
       -2   -1    0    0    0  501  0.00000000000E+00  0.00000000000E+00 -0.61491077683E+03  0.61491077684E+03  0.25500000920E-02 0.  1.
    10030    2    1    2    0    0  0.00000000000E+00  0.00000000000E+00  0.15363220027E+04  0.27661435564E+04  0.23002749571E+04 0.  0.
        5    1    3    3  502    0 -0.63027551871E+03 -0.39170348716E+03 -0.28850087091E+03  0.79619953143E+03  0.46999998093E+01 0.  1.
       -5    1    3    3    0  502  0.63027551871E+03  0.39170348716E+03  0.18248228736E+04  0.19699440249E+04  0.46999998093E+01 0. -1.
</event>
<event>
 5   0  0.7761069E-07  0.2299720E+04  0.7818609E-02  0.8478031E-01
       -1   -1    0    0    0  501  0.00000000000E+00  0.00000000000E+00  0.46045428034E+03  0.46045428036E+03  0.50400001928E-02 0.  1.
        1   -1    0    0  501    0  0.00000000000E+00  0.00000000000E+00 -0.28714645696E+04  0.28714645696E+04  0.50400001928E-02 0. -1.
    10030    2    1    2    0    0  0.00000000000E+00  0.00000000000E+00 -0.24110102892E+04  0.33319188499E+04  0.22997201151E+04 0.  0.
        1    1    3    3  502    0  0.84205379608E+03  0.67378237552E+03 -0.62752849753E+03  0.12477296583E+04  0.50400001928E-02 0. -1.
       -1    1    3    3    0  502 -0.84205379608E+03 -0.67378237552E+03 -0.17834817917E+04  0.20841891916E+04  0.50400001928E-02 0.  1.
</event>
<event>
 5   0  0.8108242E-07  0.2299380E+04  0.7818609E-02  0.8478166E-01
        1   -1    0    0  501    0  0.00000000000E+00  0.00000000000E+00  0.17020221066E+04  0.17020221066E+04  0.50400001928E-02 0.  1.
       -1   -1    0    0    0  501  0.00000000000E+00  0.00000000000E+00 -0.77659782139E+03  0.77659782141E+03  0.50400001928E-02 0. -1.
    10030    2    1    2    0    0  0.00000000000E+00  0.00000000000E+00  0.92542428523E+03  0.24786199280E+04  0.22993796207E+04 0.  0.
        4    1    3    3  502    0  0.10195773966E+04  0.20789783841E+02  0.10349559877E+04  0.14529644841E+04  0.12699999809E+01 0.  1.
       -4    1    3    3    0  502 -0.10195773966E+04 -0.20789783841E+02 -0.10953170246E+03  0.10256554439E+04  0.12699999809E+01 0. -1.
</event>
<event>
 5   0  0.8108242E-07  0.2301735E+04  0.7818609E-02  0.8477237E-01
       -1   -1    0    0    0  501  0.00000000000E+00  0.00000000000E+00  0.93127053256E+03  0.93127053258E+03  0.50400001928E-02 0. -1.
        1   -1    0    0  501    0  0.00000000000E+00  0.00000000000E+00 -0.14222467662E+04  0.14222467662E+04  0.50400001928E-02 0.  1.
    10030    2    1    2    0    0  0.00000000000E+00  0.00000000000E+00 -0.49097623367E+03  0.23535172988E+04  0.23017354352E+04 0.  0.
        4    1    3    3  502    0 -0.80767870680E+03 -0.30535990025E+03 -0.10234633377E+04  0.13390550319E+04  0.12699999809E+01 0.  1.
       -4    1    3    3    0  502  0.80767870680E+03  0.30535990025E+03  0.53248710400E+03  0.10144622669E+04  0.12699999809E+01 0. -1.
</event>
<event>
 5   0  0.1689444E-06  0.2300098E+04  0.7818609E-02  0.8477882E-01
       -2   -1    0    0    0  501  0.00000000000E+00  0.00000000000E+00  0.15638486616E+04  0.15638486616E+04  0.25500000920E-02 0. -1.
        2   -1    0    0  501    0  0.00000000000E+00  0.00000000000E+00 -0.84574222893E+03  0.84574222894E+03  0.25500000920E-02 0.  1.
    10030    2    1    2    0    0  0.00000000000E+00  0.00000000000E+00  0.71810643266E+03  0.24095908905E+04  0.23000981308E+04 0.  0.
        2    1    3    3  502    0 -0.66174740335E+02 -0.12148043866E+01  0.15618518299E+04  0.15632535657E+04  0.25500000920E-02 0. -1.
       -2    1    3    3    0  502  0.66174740335E+02  0.12148043866E+01 -0.84374539726E+03  0.84633732484E+03  0.25500000920E-02 0.  1.
</event>
<event>
 5   0  0.1689444E-06  0.2298107E+04  0.7818609E-02  0.8478668E-01
        2   -1    0    0  501    0  0.00000000000E+00  0.00000000000E+00  0.10483219976E+04  0.10483219976E+04  0.25500000920E-02 0. -1.
       -2   -1    0    0    0  501  0.00000000000E+00  0.00000000000E+00 -0.12594639588E+04  0.12594639588E+04  0.25500000920E-02 0.  1.
    10030    2    1    2    0    0  0.00000000000E+00  0.00000000000E+00 -0.21114196126E+03  0.23077859564E+04  0.22981068497E+04 0.  0.
        2    1    3    3  502    0 -0.85268664224E+03  0.30315112499E+03 -0.81661295313E+03  0.12189470168E+04  0.25500000920E-02 0.  1.
       -2    1    3    3    0  502  0.85268664224E+03 -0.30315112499E+03  0.60547099187E+03  0.10888389396E+04  0.25500000920E-02 0. -1.
</event>
<event>
 5   0  0.1888779E-06  0.2299545E+04  0.7818609E-02  0.8478101E-01
        2   -1    0    0  501    0  0.00000000000E+00  0.00000000000E+00  0.12249005153E+04  0.12249005153E+04  0.25500000920E-02 0.  1.
       -2   -1    0    0    0  501  0.00000000000E+00  0.00000000000E+00 -0.10792521532E+04  0.10792521532E+04  0.25500000920E-02 0. -1.
    10030    2    1    2    0    0  0.00000000000E+00  0.00000000000E+00  0.14564836212E+03  0.23041526685E+04  0.22995447538E+04 0.  0.
        4    1    3    3  502    0  0.75546162007E+02  0.14726285454E+03  0.12129008430E+04  0.12241420011E+04  0.12699999809E+01 0.  1.
       -4    1    3    3    0  502 -0.75546162007E+02 -0.14726285454E+03 -0.10672524809E+04  0.10800106675E+04  0.12699999809E+01 0. -1.
</event>
<event>
 5   0  0.1825521E-06  0.2299509E+04  0.7818609E-02  0.8478115E-01
       -2   -1    0    0    0  501  0.00000000000E+00  0.00000000000E+00  0.10802811986E+04  0.10802811986E+04  0.25500000920E-02 0. -1.
        2   -1    0    0  501    0  0.00000000000E+00  0.00000000000E+00 -0.12236956025E+04  0.12236956025E+04  0.25500000920E-02 0.  1.
    10030    2    1    2    0    0  0.00000000000E+00  0.00000000000E+00 -0.14341440385E+03  0.23039768011E+04  0.22995089495E+04 0.  0.
        5    1    3    3  502    0 -0.33536362039E+03  0.10416922689E+04 -0.42498513018E+03  0.11739787016E+04  0.46999998093E+01 0. -1.
       -5    1    3    3    0  502  0.33536362039E+03 -0.10416922689E+04  0.28157072633E+03  0.11299980995E+04  0.46999998093E+01 0.  1.
</event>
<event>
 5   0  0.1689444E-06  0.2299474E+04  0.7818609E-02  0.8478129E-01
       -2   -1    0    0    0  501  0.00000000000E+00  0.00000000000E+00  0.60875458172E+03  0.60875458173E+03  0.25500000920E-02 0.  1.
        2   -1    0    0  501    0  0.00000000000E+00  0.00000000000E+00 -0.21714741004E+04  0.21714741004E+04  0.25500000920E-02 0. -1.
    10030    2    1    2    0    0  0.00000000000E+00  0.00000000000E+00 -0.15627195187E+04  0.27802286821E+04  0.22994736856E+04 0.  0.
        2    1    3    3  502    0 -0.10722448309E+04  0.41321969617E+03 -0.73555344132E+03  0.13643673845E+04  0.25500000920E-02 0.  1.
       -2    1    3    3    0  502  0.10722448309E+04 -0.41321969617E+03 -0.82716607736E+03  0.14158612977E+04  0.25500000920E-02 0. -1.
</event>
<event>
 5   0  0.1744876E-06  0.2299060E+04  0.7818609E-02  0.8478292E-01
       -2   -1    0    0    0  501  0.00000000000E+00  0.00000000000E+00  0.42571038344E+03  0.42571038345E+03  0.25500000920E-02 0. -1.
        2   -1    0    0  501    0  0.00000000000E+00  0.00000000000E+00 -0.31040342732E+04  0.31040342732E+04  0.25500000920E-02 0.  1.
    10030    2    1    2    0    0  0.00000000000E+00  0.00000000000E+00 -0.26783238898E+04  0.35297446567E+04  0.22990603478E+04 0.  0.
        1    1    3    3  502    0  0.63238285203E+03 -0.52838500121E+03 -0.25696259807E+04  0.26985322792E+04  0.50400001928E-02 0.  1.
       -1    1    3    3    0  502 -0.63238285203E+03  0.52838500121E+03 -0.10869790910E+03  0.83121237750E+03  0.50400001928E-02 0. -1.
</event>
<event>
 5   0  0.1888779E-06  0.2299333E+04  0.7818609E-02  0.8478184E-01
        2   -1    0    0  501    0  0.00000000000E+00  0.00000000000E+00  0.15527448225E+04  0.15527448225E+04  0.25500000920E-02 0. -1.
       -2   -1    0    0    0  501  0.00000000000E+00  0.00000000000E+00 -0.85122377268E+03  0.85122377268E+03  0.25500000920E-02 0.  1.
    10030    2    1    2    0    0  0.00000000000E+00  0.00000000000E+00  0.70152104982E+03  0.24039685952E+04  0.22993332128E+04 0.  0.
        4    1    3    3  502    0 -0.61981878845E+03  0.22703060884E+03 -0.63335716467E+03  0.91480114714E+03  0.12699999809E+01 0.  1.
       -4    1    3    3    0  502  0.61981878845E+03 -0.22703060884E+03  0.13348782145E+04  0.14891674480E+04  0.12699999809E+01 0. -1.
</event>
<event>
 5   0  0.1888779E-06  0.2298619E+04  0.7818609E-02  0.8478466E-01
        2   -1    0    0  501    0  0.00000000000E+00  0.00000000000E+00  0.14653589503E+04  0.14653589503E+04  0.25500000920E-02 0.  1.
       -2   -1    0    0    0  501  0.00000000000E+00  0.00000000000E+00 -0.90142590286E+03  0.90142590286E+03  0.25500000920E-02 0. -1.
    10030    2    1    2    0    0  0.00000000000E+00  0.00000000000E+00  0.56393304740E+03  0.23667848531E+04  0.22986191636E+04 0.  0.
        4    1    3    3  502    0  0.61517326387E+03 -0.95985726609E+03  0.13223475886E+03  0.11477158883E+04  0.12699999809E+01 0. -1.
       -4    1    3    3    0  502 -0.61517326387E+03  0.95985726609E+03  0.43169828854E+03  0.12190689649E+04  0.12699999809E+01 0.  1.
</event>
<event>
 5   0  0.1825521E-06  0.2300048E+04  0.7818609E-02  0.8477902E-01
       -2   -1    0    0    0  501  0.00000000000E+00  0.00000000000E+00  0.28975222546E+04  0.28975222546E+04  0.25500000920E-02 0.  1.
        2   -1    0    0  501    0  0.00000000000E+00  0.00000000000E+00 -0.45644346136E+03  0.45644346137E+03  0.25500000920E-02 0. -1.
    10030    2    1    2    0    0  0.00000000000E+00  0.00000000000E+00  0.24410787932E+04  0.33539657159E+04  0.23000479015E+04 0.  0.
        5    1    3    3  502    0 -0.35674159726E+03  0.52608862008E+03  0.26180693594E+04  0.26941312262E+04  0.46999998093E+01 0.  1.
       -5    1    3    3    0  502  0.35674159726E+03 -0.52608862008E+03 -0.17699056615E+03  0.65983448978E+03  0.46999998093E+01 0. -1.
</event>
<event>
 5   0  0.7607231E-07  0.2300474E+04  0.7818609E-02  0.8477734E-01
       -1   -1    0    0    0  501  0.00000000000E+00  0.00000000000E+00  0.11848345714E+04  0.11848345714E+04  0.50400001928E-02 0. -1.
        1   -1    0    0  501    0  0.00000000000E+00  0.00000000000E+00 -0.11166500581E+04  0.11166500581E+04  0.50400001928E-02 0.  1.
    10030    2    1    2    0    0  0.00000000000E+00  0.00000000000E+00  0.68184513254E+02  0.23014846295E+04  0.23004743798E+04 0.  0.
        2    1    3    3  502    0 -0.10807312446E+04 -0.32835875724E+03  0.25154938254E+03  0.11571847685E+04  0.25500000920E-02 0. -1.
       -2    1    3    3    0  502  0.10807312446E+04  0.32835875724E+03 -0.18336486929E+03  0.11442998610E+04  0.25500000920E-02 0.  1.
</event>
<event>
 5   0  0.1825521E-06  0.2299581E+04  0.7818609E-02  0.8478086E-01
        2   -1    0    0  501    0  0.00000000000E+00  0.00000000000E+00  0.18563023548E+04  0.18563023548E+04  0.25500000920E-02 0.  1.
       -2   -1    0    0    0  501  0.00000000000E+00  0.00000000000E+00 -0.71217828398E+03  0.71217828399E+03  0.25500000920E-02 0. -1.
    10030    2    1    2    0    0  0.00000000000E+00  0.00000000000E+00  0.11441240709E+04  0.25684806388E+04  0.22995810276E+04 0.  0.
        5    1    3    3  502    0 -0.26585238567E+03 -0.76636652357E+03 -0.33808580919E+03  0.87881695693E+03  0.46999998093E+01 0. -1.
       -5    1    3    3    0  502  0.26585238567E+03  0.76636652357E+03  0.14822098800E+04  0.16896636819E+04  0.46999998093E+01 0.  1.
</event>
<event>
 5   0  0.1828646E-06  0.2283765E+04  0.7818609E-02  0.8484350E-01
        2   -1    0    0  501    0  0.00000000000E+00  0.00000000000E+00  0.15577550343E+04  0.15577550343E+04  0.25500000920E-02 0. -1.
       -2   -1    0    0    0  501  0.00000000000E+00  0.00000000000E+00 -0.83703527826E+03  0.83703527826E+03  0.25500000920E-02 0.  1.
    10030    2    1    2    0    0  0.00000000000E+00  0.00000000000E+00  0.72071975600E+03  0.23947903125E+04  0.22837652406E+04 0.  0.
        3    1    3    3  502    0  0.90545913638E+03  0.68082040969E+03  0.21013602555E+03  0.11521848104E+04  0.10100000352E+00 0. -1.
       -3    1    3    3    0  502 -0.90545913638E+03 -0.68082040969E+03  0.51058373045E+03  0.12426055021E+04  0.10100000352E+00 0.  1.
</event>
<event>
 5   0  0.1825521E-06  0.2314644E+04  0.7818609E-02  0.8472170E-01
        2   -1    0    0  501    0  0.00000000000E+00  0.00000000000E+00  0.14350215254E+04  0.14350215254E+04  0.25500000920E-02 0. -1.
       -2   -1    0    0    0  501  0.00000000000E+00  0.00000000000E+00 -0.93336151362E+03  0.93336151362E+03  0.25500000920E-02 0.  1.
    10030    2    1    2    0    0  0.00000000000E+00  0.00000000000E+00  0.50166001173E+03  0.23683830390E+04  0.23146436987E+04 0.  0.
        5    1    3    3  502    0 -0.22734865775E+03 -0.10409346566E+04 -0.21147778545E+03  0.10862676076E+04  0.46999998093E+01 0.  1.
       -5    1    3    3    0  502  0.22734865775E+03  0.10409346566E+04  0.71313779719E+03  0.12821154314E+04  0.46999998093E+01 0. -1.
</event>
<event>
 5   0  0.7761069E-07  0.2301138E+04  0.7818609E-02  0.8477473E-01
        1   -1    0    0  501    0  0.00000000000E+00  0.00000000000E+00  0.10807355032E+04  0.10807355032E+04  0.50400001928E-02 0.  1.
       -1   -1    0    0    0  501  0.00000000000E+00  0.00000000000E+00 -0.12249144621E+04  0.12249144621E+04  0.50400001928E-02 0. -1.
    10030    2    1    2    0    0  0.00000000000E+00  0.00000000000E+00 -0.14417895894E+03  0.23056499653E+04  0.23011375862E+04 0.  0.
        1    1    3    3  502    0  0.46547292846E+03  0.79268319095E+03  0.62121887799E+03  0.11094704064E+04  0.50400001928E-02 0.  1.
       -1    1    3    3    0  502 -0.46547292846E+03 -0.79268319095E+03 -0.76539783692E+03  0.11961795589E+04  0.50400001928E-02 0. -1.
</event>
<event>
 5   0  0.7932912E-07  0.2300164E+04  0.7818609E-02  0.8477856E-01
       -1   -1    0    0    0  501  0.00000000000E+00  0.00000000000E+00  0.11174526760E+04  0.11174526760E+04  0.50400001928E-02 0. -1.
        1   -1    0    0  501    0  0.00000000000E+00  0.00000000000E+00 -0.11836645546E+04  0.11836645546E+04  0.50400001928E-02 0.  1.
    10030    2    1    2    0    0  0.00000000000E+00  0.00000000000E+00 -0.66211878603E+02  0.23011172306E+04  0.23001644498E+04 0.  0.
        5    1    3    3  502    0  0.95252336049E+03  0.57956509145E+03  0.24891611169E+03  0.11424437702E+04  0.46999998093E+01 0. -1.
       -5    1    3    3    0  502 -0.95252336049E+03 -0.57956509145E+03 -0.31512799030E+03  0.11586734604E+04  0.46999998093E+01 0.  1.
</event>
<event>
 5   0  0.7932912E-07  0.2299601E+04  0.7818609E-02  0.8478078E-01
       -1   -1    0    0    0  501  0.00000000000E+00  0.00000000000E+00  0.88999247893E+03  0.88999247894E+03  0.50400001928E-02 0.  1.
        1   -1    0    0  501    0  0.00000000000E+00  0.00000000000E+00 -0.14854519332E+04  0.14854519332E+04  0.50400001928E-02 0. -1.
    10030    2    1    2    0    0  0.00000000000E+00  0.00000000000E+00 -0.59545945430E+03  0.23754444122E+04  0.22996008770E+04 0.  0.
        5    1    3    3  502    0  0.91424050595E+03  0.11693180847E+03 -0.10077945599E+04  0.13657161914E+04  0.46999998093E+01 0. -1.
       -5    1    3    3    0  502 -0.91424050595E+03 -0.11693180847E+03  0.41233510557E+03  0.10097282208E+04  0.46999998093E+01 0.  1.
</event>
<event>
 5   0  0.1744876E-06  0.2299917E+04  0.7818609E-02  0.8477954E-01
        2   -1    0    0  501    0  0.00000000000E+00  0.00000000000E+00  0.10523489829E+04  0.10523489829E+04  0.25500000920E-02 0. -1.
       -2   -1    0    0    0  501  0.00000000000E+00  0.00000000000E+00 -0.12566217783E+04  0.12566217783E+04  0.25500000920E-02 0.  1.
    10030    2    1    2    0    0  0.00000000000E+00  0.00000000000E+00 -0.20427279533E+03  0.23089707612E+04  0.22999170857E+04 0.  0.
        1    1    3    3  502    0  0.98920254045E+01  0.11188691266E+04  0.16431122203E+03  0.11309129729E+04  0.50400001928E-02 0.  1.
       -1    1    3    3    0  502 -0.98920254045E+01 -0.11188691266E+04 -0.36858401736E+03  0.11780577883E+04  0.50400001928E-02 0. -1.
</event>
<event>
 5   0  0.1744876E-06  0.2307178E+04  0.7818609E-02  0.8475096E-01
       -2   -1    0    0    0  501  0.00000000000E+00  0.00000000000E+00  0.66497748883E+03  0.66497748883E+03  0.25500000920E-02 0.  1.
        2   -1    0    0  501    0  0.00000000000E+00  0.00000000000E+00 -0.20012218833E+04  0.20012218833E+04  0.25500000920E-02 0. -1.
    10030    2    1    2    0    0  0.00000000000E+00  0.00000000000E+00 -0.13362443945E+04  0.26661993721E+04  0.23071779321E+04 0.  0.
        1    1    3    3  502    0 -0.42743436442E+03 -0.11921633344E+02 -0.19062581522E+04  0.19536280106E+04  0.50400001928E-02 0. -1.
       -1    1    3    3    0  502  0.42743436442E+03  0.11921633344E+02  0.57001375770E+03  0.71257136149E+03  0.50400001928E-02 0.  1.
</event>
<event>
 5   0  0.8108242E-07  0.2299791E+04  0.7818609E-02  0.8478004E-01
        1   -1    0    0  501    0  0.00000000000E+00  0.00000000000E+00  0.17632115724E+04  0.17632115724E+04  0.50400001928E-02 0. -1.
       -1   -1    0    0    0  501  0.00000000000E+00  0.00000000000E+00 -0.74991542055E+03  0.74991542056E+03  0.50400001928E-02 0.  1.
    10030    2    1    2    0    0  0.00000000000E+00  0.00000000000E+00  0.10132961518E+04  0.25131269930E+04  0.22997909017E+04 0.  0.
        4    1    3    3  502    0  0.78663018387E+03 -0.11554589530E+03 -0.40114820909E+03  0.89053882489E+03  0.12699999809E+01 0.  1.
       -4    1    3    3    0  502 -0.78663018387E+03  0.11554589530E+03  0.14144443609E+04  0.16225881681E+04  0.12699999809E+01 0. -1.
</event>
<event>
 5   0  0.1689444E-06  0.2299651E+04  0.7818609E-02  0.8478059E-01
        2   -1    0    0  501    0  0.00000000000E+00  0.00000000000E+00  0.82416151026E+03  0.82416151026E+03  0.25500000920E-02 0.  1.
       -2   -1    0    0    0  501  0.00000000000E+00  0.00000000000E+00 -0.16041749282E+04  0.16041749282E+04  0.25500000920E-02 0. -1.
    10030    2    1    2    0    0  0.00000000000E+00  0.00000000000E+00 -0.78001341796E+03  0.24283364385E+04  0.22996514793E+04 0.  0.
        2    1    3    3  502    0  0.38855021751E+03  0.91075709534E+03 -0.10072227612E+04  0.14124260862E+04  0.25500000920E-02 0. -1.
       -2    1    3    3    0  502 -0.38855021751E+03 -0.91075709534E+03  0.22720934324E+03  0.10159103523E+04  0.25500000920E-02 0.  1.
</event>
<event>
 5   0  0.6319125E-07  0.2300964E+04  0.7818609E-02  0.8477541E-01
        3   -1    0    0  501    0  0.00000000000E+00  0.00000000000E+00  0.95104000823E+03  0.95104001360E+03  0.10100000352E+00 0.  1.
       -3   -1    0    0    0  501  0.00000000000E+00  0.00000000000E+00 -0.13917484947E+04  0.13917484983E+04  0.10100000352E+00 0. -1.
    10030    2    1    2    0    0  0.00000000000E+00  0.00000000000E+00 -0.44070848643E+03  0.23427885119E+04  0.23009637202E+04 0.  0.
        4    1    3    3  502    0  0.26041825942E+02 -0.10056412293E+04  0.34801700563E+03  0.10644763538E+04  0.12699999809E+01 0.  1.
       -4    1    3    3    0  502 -0.26041825942E+02  0.10056412293E+04 -0.78872549206E+03  0.12783121581E+04  0.12699999809E+01 0. -1.
</event>
<event>
 5   0  0.1825521E-06  0.2299894E+04  0.7818609E-02  0.8477963E-01
       -2   -1    0    0    0  501  0.00000000000E+00  0.00000000000E+00  0.60897989921E+03  0.60897989922E+03  0.25500000920E-02 0.  1.
        2   -1    0    0  501    0  0.00000000000E+00  0.00000000000E+00 -0.21714644808E+04  0.21714644808E+04  0.25500000920E-02 0. -1.
    10030    2    1    2    0    0  0.00000000000E+00  0.00000000000E+00 -0.15624845816E+04  0.27804443801E+04  0.22998941025E+04 0.  0.
        5    1    3    3  502    0  0.11167224204E+04  0.24611444655E+03 -0.92789302092E+03  0.14726332990E+04  0.46999998093E+01 0. -1.
       -5    1    3    3    0  502 -0.11167224204E+04 -0.24611444655E+03 -0.63459156070E+03  0.13078110811E+04  0.46999998093E+01 0.  1.
</event>
<event>
 5   0  0.1825521E-06  0.2301097E+04  0.7818609E-02  0.8477489E-01
       -2   -1    0    0    0  501  0.00000000000E+00  0.00000000000E+00  0.15306552382E+04  0.15306552382E+04  0.25500000920E-02 0.  1.
        2   -1    0    0  501    0  0.00000000000E+00  0.00000000000E+00 -0.86483337542E+03  0.86483337543E+03  0.25500000920E-02 0. -1.
    10030    2    1    2    0    0  0.00000000000E+00  0.00000000000E+00  0.66582186281E+03  0.23954886137E+04  0.23010969004E+04 0.  0.
        5    1    3    3  502    0 -0.54126230858E+03  0.69095784583E+03 -0.44147945226E+03  0.98250385657E+03  0.46999998093E+01 0. -1.
       -5    1    3    3    0  502  0.54126230858E+03 -0.69095784583E+03  0.11073013151E+04  0.14129847571E+04  0.46999998093E+01 0.  1.
</event>
<event>
 5   0  0.7761069E-07  0.2299262E+04  0.7818609E-02  0.8478212E-01
       -1   -1    0    0    0  501  0.00000000000E+00  0.00000000000E+00  0.13390303982E+04  0.13390303982E+04  0.50400001928E-02 0.  1.
        1   -1    0    0  501    0  0.00000000000E+00  0.00000000000E+00 -0.98702080700E+03  0.98702080701E+03  0.50400001928E-02 0. -1.
    10030    2    1    2    0    0  0.00000000000E+00  0.00000000000E+00  0.35200959118E+03  0.23260512052E+04  0.22992615025E+04 0.  0.
        1    1    3    3  502    0 -0.96792348410E+03  0.10372819129E+03  0.79469847266E+03  0.12566547144E+04  0.50400001928E-02 0.  1.
       -1    1    3    3    0  502  0.96792348410E+03 -0.10372819129E+03 -0.44268888148E+03  0.10693964908E+04  0.50400001928E-02 0. -1.
</event>
<event>
 5   0  0.8108242E-07  0.2300155E+04  0.7818609E-02  0.8477860E-01
        1   -1    0    0  501    0  0.00000000000E+00  0.00000000000E+00  0.10918633411E+04  0.10918633411E+04  0.50400001928E-02 0.  1.
       -1   -1    0    0    0  501  0.00000000000E+00  0.00000000000E+00 -0.12113958911E+04  0.12113958911E+04  0.50400001928E-02 0. -1.
    10030    2    1    2    0    0  0.00000000000E+00  0.00000000000E+00 -0.11953254998E+03  0.23032592323E+04  0.23001554427E+04 0.  0.
        4    1    3    3  502    0 -0.20949158974E+03  0.88754749279E+03 -0.76146136293E+03  0.11880455792E+04  0.12699999809E+01 0. -1.
       -4    1    3    3    0  502  0.20949158974E+03 -0.88754749279E+03  0.64192881295E+03  0.11152136530E+04  0.12699999809E+01 0.  1.
</event>
<event>
 5   0  0.1828646E-06  0.2298309E+04  0.7818609E-02  0.8478588E-01
       -2   -1    0    0    0  501  0.00000000000E+00  0.00000000000E+00  0.15633616244E+04  0.15633616244E+04  0.25500000920E-02 0.  1.
        2   -1    0    0  501    0  0.00000000000E+00  0.00000000000E+00 -0.84469020009E+03  0.84469020010E+03  0.25500000920E-02 0. -1.
    10030    2    1    2    0    0  0.00000000000E+00  0.00000000000E+00  0.71867142435E+03  0.24080518245E+04  0.22983091553E+04 0.  0.
        3    1    3    3  502    0  0.22303772894E+03 -0.69691615740E+03 -0.56904246929E+03  0.92695593263E+03  0.10100000352E+00 0. -1.
       -3    1    3    3    0  502 -0.22303772894E+03  0.69691615740E+03  0.12877138936E+04  0.14810958919E+04  0.10100000352E+00 0.  1.
</event>
<event>
 5   0  0.1744876E-06  0.2294689E+04  0.7818609E-02  0.8480018E-01
        2   -1    0    0  501    0  0.00000000000E+00  0.00000000000E+00  0.12192153466E+04  0.12192153466E+04  0.25500000920E-02 0. -1.
       -2   -1    0    0    0  501  0.00000000000E+00  0.00000000000E+00 -0.10797104057E+04  0.10797104057E+04  0.25500000920E-02 0.  1.
    10030    2    1    2    0    0  0.00000000000E+00  0.00000000000E+00  0.13950494084E+03  0.22989257523E+04  0.22946890826E+04 0.  0.
        1    1    3    3  502    0  0.71446558048E+03  0.83740001053E+03 -0.25441819856E+03  0.11297913361E+04  0.50400001928E-02 0.  1.
       -1    1    3    3    0  502 -0.71446558048E+03 -0.83740001053E+03  0.39392313940E+03  0.11691344162E+04  0.50400001928E-02 0. -1.
</event>
<event>
 5   0  0.1825521E-06  0.2299629E+04  0.7818609E-02  0.8478067E-01
        2   -1    0    0  501    0  0.00000000000E+00  0.00000000000E+00  0.75468935053E+03  0.75468935053E+03  0.25500000920E-02 0. -1.
       -2   -1    0    0    0  501  0.00000000000E+00  0.00000000000E+00 -0.17518118691E+04  0.17518118691E+04  0.25500000920E-02 0.  1.
    10030    2    1    2    0    0  0.00000000000E+00  0.00000000000E+00 -0.99712251853E+03  0.25065012196E+04  0.22996293281E+04 0.  0.
        5    1    3    3  502    0 -0.26711009599E+03 -0.75121371840E+03  0.40444958698E+03  0.89401980543E+03  0.46999998093E+01 0. -1.
       -5    1    3    3    0  502  0.26711009599E+03  0.75121371840E+03 -0.14015721055E+04  0.16124814142E+04  0.46999998093E+01 0.  1.
</event>
<event>
 5   0  0.1825521E-06  0.2299551E+04  0.7818609E-02  0.8478098E-01
        2   -1    0    0  501    0  0.00000000000E+00  0.00000000000E+00  0.22776195274E+04  0.22776195274E+04  0.25500000920E-02 0.  1.
       -2   -1    0    0    0  501  0.00000000000E+00  0.00000000000E+00 -0.58042319646E+03  0.58042319647E+03  0.25500000920E-02 0. -1.
    10030    2    1    2    0    0  0.00000000000E+00  0.00000000000E+00  0.16971963309E+04  0.28580427239E+04  0.22995505704E+04 0.  0.
        5    1    3    3  502    0 -0.98756292808E+03  0.12833326863E+03  0.15628010827E+04  0.18531376848E+04  0.46999998093E+01 0.  1.
       -5    1    3    3    0  502  0.98756292808E+03 -0.12833326863E+03  0.13439524821E+03  0.10049050390E+04  0.46999998093E+01 0. -1.
</event>
<event>
 5   0  0.1828646E-06  0.2295787E+04  0.7818609E-02  0.8479584E-01
        2   -1    0    0  501    0  0.00000000000E+00  0.00000000000E+00  0.67888421099E+03  0.67888421100E+03  0.25500000920E-02 0. -1.
       -2   -1    0    0    0  501  0.00000000000E+00  0.00000000000E+00 -0.19409186979E+04  0.19409186979E+04  0.25500000920E-02 0.  1.
    10030    2    1    2    0    0  0.00000000000E+00  0.00000000000E+00 -0.12620344869E+04  0.26198029089E+04  0.22957866267E+04 0.  0.
        3    1    3    3  502    0 -0.10807232215E+04 -0.34798575683E+03 -0.82400840805E+03  0.14028708548E+04  0.10100000352E+00 0.  1.
       -3    1    3    3    0  502  0.10807232215E+04  0.34798575683E+03 -0.43802607888E+03  0.12169320541E+04  0.10100000352E+00 0. -1.
</event>
<event>
 5   0  0.1888779E-06  0.2297551E+04  0.7818609E-02  0.8478887E-01
        2   -1    0    0  501    0  0.00000000000E+00  0.00000000000E+00  0.13949679644E+04  0.13949679644E+04  0.25500000920E-02 0.  1.
       -2   -1    0    0    0  501  0.00000000000E+00  0.00000000000E+00 -0.94603265568E+03  0.94603265568E+03  0.25500000920E-02 0. -1.
    10030    2    1    2    0    0  0.00000000000E+00  0.00000000000E+00  0.44893530870E+03  0.23410006201E+04  0.22975510858E+04 0.  0.
        4    1    3    3  502    0  0.53953581449E+03 -0.10117488300E+04  0.29614749840E+03  0.11842464033E+04  0.12699999809E+01 0.  1.
       -4    1    3    3    0  502 -0.53953581449E+03  0.10117488300E+04  0.15278781031E+03  0.11567542167E+04  0.12699999809E+01 0. -1.
</event>
<event>
 5   0  0.7932912E-07  0.2299688E+04  0.7818609E-02  0.8478044E-01
       -1   -1    0    0    0  501  0.00000000000E+00  0.00000000000E+00  0.97298252046E+03  0.97298252047E+03  0.50400001928E-02 0. -1.
        1   -1    0    0  501    0  0.00000000000E+00  0.00000000000E+00 -0.13588545831E+04  0.13588545831E+04  0.50400001928E-02 0.  1.
    10030    2    1    2    0    0  0.00000000000E+00  0.00000000000E+00 -0.38587206265E+03  0.23318371036E+04  0.22996884635E+04 0.  0.
        5    1    3    3  502    0 -0.98333468428E+03 -0.19321392023E+03  0.37871912455E+03  0.10713211403E+04  0.46999998093E+01 0. -1.
       -5    1    3    3    0  502  0.98333468428E+03  0.19321392023E+03 -0.76459118720E+03  0.12605159633E+04  0.46999998093E+01 0.  1.
</event>
<event>
 5   0  0.1828646E-06  0.2299595E+04  0.7818609E-02  0.8478081E-01
       -2   -1    0    0    0  501  0.00000000000E+00  0.00000000000E+00  0.10385853379E+04  0.10385853379E+04  0.25500000920E-02 0.  1.
        2   -1    0    0  501    0  0.00000000000E+00  0.00000000000E+00 -0.12729183075E+04  0.12729183075E+04  0.25500000920E-02 0. -1.
    10030    2    1    2    0    0  0.00000000000E+00  0.00000000000E+00 -0.23433296960E+03  0.23115036455E+04  0.22995949997E+04 0.  0.
        3    1    3    3  502    0  0.27022033562E+03  0.38344802917E+03 -0.11723564363E+04  0.12627236613E+04  0.10100000352E+00 0. -1.
       -3    1    3    3    0  502 -0.27022033562E+03 -0.38344802917E+03  0.93802346672E+03  0.10487799842E+04  0.10100000352E+00 0.  1.
</event>
<event>
 5   0  0.1888779E-06  0.2300354E+04  0.7818609E-02  0.8477782E-01
        2   -1    0    0  501    0  0.00000000000E+00  0.00000000000E+00  0.23123915884E+04  0.23123915884E+04  0.25500000920E-02 0. -1.
       -2   -1    0    0    0  501  0.00000000000E+00  0.00000000000E+00 -0.57209465158E+03  0.57209465158E+03  0.25500000920E-02 0.  1.
    10030    2    1    2    0    0  0.00000000000E+00  0.00000000000E+00  0.17402969369E+04  0.28844862400E+04  0.23003537642E+04 0.  0.
        4    1    3    3  502    0 -0.66046772007E+02  0.81582187938E+03 -0.14311649813E+03  0.83091001914E+03  0.12699999809E+01 0. -1.
       -4    1    3    3    0  502  0.66046772007E+02 -0.81582187938E+03  0.18834134350E+04  0.20535762209E+04  0.12699999809E+01 0.  1.
</event>
<event>
 5   0  0.1744876E-06  0.2300342E+04  0.7818609E-02  0.8477786E-01
        2   -1    0    0  501    0  0.00000000000E+00  0.00000000000E+00  0.12052474716E+04  0.12052474716E+04  0.25500000920E-02 0. -1.
       -2   -1    0    0    0  501  0.00000000000E+00  0.00000000000E+00 -0.10976112797E+04  0.10976112797E+04  0.25500000920E-02 0.  1.
    10030    2    1    2    0    0  0.00000000000E+00  0.00000000000E+00  0.10763619184E+03  0.23028587513E+04  0.23003419047E+04 0.  0.
        1    1    3    3  502    0  0.27722969981E+03  0.52360041127E+02 -0.10624334225E+04  0.10992555015E+04  0.50400001928E-02 0.  1.
       -1    1    3    3    0  502 -0.27722969981E+03 -0.52360041127E+02  0.11700696144E+04  0.12036032498E+04  0.50400001928E-02 0. -1.
</event>
<event>
 5   0  0.8108242E-07  0.2299500E+04  0.7818609E-02  0.8478118E-01
        1   -1    0    0  501    0  0.00000000000E+00  0.00000000000E+00  0.12673420299E+04  0.12673420299E+04  0.50400001928E-02 0. -1.
       -1   -1    0    0    0  501  0.00000000000E+00  0.00000000000E+00 -0.10430689160E+04  0.10430689160E+04  0.50400001928E-02 0.  1.
    10030    2    1    2    0    0  0.00000000000E+00  0.00000000000E+00  0.22427311393E+03  0.23104109459E+04  0.22995000129E+04 0.  0.
        4    1    3    3  502    0 -0.25078541590E+03 -0.39032991794E+03 -0.94484014442E+03  0.10526040476E+04  0.12699999809E+01 0.  1.
       -4    1    3    3    0  502  0.25078541590E+03  0.39032991794E+03  0.11691132583E+04  0.12578068983E+04  0.12699999809E+01 0. -1.
</event>
<event>
 5   0  0.1828646E-06  0.2301154E+04  0.7818609E-02  0.8477466E-01
       -2   -1    0    0    0  501  0.00000000000E+00  0.00000000000E+00  0.12411346510E+04  0.12411346510E+04  0.25500000920E-02 0. -1.
        2   -1    0    0  501    0  0.00000000000E+00  0.00000000000E+00 -0.10666268938E+04  0.10666268938E+04  0.25500000920E-02 0.  1.
    10030    2    1    2    0    0  0.00000000000E+00  0.00000000000E+00  0.17450775719E+03  0.23077615448E+04  0.23011541431E+04 0.  0.
        3    1    3    3  502    0 -0.15276345093E+03 -0.10569900781E+04  0.51657522937E+03  0.11863450910E+04  0.10100000352E+00 0. -1.
       -3    1    3    3    0  502  0.15276345093E+03  0.10569900781E+04 -0.34206747218E+03  0.11214164538E+04  0.10100000352E+00 0.  1.
</event>
<event>
 5   0  0.1825521E-06  0.2300467E+04  0.7818609E-02  0.8477737E-01
        2   -1    0    0  501    0  0.00000000000E+00  0.00000000000E+00  0.23224428793E+04  0.23224428793E+04  0.25500000920E-02 0. -1.
       -2   -1    0    0    0  501  0.00000000000E+00  0.00000000000E+00 -0.56967464755E+03  0.56967464756E+03  0.25500000920E-02 0.  1.
    10030    2    1    2    0    0  0.00000000000E+00  0.00000000000E+00  0.17527682317E+04  0.28921175269E+04  0.23004667602E+04 0.  0.
        5    1    3    3  502    0 -0.22392197701E+03 -0.80963760412E+03  0.18641850729E+04  0.20447156716E+04  0.46999998093E+01 0. -1.
       -5    1    3    3    0  502  0.22392197701E+03  0.80963760412E+03 -0.11141684114E+03  0.84740185524E+03  0.46999998093E+01 0.  1.
</event>
<event>
 5   0  0.8097672E-07  0.2299335E+04  0.7818609E-02  0.8478183E-01
       -1   -1    0    0    0  501  0.00000000000E+00  0.00000000000E+00  0.12865386545E+04  0.12865386545E+04  0.50400001928E-02 0.  1.
        1   -1    0    0  501    0  0.00000000000E+00  0.00000000000E+00 -0.10273575451E+04  0.10273575451E+04  0.50400001928E-02 0. -1.
    10030    2    1    2    0    0  0.00000000000E+00  0.00000000000E+00  0.25918110935E+03  0.23138961996E+04  0.22993348549E+04 0.  0.
        3    1    3    3  502    0 -0.22047400085E+03  0.95130246077E+03  0.74018671396E+03  0.12253413968E+04  0.10100000352E+00 0.  1.
       -3    1    3    3    0  502  0.22047400085E+03 -0.95130246077E+03 -0.48100560461E+03  0.10885548028E+04  0.10100000352E+00 0. -1.
</event>
<event>
 5   0  0.6319125E-07  0.2300054E+04  0.7818609E-02  0.8477900E-01
       -3   -1    0    0    0  501  0.00000000000E+00  0.00000000000E+00  0.13289595590E+04  0.13289595629E+04  0.10100000352E+00 0.  1.
        3   -1    0    0  501    0  0.00000000000E+00  0.00000000000E+00 -0.99518598534E+03  0.99518599047E+03  0.10100000352E+00 0. -1.
    10030    2    1    2    0    0  0.00000000000E+00  0.00000000000E+00  0.33377357368E+03  0.23241455533E+04  0.23000538591E+04 0.  0.
        5    1    3    3  502    0  0.30513522823E+03  0.26526430906E+03 -0.92098978212E+03  0.10058414040E+04  0.46999998093E+01 0. -1.
       -5    1    3    3    0  502 -0.30513522823E+03 -0.26526430906E+03  0.12547633558E+04  0.13183041494E+04  0.46999998093E+01 0.  1.
</event>
<event>
 5   0  0.8108242E-07  0.2300369E+04  0.7818609E-02  0.8477776E-01
        1   -1    0    0  501    0  0.00000000000E+00  0.00000000000E+00  0.20999964858E+04  0.20999964858E+04  0.50400001928E-02 0. -1.
       -1   -1    0    0    0  501  0.00000000000E+00  0.00000000000E+00 -0.62996515785E+03  0.62996515787E+03  0.50400001928E-02 0.  1.
    10030    2    1    2    0    0  0.00000000000E+00  0.00000000000E+00  0.14700313279E+04  0.27299616437E+04  0.23003692031E+04 0.  0.
        4    1    3    3  502    0  0.34782850714E+02  0.10891533452E+04  0.11717944816E+04  0.16001777327E+04  0.12699999809E+01 0. -1.
       -4    1    3    3    0  502 -0.34782850714E+02 -0.10891533452E+04  0.29823684632E+03  0.11297839110E+04  0.12699999809E+01 0.  1.
</event>
<event>
 5   0  0.1888779E-06  0.2297749E+04  0.7818609E-02  0.8478809E-01
       -2   -1    0    0    0  501  0.00000000000E+00  0.00000000000E+00  0.47918223369E+03  0.47918223370E+03  0.25500000920E-02 0. -1.
        2   -1    0    0  501    0  0.00000000000E+00  0.00000000000E+00 -0.27545114972E+04  0.27545114972E+04  0.25500000920E-02 0.  1.
    10030    2    1    2    0    0  0.00000000000E+00  0.00000000000E+00 -0.22753292635E+04  0.32336937309E+04  0.22977493092E+04 0.  0.
        4    1    3    3  502    0  0.37806946930E+03 -0.81646448968E+03 -0.13227408260E+03  0.90942225195E+03  0.12699999809E+01 0. -1.
       -4    1    3    3    0  502 -0.37806946930E+03  0.81646448968E+03 -0.21430551809E+04  0.23242714789E+04  0.12699999809E+01 0.  1.
</event>
<event>
 5   0  0.8097672E-07  0.2299109E+04  0.7818609E-02  0.8478273E-01
       -1   -1    0    0    0  501  0.00000000000E+00  0.00000000000E+00  0.12588003677E+04  0.12588003677E+04  0.50400001928E-02 0. -1.
        1   -1    0    0  501    0  0.00000000000E+00  0.00000000000E+00 -0.10497894176E+04  0.10497894176E+04  0.50400001928E-02 0.  1.
    10030    2    1    2    0    0  0.00000000000E+00  0.00000000000E+00  0.20901095003E+03  0.23085897853E+04  0.22991087881E+04 0.  0.
        3    1    3    3  502    0 -0.23173046753E+03 -0.36825391557E+03 -0.96391493477E+03  0.10575641671E+04  0.10100000352E+00 0.  1.
       -3    1    3    3    0  502  0.23173046753E+03  0.36825391557E+03  0.11729258848E+04  0.12510256182E+04  0.10100000352E+00 0. -1.
</event>
<event>
 5   0  0.1825521E-06  0.2300458E+04  0.7818609E-02  0.8477740E-01
        2   -1    0    0  501    0  0.00000000000E+00  0.00000000000E+00  0.12706020112E+04  0.12706020112E+04  0.25500000920E-02 0.  1.
       -2   -1    0    0    0  501  0.00000000000E+00  0.00000000000E+00 -0.10412601167E+04  0.10412601167E+04  0.25500000920E-02 0. -1.
    10030    2    1    2    0    0  0.00000000000E+00  0.00000000000E+00  0.22934189444E+03  0.23118621279E+04  0.23004583878E+04 0.  0.
        5    1    3    3  502    0  0.63662446557E+03 -0.69395228714E+03  0.77835718057E+03  0.12217702229E+04  0.46999998093E+01 0.  1.
       -5    1    3    3    0  502 -0.63662446557E+03  0.69395228714E+03 -0.54901528613E+03  0.10900919050E+04  0.46999998093E+01 0. -1.
</event>
<event>
 5   0  0.1689444E-06  0.2299061E+04  0.7818609E-02  0.8478291E-01
       -2   -1    0    0    0  501  0.00000000000E+00  0.00000000000E+00  0.10593886682E+04  0.10593886682E+04  0.25500000920E-02 0. -1.
        2   -1    0    0  501    0  0.00000000000E+00  0.00000000000E+00 -0.12473424303E+04  0.12473424303E+04  0.25500000920E-02 0.  1.
    10030    2    1    2    0    0  0.00000000000E+00  0.00000000000E+00 -0.18795376213E+03  0.23067310985E+04  0.22990610571E+04 0.  0.
        2    1    3    3  502    0  0.66249985726E+03  0.64320025033E+03  0.59300279049E+03  0.10973900548E+04  0.25500000920E-02 0. -1.
       -2    1    3    3    0  502 -0.66249985726E+03 -0.64320025033E+03 -0.78095655261E+03  0.12093410437E+04  0.25500000920E-02 0.  1.
</event>
<event>
 5   0  0.1825521E-06  0.2301283E+04  0.7818609E-02  0.8477415E-01
       -2   -1    0    0    0  501  0.00000000000E+00  0.00000000000E+00  0.24675572150E+04  0.24675572150E+04  0.25500000920E-02 0.  1.
        2   -1    0    0  501    0  0.00000000000E+00  0.00000000000E+00 -0.53655329950E+03  0.53655329950E+03  0.25500000920E-02 0. -1.
    10030    2    1    2    0    0  0.00000000000E+00  0.00000000000E+00  0.19310039155E+04  0.30041105145E+04  0.23012830903E+04 0.  0.
        5    1    3    3  502    0 -0.58548009168E+03 -0.15316475558E+03 -0.31200214106E+03  0.68089191956E+03  0.46999998093E+01 0. -1.
       -5    1    3    3    0  502  0.58548009168E+03  0.15316475558E+03  0.22430060565E+04  0.23232185949E+04  0.46999998093E+01 0.  1.
</event>
<event>
 5   0  0.7932912E-07  0.2293893E+04  0.7818609E-02  0.8480333E-01
       -1   -1    0    0    0  501  0.00000000000E+00  0.00000000000E+00  0.87087100981E+03  0.87087100982E+03  0.50400001928E-02 0.  1.
        1   -1    0    0  501    0  0.00000000000E+00  0.00000000000E+00 -0.15105411689E+04  0.15105411689E+04  0.50400001928E-02 0. -1.
    10030    2    1    2    0    0  0.00000000000E+00  0.00000000000E+00 -0.63967015905E+03  0.23814121787E+04  0.22938932086E+04 0.  0.
        5    1    3    3  502    0  0.75643501368E+02  0.11275468517E+03  0.86248807622E+03  0.87312274621E+03  0.46999998093E+01 0.  1.
       -5    1    3    3    0  502 -0.75643501368E+02 -0.11275468517E+03 -0.15021582353E+04  0.15082894325E+04  0.46999998093E+01 0. -1.
</event>
<event>
 5   0  0.8108242E-07  0.2299915E+04  0.7818609E-02  0.8477955E-01
        1   -1    0    0  501    0  0.00000000000E+00  0.00000000000E+00  0.92014533966E+03  0.92014533967E+03  0.50400001928E-02 0.  1.
       -1   -1    0    0    0  501  0.00000000000E+00  0.00000000000E+00 -0.14371664657E+04  0.14371664657E+04  0.50400001928E-02 0. -1.
    10030    2    1    2    0    0  0.00000000000E+00  0.00000000000E+00 -0.51702112606E+03  0.23573118054E+04  0.22999148034E+04 0.  0.
        4    1    3    3  502    0  0.11394120206E+04  0.95766720852E+02 -0.13310771151E+03  0.11511517247E+04  0.12699999809E+01 0.  1.
       -4    1    3    3    0  502 -0.11394120206E+04 -0.95766720852E+02 -0.38391341455E+03  0.12061600807E+04  0.12699999809E+01 0. -1.
</event>
<event>
 5   0  0.1828646E-06  0.2301872E+04  0.7818609E-02  0.8477183E-01
       -2   -1    0    0    0  501  0.00000000000E+00  0.00000000000E+00  0.54919172925E+03  0.54919172925E+03  0.25500000920E-02 0. -1.
        2   -1    0    0  501    0  0.00000000000E+00  0.00000000000E+00 -0.24120052730E+04  0.24120052730E+04  0.25500000920E-02 0.  1.
    10030    2    1    2    0    0  0.00000000000E+00  0.00000000000E+00 -0.18628135438E+04  0.29611970023E+04  0.23018717139E+04 0.  0.
        3    1    3    3  502    0  0.40307638479E+02  0.78477222924E+03 -0.20132028197E+04  0.21611288164E+04  0.10100000352E+00 0.  1.
       -3    1    3    3    0  502 -0.40307638479E+02 -0.78477222924E+03  0.15038927597E+03  0.80006818586E+03  0.10100000352E+00 0. -1.
</event>
<event>
 5   0  0.7607231E-07  0.2299375E+04  0.7818609E-02  0.8478167E-01
       -1   -1    0    0    0  501  0.00000000000E+00  0.00000000000E+00  0.82543018971E+03  0.82543018973E+03  0.50400001928E-02 0. -1.
        1   -1    0    0  501    0  0.00000000000E+00  0.00000000000E+00 -0.16013245420E+04  0.16013245420E+04  0.50400001928E-02 0.  1.
    10030    2    1    2    0    0  0.00000000000E+00  0.00000000000E+00 -0.77589435228E+03  0.24267547317E+04  0.22993752373E+04 0.  0.
        2    1    3    3  502    0  0.68599224339E+03 -0.66758131123E+03 -0.10600385297E+04  0.14282618281E+04  0.25500000920E-02 0.  1.
       -2    1    3    3    0  502 -0.68599224339E+03  0.66758131123E+03  0.28414417741E+03  0.99849290366E+03  0.25500000920E-02 0. -1.
</event>
<event>
 5   0  0.1888779E-06  0.2300302E+04  0.7818609E-02  0.8477802E-01
        2   -1    0    0  501    0  0.00000000000E+00  0.00000000000E+00  0.32350255535E+04  0.32350255535E+04  0.25500000920E-02 0. -1.
       -2   -1    0    0    0  501  0.00000000000E+00  0.00000000000E+00 -0.40891411715E+03  0.40891411716E+03  0.25500000920E-02 0.  1.
    10030    2    1    2    0    0  0.00000000000E+00  0.00000000000E+00  0.28261114363E+04  0.36439396706E+04  0.23003022568E+04 0.  0.
        4    1    3    3  502    0 -0.90901532796E+03  0.58455362081E+03  0.78972328533E+03  0.13385351256E+04  0.12699999809E+01 0.  1.
       -4    1    3    3    0  502  0.90901532796E+03 -0.58455362081E+03  0.20363881510E+04  0.23054045451E+04  0.12699999809E+01 0. -1.
</event>
<event>
 5   0  0.8108242E-07  0.2300069E+04  0.7818609E-02  0.8477894E-01
       -1   -1    0    0    0  501  0.00000000000E+00  0.00000000000E+00  0.11224783117E+04  0.11224783117E+04  0.50400001928E-02 0.  1.
        1   -1    0    0  501    0  0.00000000000E+00  0.00000000000E+00 -0.11782670249E+04  0.11782670249E+04  0.50400001928E-02 0. -1.
    10030    2    1    2    0    0  0.00000000000E+00  0.00000000000E+00 -0.55788713186E+02  0.23007453366E+04  0.23000688519E+04 0.  0.
        4    1    3    3  502    0  0.20584149317E+03 -0.10829215778E+04  0.30005524428E+03  0.11424205121E+04  0.12699999809E+01 0. -1.
       -4    1    3    3    0  502 -0.20584149317E+03  0.10829215778E+04 -0.35584395746E+03  0.11583248245E+04  0.12699999809E+01 0.  1.
</event>
<event>
 5   0  0.7761069E-07  0.2300240E+04  0.7818609E-02  0.8477826E-01
        1   -1    0    0  501    0  0.00000000000E+00  0.00000000000E+00  0.18837474188E+04  0.18837474188E+04  0.50400001928E-02 0. -1.
       -1   -1    0    0    0  501  0.00000000000E+00  0.00000000000E+00 -0.70220465622E+03  0.70220465624E+03  0.50400001928E-02 0.  1.
    10030    2    1    2    0    0  0.00000000000E+00  0.00000000000E+00  0.11815427626E+04  0.25859520751E+04  0.23002401689E+04 0.  0.
        1    1    3    3  502    0  0.86648360478E+03 -0.59073528795E+03  0.11216723750E+04  0.15355490661E+04  0.50400001928E-02 0.  1.
       -1    1    3    3    0  502 -0.86648360478E+03  0.59073528795E+03  0.59870387627E+02  0.10504030089E+04  0.50400001928E-02 0. -1.
</event>
<event>
 5   0  0.7932912E-07  0.2299774E+04  0.7818609E-02  0.8478010E-01
        1   -1    0    0  501    0  0.00000000000E+00  0.00000000000E+00  0.12565804440E+04  0.12565804440E+04  0.50400001928E-02 0.  1.
       -1   -1    0    0    0  501  0.00000000000E+00  0.00000000000E+00 -0.10522530394E+04  0.10522530394E+04  0.50400001928E-02 0. -1.
    10030    2    1    2    0    0  0.00000000000E+00  0.00000000000E+00  0.20432740461E+03  0.23088334834E+04  0.22997744163E+04 0.  0.
        5    1    3    3  502    0  0.83347582211E+03 -0.44745037331E+03  0.75843948930E+03  0.12124959099E+04  0.46999998093E+01 0.  1.
       -5    1    3    3    0  502 -0.83347582211E+03  0.44745037331E+03 -0.55411208469E+03  0.10963375735E+04  0.46999998093E+01 0. -1.
</event>
<event>
 5   0  0.8097672E-07  0.2301116E+04  0.7818609E-02  0.8477481E-01
       -1   -1    0    0    0  501  0.00000000000E+00  0.00000000000E+00  0.59209160297E+03  0.59209160299E+03  0.50400001928E-02 0. -1.
        1   -1    0    0  501    0  0.00000000000E+00  0.00000000000E+00 -0.22357745124E+04  0.22357745124E+04  0.50400001928E-02 0.  1.
    10030    2    1    2    0    0  0.00000000000E+00  0.00000000000E+00 -0.16436829094E+04  0.28278661153E+04  0.23011156554E+04 0.  0.
        3    1    3    3  502    0 -0.15246362685E+02 -0.96243035136E+03 -0.47258345959E+02  0.96371053447E+03  0.10100000352E+00 0. -1.
       -3    1    3    3    0  502  0.15246362685E+02  0.96243035136E+03 -0.15964245634E+04  0.18641555809E+04  0.10100000352E+00 0.  1.
</event>
<event>
 5   0  0.1689444E-06  0.2300243E+04  0.7818609E-02  0.8477825E-01
       -2   -1    0    0    0  501  0.00000000000E+00  0.00000000000E+00  0.50199773783E+03  0.50199773784E+03  0.25500000920E-02 0. -1.
        2   -1    0    0  501    0  0.00000000000E+00  0.00000000000E+00 -0.26350300518E+04  0.26350300519E+04  0.25500000920E-02 0.  1.
    10030    2    1    2    0    0  0.00000000000E+00  0.00000000000E+00 -0.21330323140E+04  0.31370277897E+04  0.23002427047E+04 0.  0.
        2    1    3    3  502    0  0.80246659938E+03 -0.64872334267E+03 -0.37382201242E+03  0.10975142438E+04  0.25500000920E-02 0. -1.
       -2    1    3    3    0  502 -0.80246659938E+03  0.64872334267E+03 -0.17592103016E+04  0.20395135458E+04  0.25500000920E-02 0.  1.
</event>
<event>
 5   0  0.8108242E-07  0.2300051E+04  0.7818609E-02  0.8477901E-01
        1   -1    0    0  501    0  0.00000000000E+00  0.00000000000E+00  0.95551058725E+03  0.95551058727E+03  0.50400001928E-02 0.  1.
       -1   -1    0    0    0  501  0.00000000000E+00  0.00000000000E+00 -0.13841385650E+04  0.13841385651E+04  0.50400001928E-02 0. -1.
    10030    2    1    2    0    0  0.00000000000E+00  0.00000000000E+00 -0.42862797779E+03  0.23396491523E+04  0.23000513500E+04 0.  0.
        4    1    3    3  502    0 -0.50382760653E+03  0.90384178647E+03  0.29610674892E+03  0.10763145691E+04  0.12699999809E+01 0.  1.
       -4    1    3    3    0  502  0.50382760653E+03 -0.90384178647E+03 -0.72473472671E+03  0.12633345832E+04  0.12699999809E+01 0. -1.
</event>
<event>
 5   0  0.1828646E-06  0.2299632E+04  0.7818609E-02  0.8478066E-01
        2   -1    0    0  501    0  0.00000000000E+00  0.00000000000E+00  0.17419315983E+04  0.17419315983E+04  0.25500000920E-02 0. -1.
       -2   -1    0    0    0  501  0.00000000000E+00  0.00000000000E+00 -0.75897148738E+03  0.75897148738E+03  0.25500000920E-02 0.  1.
    10030    2    1    2    0    0  0.00000000000E+00  0.00000000000E+00  0.98296011089E+03  0.25009030857E+04  0.22996316366E+04 0.  0.
        3    1    3    3  502    0 -0.33805628609E+03  0.37414885341E+03 -0.63230943722E+03  0.80875500102E+03  0.10100000352E+00 0.  1.
       -3    1    3    3    0  502  0.33805628609E+03 -0.37414885341E+03  0.16152695481E+04  0.16921480846E+04  0.10100000352E+00 0. -1.
</event>
<event>
 5   0  0.1689444E-06  0.2300353E+04  0.7818609E-02  0.8477782E-01
       -2   -1    0    0    0  501  0.00000000000E+00  0.00000000000E+00  0.16875060455E+04  0.16875060455E+04  0.25500000920E-02 0. -1.
        2   -1    0    0  501    0  0.00000000000E+00  0.00000000000E+00 -0.78394123099E+03  0.78394123100E+03  0.25500000920E-02 0.  1.
    10030    2    1    2    0    0  0.00000000000E+00  0.00000000000E+00  0.90356481450E+03  0.24714472765E+04  0.23003526396E+04 0.  0.
        2    1    3    3  502    0 -0.48732362833E+03  0.31464323181E+03 -0.61527568016E+03  0.84560560822E+03  0.25500000920E-02 0.  1.
       -2    1    3    3    0  502  0.48732362833E+03 -0.31464323181E+03  0.15188404947E+04  0.16258416683E+04  0.25500000920E-02 0. -1.
</event>
<event>
 5   0  0.7761069E-07  0.2297903E+04  0.7818609E-02  0.8478748E-01
       -1   -1    0    0    0  501  0.00000000000E+00  0.00000000000E+00  0.71215874457E+03  0.71215874459E+03  0.50400001928E-02 0.  1.
        1   -1    0    0  501    0  0.00000000000E+00  0.00000000000E+00 -0.18536451423E+04  0.18536451423E+04  0.50400001928E-02 0. -1.
    10030    2    1    2    0    0  0.00000000000E+00  0.00000000000E+00 -0.11414863977E+04  0.25658038869E+04  0.22979030419E+04 0.  0.
        1    1    3    3  502    0 -0.70557465255E+03 -0.79801892060E+03 -0.89937259431E+02  0.10689988300E+04  0.50400001928E-02 0.  1.
       -1    1    3    3    0  502  0.70557465255E+03  0.79801892060E+03 -0.10515491383E+04  0.14968050568E+04  0.50400001928E-02 0. -1.
</event>
<event>
 5   0  0.1825521E-06  0.2299936E+04  0.7818609E-02  0.8477946E-01
       -2   -1    0    0    0  501  0.00000000000E+00  0.00000000000E+00  0.98556865855E+03  0.98556865856E+03  0.25500000920E-02 0. -1.
        2   -1    0    0  501    0  0.00000000000E+00  0.00000000000E+00 -0.13417905025E+04  0.13417905025E+04  0.25500000920E-02 0.  1.
    10030    2    1    2    0    0  0.00000000000E+00  0.00000000000E+00 -0.35622184397E+03  0.23273591611E+04  0.22999362301E+04 0.  0.
        5    1    3    3  502    0 -0.80486395731E+03  0.14091829948E+03  0.64069741701E+03  0.10383540952E+04  0.46999998093E+01 0. -1.
       -5    1    3    3    0  502  0.80486395731E+03 -0.14091829948E+03 -0.99691926098E+03  0.12890050659E+04  0.46999998093E+01 0.  1.
</event>
<event>
 5   0  0.6319125E-07  0.2307343E+04  0.7818609E-02  0.8475031E-01
       -3   -1    0    0    0  501  0.00000000000E+00  0.00000000000E+00  0.96010834309E+03  0.96010834840E+03  0.10100000352E+00 0. -1.
        3   -1    0    0  501    0  0.00000000000E+00  0.00000000000E+00 -0.13862585161E+04  0.13862585197E+04  0.10100000352E+00 0.  1.
    10030    2    1    2    0    0  0.00000000000E+00  0.00000000000E+00 -0.42615017297E+03  0.23463668681E+04  0.23073433880E+04 0.  0.
        3    1    3    3  502    0  0.10726447112E+04 -0.42078648331E+03 -0.15438920932E+03  0.11625248295E+04  0.10100000352E+00 0. -1.
       -3    1    3    3    0  502 -0.10726447112E+04  0.42078648331E+03 -0.27176096365E+03  0.11838420387E+04  0.10100000352E+00 0.  1.
</event>
<event>
 5   0  0.1744876E-06  0.2301185E+04  0.7818609E-02  0.8477454E-01
       -2   -1    0    0    0  501  0.00000000000E+00  0.00000000000E+00  0.66995457324E+03  0.66995457324E+03  0.25500000920E-02 0.  1.
        2   -1    0    0  501    0  0.00000000000E+00  0.00000000000E+00 -0.19760489267E+04  0.19760489267E+04  0.25500000920E-02 0. -1.
    10030    2    1    2    0    0  0.00000000000E+00  0.00000000000E+00 -0.13060943535E+04  0.26460035000E+04  0.23011849256E+04 0.  0.
        1    1    3    3  502    0  0.10813213230E+04  0.10392424911E+03 -0.21700464750E+03  0.11077667039E+04  0.50400001928E-02 0.  1.
       -1    1    3    3    0  502 -0.10813213230E+04 -0.10392424911E+03 -0.10890897060E+04  0.15382367961E+04  0.50400001928E-02 0. -1.
</event>
<event>
 5   0  0.1828646E-06  0.2299137E+04  0.7818609E-02  0.8478261E-01
       -2   -1    0    0    0  501  0.00000000000E+00  0.00000000000E+00  0.11494920026E+04  0.11494920026E+04  0.25500000920E-02 0.  1.
        2   -1    0    0  501    0  0.00000000000E+00  0.00000000000E+00 -0.11496451388E+04  0.11496451388E+04  0.25500000920E-02 0. -1.
    10030    2    1    2    0    0  0.00000000000E+00  0.00000000000E+00 -0.15313620954E+00  0.22991371413E+04  0.22991371362E+04 0.  0.
        3    1    3    3  502    0  0.72784737901E+03  0.44496948394E+03 -0.77062717416E+03  0.11496198939E+04  0.10100000352E+00 0. -1.
       -3    1    3    3    0  502 -0.72784737901E+03 -0.44496948394E+03  0.77047403795E+03  0.11495172474E+04  0.10100000352E+00 0.  1.
</event>
<event>
 5   0  0.7761069E-07  0.2299388E+04  0.7818609E-02  0.8478163E-01
       -1   -1    0    0    0  501  0.00000000000E+00  0.00000000000E+00  0.11235985777E+04  0.11235985777E+04  0.50400001928E-02 0.  1.
        1   -1    0    0  501    0  0.00000000000E+00  0.00000000000E+00 -0.11763950784E+04  0.11763950784E+04  0.50400001928E-02 0. -1.
    10030    2    1    2    0    0  0.00000000000E+00  0.00000000000E+00 -0.52796500751E+02  0.22999936561E+04  0.22993876027E+04 0.  0.
        1    1    3    3  502    0 -0.97074878114E+03  0.59376517690E+03 -0.19040962154E+03  0.11537617195E+04  0.50400001928E-02 0. -1.
       -1    1    3    3    0  502  0.97074878114E+03 -0.59376517690E+03  0.13761312079E+03  0.11462319366E+04  0.50400001928E-02 0.  1.
</event>
<event>
 5   0  0.7607231E-07  0.2304045E+04  0.7818609E-02  0.8476328E-01
       -1   -1    0    0    0  501  0.00000000000E+00  0.00000000000E+00  0.95997141029E+03  0.95997141030E+03  0.50400001928E-02 0.  1.
        1   -1    0    0  501    0  0.00000000000E+00  0.00000000000E+00 -0.13824950186E+04  0.13824950186E+04  0.50400001928E-02 0. -1.
    10030    2    1    2    0    0  0.00000000000E+00  0.00000000000E+00 -0.42252360826E+03  0.23424664289E+04  0.23040448717E+04 0.  0.
        2    1    3    3  502    0  0.35459076631E+03  0.76216684984E+03  0.58960686775E+03  0.10267761085E+04  0.25500000920E-02 0.  1.
       -2    1    3    3    0  502 -0.35459076631E+03 -0.76216684984E+03 -0.10121304760E+04  0.13156903203E+04  0.25500000920E-02 0. -1.
</event>
<event>
 5   0  0.1744876E-06  0.2300954E+04  0.7818609E-02  0.8477545E-01
        2   -1    0    0  501    0  0.00000000000E+00  0.00000000000E+00  0.21922135210E+04  0.21922135210E+04  0.25500000920E-02 0.  1.
       -2   -1    0    0    0  501  0.00000000000E+00  0.00000000000E+00 -0.60377199823E+03  0.60377199824E+03  0.25500000920E-02 0. -1.
    10030    2    1    2    0    0  0.00000000000E+00  0.00000000000E+00  0.15884415228E+04  0.27959855193E+04  0.23009538354E+04 0.  0.
        1    1    3    3  502    0 -0.55432823757E+03  0.30079861900E+03  0.19634358307E+04  0.20622414664E+04  0.50400001928E-02 0.  1.
       -1    1    3    3    0  502  0.55432823757E+03 -0.30079861900E+03 -0.37499430794E+03  0.73374405291E+03  0.50400001928E-02 0. -1.
</event>
<event>
 5   0  0.1828646E-06  0.2300188E+04  0.7818609E-02  0.8477847E-01
       -2   -1    0    0    0  501  0.00000000000E+00  0.00000000000E+00  0.17989907369E+04  0.17989907369E+04  0.25500000920E-02 0.  1.
        2   -1    0    0  501    0  0.00000000000E+00  0.00000000000E+00 -0.73525471817E+03  0.73525471817E+03  0.25500000920E-02 0. -1.
    10030    2    1    2    0    0  0.00000000000E+00  0.00000000000E+00  0.10637360187E+04  0.25342454551E+04  0.23001881899E+04 0.  0.
        3    1    3    3  502    0  0.45534815595E+03  0.88519297482E+02  0.16913520716E+04  0.17538099810E+04  0.10100000352E+00 0.  1.
       -3    1    3    3    0  502 -0.45534815595E+03 -0.88519297482E+02 -0.62761605287E+03  0.78043547406E+03  0.10100000352E+00 0. -1.
</event>
<event>
 5   0  0.7932912E-07  0.2290859E+04  0.7818609E-02  0.8481534E-01
       -1   -1    0    0    0  501  0.00000000000E+00  0.00000000000E+00  0.93766535706E+03  0.93766535707E+03  0.50400001928E-02 0. -1.
        1   -1    0    0  501    0  0.00000000000E+00  0.00000000000E+00 -0.13992291663E+04  0.13992291663E+04  0.50400001928E-02 0.  1.
    10030    2    1    2    0    0  0.00000000000E+00  0.00000000000E+00 -0.46156380923E+03  0.23368945234E+04  0.22908589794E+04 0.  0.
        5    1    3    3  502    0  0.19684104069E+03  0.11273740328E+04 -0.18220114861E+03  0.11588519982E+04  0.46999998093E+01 0.  1.
       -5    1    3    3    0  502 -0.19684104069E+03 -0.11273740328E+04 -0.27936266062E+03  0.11780425252E+04  0.46999998093E+01 0. -1.
</event>
<event>
 5   0  0.1828646E-06  0.2299580E+04  0.7818609E-02  0.8478087E-01
       -2   -1    0    0    0  501  0.00000000000E+00  0.00000000000E+00  0.99244377644E+03  0.99244377644E+03  0.25500000920E-02 0. -1.
        2   -1    0    0  501    0  0.00000000000E+00  0.00000000000E+00 -0.13320824651E+04  0.13320824651E+04  0.25500000920E-02 0.  1.
    10030    2    1    2    0    0  0.00000000000E+00  0.00000000000E+00 -0.33963868862E+03  0.23245262415E+04  0.22995799200E+04 0.  0.
        3    1    3    3  502    0 -0.74584733469E+03  0.19550256481E+03  0.69237399965E+03  0.10362872503E+04  0.10100000352E+00 0. -1.
       -3    1    3    3    0  502  0.74584733469E+03 -0.19550256481E+03 -0.10320126883E+04  0.12882389912E+04  0.10100000352E+00 0.  1.
</event>
<event>
 5   0  0.7607231E-07  0.2300331E+04  0.7818609E-02  0.8477790E-01
        1   -1    0    0  501    0  0.00000000000E+00  0.00000000000E+00  0.22673029757E+04  0.22673029757E+04  0.50400001928E-02 0. -1.
       -1   -1    0    0    0  501  0.00000000000E+00  0.00000000000E+00 -0.58346028562E+03  0.58346028565E+03  0.50400001928E-02 0.  1.
    10030    2    1    2    0    0  0.00000000000E+00  0.00000000000E+00  0.16838426901E+04  0.28507632614E+04  0.23003314908E+04 0.  0.
        2    1    3    3  502    0 -0.82608502300E+03 -0.35819824346E+03  0.17288180593E+04  0.19492394232E+04  0.25500000920E-02 0. -1.
       -2    1    3    3    0  502  0.82608502300E+03  0.35819824346E+03 -0.44975369253E+02  0.90152383811E+03  0.25500000920E-02 0.  1.
</event>
<event>
 5   0  0.8108242E-07  0.2299880E+04  0.7818609E-02  0.8477968E-01
       -1   -1    0    0    0  501  0.00000000000E+00  0.00000000000E+00  0.20890760563E+04  0.20890760563E+04  0.50400001928E-02 0. -1.
        1   -1    0    0  501    0  0.00000000000E+00  0.00000000000E+00 -0.63298901644E+03  0.63298901646E+03  0.50400001928E-02 0.  1.
    10030    2    1    2    0    0  0.00000000000E+00  0.00000000000E+00  0.14560870398E+04  0.27220650727E+04  0.22998801692E+04 0.  0.
        4    1    3    3  502    0  0.66705369008E+03  0.43076716065E+03  0.17124988327E+04  0.18876373691E+04  0.12699999809E+01 0. -1.
       -4    1    3    3    0  502 -0.66705369008E+03 -0.43076716065E+03 -0.25641179292E+03  0.83442770364E+03  0.12699999809E+01 0.  1.
</event>
<event>
 5   0  0.1828646E-06  0.2300421E+04  0.7818609E-02  0.8477755E-01
        2   -1    0    0  501    0  0.00000000000E+00  0.00000000000E+00  0.23958375430E+04  0.23958375430E+04  0.25500000920E-02 0. -1.
       -2   -1    0    0    0  501  0.00000000000E+00  0.00000000000E+00 -0.55220107474E+03  0.55220107475E+03  0.25500000920E-02 0.  1.
    10030    2    1    2    0    0  0.00000000000E+00  0.00000000000E+00  0.18436364682E+04  0.29480386177E+04  0.23004208886E+04 0.  0.
        3    1    3    3  502    0 -0.66105301625E+03  0.62704507779E+03  0.18214493994E+04  0.20366282293E+04  0.10100000352E+00 0.  1.
       -3    1    3    3    0  502  0.66105301625E+03 -0.62704507779E+03  0.22187068889E+02  0.91141038841E+03  0.10100000352E+00 0. -1.
</event>
<event>
 5   0  0.8097672E-07  0.2300565E+04  0.7818609E-02  0.8477698E-01
        1   -1    0    0  501    0  0.00000000000E+00  0.00000000000E+00  0.23734403146E+04  0.23734403146E+04  0.50400001928E-02 0. -1.
       -1   -1    0    0    0  501  0.00000000000E+00  0.00000000000E+00 -0.55748186200E+03  0.55748186202E+03  0.50400001928E-02 0.  1.
    10030    2    1    2    0    0  0.00000000000E+00  0.00000000000E+00  0.18159584526E+04  0.29309221766E+04  0.23005650836E+04 0.  0.
        3    1    3    3  502    0  0.77027633781E+03  0.66440768219E+03  0.22381968989E+03  0.10415653933E+04  0.10100000352E+00 0.  1.
       -3    1    3    3    0  502 -0.77027633781E+03 -0.66440768219E+03  0.15921387627E+04  0.18893567833E+04  0.10100000352E+00 0. -1.
</event>
<event>
 5   0  0.7761069E-07  0.2300196E+04  0.7818609E-02  0.8477844E-01
       -1   -1    0    0    0  501  0.00000000000E+00  0.00000000000E+00  0.12065939517E+04  0.12065939518E+04  0.50400001928E-02 0.  1.
        1   -1    0    0  501    0  0.00000000000E+00  0.00000000000E+00 -0.10962472373E+04  0.10962472373E+04  0.50400001928E-02 0. -1.
    10030    2    1    2    0    0  0.00000000000E+00  0.00000000000E+00  0.11034671446E+03  0.23028411891E+04  0.23001958927E+04 0.  0.
        1    1    3    3  502    0 -0.40551588518E+03  0.98792702593E+03 -0.37226300784E+03  0.11309388528E+04  0.50400001928E-02 0. -1.
       -1    1    3    3    0  502  0.40551588518E+03 -0.98792702593E+03  0.48260972229E+03  0.11719023363E+04  0.50400001928E-02 0.  1.
</event>
<event>
 5   0  0.8108242E-07  0.2301517E+04  0.7818609E-02  0.8477323E-01
       -1   -1    0    0    0  501  0.00000000000E+00  0.00000000000E+00  0.94223654676E+03  0.94223654677E+03  0.50400001928E-02 0.  1.
        1   -1    0    0  501    0  0.00000000000E+00  0.00000000000E+00 -0.14054276244E+04  0.14054276244E+04  0.50400001928E-02 0. -1.
    10030    2    1    2    0    0  0.00000000000E+00  0.00000000000E+00 -0.46319107763E+03  0.23476641712E+04  0.23015171271E+04 0.  0.
        4    1    3    3  502    0 -0.10871996982E+04 -0.33036678438E+03 -0.46018448974E+02  0.11372179679E+04  0.12699999809E+01 0.  1.
       -4    1    3    3    0  502  0.10871996982E+04  0.33036678438E+03 -0.41717262865E+03  0.12104462033E+04  0.12699999809E+01 0. -1.
</event>
<event>
 5   0  0.1689444E-06  0.2299940E+04  0.7818609E-02  0.8477945E-01
        2   -1    0    0  501    0  0.00000000000E+00  0.00000000000E+00  0.10884867484E+04  0.10884867484E+04  0.25500000920E-02 0. -1.
       -2   -1    0    0    0  501  0.00000000000E+00  0.00000000000E+00 -0.12149263200E+04  0.12149263200E+04  0.25500000920E-02 0.  1.
    10030    2    1    2    0    0  0.00000000000E+00  0.00000000000E+00 -0.12643957160E+03  0.23034130685E+04  0.22999401729E+04 0.  0.
        2    1    3    3  502    0  0.54117950210E+02 -0.11315255462E+04  0.13494861331E+03  0.11408286210E+04  0.25500000920E-02 0. -1.
       -2    1    3    3    0  502 -0.54117950210E+02  0.11315255462E+04 -0.26138818491E+03  0.11625844475E+04  0.25500000920E-02 0.  1.
</event>
<event>
 5   0  0.1689444E-06  0.2300936E+04  0.7818609E-02  0.8477552E-01
        2   -1    0    0  501    0  0.00000000000E+00  0.00000000000E+00  0.14075776868E+04  0.14075776868E+04  0.25500000920E-02 0.  1.
       -2   -1    0    0    0  501  0.00000000000E+00  0.00000000000E+00 -0.94032239973E+03  0.94032239973E+03  0.25500000920E-02 0. -1.
    10030    2    1    2    0    0  0.00000000000E+00  0.00000000000E+00  0.46725528711E+03  0.23479000866E+04  0.23009361819E+04 0.  0.
        2    1    3    3  502    0  0.27692921724E+03  0.71795429872E+03 -0.63906441875E+03  0.10002757109E+04  0.25500000920E-02 0. -1.
       -2    1    3    3    0  502 -0.27692921724E+03 -0.71795429872E+03  0.11063197059E+04  0.13476243757E+04  0.25500000920E-02 0.  1.
</event>
<event>
 5   0  0.1689444E-06  0.2298882E+04  0.7818609E-02  0.8478362E-01
       -2   -1    0    0    0  501  0.00000000000E+00  0.00000000000E+00  0.88963500670E+03  0.88963500670E+03  0.25500000920E-02 0. -1.
        2   -1    0    0  501    0  0.00000000000E+00  0.00000000000E+00 -0.14851196822E+04  0.14851196822E+04  0.25500000920E-02 0.  1.
    10030    2    1    2    0    0  0.00000000000E+00  0.00000000000E+00 -0.59548467552E+03  0.23747546889E+04  0.22988818660E+04 0.  0.
        2    1    3    3  502    0 -0.92693164939E+03 -0.37759642806E+03 -0.88157994549E+03  0.13337782970E+04  0.25500000920E-02 0.  1.
       -2    1    3    3    0  502  0.92693164939E+03  0.37759642806E+03  0.28609526997E+03  0.10409763920E+04  0.25500000920E-02 0. -1.
</event>
<event>
 5   0  0.7607231E-07  0.2299297E+04  0.7818609E-02  0.8478198E-01
       -1   -1    0    0    0  501  0.00000000000E+00  0.00000000000E+00  0.84490287524E+03  0.84490287526E+03  0.50400001928E-02 0.  1.
        1   -1    0    0  501    0  0.00000000000E+00  0.00000000000E+00 -0.15643124794E+04  0.15643124794E+04  0.50400001928E-02 0. -1.
    10030    2    1    2    0    0  0.00000000000E+00  0.00000000000E+00 -0.71940960415E+03  0.24092153547E+04  0.22992973811E+04 0.  0.
        2    1    3    3  502    0  0.36260032899E+03 -0.64890464621E+03 -0.12786339167E+04  0.14790067381E+04  0.25500000920E-02 0. -1.
       -2    1    3    3    0  502 -0.36260032899E+03  0.64890464621E+03  0.55922431257E+03  0.93020861652E+03  0.25500000920E-02 0.  1.
</event>
<event>
 5   0  0.8108242E-07  0.2294863E+04  0.7818609E-02  0.8479949E-01
        1   -1    0    0  501    0  0.00000000000E+00  0.00000000000E+00  0.26773413430E+04  0.26773413430E+04  0.50400001928E-02 0.  1.
       -1   -1    0    0    0  501  0.00000000000E+00  0.00000000000E+00 -0.49175606818E+03  0.49175606820E+03  0.50400001928E-02 0. -1.
    10030    2    1    2    0    0  0.00000000000E+00  0.00000000000E+00  0.21855852748E+04  0.31690974112E+04  0.22948628299E+04 0.  0.
        4    1    3    3  502    0 -0.10809397163E+04 -0.32210495487E+03  0.80175877103E+03  0.13838356159E+04  0.12699999809E+01 0.  1.
       -4    1    3    3    0  502  0.10809397163E+04  0.32210495487E+03  0.13838265038E+04  0.17852617953E+04  0.12699999809E+01 0. -1.
</event>
<event>
 5   0  0.8097672E-07  0.2303739E+04  0.7818609E-02  0.8476448E-01
        1   -1    0    0  501    0  0.00000000000E+00  0.00000000000E+00  0.17991014192E+04  0.17991014192E+04  0.50400001928E-02 0. -1.
       -1   -1    0    0    0  501  0.00000000000E+00  0.00000000000E+00 -0.73748091890E+03  0.73748091892E+03  0.50400001928E-02 0.  1.
    10030    2    1    2    0    0  0.00000000000E+00  0.00000000000E+00  0.10616205003E+04  0.25365823381E+04  0.23037386726E+04 0.  0.
        3    1    3    3  502    0 -0.17907047182E+03 -0.11709852922E+03 -0.71540911672E+03  0.74671849710E+03  0.10100000352E+00 0.  1.
       -3    1    3    3    0  502  0.17907047182E+03  0.11709852922E+03  0.17770296170E+04  0.17898638410E+04  0.10100000352E+00 0. -1.
</event>
<event>
 5   0  0.1825521E-06  0.2300440E+04  0.7818609E-02  0.8477748E-01
        2   -1    0    0  501    0  0.00000000000E+00  0.00000000000E+00  0.17511829661E+04  0.17511829661E+04  0.25500000920E-02 0.  1.
       -2   -1    0    0    0  501  0.00000000000E+00  0.00000000000E+00 -0.75549244120E+03  0.75549244121E+03  0.25500000920E-02 0. -1.
    10030    2    1    2    0    0  0.00000000000E+00  0.00000000000E+00  0.99569052494E+03  0.25066754073E+04  0.23004395181E+04 0.  0.
        5    1    3    3  502    0 -0.11042118126E+04 -0.29778958361E+03  0.63139323348E+03  0.13063850384E+04  0.46999998093E+01 0.  1.
       -5    1    3    3    0  502  0.11042118126E+04  0.29778958361E+03  0.36429729146E+03  0.12002903690E+04  0.46999998093E+01 0. -1.
</event>
<event>
 5   0  0.8108242E-07  0.2299834E+04  0.7818609E-02  0.8477986E-01
        1   -1    0    0  501    0  0.00000000000E+00  0.00000000000E+00  0.23045652454E+04  0.23045652454E+04  0.50400001928E-02 0.  1.
       -1   -1    0    0    0  501  0.00000000000E+00  0.00000000000E+00 -0.57377828872E+03  0.57377828874E+03  0.50400001928E-02 0. -1.
    10030    2    1    2    0    0  0.00000000000E+00  0.00000000000E+00  0.17307869567E+04  0.28783435341E+04  0.22998343443E+04 0.  0.
        4    1    3    3  502    0 -0.61502585404E+03 -0.95756411235E+03  0.65927952031E+03  0.13152326521E+04  0.12699999809E+01 0.  1.
       -4    1    3    3    0  502  0.61502585404E+03  0.95756411235E+03  0.10715074364E+04  0.15631108820E+04  0.12699999809E+01 0. -1.
</event>
<event>
 5   0  0.1825521E-06  0.2314423E+04  0.7818609E-02  0.8472256E-01
       -2   -1    0    0    0  501  0.00000000000E+00  0.00000000000E+00  0.12164753250E+04  0.12164753250E+04  0.25500000920E-02 0.  1.
        2   -1    0    0  501    0  0.00000000000E+00  0.00000000000E+00 -0.11008349634E+04  0.11008349634E+04  0.25500000920E-02 0. -1.
    10030    2    1    2    0    0  0.00000000000E+00  0.00000000000E+00  0.11564036164E+03  0.23173102884E+04  0.23144230986E+04 0.  0.
        5    1    3    3  502    0 -0.10333615757E+04 -0.89784646735E+02 -0.45586861614E+03  0.11330206150E+04  0.46999998093E+01 0.  1.
       -5    1    3    3    0  502  0.10333615757E+04  0.89784646735E+02  0.57150897778E+03  0.11842896734E+04  0.46999998093E+01 0. -1.
</event>
<event>
 5   0  0.8108242E-07  0.2299363E+04  0.7818609E-02  0.8478172E-01
       -1   -1    0    0    0  501  0.00000000000E+00  0.00000000000E+00  0.70254717562E+03  0.70254717563E+03  0.50400001928E-02 0. -1.
        1   -1    0    0  501    0  0.00000000000E+00  0.00000000000E+00 -0.18813935329E+04  0.18813935330E+04  0.50400001928E-02 0.  1.
    10030    2    1    2    0    0  0.00000000000E+00  0.00000000000E+00 -0.11788463573E+04  0.25839407086E+04  0.22993631404E+04 0.  0.
        4    1    3    3  502    0  0.63524879128E+03 -0.52803692685E+03  0.30916768828E+03  0.88201490651E+03  0.12699999809E+01 0. -1.
       -4    1    3    3    0  502 -0.63524879128E+03  0.52803692685E+03 -0.14880140456E+04  0.17019258021E+04  0.12699999809E+01 0.  1.
</event>
<event>
 5   0  0.7932912E-07  0.2301391E+04  0.7818609E-02  0.8477373E-01
       -1   -1    0    0    0  501  0.00000000000E+00  0.00000000000E+00  0.13338580485E+04  0.13338580485E+04  0.50400001928E-02 0. -1.
        1   -1    0    0  501    0  0.00000000000E+00  0.00000000000E+00 -0.99268480758E+03  0.99268480759E+03  0.50400001928E-02 0.  1.
    10030    2    1    2    0    0  0.00000000000E+00  0.00000000000E+00  0.34117324089E+03  0.23265428561E+04  0.23013914228E+04 0.  0.
        5    1    3    3  502    0 -0.83422256228E+03 -0.43189388233E+03  0.84239343207E+03  0.12617877767E+04  0.46999998093E+01 0. -1.
       -5    1    3    3    0  502  0.83422256228E+03  0.43189388233E+03 -0.50122019118E+03  0.10647550794E+04  0.46999998093E+01 0.  1.
</event>
<event>
 5   0  0.8097672E-07  0.2299660E+04  0.7818609E-02  0.8478055E-01
       -1   -1    0    0    0  501  0.00000000000E+00  0.00000000000E+00  0.10864042069E+04  0.10864042069E+04  0.50400001928E-02 0.  1.
        1   -1    0    0  501    0  0.00000000000E+00  0.00000000000E+00 -0.12169588641E+04  0.12169588641E+04  0.50400001928E-02 0. -1.
    10030    2    1    2    0    0  0.00000000000E+00  0.00000000000E+00 -0.13055465721E+03  0.23033630710E+04  0.22996601745E+04 0.  0.
        3    1    3    3  502    0  0.85545159293E+03 -0.33410920427E+03 -0.75826045653E+03  0.11909598307E+04  0.10100000352E+00 0. -1.
       -3    1    3    3    0  502 -0.85545159293E+03  0.33410920427E+03  0.62770579932E+03  0.11124032403E+04  0.10100000352E+00 0.  1.
</event>
<event>
 5   0  0.7761069E-07  0.2294122E+04  0.7818609E-02  0.8480242E-01
        1   -1    0    0  501    0  0.00000000000E+00  0.00000000000E+00  0.13103923350E+04  0.13103923350E+04  0.50400001928E-02 0.  1.
       -1   -1    0    0    0  501  0.00000000000E+00  0.00000000000E+00 -0.10040880771E+04  0.10040880771E+04  0.50400001928E-02 0. -1.
    10030    2    1    2    0    0  0.00000000000E+00  0.00000000000E+00  0.30630425789E+03  0.23144804121E+04  0.22941223332E+04 0.  0.
        1    1    3    3  502    0  0.23601761279E+03  0.64282779165E+03  0.10815450767E+04  0.12801061035E+04  0.50400001928E-02 0.  1.
       -1    1    3    3    0  502 -0.23601761279E+03 -0.64282779165E+03 -0.77524081880E+03  0.10343743087E+04  0.50400001928E-02 0. -1.
</event>
<event>
 5   0  0.1888779E-06  0.2300059E+04  0.7818609E-02  0.8477898E-01
       -2   -1    0    0    0  501  0.00000000000E+00  0.00000000000E+00  0.10421353382E+04  0.10421353382E+04  0.25500000920E-02 0. -1.
        2   -1    0    0  501    0  0.00000000000E+00  0.00000000000E+00 -0.12690942833E+04  0.12690942833E+04  0.25500000920E-02 0.  1.
    10030    2    1    2    0    0  0.00000000000E+00  0.00000000000E+00 -0.22695894512E+03  0.23112296216E+04  0.23000591299E+04 0.  0.
        4    1    3    3  502    0 -0.73163918698E+02 -0.12724875727E+03  0.10326832452E+04  0.10430635182E+04  0.12699999809E+01 0. -1.
       -4    1    3    3    0  502  0.73163918698E+02  0.12724875727E+03 -0.12596421903E+04  0.12681661034E+04  0.12699999809E+01 0.  1.
</event>
<event>
 5   0  0.1689444E-06  0.2300169E+04  0.7818609E-02  0.8477854E-01
       -2   -1    0    0    0  501  0.00000000000E+00  0.00000000000E+00  0.11323073688E+04  0.11323073688E+04  0.25500000920E-02 0. -1.
        2   -1    0    0  501    0  0.00000000000E+00  0.00000000000E+00 -0.11681408263E+04  0.11681408263E+04  0.25500000920E-02 0.  1.
    10030    2    1    2    0    0  0.00000000000E+00  0.00000000000E+00 -0.35833457511E+02  0.23004481950E+04  0.23001690941E+04 0.  0.
        2    1    3    3  502    0  0.53008965650E+03  0.74516610919E+03  0.67961100810E+03  0.11393588972E+04  0.25500000920E-02 0. -1.
       -2    1    3    3    0  502 -0.53008965650E+03 -0.74516610919E+03 -0.71544446561E+03  0.11610892979E+04  0.25500000920E-02 0.  1.
</event>
<event>
 5   0  0.8097672E-07  0.2299007E+04  0.7818609E-02  0.8478313E-01
        1   -1    0    0  501    0  0.00000000000E+00  0.00000000000E+00  0.11689030933E+04  0.11689030933E+04  0.50400001928E-02 0. -1.
       -1   -1    0    0    0  501  0.00000000000E+00  0.00000000000E+00 -0.11304262753E+04  0.11304262753E+04  0.50400001928E-02 0.  1.
    10030    2    1    2    0    0  0.00000000000E+00  0.00000000000E+00  0.38476818000E+02  0.22993293686E+04  0.22990074119E+04 0.  0.
        3    1    3    3  502    0 -0.36973941916E+03  0.98147934920E+03  0.48978257218E+03  0.11575387377E+04  0.10100000352E+00 0. -1.
       -3    1    3    3    0  502  0.36973941916E+03 -0.98147934920E+03 -0.45130575418E+03  0.11417906310E+04  0.10100000352E+00 0.  1.
</event>
<event>
 5   0  0.1828646E-06  0.2299515E+04  0.7818609E-02  0.8478112E-01
       -2   -1    0    0    0  501  0.00000000000E+00  0.00000000000E+00  0.10255952343E+04  0.10255952343E+04  0.25500000920E-02 0.  1.
        2   -1    0    0  501    0  0.00000000000E+00  0.00000000000E+00 -0.12889515226E+04  0.12889515226E+04  0.25500000920E-02 0. -1.
    10030    2    1    2    0    0  0.00000000000E+00  0.00000000000E+00 -0.26335628833E+03  0.23145467568E+04  0.22995152000E+04 0.  0.
        3    1    3    3  502    0  0.41112397955E+03 -0.66355753459E+03  0.71800291054E+03  0.10605940402E+04  0.10100000352E+00 0.  1.
       -3    1    3    3    0  502 -0.41112397955E+03  0.66355753459E+03 -0.98135919887E+03  0.12539527167E+04  0.10100000352E+00 0. -1.
</event>
<event>
 5   0  0.7761069E-07  0.2301947E+04  0.7818609E-02  0.8477154E-01
       -1   -1    0    0    0  501  0.00000000000E+00  0.00000000000E+00  0.16824314452E+04  0.16824314453E+04  0.50400001928E-02 0.  1.
        1   -1    0    0  501    0  0.00000000000E+00  0.00000000000E+00 -0.78739637973E+03  0.78739637975E+03  0.50400001928E-02 0. -1.
    10030    2    1    2    0    0  0.00000000000E+00  0.00000000000E+00  0.89503506552E+03  0.24698278250E+04  0.23019473749E+04 0.  0.
        1    1    3    3  502    0 -0.62000816816E+03  0.32697751590E+03 -0.53197742855E+03  0.87995704952E+03  0.50400001928E-02 0. -1.
       -1    1    3    3    0  502  0.62000816816E+03 -0.32697751590E+03  0.14270124941E+04  0.15898707755E+04  0.50400001928E-02 0.  1.
</event>
<event>
 5   0  0.8108242E-07  0.2299575E+04  0.7818609E-02  0.8478089E-01
        1   -1    0    0  501    0  0.00000000000E+00  0.00000000000E+00  0.92868284594E+03  0.92868284595E+03  0.50400001928E-02 0.  1.
       -1   -1    0    0    0  501  0.00000000000E+00  0.00000000000E+00 -0.14235333853E+04  0.14235333853E+04  0.50400001928E-02 0. -1.
    10030    2    1    2    0    0  0.00000000000E+00  0.00000000000E+00 -0.49485053937E+03  0.23522162313E+04  0.22995747742E+04 0.  0.
        4    1    3    3  502    0 -0.33125830573E+01 -0.99108163298E+03  0.34880366455E+03  0.10506756806E+04  0.12699999809E+01 0. -1.
       -4    1    3    3    0  502  0.33125830573E+01  0.99108163298E+03 -0.84365420392E+03  0.13015405507E+04  0.12699999809E+01 0.  1.
</event>
<event>
 5   0  0.7932912E-07  0.2300305E+04  0.7818609E-02  0.8477801E-01
       -1   -1    0    0    0  501  0.00000000000E+00  0.00000000000E+00  0.67334527218E+03  0.67334527220E+03  0.50400001928E-02 0. -1.
        1   -1    0    0  501    0  0.00000000000E+00  0.00000000000E+00 -0.19645954827E+04  0.19645954827E+04  0.50400001928E-02 0.  1.
    10030    2    1    2    0    0  0.00000000000E+00  0.00000000000E+00 -0.12912502105E+04  0.26379407549E+04  0.23003052667E+04 0.  0.
        5    1    3    3  502    0 -0.94811879324E+03 -0.62598797429E+03 -0.44035879091E+03  0.12184942120E+04  0.46999998093E+01 0. -1.
       -5    1    3    3    0  502  0.94811879324E+03  0.62598797429E+03 -0.85089141957E+03  0.14194465428E+04  0.46999998093E+01 0.  1.
</event>
<event>
 5   0  0.1828646E-06  0.2299541E+04  0.7818609E-02  0.8478102E-01
       -2   -1    0    0    0  501  0.00000000000E+00  0.00000000000E+00  0.50689812681E+03  0.50689812682E+03  0.25500000920E-02 0. -1.
        2   -1    0    0  501    0  0.00000000000E+00  0.00000000000E+00 -0.26079652143E+04  0.26079652143E+04  0.25500000920E-02 0.  1.
    10030    2    1    2    0    0  0.00000000000E+00  0.00000000000E+00 -0.21010670875E+04  0.31148633411E+04  0.22995414168E+04 0.  0.
        3    1    3    3  502    0 -0.20524693768E+03 -0.33877687555E+03  0.41155946496E+03  0.57120686291E+03  0.10100000352E+00 0. -1.
       -3    1    3    3    0  502  0.20524693768E+03  0.33877687555E+03 -0.25126265524E+04  0.25436564782E+04  0.10100000352E+00 0.  1.
</event>
<event>
 5   0  0.7761069E-07  0.2300652E+04  0.7818609E-02  0.8477664E-01
        1   -1    0    0  501    0  0.00000000000E+00  0.00000000000E+00  0.16134793859E+04  0.16134793859E+04  0.50400001928E-02 0. -1.
       -1   -1    0    0    0  501  0.00000000000E+00  0.00000000000E+00 -0.82012201687E+03  0.82012201689E+03  0.50400001928E-02 0.  1.
    10030    2    1    2    0    0  0.00000000000E+00  0.00000000000E+00  0.79335736898E+03  0.24336014027E+04  0.23006520538E+04 0.  0.
        1    1    3    3  502    0  0.66538419027E+03  0.93297001366E+03  0.50288394473E+03  0.12514237607E+04  0.50400001928E-02 0.  1.
       -1    1    3    3    0  502 -0.66538419027E+03 -0.93297001366E+03  0.29047342425E+03  0.11821776420E+04  0.50400001928E-02 0. -1.
</event>
<event>
 5   0  0.1744876E-06  0.2300324E+04  0.7818609E-02  0.8477793E-01
       -2   -1    0    0    0  501  0.00000000000E+00  0.00000000000E+00  0.98848849465E+03  0.98848849465E+03  0.25500000920E-02 0. -1.
        2   -1    0    0  501    0  0.00000000000E+00  0.00000000000E+00 -0.13382783264E+04  0.13382783264E+04  0.25500000920E-02 0.  1.
    10030    2    1    2    0    0  0.00000000000E+00  0.00000000000E+00 -0.34978983177E+03  0.23267668211E+04  0.23003240887E+04 0.  0.
        1    1    3    3  502    0  0.69502258202E+03 -0.54451594090E+03 -0.92046963387E+03  0.12754678931E+04  0.50400001928E-02 0.  1.
       -1    1    3    3    0  502 -0.69502258202E+03  0.54451594090E+03  0.57067980210E+03  0.10512989280E+04  0.50400001928E-02 0. -1.
</event>
<event>
 5   0  0.8108242E-07  0.2300543E+04  0.7818609E-02  0.8477707E-01
       -1   -1    0    0    0  501  0.00000000000E+00  0.00000000000E+00  0.78370378365E+03  0.78370378367E+03  0.50400001928E-02 0. -1.
        1   -1    0    0  501    0  0.00000000000E+00  0.00000000000E+00 -0.16882965277E+04  0.16882965277E+04  0.50400001928E-02 0.  1.
    10030    2    1    2    0    0  0.00000000000E+00  0.00000000000E+00 -0.90459274408E+03  0.24720003114E+04  0.23005428722E+04 0.  0.
        4    1    3    3  502    0 -0.42988104112E+03 -0.38516239856E+03 -0.15214258391E+04  0.16272326139E+04  0.12699999809E+01 0.  1.
       -4    1    3    3    0  502  0.42988104112E+03  0.38516239856E+03  0.61683309505E+03  0.84476769755E+03  0.12699999809E+01 0. -1.
</event>
<event>
 5   0  0.7932912E-07  0.2299879E+04  0.7818609E-02  0.8477969E-01
        1   -1    0    0  501    0  0.00000000000E+00  0.00000000000E+00  0.21419312547E+04  0.21419312547E+04  0.50400001928E-02 0.  1.
       -1   -1    0    0    0  501  0.00000000000E+00  0.00000000000E+00 -0.61736867418E+03  0.61736867420E+03  0.50400001928E-02 0. -1.
    10030    2    1    2    0    0  0.00000000000E+00  0.00000000000E+00  0.15245625805E+04  0.27592999289E+04  0.22998793525E+04 0.  0.
        5    1    3    3  502    0  0.19929209313E+03  0.83562312656E+03 -0.15485217926E+03  0.87291731306E+03  0.46999998093E+01 0. -1.
       -5    1    3    3    0  502 -0.19929209313E+03 -0.83562312656E+03  0.16794147598E+04  0.18863826159E+04  0.46999998093E+01 0.  1.
</event>
<event>
 5   0  0.7607231E-07  0.2300387E+04  0.7818609E-02  0.8477769E-01
       -1   -1    0    0    0  501  0.00000000000E+00  0.00000000000E+00  0.56008788924E+03  0.56008788926E+03  0.50400001928E-02 0.  1.
        1   -1    0    0  501    0  0.00000000000E+00  0.00000000000E+00 -0.23620306577E+04  0.23620306577E+04  0.50400001928E-02 0. -1.
    10030    2    1    2    0    0  0.00000000000E+00  0.00000000000E+00 -0.18019427684E+04  0.29221185469E+04  0.23003867200E+04 0.  0.
        2    1    3    3  502    0  0.89398760551E+03  0.50685615135E+01 -0.18202357745E+04  0.20279294376E+04  0.25500000920E-02 0. -1.
       -2    1    3    3    0  502 -0.89398760551E+03 -0.50685615135E+01  0.18293006097E+02  0.89418910931E+03  0.25500000920E-02 0.  1.
</event>
<event>
 5   0  0.7607231E-07  0.2300980E+04  0.7818609E-02  0.8477535E-01
       -1   -1    0    0    0  501  0.00000000000E+00  0.00000000000E+00  0.48408142566E+03  0.48408142569E+03  0.50400001928E-02 0. -1.
        1   -1    0    0  501    0  0.00000000000E+00  0.00000000000E+00 -0.27343069110E+04  0.27343069110E+04  0.50400001928E-02 0.  1.
    10030    2    1    2    0    0  0.00000000000E+00  0.00000000000E+00 -0.22502254853E+04  0.32183883367E+04  0.23009799545E+04 0.  0.
        2    1    3    3  502    0  0.57850312760E+03 -0.56837183217E+02 -0.25138010719E+04  0.25801341366E+04  0.25500000920E-02 0.  1.
       -2    1    3    3    0  502 -0.57850312760E+03  0.56837183217E+02  0.26357558655E+03  0.63825420004E+03  0.25500000920E-02 0. -1.
</event>
<event>
 5   0  0.7932912E-07  0.2299977E+04  0.7818609E-02  0.8477930E-01
       -1   -1    0    0    0  501  0.00000000000E+00  0.00000000000E+00  0.12072283066E+04  0.12072283066E+04  0.50400001928E-02 0. -1.
        1   -1    0    0  501    0  0.00000000000E+00  0.00000000000E+00 -0.10954627543E+04  0.10954627543E+04  0.50400001928E-02 0.  1.
    10030    2    1    2    0    0  0.00000000000E+00  0.00000000000E+00  0.11176555228E+03  0.23026910609E+04  0.22999770832E+04 0.  0.
        5    1    3    3  502    0 -0.10381513921E+04  0.38269623961E+03 -0.25791462221E+03  0.11361147684E+04  0.46999998093E+01 0. -1.
       -5    1    3    3    0  502  0.10381513921E+04 -0.38269623961E+03  0.36968017449E+03  0.11665762924E+04  0.46999998093E+01 0.  1.
</event>
<event>
 5   0  0.1689444E-06  0.2299906E+04  0.7818609E-02  0.8477958E-01
       -2   -1    0    0    0  501  0.00000000000E+00  0.00000000000E+00  0.16597513114E+04  0.16597513114E+04  0.25500000920E-02 0.  1.
        2   -1    0    0  501    0  0.00000000000E+00  0.00000000000E+00 -0.79674071107E+03  0.79674071108E+03  0.25500000920E-02 0. -1.
    10030    2    1    2    0    0  0.00000000000E+00  0.00000000000E+00  0.86301060030E+03  0.24564920225E+04  0.22999055981E+04 0.  0.
        2    1    3    3  502    0 -0.93159770192E+03  0.61093010858E+03  0.12699542993E+03  0.11212661214E+04  0.25500000920E-02 0. -1.
       -2    1    3    3    0  502  0.93159770192E+03 -0.61093010858E+03  0.73601517037E+03  0.13352259010E+04  0.25500000920E-02 0.  1.
</event>
<event>
 5   0  0.8108242E-07  0.2300371E+04  0.7818609E-02  0.8477775E-01
       -1   -1    0    0    0  501  0.00000000000E+00  0.00000000000E+00  0.15329266349E+04  0.15329266349E+04  0.50400001928E-02 0. -1.
        1   -1    0    0  501    0  0.00000000000E+00  0.00000000000E+00 -0.86300729541E+03  0.86300729542E+03  0.50400001928E-02 0.  1.
    10030    2    1    2    0    0  0.00000000000E+00  0.00000000000E+00  0.66991933944E+03  0.23959339303E+04  0.23003711607E+04 0.  0.
        4    1    3    3  502    0  0.39509902362E+03  0.44584334440E+03 -0.68980669039E+03  0.91143535658E+03  0.12699999809E+01 0.  1.
       -4    1    3    3    0  502 -0.39509902362E+03 -0.44584334440E+03  0.13597260298E+04  0.14844985737E+04  0.12699999809E+01 0. -1.
</event>
<event>
 5   0  0.7761069E-07  0.2299087E+04  0.7818609E-02  0.8478281E-01
        1   -1    0    0  501    0  0.00000000000E+00  0.00000000000E+00  0.14604542869E+04  0.14604542869E+04  0.50400001928E-02 0.  1.
       -1   -1    0    0    0  501  0.00000000000E+00  0.00000000000E+00 -0.90482101466E+03  0.90482101467E+03  0.50400001928E-02 0. -1.
    10030    2    1    2    0    0  0.00000000000E+00  0.00000000000E+00  0.55563327225E+03  0.23652753016E+04  0.22990865401E+04 0.  0.
        1    1    3    3  502    0 -0.10979617130E+03 -0.97944290290E+03  0.88653139350E+03  0.13256324947E+04  0.50400001928E-02 0.  1.
       -1    1    3    3    0  502  0.10979617130E+03  0.97944290290E+03 -0.33089812125E+03  0.10396428069E+04  0.50400001928E-02 0. -1.
</event>
<event>
 5   0  0.7761069E-07  0.2300742E+04  0.7818609E-02  0.8477629E-01
        1   -1    0    0  501    0  0.00000000000E+00  0.00000000000E+00  0.17020703646E+04  0.17020703646E+04  0.50400001928E-02 0.  1.
       -1   -1    0    0    0  501  0.00000000000E+00  0.00000000000E+00 -0.77749612906E+03  0.77749612908E+03  0.50400001928E-02 0. -1.
    10030    2    1    2    0    0  0.00000000000E+00  0.00000000000E+00  0.92457423550E+03  0.24795664937E+04  0.23007417238E+04 0.  0.
        1    1    3    3  502    0 -0.98358461061E+03 -0.41702082517E+03  0.92207043246E+03  0.14112260405E+04  0.50400001928E-02 0. -1.
       -1    1    3    3    0  502  0.98358461061E+03  0.41702082517E+03  0.25038030422E+01  0.10683404532E+04  0.50400001928E-02 0.  1.
</event>
<event>
 5   0  0.1888779E-06  0.2299213E+04  0.7818609E-02  0.8478231E-01
       -2   -1    0    0    0  501  0.00000000000E+00  0.00000000000E+00  0.62064035091E+03  0.62064035092E+03  0.25500000920E-02 0. -1.
        2   -1    0    0  501    0  0.00000000000E+00  0.00000000000E+00 -0.21294057514E+04  0.21294057514E+04  0.25500000920E-02 0.  1.
    10030    2    1    2    0    0  0.00000000000E+00  0.00000000000E+00 -0.15087654005E+04  0.27500461023E+04  0.22992130243E+04 0.  0.
        4    1    3    3  502    0  0.31633840906E+03  0.20221899713E+03 -0.20540070994E+04  0.20880395804E+04  0.12699999809E+01 0.  1.
       -4    1    3    3    0  502 -0.31633840906E+03 -0.20221899713E+03  0.54524169897E+03  0.66200652190E+03  0.12699999809E+01 0. -1.
</event>
<event>
 5   0  0.7761069E-07  0.2295381E+04  0.7818609E-02  0.8479744E-01
        1   -1    0    0  501    0  0.00000000000E+00  0.00000000000E+00  0.11887773319E+04  0.11887773319E+04  0.50400001928E-02 0. -1.
       -1   -1    0    0    0  501  0.00000000000E+00  0.00000000000E+00 -0.11080240387E+04  0.11080240387E+04  0.50400001928E-02 0.  1.
    10030    2    1    2    0    0  0.00000000000E+00  0.00000000000E+00  0.80753293214E+02  0.22968013706E+04  0.22953813282E+04 0.  0.
        1    1    3    3  502    0  0.74006276843E+03 -0.27000790048E+03 -0.79476337846E+03  0.11190379776E+04  0.50400001928E-02 0.  1.
       -1    1    3    3    0  502 -0.74006276843E+03  0.27000790048E+03  0.87551667167E+03  0.11777633930E+04  0.50400001928E-02 0. -1.
</event>
<event>
 5   0  0.1888779E-06  0.2299082E+04  0.7818609E-02  0.8478283E-01
        2   -1    0    0  501    0  0.00000000000E+00  0.00000000000E+00  0.51799056287E+03  0.51799056288E+03  0.25500000920E-02 0. -1.
       -2   -1    0    0    0  501  0.00000000000E+00  0.00000000000E+00 -0.25510975056E+04  0.25510975056E+04  0.25500000920E-02 0.  1.
    10030    2    1    2    0    0  0.00000000000E+00  0.00000000000E+00 -0.20331069427E+04  0.30690880685E+04  0.22990819323E+04 0.  0.
        4    1    3    3  502    0 -0.54851178358E+03  0.24124590964E+02  0.33164571775E+03  0.64143407114E+03  0.12699999809E+01 0. -1.
       -4    1    3    3    0  502  0.54851178358E+03 -0.24124590964E+02 -0.23647526605E+04  0.24276539973E+04  0.12699999809E+01 0.  1.
</event>
<event>
 5   0  0.1828646E-06  0.2299460E+04  0.7818609E-02  0.8478134E-01
       -2   -1    0    0    0  501  0.00000000000E+00  0.00000000000E+00  0.61559628941E+03  0.61559628941E+03  0.25500000920E-02 0.  1.
        2   -1    0    0  501    0  0.00000000000E+00  0.00000000000E+00 -0.21473156806E+04  0.21473156806E+04  0.25500000920E-02 0. -1.
    10030    2    1    2    0    0  0.00000000000E+00  0.00000000000E+00 -0.15317193912E+04  0.27629119700E+04  0.22994604282E+04 0.  0.
        3    1    3    3  502    0 -0.14783918055E+03  0.36865072064E+03  0.53054304871E+03  0.66274860533E+03  0.10100000352E+00 0.  1.
       -3    1    3    3    0  502  0.14783918055E+03 -0.36865072064E+03 -0.20622624399E+04  0.21001633647E+04  0.10100000352E+00 0. -1.
</event>
<event>
 5   0  0.1744876E-06  0.2299355E+04  0.7818609E-02  0.8478176E-01
        2   -1    0    0  501    0  0.00000000000E+00  0.00000000000E+00  0.26090062745E+04  0.26090062745E+04  0.25500000920E-02 0. -1.
       -2   -1    0    0    0  501  0.00000000000E+00  0.00000000000E+00 -0.50661350619E+03  0.50661350620E+03  0.25500000920E-02 0.  1.
    10030    2    1    2    0    0  0.00000000000E+00  0.00000000000E+00  0.21023927683E+04  0.31156197807E+04  0.22993545324E+04 0.  0.
        1    1    3    3  502    0 -0.10576236464E+04  0.91426259023E+02  0.45310457756E+03  0.11542228106E+04  0.50400001928E-02 0.  1.
       -1    1    3    3    0  502  0.10576236464E+04 -0.91426259023E+02  0.16492881908E+04  0.19613969701E+04  0.50400001928E-02 0. -1.
</event>
<event>
 5   0  0.1888779E-06  0.2299629E+04  0.7818609E-02  0.8478067E-01
        2   -1    0    0  501    0  0.00000000000E+00  0.00000000000E+00  0.20661933659E+04  0.20661933659E+04  0.25500000920E-02 0.  1.
       -2   -1    0    0    0  501  0.00000000000E+00  0.00000000000E+00 -0.63985968236E+03  0.63985968237E+03  0.25500000920E-02 0. -1.
    10030    2    1    2    0    0  0.00000000000E+00  0.00000000000E+00  0.14263336835E+04  0.27060530483E+04  0.22996293882E+04 0.  0.
        4    1    3    3  502    0 -0.31713519435E+03  0.10899113420E+04  0.92883613991E+03  0.14667036690E+04  0.12699999809E+01 0. -1.
       -4    1    3    3    0  502  0.31713519435E+03 -0.10899113420E+04  0.49749754360E+03  0.12393493792E+04  0.12699999809E+01 0.  1.
</event>
<event>
 5   0  0.7761069E-07  0.2297245E+04  0.7818609E-02  0.8479008E-01
        1   -1    0    0  501    0  0.00000000000E+00  0.00000000000E+00  0.15454417133E+04  0.15454417133E+04  0.50400001928E-02 0.  1.
       -1   -1    0    0    0  501  0.00000000000E+00  0.00000000000E+00 -0.85369348701E+03  0.85369348703E+03  0.50400001928E-02 0. -1.
    10030    2    1    2    0    0  0.00000000000E+00  0.00000000000E+00  0.69174822629E+03  0.23991352003E+04  0.22972448935E+04 0.  0.
        1    1    3    3  502    0  0.78163161722E+03  0.72853544448E+03 -0.94270482296E+02  0.10726596864E+04  0.50400001928E-02 0. -1.
       -1    1    3    3    0  502 -0.78163161722E+03 -0.72853544448E+03  0.78601870858E+03  0.13264755140E+04  0.50400001928E-02 0.  1.
</event>
<event>
 5   0  0.1828646E-06  0.2299512E+04  0.7818609E-02  0.8478114E-01
       -2   -1    0    0    0  501  0.00000000000E+00  0.00000000000E+00  0.15799729677E+04  0.15799729677E+04  0.25500000920E-02 0.  1.
        2   -1    0    0  501    0  0.00000000000E+00  0.00000000000E+00 -0.83668455975E+03  0.83668455976E+03  0.25500000920E-02 0. -1.
    10030    2    1    2    0    0  0.00000000000E+00  0.00000000000E+00  0.74328840799E+03  0.24166575275E+04  0.22995121108E+04 0.  0.
        3    1    3    3  502    0  0.16452235224E+03 -0.97346762289E+03 -0.24763911059E+03  0.10178565501E+04  0.10100000352E+00 0. -1.
       -3    1    3    3    0  502 -0.16452235224E+03  0.97346762289E+03  0.99092751858E+03  0.13988009774E+04  0.10100000352E+00 0.  1.
</event>
<event>
 5   0  0.7761069E-07  0.2300470E+04  0.7818609E-02  0.8477736E-01
       -1   -1    0    0    0  501  0.00000000000E+00  0.00000000000E+00  0.69026738768E+03  0.69026738770E+03  0.50400001928E-02 0. -1.
        1   -1    0    0  501    0  0.00000000000E+00  0.00000000000E+00 -0.19167070468E+04  0.19167070469E+04  0.50400001928E-02 0.  1.
    10030    2    1    2    0    0  0.00000000000E+00  0.00000000000E+00 -0.12264396592E+04  0.26069744346E+04  0.23004698357E+04 0.  0.
        1    1    3    3  502    0 -0.89205206522E+03 -0.41656706615E+03 -0.12872382144E+04  0.16205762026E+04  0.50400001928E-02 0.  1.
       -1    1    3    3    0  502  0.89205206522E+03  0.41656706615E+03  0.60798555284E+02  0.98639823196E+03  0.50400001928E-02 0. -1.
</event>
<event>
 5   0  0.1888779E-06  0.2292599E+04  0.7818609E-02  0.8480845E-01
        2   -1    0    0  501    0  0.00000000000E+00  0.00000000000E+00  0.13983771552E+04  0.13983771552E+04  0.25500000920E-02 0.  1.
       -2   -1    0    0    0  501  0.00000000000E+00  0.00000000000E+00 -0.93966235330E+03  0.93966235330E+03  0.25500000920E-02 0. -1.
    10030    2    1    2    0    0  0.00000000000E+00  0.00000000000E+00  0.45871480185E+03  0.23380395085E+04  0.22925988471E+04 0.  0.
        4    1    3    3  502    0  0.14374936175E+03 -0.11049318538E+04 -0.45166624037E+02  0.11151591444E+04  0.12699999809E+01 0. -1.
       -4    1    3    3    0  502 -0.14374936175E+03  0.11049318538E+04  0.50388142589E+03  0.12228803640E+04  0.12699999809E+01 0.  1.
</event>
<event>
 5   0  0.1689444E-06  0.2300786E+04  0.7818609E-02  0.8477611E-01
       -2   -1    0    0    0  501  0.00000000000E+00  0.00000000000E+00  0.72680753218E+03  0.72680753219E+03  0.25500000920E-02 0. -1.
        2   -1    0    0  501    0  0.00000000000E+00  0.00000000000E+00 -0.18208454491E+04  0.18208454491E+04  0.25500000920E-02 0.  1.
    10030    2    1    2    0    0  0.00000000000E+00  0.00000000000E+00 -0.10940379169E+04  0.25476529813E+04  0.23007861155E+04 0.  0.
        2    1    3    3  502    0 -0.90889139170E+03  0.61606996138E+03 -0.92703059970E+03  0.14370147849E+04  0.25500000920E-02 0.  1.
       -2    1    3    3    0  502  0.90889139170E+03 -0.61606996138E+03 -0.16700731719E+03  0.11106381964E+04  0.25500000920E-02 0. -1.
</event>
<event>
 5   0  0.1744876E-06  0.2301152E+04  0.7818609E-02  0.8477467E-01
       -2   -1    0    0    0  501  0.00000000000E+00  0.00000000000E+00  0.10848305182E+04  0.10848305182E+04  0.25500000920E-02 0. -1.
        2   -1    0    0  501    0  0.00000000000E+00  0.00000000000E+00 -0.12203057289E+04  0.12203057289E+04  0.25500000920E-02 0.  1.
    10030    2    1    2    0    0  0.00000000000E+00  0.00000000000E+00 -0.13547521072E+03  0.23051362472E+04  0.23011517953E+04 0.  0.
        1    1    3    3  502    0  0.76120966880E+02  0.20014842486E+03 -0.12001688644E+04  0.12191222649E+04  0.50400001928E-02 0.  1.
       -1    1    3    3    0  502 -0.76120966880E+02 -0.20014842486E+03  0.10646936537E+04  0.10860139823E+04  0.50400001928E-02 0. -1.
</event>
<event>
 5   0  0.1744876E-06  0.2299449E+04  0.7818609E-02  0.8478138E-01
       -2   -1    0    0    0  501  0.00000000000E+00  0.00000000000E+00  0.76021268767E+03  0.76021268767E+03  0.25500000920E-02 0.  1.
        2   -1    0    0  501    0  0.00000000000E+00  0.00000000000E+00 -0.17388120671E+04  0.17388120671E+04  0.25500000920E-02 0. -1.
    10030    2    1    2    0    0  0.00000000000E+00  0.00000000000E+00 -0.97859937945E+03  0.24990247548E+04  0.22994494949E+04 0.  0.
        1    1    3    3  502    0 -0.49853370909E+02  0.54908011769E+02 -0.17362097658E+04  0.17377930254E+04  0.50400001928E-02 0. -1.
       -1    1    3    3    0  502  0.49853370909E+02 -0.54908011769E+02  0.75761038632E+03  0.76123172939E+03  0.50400001928E-02 0.  1.
</event>
<event>
 5   0  0.1689444E-06  0.2300124E+04  0.7818609E-02  0.8477872E-01
        2   -1    0    0  501    0  0.00000000000E+00  0.00000000000E+00  0.12723324978E+04  0.12723324978E+04  0.25500000920E-02 0. -1.
       -2   -1    0    0    0  501  0.00000000000E+00  0.00000000000E+00 -0.10395415903E+04  0.10395415903E+04  0.25500000920E-02 0.  1.
    10030    2    1    2    0    0  0.00000000000E+00  0.00000000000E+00  0.23279090755E+03  0.23118740881E+04  0.23001239516E+04 0.  0.
        2    1    3    3  502    0 -0.91057546700E+03 -0.69343965451E+03  0.22938105954E+03  0.11673139706E+04  0.25500000920E-02 0.  1.
       -2    1    3    3    0  502  0.91057546700E+03  0.69343965451E+03  0.34098480113E+01  0.11445601175E+04  0.25500000920E-02 0. -1.
</event>
<event>
 5   0  0.7607231E-07  0.2300494E+04  0.7818609E-02  0.8477726E-01
       -1   -1    0    0    0  501  0.00000000000E+00  0.00000000000E+00  0.74486072384E+03  0.74486072386E+03  0.50400001928E-02 0.  1.
        1   -1    0    0  501    0  0.00000000000E+00  0.00000000000E+00 -0.17762620747E+04  0.17762620747E+04  0.50400001928E-02 0. -1.
    10030    2    1    2    0    0  0.00000000000E+00  0.00000000000E+00 -0.10314013509E+04  0.25211227986E+04  0.23004937337E+04 0.  0.
        2    1    3    3  502    0  0.11567473189E+03 -0.98566895244E+03 -0.11529710674E+04  0.15212712479E+04  0.25500000920E-02 0. -1.
       -2    1    3    3    0  502 -0.11567473189E+03  0.98566895244E+03  0.12156971654E+03  0.99985155068E+03  0.25500000920E-02 0.  1.
</event>
<event>
 5   0  0.7607231E-07  0.2300430E+04  0.7818609E-02  0.8477752E-01
        1   -1    0    0  501    0  0.00000000000E+00  0.00000000000E+00  0.16101497064E+04  0.16101497064E+04  0.50400001928E-02 0.  1.
       -1   -1    0    0    0  501  0.00000000000E+00  0.00000000000E+00 -0.82165947870E+03  0.82165947872E+03  0.50400001928E-02 0. -1.
    10030    2    1    2    0    0  0.00000000000E+00  0.00000000000E+00  0.78849022773E+03  0.24318091852E+04  0.23004301932E+04 0.  0.
        2    1    3    3  502    0 -0.72462241307E+03 -0.55506617602E+03  0.11340856138E+04  0.14557906033E+04  0.25500000920E-02 0.  1.
       -2    1    3    3    0  502  0.72462241307E+03  0.55506617602E+03 -0.34559538603E+03  0.97601858186E+03  0.25500000920E-02 0. -1.
</event>
<event>
 5   0  0.8108242E-07  0.2301372E+04  0.7818609E-02  0.8477380E-01
       -1   -1    0    0    0  501  0.00000000000E+00  0.00000000000E+00  0.12618120210E+04  0.12618120210E+04  0.50400001928E-02 0. -1.
        1   -1    0    0  501    0  0.00000000000E+00  0.00000000000E+00 -0.10493463731E+04  0.10493463731E+04  0.50400001928E-02 0.  1.
    10030    2    1    2    0    0  0.00000000000E+00  0.00000000000E+00  0.21246564794E+03  0.23111583941E+04  0.23013716499E+04 0.  0.
        4    1    3    3  502    0  0.55375700235E+03 -0.27831951021E+03 -0.86740943222E+03  0.10660719035E+04  0.12699999809E+01 0.  1.
       -4    1    3    3    0  502 -0.55375700235E+03  0.27831951021E+03  0.10798750802E+04  0.12450864906E+04  0.12699999809E+01 0. -1.
</event>
<event>
 5   0  0.7932912E-07  0.2299431E+04  0.7818609E-02  0.8478145E-01
        1   -1    0    0  501    0  0.00000000000E+00  0.00000000000E+00  0.19414727622E+04  0.19414727622E+04  0.50400001928E-02 0.  1.
       -1   -1    0    0    0  501  0.00000000000E+00  0.00000000000E+00 -0.68084691050E+03  0.68084691051E+03  0.50400001928E-02 0. -1.
    10030    2    1    2    0    0  0.00000000000E+00  0.00000000000E+00  0.12606258517E+04  0.26223196727E+04  0.22994310009E+04 0.  0.
        5    1    3    3  502    0 -0.34018799621E+03  0.10981330883E+04  0.64642032630E+03  0.13189031354E+04  0.46999998093E+01 0.  1.
       -5    1    3    3    0  502  0.34018799621E+03 -0.10981330883E+04  0.61420552537E+03  0.13034165373E+04  0.46999998093E+01 0. -1.
</event>
<event>
 5   0  0.7932912E-07  0.2300794E+04  0.7818609E-02  0.8477608E-01
        1   -1    0    0  501    0  0.00000000000E+00  0.00000000000E+00  0.22566892988E+04  0.22566892988E+04  0.50400001928E-02 0.  1.
       -1   -1    0    0    0  501  0.00000000000E+00  0.00000000000E+00 -0.58644032522E+03  0.58644032525E+03  0.50400001928E-02 0. -1.
    10030    2    1    2    0    0  0.00000000000E+00  0.00000000000E+00  0.16702489736E+04  0.28431296241E+04  0.23007943032E+04 0.  0.
        5    1    3    3  502    0 -0.22381998043E+03 -0.36995836166E+03 -0.48219048576E+03  0.64768381759E+03  0.46999998093E+01 0. -1.
       -5    1    3    3    0  502  0.22381998043E+03  0.36995836166E+03  0.21524394593E+04  0.21954458065E+04  0.46999998093E+01 0.  1.
</event>
<event>
 5   0  0.1828646E-06  0.2299655E+04  0.7818609E-02  0.8478057E-01
        2   -1    0    0  501    0  0.00000000000E+00  0.00000000000E+00  0.16254503912E+04  0.16254503912E+04  0.25500000920E-02 0.  1.
       -2   -1    0    0    0  501  0.00000000000E+00  0.00000000000E+00 -0.81337635218E+03  0.81337635219E+03  0.25500000920E-02 0. -1.
    10030    2    1    2    0    0  0.00000000000E+00  0.00000000000E+00  0.81207403898E+03  0.24388267434E+04  0.22996546783E+04 0.  0.
        3    1    3    3  502    0  0.33381691469E+03  0.48648131541E+03  0.14526808968E+04  0.15679220647E+04  0.10100000352E+00 0.  1.
       -3    1    3    3    0  502 -0.33381691469E+03 -0.48648131541E+03 -0.64060685785E+03  0.87090467865E+03  0.10100000352E+00 0. -1.
</event>
<event>
 5   0  0.1828646E-06  0.2300417E+04  0.7818609E-02  0.8477757E-01
        2   -1    0    0  501    0  0.00000000000E+00  0.00000000000E+00  0.15022832470E+04  0.15022832470E+04  0.25500000920E-02 0. -1.
       -2   -1    0    0    0  501  0.00000000000E+00  0.00000000000E+00 -0.88064562339E+03  0.88064562339E+03  0.25500000920E-02 0.  1.
    10030    2    1    2    0    0  0.00000000000E+00  0.00000000000E+00  0.62163762363E+03  0.23829288704E+04  0.23004166289E+04 0.  0.
        3    1    3    3  502    0 -0.28835103793E+03  0.35231332103E+03 -0.78333879812E+03  0.90603017615E+03  0.10100000352E+00 0.  1.
       -3    1    3    3    0  502  0.28835103793E+03 -0.35231332103E+03  0.14049764217E+04  0.14768986943E+04  0.10100000352E+00 0. -1.
</event>
<event>
 5   0  0.7932912E-07  0.2300646E+04  0.7818609E-02  0.8477666E-01
        1   -1    0    0  501    0  0.00000000000E+00  0.00000000000E+00  0.13526427420E+04  0.13526427420E+04  0.50400001928E-02 0. -1.
       -1   -1    0    0    0  501  0.00000000000E+00  0.00000000000E+00 -0.97826521370E+03  0.97826521371E+03  0.50400001928E-02 0.  1.
    10030    2    1    2    0    0  0.00000000000E+00  0.00000000000E+00  0.37437752832E+03  0.23309079557E+04  0.23006462928E+04 0.  0.
        5    1    3    3  502    0  0.90002292149E+03  0.63563297873E+03 -0.14753654317E+03  0.11116922526E+04  0.46999998093E+01 0.  1.
       -5    1    3    3    0  502 -0.90002292149E+03 -0.63563297873E+03  0.52191407149E+03  0.12192157032E+04  0.46999998093E+01 0. -1.
</event>
<event>
 5   0  0.1744876E-06  0.2296411E+04  0.7818609E-02  0.8479338E-01
        2   -1    0    0  501    0  0.00000000000E+00  0.00000000000E+00  0.16374670845E+04  0.16374670845E+04  0.25500000920E-02 0.  1.
       -2   -1    0    0    0  501  0.00000000000E+00  0.00000000000E+00 -0.80513094673E+03  0.80513094673E+03  0.25500000920E-02 0. -1.
    10030    2    1    2    0    0  0.00000000000E+00  0.00000000000E+00  0.83233613775E+03  0.24425980312E+04  0.22964106113E+04 0.  0.
        1    1    3    3  502    0  0.30005101094E+03  0.87528318315E+03  0.11393187183E+04  0.14677187748E+04  0.50400001928E-02 0.  1.
       -1    1    3    3    0  502 -0.30005101094E+03 -0.87528318315E+03 -0.30698258056E+03  0.97487925645E+03  0.50400001928E-02 0. -1.
</event>
<event>
 5   0  0.7607231E-07  0.2299206E+04  0.7818609E-02  0.8478234E-01
       -1   -1    0    0    0  501  0.00000000000E+00  0.00000000000E+00  0.14805476918E+04  0.14805476918E+04  0.50400001928E-02 0. -1.
        1   -1    0    0  501    0  0.00000000000E+00  0.00000000000E+00 -0.89263399198E+03  0.89263399200E+03  0.50400001928E-02 0.  1.
    10030    2    1    2    0    0  0.00000000000E+00  0.00000000000E+00  0.58791369982E+03  0.23731816838E+04  0.22992061208E+04 0.  0.
        2    1    3    3  502    0 -0.51365759606E+03  0.31473410431E+03  0.13045844706E+04  0.14369559225E+04  0.25500000920E-02 0. -1.
       -2    1    3    3    0  502  0.51365759606E+03 -0.31473410431E+03 -0.71667077077E+03  0.93622576128E+03  0.25500000920E-02 0.  1.
</event>
<event>
 5   0  0.1828646E-06  0.2293094E+04  0.7818609E-02  0.8480649E-01
       -2   -1    0    0    0  501  0.00000000000E+00  0.00000000000E+00  0.69337897725E+03  0.69337897725E+03  0.25500000920E-02 0. -1.
        2   -1    0    0  501    0  0.00000000000E+00  0.00000000000E+00 -0.18958904044E+04  0.18958904044E+04  0.25500000920E-02 0.  1.
    10030    2    1    2    0    0  0.00000000000E+00  0.00000000000E+00 -0.12025114271E+04  0.25892693817E+04  0.22930944591E+04 0.  0.
        3    1    3    3  502    0  0.10801402096E+04  0.37703317616E+03 -0.51590401840E+03  0.12549955596E+04  0.10100000352E+00 0. -1.
       -3    1    3    3    0  502 -0.10801402096E+04 -0.37703317616E+03 -0.68660740875E+03  0.13342738220E+04  0.10100000352E+00 0.  1.
</event>
<event>
 5   0  0.1888779E-06  0.2301005E+04  0.7818609E-02  0.8477525E-01
        2   -1    0    0  501    0  0.00000000000E+00  0.00000000000E+00  0.10598366929E+04  0.10598366929E+04  0.25500000920E-02 0. -1.
       -2   -1    0    0    0  501  0.00000000000E+00  0.00000000000E+00 -0.12489248725E+04  0.12489248725E+04  0.25500000920E-02 0.  1.
    10030    2    1    2    0    0  0.00000000000E+00  0.00000000000E+00 -0.18908817958E+03  0.23087615654E+04  0.23010053512E+04 0.  0.
        4    1    3    3  502    0  0.14500597778E+03  0.67671458988E+03  0.82762159054E+03  0.10788551709E+04  0.12699999809E+01 0. -1.
       -4    1    3    3    0  502 -0.14500597778E+03 -0.67671458988E+03 -0.10167097701E+04  0.12299063945E+04  0.12699999809E+01 0.  1.
</event>
<event>
 5   0  0.1825521E-06  0.2302446E+04  0.7818609E-02  0.8476957E-01
       -2   -1    0    0    0  501  0.00000000000E+00  0.00000000000E+00  0.49909664797E+03  0.49909664797E+03  0.25500000920E-02 0.  1.
        2   -1    0    0  501    0  0.00000000000E+00  0.00000000000E+00 -0.26554256959E+04  0.26554256960E+04  0.25500000920E-02 0. -1.
    10030    2    1    2    0    0  0.00000000000E+00  0.00000000000E+00 -0.21563290480E+04  0.31545223439E+04  0.23024457117E+04 0.  0.
        5    1    3    3  502    0  0.96578138685E+03 -0.60892405793E+03 -0.12803133445E+04  0.17154435420E+04  0.46999998093E+01 0. -1.
       -5    1    3    3    0  502 -0.96578138685E+03  0.60892405793E+03 -0.87601570344E+03  0.14390788019E+04  0.46999998093E+01 0.  1.
</event>
<event>
 5   0  0.7761069E-07  0.2298584E+04  0.7818609E-02  0.8478480E-01
       -1   -1    0    0    0  501  0.00000000000E+00  0.00000000000E+00  0.93653059275E+03  0.93653059276E+03  0.50400001928E-02 0. -1.
        1   -1    0    0  501    0  0.00000000000E+00  0.00000000000E+00 -0.14103889081E+04  0.14103889081E+04  0.50400001928E-02 0.  1.
    10030    2    1    2    0    0  0.00000000000E+00  0.00000000000E+00 -0.47385831533E+03  0.23469195009E+04  0.22985842252E+04 0.  0.
        1    1    3    3  502    0 -0.57299329752E+03 -0.94123189129E+03  0.96485541116E+02  0.11061411537E+04  0.50400001928E-02 0. -1.
       -1    1    3    3    0  502  0.57299329752E+03  0.94123189129E+03 -0.57034385645E+03  0.12407783472E+04  0.50400001928E-02 0.  1.
</event>
<event>
 5   0  0.8097672E-07  0.2304633E+04  0.7818609E-02  0.8476097E-01
       -1   -1    0    0    0  501  0.00000000000E+00  0.00000000000E+00  0.66896739791E+03  0.66896739793E+03  0.50400001928E-02 0.  1.
        1   -1    0    0  501    0  0.00000000000E+00  0.00000000000E+00 -0.19848994333E+04  0.19848994333E+04  0.50400001928E-02 0. -1.
    10030    2    1    2    0    0  0.00000000000E+00  0.00000000000E+00 -0.13159320354E+04  0.26538668312E+04  0.23046327334E+04 0.  0.
        3    1    3    3  502    0  0.19315001973E+03  0.31860742394E+03 -0.19136233480E+04  0.19495568596E+04  0.10100000352E+00 0. -1.
       -3    1    3    3    0  502 -0.19315001973E+03 -0.31860742394E+03  0.59769131262E+03  0.70430997160E+03  0.10100000352E+00 0.  1.
</event>
<event>
 5   0  0.8108242E-07  0.2302973E+04  0.7818609E-02  0.8476750E-01
        1   -1    0    0  501    0  0.00000000000E+00  0.00000000000E+00  0.80743523412E+03  0.80743523414E+03  0.50400001928E-02 0. -1.
       -1   -1    0    0    0  501  0.00000000000E+00  0.00000000000E+00 -0.16421400291E+04  0.16421400291E+04  0.50400001928E-02 0.  1.
    10030    2    1    2    0    0  0.00000000000E+00  0.00000000000E+00 -0.83470479493E+03  0.24495752632E+04  0.23029734856E+04 0.  0.
        4    1    3    3  502    0 -0.18534446670E+01  0.99526159037E+03 -0.10333295827E+04  0.14346848811E+04  0.12699999809E+01 0.  1.
       -4    1    3    3    0  502  0.18534446670E+01 -0.99526159037E+03  0.19862478779E+03  0.10148903821E+04  0.12699999809E+01 0. -1.
</event>
<event>
 5   0  0.7932912E-07  0.2301325E+04  0.7818609E-02  0.8477399E-01
       -1   -1    0    0    0  501  0.00000000000E+00  0.00000000000E+00  0.13818118052E+04  0.13818118052E+04  0.50400001928E-02 0.  1.
        1   -1    0    0  501    0  0.00000000000E+00  0.00000000000E+00 -0.95818000083E+03  0.95818000084E+03  0.50400001928E-02 0. -1.
    10030    2    1    2    0    0  0.00000000000E+00  0.00000000000E+00  0.42363180438E+03  0.23399918061E+04  0.23013252153E+04 0.  0.
        5    1    3    3  502    0  0.35098187804E+03  0.70209723308E+03 -0.64367260812E+03  0.10151183773E+04  0.46999998093E+01 0. -1.
       -5    1    3    3    0  502 -0.35098187804E+03 -0.70209723308E+03  0.10673044125E+04  0.13248734288E+04  0.46999998093E+01 0.  1.
</event>
<event>
 5   0  0.1828646E-06  0.2300530E+04  0.7818609E-02  0.8477712E-01
        2   -1    0    0  501    0  0.00000000000E+00  0.00000000000E+00  0.14029613242E+04  0.14029613242E+04  0.25500000920E-02 0.  1.
       -2   -1    0    0    0  501  0.00000000000E+00  0.00000000000E+00 -0.94308308427E+03  0.94308308427E+03  0.25500000920E-02 0. -1.
    10030    2    1    2    0    0  0.00000000000E+00  0.00000000000E+00  0.45987823990E+03  0.23460444084E+04  0.23005295849E+04 0.  0.
        3    1    3    3  502    0 -0.59101757672E+03  0.88854606480E+03 -0.20784807875E+03  0.10872059231E+04  0.10100000352E+00 0.  1.
       -3    1    3    3    0  502  0.59101757672E+03 -0.88854606480E+03  0.66772631865E+03  0.12588384853E+04  0.10100000352E+00 0. -1.
</event>
<event>
 5   0  0.7607231E-07  0.2294868E+04  0.7818609E-02  0.8479947E-01
       -1   -1    0    0    0  501  0.00000000000E+00  0.00000000000E+00  0.13821274661E+04  0.13821274661E+04  0.50400001928E-02 0.  1.
        1   -1    0    0  501    0  0.00000000000E+00  0.00000000000E+00 -0.95259292139E+03  0.95259292140E+03  0.50400001928E-02 0. -1.
    10030    2    1    2    0    0  0.00000000000E+00  0.00000000000E+00  0.42953454467E+03  0.23347203875E+04  0.22948680491E+04 0.  0.
        2    1    3    3  502    0 -0.87281225015E+03  0.42670218969E+03  0.83588462923E+03  0.12816314197E+04  0.25500000920E-02 0.  1.
       -2    1    3    3    0  502  0.87281225015E+03 -0.42670218969E+03 -0.40635008457E+03  0.10530889677E+04  0.25500000920E-02 0. -1.
</event>
<event>
 5   0  0.8108242E-07  0.2298010E+04  0.7818609E-02  0.8478706E-01
        1   -1    0    0  501    0  0.00000000000E+00  0.00000000000E+00  0.16196876392E+04  0.16196876392E+04  0.50400001928E-02 0. -1.
       -1   -1    0    0    0  501  0.00000000000E+00  0.00000000000E+00 -0.81510291623E+03  0.81510291624E+03  0.50400001928E-02 0.  1.
    10030    2    1    2    0    0  0.00000000000E+00  0.00000000000E+00  0.80458472293E+03  0.24347905554E+04  0.22980096763E+04 0.  0.
        4    1    3    3  502    0  0.10117812149E+04 -0.51079883193E+03  0.20239957304E+03  0.11513400339E+04  0.12699999809E+01 0. -1.
       -4    1    3    3    0  502 -0.10117812149E+04  0.51079883193E+03  0.60218514989E+03  0.12834505215E+04  0.12699999809E+01 0.  1.
</event>
<event>
 5   0  0.8097672E-07  0.2300384E+04  0.7818609E-02  0.8477770E-01
        1   -1    0    0  501    0  0.00000000000E+00  0.00000000000E+00  0.11654126147E+04  0.11654126147E+04  0.50400001928E-02 0. -1.
       -1   -1    0    0    0  501  0.00000000000E+00  0.00000000000E+00 -0.11351700832E+04  0.11351700832E+04  0.50400001928E-02 0.  1.
    10030    2    1    2    0    0  0.00000000000E+00  0.00000000000E+00  0.30242531474E+02  0.23005826979E+04  0.23003839113E+04 0.  0.
        3    1    3    3  502    0 -0.38744127881E+03  0.76712479693E+03  0.77961542735E+03  0.11603410806E+04  0.10100000352E+00 0. -1.
       -3    1    3    3    0  502  0.38744127881E+03 -0.76712479693E+03 -0.74937289587E+03  0.11402416173E+04  0.10100000352E+00 0.  1.
</event>
<event>
 5   0  0.8108242E-07  0.2299837E+04  0.7818609E-02  0.8477985E-01
        1   -1    0    0  501    0  0.00000000000E+00  0.00000000000E+00  0.15085826114E+04  0.15085826115E+04  0.50400001928E-02 0.  1.
       -1   -1    0    0    0  501  0.00000000000E+00  0.00000000000E+00 -0.87652672679E+03  0.87652672680E+03  0.50400001928E-02 0. -1.
    10030    2    1    2    0    0  0.00000000000E+00  0.00000000000E+00  0.63205588466E+03  0.23851093383E+04  0.22998373669E+04 0.  0.
        4    1    3    3  502    0 -0.69316581027E+03 -0.69493747910E+03 -0.30526228595E+03  0.10279122611E+04  0.12699999809E+01 0. -1.
       -4    1    3    3    0  502  0.69316581027E+03  0.69493747910E+03  0.93731817061E+03  0.13571970772E+04  0.12699999809E+01 0.  1.
</event>
<event>
 5   0  0.1689444E-06  0.2299540E+04  0.7818609E-02  0.8478102E-01
        2   -1    0    0  501    0  0.00000000000E+00  0.00000000000E+00  0.14141416617E+04  0.14141416617E+04  0.25500000920E-02 0. -1.
       -2   -1    0    0    0  501  0.00000000000E+00  0.00000000000E+00 -0.93482236124E+03  0.93482236125E+03  0.25500000920E-02 0.  1.
    10030    2    1    2    0    0  0.00000000000E+00  0.00000000000E+00  0.47931930047E+03  0.23489640230E+04  0.22995401691E+04 0.  0.
        2    1    3    3  502    0 -0.15781128735E+03  0.11379722101E+04  0.19300421048E+03  0.11649617070E+04  0.25500000920E-02 0.  1.
       -2    1    3    3    0  502  0.15781128735E+03 -0.11379722101E+04  0.28631508999E+03  0.11840023160E+04  0.25500000920E-02 0. -1.
</event>
<event>
 5   0  0.1825521E-06  0.2298180E+04  0.7818609E-02  0.8478639E-01
       -2   -1    0    0    0  501  0.00000000000E+00  0.00000000000E+00  0.62533549680E+03  0.62533549680E+03  0.25500000920E-02 0.  1.
        2   -1    0    0  501    0  0.00000000000E+00  0.00000000000E+00 -0.21115190188E+04  0.21115190188E+04  0.25500000920E-02 0. -1.
    10030    2    1    2    0    0  0.00000000000E+00  0.00000000000E+00 -0.14861835220E+04  0.27368545156E+04  0.22981799709E+04 0.  0.
        5    1    3    3  502    0 -0.89498057676E+03  0.33291675740E+03  0.18104438536E+02  0.95507782972E+03  0.46999998093E+01 0.  1.
       -5    1    3    3    0  502  0.89498057676E+03 -0.33291675740E+03 -0.15042879606E+04  0.17817766859E+04  0.46999998093E+01 0. -1.
</event>
<event>
 5   0  0.1828646E-06  0.2299606E+04  0.7818609E-02  0.8478077E-01
        2   -1    0    0  501    0  0.00000000000E+00  0.00000000000E+00  0.15893949087E+04  0.15893949087E+04  0.25500000920E-02 0. -1.
       -2   -1    0    0    0  501  0.00000000000E+00  0.00000000000E+00 -0.83179245354E+03  0.83179245354E+03  0.25500000920E-02 0.  1.
    10030    2    1    2    0    0  0.00000000000E+00  0.00000000000E+00  0.75760245514E+03  0.24211873622E+04  0.22996057842E+04 0.  0.
        3    1    3    3  502    0 -0.12689287075E+03  0.11411202524E+04  0.44361436821E+03  0.12308740589E+04  0.10100000352E+00 0. -1.
       -3    1    3    3    0  502  0.12689287075E+03 -0.11411202524E+04  0.31398808693E+03  0.11903133033E+04  0.10100000352E+00 0.  1.
</event>
<event>
 5   0  0.1825521E-06  0.2300607E+04  0.7818609E-02  0.8477682E-01
       -2   -1    0    0    0  501  0.00000000000E+00  0.00000000000E+00  0.59714040805E+03  0.59714040806E+03  0.25500000920E-02 0.  1.
        2   -1    0    0  501    0  0.00000000000E+00  0.00000000000E+00 -0.22158920559E+04  0.22158920559E+04  0.25500000920E-02 0. -1.
    10030    2    1    2    0    0  0.00000000000E+00  0.00000000000E+00 -0.16187516478E+04  0.28130324639E+04  0.23006074732E+04 0.  0.
        5    1    3    3  502    0 -0.34451141767E+03  0.74466460800E+03 -0.17951480300E+04  0.19737760853E+04  0.46999998093E+01 0. -1.
       -5    1    3    3    0  502  0.34451141767E+03 -0.74466460800E+03  0.17639638224E+03  0.83925637857E+03  0.46999998093E+01 0.  1.
</event>
<event>
 5   0  0.8108242E-07  0.2299726E+04  0.7818609E-02  0.8478029E-01
        1   -1    0    0  501    0  0.00000000000E+00  0.00000000000E+00  0.88891524195E+03  0.88891524197E+03  0.50400001928E-02 0.  1.
       -1   -1    0    0    0  501  0.00000000000E+00  0.00000000000E+00 -0.14874140791E+04  0.14874140791E+04  0.50400001928E-02 0. -1.
    10030    2    1    2    0    0  0.00000000000E+00  0.00000000000E+00 -0.59849883712E+03  0.23763293211E+04  0.22997261107E+04 0.  0.
        4    1    3    3  502    0  0.37907199577E+03  0.10318902955E+04 -0.64766066542E+03  0.12759150090E+04  0.12699999809E+01 0. -1.
       -4    1    3    3    0  502 -0.37907199577E+03 -0.10318902955E+04  0.49161828295E+02  0.11004143120E+04  0.12699999809E+01 0.  1.
</event>
<event>
 5   0  0.8097672E-07  0.2300534E+04  0.7818609E-02  0.8477711E-01
        1   -1    0    0  501    0  0.00000000000E+00  0.00000000000E+00  0.10938079189E+04  0.10938079189E+04  0.50400001928E-02 0. -1.
       -1   -1    0    0    0  501  0.00000000000E+00  0.00000000000E+00 -0.12096400022E+04  0.12096400022E+04  0.50400001928E-02 0.  1.
    10030    2    1    2    0    0  0.00000000000E+00  0.00000000000E+00 -0.11583208337E+03  0.23034479211E+04  0.23005336889E+04 0.  0.
        3    1    3    3  502    0  0.58316442001E+03 -0.57438868942E+03 -0.86709242395E+03  0.11924145207E+04  0.10100000352E+00 0.  1.
       -3    1    3    3    0  502 -0.58316442001E+03  0.57438868942E+03  0.75126034058E+03  0.11110334004E+04  0.10100000352E+00 0. -1.
</event>
<event>
 5   0  0.8097672E-07  0.2295375E+04  0.7818609E-02  0.8479747E-01
       -1   -1    0    0    0  501  0.00000000000E+00  0.00000000000E+00  0.55887844307E+03  0.55887844309E+03  0.50400001928E-02 0.  1.
        1   -1    0    0  501    0  0.00000000000E+00  0.00000000000E+00 -0.23568393690E+04  0.23568393690E+04  0.50400001928E-02 0. -1.
    10030    2    1    2    0    0  0.00000000000E+00  0.00000000000E+00 -0.17979609260E+04  0.29157178121E+04  0.22953751041E+04 0.  0.
        3    1    3    3  502    0 -0.87114794687E+03 -0.30418955265E+03 -0.17658851842E+04  0.19924308076E+04  0.10100000352E+00 0. -1.
       -3    1    3    3    0  502  0.87114794687E+03  0.30418955265E+03 -0.32075741789E+02  0.92328700450E+03  0.10100000352E+00 0.  1.
</event>
<event>
 5   0  0.7932912E-07  0.2299054E+04  0.7818609E-02  0.8478294E-01
       -1   -1    0    0    0  501  0.00000000000E+00  0.00000000000E+00  0.13387191089E+04  0.13387191089E+04  0.50400001928E-02 0.  1.
        1   -1    0    0  501    0  0.00000000000E+00  0.00000000000E+00 -0.98707195129E+03  0.98707195130E+03  0.50400001928E-02 0. -1.
    10030    2    1    2    0    0  0.00000000000E+00  0.00000000000E+00  0.35164715763E+03  0.23257910602E+04  0.22990537907E+04 0.  0.
        5    1    3    3  502    0  0.68181046875E+03  0.71802742003E+03  0.76653311539E+03  0.12522076498E+04  0.46999998093E+01 0.  1.
       -5    1    3    3    0  502 -0.68181046875E+03 -0.71802742003E+03 -0.41488595777E+03  0.10735834104E+04  0.46999998093E+01 0. -1.
</event>
<event>
 5   0  0.1689444E-06  0.2300283E+04  0.7818609E-02  0.8477809E-01
        2   -1    0    0  501    0  0.00000000000E+00  0.00000000000E+00  0.23010674451E+04  0.23010674451E+04  0.25500000920E-02 0.  1.
       -2   -1    0    0    0  501  0.00000000000E+00  0.00000000000E+00 -0.57487481679E+03  0.57487481680E+03  0.25500000920E-02 0. -1.
    10030    2    1    2    0    0  0.00000000000E+00  0.00000000000E+00  0.17261926283E+04  0.28759422619E+04  0.23002832225E+04 0.  0.
        2    1    3    3  502    0 -0.64310744823E+03 -0.89778559324E+03  0.46141663430E+03  0.11968757128E+04  0.25500000920E-02 0. -1.
       -2    1    3    3    0  502  0.64310744823E+03  0.89778559324E+03  0.12647759940E+04  0.16790665491E+04  0.25500000920E-02 0.  1.
</event>
<event>
 5   0  0.1828646E-06  0.2294706E+04  0.7818609E-02  0.8480011E-01
       -2   -1    0    0    0  501  0.00000000000E+00  0.00000000000E+00  0.71382031475E+03  0.71382031475E+03  0.25500000920E-02 0.  1.
        2   -1    0    0  501    0  0.00000000000E+00  0.00000000000E+00 -0.18441881819E+04  0.18441881819E+04  0.25500000920E-02 0. -1.
    10030    2    1    2    0    0  0.00000000000E+00  0.00000000000E+00 -0.11303678672E+04  0.25580084967E+04  0.22947060714E+04 0.  0.
        3    1    3    3  502    0  0.93430908612E+03  0.41993512217E+03  0.10977760911E+02  0.10244020191E+04  0.10100000352E+00 0.  1.
       -3    1    3    3    0  502 -0.93430908612E+03 -0.41993512217E+03 -0.11413456281E+04  0.15336064776E+04  0.10100000352E+00 0. -1.
</event>
<event>
 5   0  0.1828646E-06  0.2299818E+04  0.7818609E-02  0.8477993E-01
       -2   -1    0    0    0  501  0.00000000000E+00  0.00000000000E+00  0.11785157643E+04  0.11785157643E+04  0.25500000920E-02 0. -1.
        2   -1    0    0  501    0  0.00000000000E+00  0.00000000000E+00 -0.11219966983E+04  0.11219966983E+04  0.25500000920E-02 0.  1.
    10030    2    1    2    0    0  0.00000000000E+00  0.00000000000E+00  0.56519065997E+02  0.23005124626E+04  0.22998180767E+04 0.  0.
        3    1    3    3  502    0 -0.20596714207E+03 -0.79621890230E+03  0.83218358267E+03  0.11700070638E+04  0.10100000352E+00 0. -1.
       -3    1    3    3    0  502  0.20596714207E+03  0.79621890230E+03 -0.77566451667E+03  0.11305053988E+04  0.10100000352E+00 0.  1.
</event>
<event>
 5   0  0.7607231E-07  0.2298727E+04  0.7818609E-02  0.8478423E-01
        1   -1    0    0  501    0  0.00000000000E+00  0.00000000000E+00  0.23287300714E+04  0.23287300714E+04  0.50400001928E-02 0.  1.
       -1   -1    0    0    0  501  0.00000000000E+00  0.00000000000E+00 -0.56727769057E+03  0.56727769059E+03  0.50400001928E-02 0. -1.
    10030    2    1    2    0    0  0.00000000000E+00  0.00000000000E+00  0.17614523808E+04  0.28960077620E+04  0.22987271407E+04 0.  0.
        2    1    3    3  502    0 -0.82129247111E+03  0.56541233083E+03  0.16009531846E+04  0.18860709229E+04  0.25500000920E-02 0.  1.
       -2    1    3    3    0  502  0.82129247111E+03 -0.56541233083E+03  0.16049919623E+03  0.10099368391E+04  0.25500000920E-02 0. -1.
</event>
<event>
 5   0  0.1888779E-06  0.2299394E+04  0.7818609E-02  0.8478160E-01
       -2   -1    0    0    0  501  0.00000000000E+00  0.00000000000E+00  0.96694226194E+03  0.96694226195E+03  0.25500000920E-02 0. -1.
        2   -1    0    0  501    0  0.00000000000E+00  0.00000000000E+00 -0.13669925215E+04  0.13669925215E+04  0.25500000920E-02 0.  1.
    10030    2    1    2    0    0  0.00000000000E+00  0.00000000000E+00 -0.40005025959E+03  0.23339347835E+04  0.22993936947E+04 0.  0.
        4    1    3    3  502    0 -0.81030529907E+03  0.12563553343E+03 -0.10179981264E+04  0.13071728130E+04  0.12699999809E+01 0.  1.
       -4    1    3    3    0  502  0.81030529907E+03 -0.12563553343E+03  0.61794786678E+03  0.10267619704E+04  0.12699999809E+01 0. -1.
</event>
<event>
 5   0  0.1744876E-06  0.2299889E+04  0.7818609E-02  0.8477965E-01
        2   -1    0    0  501    0  0.00000000000E+00  0.00000000000E+00  0.21724378521E+04  0.21724378521E+04  0.25500000920E-02 0. -1.
       -2   -1    0    0    0  501  0.00000000000E+00  0.00000000000E+00 -0.60870443439E+03  0.60870443440E+03  0.25500000920E-02 0.  1.
    10030    2    1    2    0    0  0.00000000000E+00  0.00000000000E+00  0.15637334177E+04  0.27811422865E+04  0.22998891747E+04 0.  0.
        1    1    3    3  502    0 -0.15467776858E+03 -0.12399887507E+03 -0.58788467863E+03  0.62041061282E+03  0.50400001928E-02 0.  1.
       -1    1    3    3    0  502  0.15467776858E+03  0.12399887507E+03  0.21516180963E+04  0.21607316737E+04  0.50400001928E-02 0. -1.
</event>
<event>
 5   0  0.1828646E-06  0.2296207E+04  0.7818609E-02  0.8479418E-01
       -2   -1    0    0    0  501  0.00000000000E+00  0.00000000000E+00  0.88695551570E+03  0.88695551571E+03  0.25500000920E-02 0. -1.
        2   -1    0    0  501    0  0.00000000000E+00  0.00000000000E+00 -0.14861411683E+04  0.14861411683E+04  0.25500000920E-02 0.  1.
    10030    2    1    2    0    0  0.00000000000E+00  0.00000000000E+00 -0.59918565264E+03  0.23730966841E+04  0.22962065294E+04 0.  0.
        3    1    3    3  502    0  0.85701743022E+03 -0.73267700781E+03 -0.52328131146E+03  0.12430276805E+04  0.10100000352E+00 0.  1.
       -3    1    3    3    0  502 -0.85701743022E+03  0.73267700781E+03 -0.75904341178E+02  0.11300690035E+04  0.10100000352E+00 0. -1.
</event>
<event>
 5   0  0.1828646E-06  0.2300111E+04  0.7818609E-02  0.8477877E-01
        2   -1    0    0  501    0  0.00000000000E+00  0.00000000000E+00  0.18462362739E+04  0.18462362739E+04  0.25500000920E-02 0. -1.
       -2   -1    0    0    0  501  0.00000000000E+00  0.00000000000E+00 -0.71639157806E+03  0.71639157806E+03  0.25500000920E-02 0.  1.
    10030    2    1    2    0    0  0.00000000000E+00  0.00000000000E+00  0.11298446959E+04  0.25626278520E+04  0.23001114040E+04 0.  0.
        3    1    3    3  502    0 -0.39793501612E+03  0.98278083434E+03  0.68642277867E+02  0.10625075143E+04  0.10100000352E+00 0.  1.
       -3    1    3    3    0  502  0.39793501612E+03 -0.98278083434E+03  0.10612024180E+04  0.15001203377E+04  0.10100000352E+00 0. -1.
</event>
<event>
 5   0  0.1825521E-06  0.2300367E+04  0.7818609E-02  0.8477776E-01
        2   -1    0    0  501    0  0.00000000000E+00  0.00000000000E+00  0.96429114641E+03  0.96429114641E+03  0.25500000920E-02 0.  1.
       -2   -1    0    0    0  501  0.00000000000E+00  0.00000000000E+00 -0.13719117926E+04  0.13719117926E+04  0.25500000920E-02 0. -1.
    10030    2    1    2    0    0  0.00000000000E+00  0.00000000000E+00 -0.40762064623E+03  0.23362029390E+04  0.23003672709E+04 0.  0.
        5    1    3    3  502    0  0.94718773625E+03  0.17429014049E+03  0.43476040328E+03  0.10566836608E+04  0.46999998093E+01 0.  1.
       -5    1    3    3    0  502 -0.94718773625E+03 -0.17429014049E+03 -0.84238104951E+03  0.12795192782E+04  0.46999998093E+01 0. -1.
</event>
<event>
 5   0  0.8097672E-07  0.2300177E+04  0.7818609E-02  0.8477851E-01
       -1   -1    0    0    0  501  0.00000000000E+00  0.00000000000E+00  0.89846486569E+03  0.89846486570E+03  0.50400001928E-02 0. -1.
        1   -1    0    0  501    0  0.00000000000E+00  0.00000000000E+00 -0.14721822196E+04  0.14721822196E+04  0.50400001928E-02 0.  1.
    10030    2    1    2    0    0  0.00000000000E+00  0.00000000000E+00 -0.57371735395E+03  0.23706470853E+04  0.23001773847E+04 0.  0.
        3    1    3    3  502    0  0.68118706722E+02 -0.49666645937E+03 -0.13536478838E+04  0.14434958724E+04  0.10100000352E+00 0.  1.
       -3    1    3    3    0  502 -0.68118706722E+02  0.49666645937E+03  0.77993052986E+03  0.92715121295E+03  0.10100000352E+00 0. -1.
</event>
<event>
 5   0  0.7607231E-07  0.2303021E+04  0.7818609E-02  0.8476731E-01
       -1   -1    0    0    0  501  0.00000000000E+00  0.00000000000E+00  0.12008913402E+04  0.12008913402E+04  0.50400001928E-02 0.  1.
        1   -1    0    0  501    0  0.00000000000E+00  0.00000000000E+00 -0.11041599409E+04  0.11041599410E+04  0.50400001928E-02 0. -1.
    10030    2    1    2    0    0  0.00000000000E+00  0.00000000000E+00  0.96731399211E+02  0.23050512811E+04  0.23030207218E+04 0.  0.
        2    1    3    3  502    0 -0.36316081290E+03  0.63951240169E+03  0.93521365416E+03  0.11897421850E+04  0.25500000920E-02 0.  1.
       -2    1    3    3    0  502  0.36316081290E+03 -0.63951240169E+03 -0.83848225495E+03  0.11153090961E+04  0.25500000920E-02 0. -1.
</event>
<event>
 5   0  0.8108242E-07  0.2300269E+04  0.7818609E-02  0.8477815E-01
       -1   -1    0    0    0  501  0.00000000000E+00  0.00000000000E+00  0.12973425567E+04  0.12973425567E+04  0.50400001928E-02 0. -1.
        1   -1    0    0  501    0  0.00000000000E+00  0.00000000000E+00 -0.10196300374E+04  0.10196300374E+04  0.50400001928E-02 0.  1.
    10030    2    1    2    0    0  0.00000000000E+00  0.00000000000E+00  0.27771251930E+03  0.23169725941E+04  0.23002690622E+04 0.  0.
        4    1    3    3  502    0  0.70894722220E+03 -0.78966561314E+03  0.58550593027E+03  0.12120217621E+04  0.12699999809E+01 0.  1.
       -4    1    3    3    0  502 -0.70894722220E+03  0.78966561314E+03 -0.30779341097E+03  0.11049508320E+04  0.12699999809E+01 0. -1.
</event>
<event>
 5   0  0.1828646E-06  0.2300499E+04  0.7818609E-02  0.8477724E-01
        2   -1    0    0  501    0  0.00000000000E+00  0.00000000000E+00  0.10911599445E+04  0.10911599445E+04  0.25500000920E-02 0.  1.
       -2   -1    0    0    0  501  0.00000000000E+00  0.00000000000E+00 -0.12125387470E+04  0.12125387470E+04  0.25500000920E-02 0. -1.
    10030    2    1    2    0    0  0.00000000000E+00  0.00000000000E+00 -0.12137880248E+03  0.23036986915E+04  0.23004988258E+04 0.  0.
        3    1    3    3  502    0 -0.86390970681E+03 -0.57670568995E+03  0.43410744780E+03  0.11257791616E+04  0.10100000352E+00 0.  1.
       -3    1    3    3    0  502  0.86390970681E+03  0.57670568995E+03 -0.55548625028E+03  0.11779195298E+04  0.10100000352E+00 0. -1.
</event>
<event>
 5   0  0.1828646E-06  0.2298703E+04  0.7818609E-02  0.8478432E-01
        2   -1    0    0  501    0  0.00000000000E+00  0.00000000000E+00  0.14489769521E+04  0.14489769521E+04  0.25500000920E-02 0. -1.
       -2   -1    0    0    0  501  0.00000000000E+00  0.00000000000E+00 -0.91168421763E+03  0.91168421763E+03  0.25500000920E-02 0.  1.
    10030    2    1    2    0    0  0.00000000000E+00  0.00000000000E+00  0.53729273448E+03  0.23606611697E+04  0.22987034771E+04 0.  0.
        3    1    3    3  502    0  0.96617979148E+03  0.53513343629E+03 -0.57947756637E+02  0.11059968973E+04  0.10100000352E+00 0. -1.
       -3    1    3    3    0  502 -0.96617979148E+03 -0.53513343629E+03  0.59524049112E+03  0.12546642725E+04  0.10100000352E+00 0.  1.
</event>
<event>
 5   0  0.1744876E-06  0.2299811E+04  0.7818609E-02  0.8477996E-01
       -2   -1    0    0    0  501  0.00000000000E+00  0.00000000000E+00  0.65187887657E+03  0.65187887657E+03  0.25500000920E-02 0. -1.
        2   -1    0    0  501    0  0.00000000000E+00  0.00000000000E+00 -0.20284178823E+04  0.20284178823E+04  0.25500000920E-02 0.  1.
    10030    2    1    2    0    0  0.00000000000E+00  0.00000000000E+00 -0.13765390058E+04  0.26802967589E+04  0.22998110969E+04 0.  0.
        1    1    3    3  502    0  0.53785809475E+03 -0.97899451805E+03 -0.37003513154E+03  0.11767104976E+04  0.50400001928E-02 0. -1.
       -1    1    3    3    0  502 -0.53785809475E+03  0.97899451805E+03 -0.10065038742E+04  0.15035862614E+04  0.50400001928E-02 0.  1.
</event>
<event>
 5   0  0.7761069E-07  0.2301744E+04  0.7818609E-02  0.8477234E-01
       -1   -1    0    0    0  501  0.00000000000E+00  0.00000000000E+00  0.85866548074E+03  0.85866548075E+03  0.50400001928E-02 0.  1.
        1   -1    0    0  501    0  0.00000000000E+00  0.00000000000E+00 -0.15425179302E+04  0.15425179302E+04  0.50400001928E-02 0. -1.
    10030    2    1    2    0    0  0.00000000000E+00  0.00000000000E+00 -0.68385244946E+03  0.24011834110E+04  0.23017444690E+04 0.  0.
        1    1    3    3  502    0 -0.31055513643E+03 -0.65332371431E+03  0.59185894262E+03  0.93465147324E+03  0.50400001928E-02 0.  1.
       -1    1    3    3    0  502  0.31055513643E+03  0.65332371431E+03 -0.12757113921E+04  0.14665319377E+04  0.50400001928E-02 0. -1.
</event>
<event>
 5   0  0.1689444E-06  0.2299655E+04  0.7818609E-02  0.8478057E-01
        2   -1    0    0  501    0  0.00000000000E+00  0.00000000000E+00  0.10181780216E+04  0.10181780216E+04  0.25500000920E-02 0.  1.
       -2   -1    0    0    0  501  0.00000000000E+00  0.00000000000E+00 -0.12984992987E+04  0.12984992987E+04  0.25500000920E-02 0. -1.
    10030    2    1    2    0    0  0.00000000000E+00  0.00000000000E+00 -0.28032127708E+03  0.23166773202E+04  0.22996551454E+04 0.  0.
        2    1    3    3  502    0 -0.34284288936E+03  0.10617801961E+04 -0.42003900471E+03  0.11922043437E+04  0.25500000920E-02 0. -1.
       -2    1    3    3    0  502  0.34284288936E+03 -0.10617801961E+04  0.13971772763E+03  0.11244729766E+04  0.25500000920E-02 0.  1.
</event>
<event>
 5   0  0.1828646E-06  0.2297366E+04  0.7818609E-02  0.8478961E-01
       -2   -1    0    0    0  501  0.00000000000E+00  0.00000000000E+00  0.11314998565E+04  0.11314998565E+04  0.25500000920E-02 0.  1.
        2   -1    0    0  501    0  0.00000000000E+00  0.00000000000E+00 -0.11661266860E+04  0.11661266860E+04  0.25500000920E-02 0. -1.
    10030    2    1    2    0    0  0.00000000000E+00  0.00000000000E+00 -0.34626829505E+02  0.22976265425E+04  0.22973656025E+04 0.  0.
        3    1    3    3  502    0 -0.37726273291E+03 -0.65241312242E+03 -0.88430409527E+03  0.11618794236E+04  0.10100000352E+00 0. -1.
       -3    1    3    3    0  502  0.37726273291E+03  0.65241312242E+03  0.84967726576E+03  0.11357471189E+04  0.10100000352E+00 0.  1.
</event>
<event>
 5   0  0.7761069E-07  0.2300247E+04  0.7818609E-02  0.8477824E-01
       -1   -1    0    0    0  501  0.00000000000E+00  0.00000000000E+00  0.78675969032E+03  0.78675969034E+03  0.50400001928E-02 0. -1.
        1   -1    0    0  501    0  0.00000000000E+00  0.00000000000E+00 -0.16813064947E+04  0.16813064947E+04  0.50400001928E-02 0.  1.
    10030    2    1    2    0    0  0.00000000000E+00  0.00000000000E+00 -0.89454680440E+03  0.24680661851E+04  0.23002470973E+04 0.  0.
        1    1    3    3  502    0  0.29356099076E+03 -0.17191634138E+03  0.73154009930E+03  0.80677394643E+03  0.50400001928E-02 0. -1.
       -1    1    3    3    0  502 -0.29356099076E+03  0.17191634138E+03 -0.16260869037E+04  0.16612922386E+04  0.50400001928E-02 0.  1.
</event>
<event>
 5   0  0.1888779E-06  0.2291970E+04  0.7818609E-02  0.8481094E-01
        2   -1    0    0  501    0  0.00000000000E+00  0.00000000000E+00  0.12528566794E+04  0.12528566794E+04  0.25500000920E-02 0.  1.
       -2   -1    0    0    0  501  0.00000000000E+00  0.00000000000E+00 -0.10482295288E+04  0.10482295288E+04  0.25500000920E-02 0. -1.
    10030    2    1    2    0    0  0.00000000000E+00  0.00000000000E+00  0.20462715057E+03  0.23010862082E+04  0.22919697788E+04 0.  0.
        4    1    3    3  502    0 -0.61502333045E+03  0.95484870697E+03 -0.50904069043E+02  0.11369180214E+04  0.12699999809E+01 0. -1.
       -4    1    3    3    0  502  0.61502333045E+03 -0.95484870697E+03  0.25553121961E+03  0.11641681869E+04  0.12699999809E+01 0.  1.
</event>
<event>
 5   0  0.7932912E-07  0.2300657E+04  0.7818609E-02  0.8477662E-01
        1   -1    0    0  501    0  0.00000000000E+00  0.00000000000E+00  0.17346497030E+04  0.17346497030E+04  0.50400001928E-02 0.  1.
       -1   -1    0    0    0  501  0.00000000000E+00  0.00000000000E+00 -0.76283713613E+03  0.76283713615E+03  0.50400001928E-02 0. -1.
    10030    2    1    2    0    0  0.00000000000E+00  0.00000000000E+00  0.97181256682E+03  0.24974868391E+04  0.23006566120E+04 0.  0.
        5    1    3    3  502    0  0.10243133588E+04  0.31912493055E+03  0.35467397202E+02  0.10734703557E+04  0.46999998093E+01 0. -1.
       -5    1    3    3    0  502 -0.10243133588E+04 -0.31912493055E+03  0.93634516961E+03  0.14240164834E+04  0.46999998093E+01 0.  1.
</event>
<event>
 5   0  0.1825521E-06  0.2299665E+04  0.7818609E-02  0.8478053E-01
       -2   -1    0    0    0  501  0.00000000000E+00  0.00000000000E+00  0.64807432315E+03  0.64807432315E+03  0.25500000920E-02 0. -1.
        2   -1    0    0  501    0  0.00000000000E+00  0.00000000000E+00 -0.20400658662E+04  0.20400658662E+04  0.25500000920E-02 0.  1.
    10030    2    1    2    0    0  0.00000000000E+00  0.00000000000E+00 -0.13919915430E+04  0.26881401893E+04  0.22996645889E+04 0.  0.
        5    1    3    3  502    0  0.98160222782E+03 -0.43000939957E+03 -0.11830909187E+04  0.15963011086E+04  0.46999998093E+01 0.  1.
       -5    1    3    3    0  502 -0.98160222782E+03  0.43000939957E+03 -0.20890062434E+03  0.10918390807E+04  0.46999998093E+01 0. -1.
</event>
<event>
 5   0  0.1689444E-06  0.2300757E+04  0.7818609E-02  0.8477623E-01
        2   -1    0    0  501    0  0.00000000000E+00  0.00000000000E+00  0.97034877773E+03  0.97034877773E+03  0.25500000920E-02 0.  1.
       -2   -1    0    0    0  501  0.00000000000E+00  0.00000000000E+00 -0.13638091774E+04  0.13638091774E+04  0.25500000920E-02 0. -1.
    10030    2    1    2    0    0  0.00000000000E+00  0.00000000000E+00 -0.39346039969E+03  0.23341579552E+04  0.23007568914E+04 0.  0.
        2    1    3    3  502    0 -0.88590775379E+03  0.66906343709E+02 -0.93813461999E+03  0.12920547869E+04  0.25500000920E-02 0. -1.
       -2    1    3    3    0  502  0.88590775379E+03 -0.66906343709E+02  0.54467422031E+03  0.10421031683E+04  0.25500000920E-02 0.  1.
</event>
<event>
 5   0  0.1828646E-06  0.2300742E+04  0.7818609E-02  0.8477629E-01
       -2   -1    0    0    0  501  0.00000000000E+00  0.00000000000E+00  0.22996901195E+04  0.22996901195E+04  0.25500000920E-02 0.  1.
        2   -1    0    0  501    0  0.00000000000E+00  0.00000000000E+00 -0.57544855636E+03  0.57544855637E+03  0.25500000920E-02 0. -1.
    10030    2    1    2    0    0  0.00000000000E+00  0.00000000000E+00  0.17242415632E+04  0.28751386759E+04  0.23007419320E+04 0.  0.
        3    1    3    3  502    0 -0.45711675885E+02  0.66903092597E+03  0.20301735580E+04  0.21380590785E+04  0.10100000352E+00 0.  1.
       -3    1    3    3    0  502  0.45711675885E+02 -0.66903092597E+03 -0.30593199486E+03  0.73707959740E+03  0.10100000352E+00 0. -1.
</event>
<event>
 5   0  0.1828646E-06  0.2300196E+04  0.7818609E-02  0.8477844E-01
       -2   -1    0    0    0  501  0.00000000000E+00  0.00000000000E+00  0.10766993185E+04  0.10766993185E+04  0.25500000920E-02 0. -1.
        2   -1    0    0  501    0  0.00000000000E+00  0.00000000000E+00 -0.12284997793E+04  0.12284997793E+04  0.25500000920E-02 0.  1.
    10030    2    1    2    0    0  0.00000000000E+00  0.00000000000E+00 -0.15180046075E+03  0.23051990978E+04  0.23001955353E+04 0.  0.
        3    1    3    3  502    0  0.57092372374E+02 -0.89822384422E+03  0.64165954365E+03  0.11053472728E+04  0.10100000352E+00 0. -1.
       -3    1    3    3    0  502 -0.57092372374E+02  0.89822384422E+03 -0.79346000440E+03  0.11998518251E+04  0.10100000352E+00 0.  1.
</event>
<event>
 5   0  0.1689444E-06  0.2300148E+04  0.7818609E-02  0.8477863E-01
        2   -1    0    0  501    0  0.00000000000E+00  0.00000000000E+00  0.90460900203E+03  0.90460900203E+03  0.25500000920E-02 0. -1.
       -2   -1    0    0    0  501  0.00000000000E+00  0.00000000000E+00 -0.14621456860E+04  0.14621456860E+04  0.25500000920E-02 0.  1.
    10030    2    1    2    0    0  0.00000000000E+00  0.00000000000E+00 -0.55753668398E+03  0.23667546880E+04  0.23001479516E+04 0.  0.
        2    1    3    3  502    0  0.57021333271E+03  0.37101954097E+03 -0.12329130097E+04  0.14081453171E+04  0.25500000920E-02 0.  1.
       -2    1    3    3    0  502 -0.57021333271E+03 -0.37101954097E+03  0.67537632576E+03  0.95860937091E+03  0.25500000920E-02 0. -1.
</event>
<event>
 5   0  0.1828646E-06  0.2300057E+04  0.7818609E-02  0.8477899E-01
        2   -1    0    0  501    0  0.00000000000E+00  0.00000000000E+00  0.17509714724E+04  0.17509714724E+04  0.25500000920E-02 0.  1.
       -2   -1    0    0    0  501  0.00000000000E+00  0.00000000000E+00 -0.75533238864E+03  0.75533238865E+03  0.25500000920E-02 0. -1.
    10030    2    1    2    0    0  0.00000000000E+00  0.00000000000E+00  0.99563908377E+03  0.25063038611E+04  0.23000569251E+04 0.  0.
        3    1    3    3  502    0 -0.74768768845E+03  0.56045999374E+03 -0.23267678459E+03  0.96295938665E+03  0.10100000352E+00 0. -1.
       -3    1    3    3    0  502  0.74768768845E+03 -0.56045999374E+03  0.12283158684E+04  0.15433444744E+04  0.10100000352E+00 0.  1.
</event>
<event>
 5   0  0.7932912E-07  0.2296806E+04  0.7818609E-02  0.8479182E-01
       -1   -1    0    0    0  501  0.00000000000E+00  0.00000000000E+00  0.91255536140E+03  0.91255536142E+03  0.50400001928E-02 0.  1.
        1   -1    0    0  501    0  0.00000000000E+00  0.00000000000E+00 -0.14452048006E+04  0.14452048006E+04  0.50400001928E-02 0. -1.
    10030    2    1    2    0    0  0.00000000000E+00  0.00000000000E+00 -0.53264943915E+03  0.23577601620E+04  0.22968059466E+04 0.  0.
        5    1    3    3  502    0 -0.45733746527E+03  0.98443087734E+03  0.11851858256E+03  0.10919388508E+04  0.46999998093E+01 0.  1.
       -5    1    3    3    0  502  0.45733746527E+03 -0.98443087734E+03 -0.65116802172E+03  0.12658213112E+04  0.46999998093E+01 0. -1.
</event>
<event>
 5   0  0.1744876E-06  0.2300356E+04  0.7818609E-02  0.8477781E-01
        2   -1    0    0  501    0  0.00000000000E+00  0.00000000000E+00  0.12825193628E+04  0.12825193628E+04  0.25500000920E-02 0. -1.
       -2   -1    0    0    0  501  0.00000000000E+00  0.00000000000E+00 -0.10314927580E+04  0.10314927580E+04  0.25500000920E-02 0.  1.
    10030    2    1    2    0    0  0.00000000000E+00  0.00000000000E+00  0.25102660481E+03  0.23140121209E+04  0.23003560027E+04 0.  0.
        1    1    3    3  502    0  0.45624494272E+03  0.91526949610E+03  0.65497596470E+03  0.12144427581E+04  0.50400001928E-02 0.  1.
       -1    1    3    3    0  502 -0.45624494272E+03 -0.91526949610E+03 -0.40394935988E+03  0.10995693628E+04  0.50400001928E-02 0. -1.
</event>
<event>
 5   0  0.7761069E-07  0.2300218E+04  0.7818609E-02  0.8477835E-01
       -1   -1    0    0    0  501  0.00000000000E+00  0.00000000000E+00  0.13639650911E+04  0.13639650911E+04  0.50400001928E-02 0.  1.
        1   -1    0    0  501    0  0.00000000000E+00  0.00000000000E+00 -0.96978359811E+03  0.96978359812E+03  0.50400001928E-02 0. -1.
    10030    2    1    2    0    0  0.00000000000E+00  0.00000000000E+00  0.39418149297E+03  0.23337486892E+04  0.23002182277E+04 0.  0.
        1    1    3    3  502    0 -0.16595268268E+03 -0.11127930770E+04  0.43910991293E+03  0.12077525578E+04  0.50400001928E-02 0.  1.
       -1    1    3    3    0  502  0.16595268268E+03  0.11127930770E+04 -0.44928419957E+02  0.11259961315E+04  0.50400001928E-02 0. -1.
</event>
<event>
 5   0  0.1888779E-06  0.2299914E+04  0.7818609E-02  0.8477955E-01
        2   -1    0    0  501    0  0.00000000000E+00  0.00000000000E+00  0.11087765044E+04  0.11087765044E+04  0.25500000920E-02 0. -1.
       -2   -1    0    0    0  501  0.00000000000E+00  0.00000000000E+00 -0.11926668188E+04  0.11926668188E+04  0.25500000920E-02 0.  1.
    10030    2    1    2    0    0  0.00000000000E+00  0.00000000000E+00 -0.83890314425E+02  0.23014433232E+04  0.22999138647E+04 0.  0.
        4    1    3    3  502    0  0.96057842237E+03  0.49926079814E+03 -0.43005238451E+03  0.11648686262E+04  0.12699999809E+01 0. -1.
       -4    1    3    3    0  502 -0.96057842237E+03 -0.49926079814E+03  0.34616207009E+03  0.11365746970E+04  0.12699999809E+01 0.  1.
</event>
<event>
 5   0  0.1888779E-06  0.2299778E+04  0.7818609E-02  0.8478008E-01
        2   -1    0    0  501    0  0.00000000000E+00  0.00000000000E+00  0.18972798775E+04  0.18972798775E+04  0.25500000920E-02 0.  1.
       -2   -1    0    0    0  501  0.00000000000E+00  0.00000000000E+00 -0.69691629772E+03  0.69691629773E+03  0.25500000920E-02 0. -1.
    10030    2    1    2    0    0  0.00000000000E+00  0.00000000000E+00  0.12003635798E+04  0.25941961752E+04  0.22997784832E+04 0.  0.
        4    1    3    3  502    0  0.11324699895E+04  0.10637646060E+03  0.40995257017E+03  0.12090769004E+04  0.12699999809E+01 0.  1.
       -4    1    3    3    0  502 -0.11324699895E+04 -0.10637646060E+03  0.79041100962E+03  0.13851192748E+04  0.12699999809E+01 0. -1.
</event>
<event>
 5   0  0.6319125E-07  0.2300754E+04  0.7818609E-02  0.8477624E-01
       -3   -1    0    0    0  501  0.00000000000E+00  0.00000000000E+00  0.89582089772E+03  0.89582090342E+03  0.10100000352E+00 0.  1.
        3   -1    0    0  501    0  0.00000000000E+00  0.00000000000E+00 -0.14772674530E+04  0.14772674565E+04  0.10100000352E+00 0. -1.
    10030    2    1    2    0    0  0.00000000000E+00  0.00000000000E+00 -0.58144655529E+03  0.23730883599E+04  0.23007538476E+04 0.  0.
        4    1    3    3  502    0 -0.77278658560E+03 -0.82088463381E+03 -0.52663846030E+03  0.12443473670E+04  0.12699999809E+01 0. -1.
       -4    1    3    3    0  502  0.77278658560E+03  0.82088463381E+03 -0.54808094983E+02  0.11287409929E+04  0.12699999809E+01 0.  1.
</event>
<event>
 5   0  0.1888779E-06  0.2299854E+04  0.7818609E-02  0.8477979E-01
        2   -1    0    0  501    0  0.00000000000E+00  0.00000000000E+00  0.61425628442E+03  0.61425628442E+03  0.25500000920E-02 0.  1.
       -2   -1    0    0    0  501  0.00000000000E+00  0.00000000000E+00 -0.21527368376E+04  0.21527368377E+04  0.25500000920E-02 0. -1.
    10030    2    1    2    0    0  0.00000000000E+00  0.00000000000E+00 -0.15384805532E+04  0.27669931221E+04  0.22998540225E+04 0.  0.
        4    1    3    3  502    0  0.46073809858E+03 -0.11837414243E+03 -0.20288056425E+04  0.20838296430E+04  0.12699999809E+01 0. -1.
       -4    1    3    3    0  502 -0.46073809858E+03  0.11837414243E+03  0.49032508927E+03  0.68316347908E+03  0.12699999809E+01 0.  1.
</event>
<event>
 5   0  0.1744876E-06  0.2300221E+04  0.7818609E-02  0.8477834E-01
        2   -1    0    0  501    0  0.00000000000E+00  0.00000000000E+00  0.19430790529E+04  0.19430790529E+04  0.25500000920E-02 0.  1.
       -2   -1    0    0    0  501  0.00000000000E+00  0.00000000000E+00 -0.68075184222E+03  0.68075184222E+03  0.25500000920E-02 0. -1.
    10030    2    1    2    0    0  0.00000000000E+00  0.00000000000E+00  0.12623272107E+04  0.26238308952E+04  0.23002214197E+04 0.  0.
        1    1    3    3  502    0  0.26183058429E+03  0.80620469670E+03 -0.25551974565E+03  0.88533135509E+03  0.50400001928E-02 0. -1.
       -1    1    3    3    0  502 -0.26183058429E+03 -0.80620469670E+03  0.15178469564E+04  0.17384995401E+04  0.50400001928E-02 0.  1.
</event>
<event>
 5   0  0.8108242E-07  0.2299812E+04  0.7818609E-02  0.8477995E-01
       -1   -1    0    0    0  501  0.00000000000E+00  0.00000000000E+00  0.61591486976E+03  0.61591486978E+03  0.50400001928E-02 0.  1.
        1   -1    0    0  501    0  0.00000000000E+00  0.00000000000E+00 -0.21468616623E+04  0.21468616623E+04  0.50400001928E-02 0. -1.
    10030    2    1    2    0    0  0.00000000000E+00  0.00000000000E+00 -0.15309467926E+04  0.27627765321E+04  0.22998121846E+04 0.  0.
        4    1    3    3  502    0  0.31189558585E+03  0.11770764603E+03  0.55658938370E+03  0.64878910392E+03  0.12699999809E+01 0.  1.
       -4    1    3    3    0  502 -0.31189558585E+03 -0.11770764603E+03 -0.20875361763E+04  0.21139874282E+04  0.12699999809E+01 0. -1.
</event>
<event>
 5   0  0.6319125E-07  0.2300494E+04  0.7818609E-02  0.8477727E-01
        3   -1    0    0  501    0  0.00000000000E+00  0.00000000000E+00  0.86911935194E+03  0.86911935781E+03  0.10100000352E+00 0.  1.
       -3   -1    0    0    0  501  0.00000000000E+00  0.00000000000E+00 -0.15223083967E+04  0.15223084000E+04  0.10100000352E+00 0. -1.
    10030    2    1    2    0    0  0.00000000000E+00  0.00000000000E+00 -0.65318904473E+03  0.23914277578E+04  0.23004935976E+04 0.  0.
        1    1    3    3  502    0  0.76604069081E+03  0.82088321348E+03 -0.58626878533E+03  0.12666407063E+04  0.50400001928E-02 0. -1.
       -1    1    3    3    0  502 -0.76604069081E+03 -0.82088321348E+03 -0.66920259393E+02  0.11247870515E+04  0.50400001928E-02 0.  1.
</event>
<event>
 5   0  0.7932912E-07  0.2300203E+04  0.7818609E-02  0.8477841E-01
        1   -1    0    0  501    0  0.00000000000E+00  0.00000000000E+00  0.12482366767E+04  0.12482366767E+04  0.50400001928E-02 0.  1.
       -1   -1    0    0    0  501  0.00000000000E+00  0.00000000000E+00 -0.10596819105E+04  0.10596819106E+04  0.50400001928E-02 0. -1.
    10030    2    1    2    0    0  0.00000000000E+00  0.00000000000E+00  0.18855476616E+03  0.23079185873E+04  0.23002033183E+04 0.  0.
        5    1    3    3  502    0 -0.99488176034E+03 -0.34228299539E+03  0.56033984441E+03  0.11920361560E+04  0.46999998093E+01 0.  1.
       -5    1    3    3    0  502  0.99488176034E+03  0.34228299539E+03 -0.37178507825E+03  0.11158824313E+04  0.46999998093E+01 0. -1.
</event>
<event>
 5   0  0.1888779E-06  0.2300536E+04  0.7818609E-02  0.8477710E-01
       -2   -1    0    0    0  501  0.00000000000E+00  0.00000000000E+00  0.76677360175E+03  0.76677360175E+03  0.25500000920E-02 0.  1.
        2   -1    0    0  501    0  0.00000000000E+00  0.00000000000E+00 -0.17255629289E+04  0.17255629289E+04  0.25500000920E-02 0. -1.
    10030    2    1    2    0    0  0.00000000000E+00  0.00000000000E+00 -0.95878932718E+03  0.24923365307E+04  0.23005356785E+04 0.  0.
        4    1    3    3  502    0  0.33738386848E+03  0.10558915614E+04 -0.81222034784E+03  0.13742046320E+04  0.12699999809E+01 0. -1.
       -4    1    3    3    0  502 -0.33738386848E+03 -0.10558915614E+04 -0.14656897934E+03  0.11181318987E+04  0.12699999809E+01 0.  1.
</event>
<event>
 5   0  0.1744876E-06  0.2300555E+04  0.7818609E-02  0.8477702E-01
       -2   -1    0    0    0  501  0.00000000000E+00  0.00000000000E+00  0.73480497490E+03  0.73480497490E+03  0.25500000920E-02 0. -1.
        2   -1    0    0  501    0  0.00000000000E+00  0.00000000000E+00 -0.18006662123E+04  0.18006662123E+04  0.25500000920E-02 0.  1.
    10030    2    1    2    0    0  0.00000000000E+00  0.00000000000E+00 -0.10658612374E+04  0.25354711872E+04  0.23005551425E+04 0.  0.
        1    1    3    3  502    0  0.76569008055E+03  0.44115562859E+03  0.27863075499E+03  0.92657146823E+03  0.50400001928E-02 0. -1.
       -1    1    3    3    0  502 -0.76569008055E+03 -0.44115562859E+03 -0.13444919924E+04  0.16088997190E+04  0.50400001928E-02 0.  1.
</event>
<event>
 5   0  0.1689444E-06  0.2300241E+04  0.7818609E-02  0.8477826E-01
       -2   -1    0    0    0  501  0.00000000000E+00  0.00000000000E+00  0.59293566977E+03  0.59293566978E+03  0.25500000920E-02 0.  1.
        2   -1    0    0  501    0  0.00000000000E+00  0.00000000000E+00 -0.22308941704E+04  0.22308941704E+04  0.25500000920E-02 0. -1.
    10030    2    1    2    0    0  0.00000000000E+00  0.00000000000E+00 -0.16379585006E+04  0.28238298402E+04  0.23002406214E+04 0.  0.
        2    1    3    3  502    0 -0.68004733893E+03  0.88680192433E+03 -0.48526720789E+03  0.12183457224E+04  0.25500000920E-02 0.  1.
       -2    1    3    3    0  502  0.68004733893E+03 -0.88680192433E+03 -0.11526912927E+04  0.16054841178E+04  0.25500000920E-02 0. -1.
</event>
<event>
 5   0  0.1825521E-06  0.2299872E+04  0.7818609E-02  0.8477972E-01
       -2   -1    0    0    0  501  0.00000000000E+00  0.00000000000E+00  0.13224495409E+04  0.13224495409E+04  0.25500000920E-02 0.  1.
        2   -1    0    0  501    0  0.00000000000E+00  0.00000000000E+00 -0.99992676819E+03  0.99992676819E+03  0.25500000920E-02 0. -1.
    10030    2    1    2    0    0  0.00000000000E+00  0.00000000000E+00  0.32252277275E+03  0.23223763091E+04  0.22998719056E+04 0.  0.
        5    1    3    3  502    0  0.93866706941E+03 -0.18575708639E+03 -0.48273219234E+03  0.10717527802E+04  0.46999998093E+01 0. -1.
       -5    1    3    3    0  502 -0.93866706941E+03  0.18575708639E+03  0.80525496509E+03  0.12506235289E+04  0.46999998093E+01 0.  1.
</event>
<event>
 5   0  0.1689444E-06  0.2301214E+04  0.7818609E-02  0.8477443E-01
        2   -1    0    0  501    0  0.00000000000E+00  0.00000000000E+00  0.19026321583E+04  0.19026321583E+04  0.25500000920E-02 0. -1.
       -2   -1    0    0    0  501  0.00000000000E+00  0.00000000000E+00 -0.69582337698E+03  0.69582337698E+03  0.25500000920E-02 0.  1.
    10030    2    1    2    0    0  0.00000000000E+00  0.00000000000E+00  0.12068087813E+04  0.25984555353E+04  0.23012135351E+04 0.  0.
        2    1    3    3  502    0 -0.87176865349E+03  0.59341480989E+03  0.83773564673E+02  0.10578940079E+04  0.25500000920E-02 0.  1.
       -2    1    3    3    0  502  0.87176865349E+03 -0.59341480989E+03  0.11230352166E+04  0.15405615274E+04  0.25500000920E-02 0. -1.
</event>
<event>
 5   0  0.8097672E-07  0.2299376E+04  0.7818609E-02  0.8478167E-01
        1   -1    0    0  501    0  0.00000000000E+00  0.00000000000E+00  0.10176142026E+04  0.10176142026E+04  0.50400001928E-02 0.  1.
       -1   -1    0    0    0  501  0.00000000000E+00  0.00000000000E+00 -0.12989031841E+04  0.12989031841E+04  0.50400001928E-02 0. -1.
    10030    2    1    2    0    0  0.00000000000E+00  0.00000000000E+00 -0.28128898152E+03  0.23165173868E+04  0.22993758527E+04 0.  0.
        3    1    3    3  502    0 -0.76237181652E+02  0.45913381444E+03  0.91846149991E+03  0.10296540703E+04  0.10100000352E+00 0.  1.
       -3    1    3    3    0  502  0.76237181652E+02 -0.45913381444E+03 -0.11997504814E+04  0.12868633165E+04  0.10100000352E+00 0. -1.
</event>
<event>
 5   0  0.1744876E-06  0.2299844E+04  0.7818609E-02  0.8477983E-01
        2   -1    0    0  501    0  0.00000000000E+00  0.00000000000E+00  0.90849618920E+03  0.90849618920E+03  0.25500000920E-02 0.  1.
       -2   -1    0    0    0  501  0.00000000000E+00  0.00000000000E+00 -0.14555047054E+04  0.14555047054E+04  0.25500000920E-02 0. -1.
    10030    2    1    2    0    0  0.00000000000E+00  0.00000000000E+00 -0.54700851621E+03  0.23640008946E+04  0.22998438888E+04 0.  0.
        1    1    3    3  502    0 -0.73834153024E+03 -0.62735478121E+03  0.36312644948E+03  0.10346898352E+04  0.50400001928E-02 0.  1.
       -1    1    3    3    0  502  0.73834153024E+03  0.62735478121E+03 -0.91013496569E+03  0.13293110594E+04  0.50400001928E-02 0. -1.
</event>
<event>
 5   0  0.7607231E-07  0.2300253E+04  0.7818609E-02  0.8477821E-01
        1   -1    0    0  501    0  0.00000000000E+00  0.00000000000E+00  0.21795640775E+04  0.21795640775E+04  0.50400001928E-02 0. -1.
       -1   -1    0    0    0  501  0.00000000000E+00  0.00000000000E+00 -0.60690614112E+03  0.60690614114E+03  0.50400001928E-02 0.  1.
    10030    2    1    2    0    0  0.00000000000E+00  0.00000000000E+00  0.15726579363E+04  0.27864702186E+04  0.23002528762E+04 0.  0.
        2    1    3    3  502    0 -0.54056484647E+03 -0.59878449377E+03  0.17793892437E+04  0.19537091144E+04  0.25500000920E-02 0. -1.
       -2    1    3    3    0  502  0.54056484647E+03  0.59878449377E+03 -0.20673130734E+03  0.83276110419E+03  0.25500000920E-02 0.  1.
</event>
<event>
 5   0  0.8108242E-07  0.2300539E+04  0.7818609E-02  0.8477709E-01
       -1   -1    0    0    0  501  0.00000000000E+00  0.00000000000E+00  0.77949736616E+03  0.77949736618E+03  0.50400001928E-02 0.  1.
        1   -1    0    0  501    0  0.00000000000E+00  0.00000000000E+00 -0.16974013129E+04  0.16974013129E+04  0.50400001928E-02 0. -1.
    10030    2    1    2    0    0  0.00000000000E+00  0.00000000000E+00 -0.91790394676E+03  0.24768986791E+04  0.23005389393E+04 0.  0.
        4    1    3    3  502    0 -0.93859663145E+02 -0.11440429065E+04 -0.37929052983E+03  0.12089279247E+04  0.12699999809E+01 0. -1.
       -4    1    3    3    0  502  0.93859663145E+02  0.11440429065E+04 -0.53861341693E+03  0.12679707544E+04  0.12699999809E+01 0.  1.
</event>
<event>
 5   0  0.1828646E-06  0.2299464E+04  0.7818609E-02  0.8478132E-01
        2   -1    0    0  501    0  0.00000000000E+00  0.00000000000E+00  0.22126475322E+04  0.22126475322E+04  0.25500000920E-02 0. -1.
       -2   -1    0    0    0  501  0.00000000000E+00  0.00000000000E+00 -0.59742196233E+03  0.59742196234E+03  0.25500000920E-02 0.  1.
    10030    2    1    2    0    0  0.00000000000E+00  0.00000000000E+00  0.16152255699E+04  0.28100694946E+04  0.22994644861E+04 0.  0.
        3    1    3    3  502    0  0.18071333429E+03 -0.16049693423E+03  0.21812511640E+04  0.21946009263E+04  0.10100000352E+00 0. -1.
       -3    1    3    3    0  502 -0.18071333429E+03  0.16049693423E+03 -0.56602559412E+03  0.61546856824E+03  0.10100000352E+00 0.  1.
</event>
<event>
 5   0  0.1825521E-06  0.2295215E+04  0.7818609E-02  0.8479810E-01
       -2   -1    0    0    0  501  0.00000000000E+00  0.00000000000E+00  0.11240385735E+04  0.11240385735E+04  0.25500000920E-02 0. -1.
        2   -1    0    0  501    0  0.00000000000E+00  0.00000000000E+00 -0.11716705096E+04  0.11716705096E+04  0.25500000920E-02 0.  1.
    10030    2    1    2    0    0  0.00000000000E+00  0.00000000000E+00 -0.47631936103E+02  0.22957090830E+04  0.22952148903E+04 0.  0.
        5    1    3    3  502    0  0.55093428358E+03  0.94266717696E+03 -0.37720601931E+03  0.11551867651E+04  0.46999998093E+01 0. -1.
       -5    1    3    3    0  502 -0.55093428358E+03 -0.94266717696E+03  0.32957408321E+03  0.11405223179E+04  0.46999998093E+01 0.  1.
</event>
<event>
 5   0  0.6319125E-07  0.2300457E+04  0.7818609E-02  0.8477741E-01
        3   -1    0    0  501    0  0.00000000000E+00  0.00000000000E+00  0.14554184002E+04  0.14554184037E+04  0.10100000352E+00 0.  1.
       -3   -1    0    0    0  501  0.00000000000E+00  0.00000000000E+00 -0.90903469798E+03  0.90903470360E+03  0.10100000352E+00 0. -1.
    10030    2    1    2    0    0  0.00000000000E+00  0.00000000000E+00  0.54638370221E+03  0.23644531073E+04  0.23004572038E+04 0.  0.
        4    1    3    3  502    0 -0.95493562512E+03 -0.37146568923E+03 -0.26397048795E+03  0.10580977449E+04  0.12699999809E+01 0. -1.
       -4    1    3    3    0  502  0.95493562512E+03  0.37146568923E+03  0.81035419016E+03  0.13063553624E+04  0.12699999809E+01 0.  1.
</event>
<event>
 5   0  0.1825521E-06  0.2299927E+04  0.7818609E-02  0.8477950E-01
       -2   -1    0    0    0  501  0.00000000000E+00  0.00000000000E+00  0.77424136222E+03  0.77424136223E+03  0.25500000920E-02 0.  1.
        2   -1    0    0  501    0  0.00000000000E+00  0.00000000000E+00 -0.17080158250E+04  0.17080158250E+04  0.25500000920E-02 0. -1.
    10030    2    1    2    0    0  0.00000000000E+00  0.00000000000E+00 -0.93377446277E+03  0.24822571872E+04  0.22999273893E+04 0.  0.
        5    1    3    3  502    0 -0.11402803077E+04 -0.14862002422E+03 -0.45803207799E+03  0.12377974657E+04  0.46999998093E+01 0. -1.
       -5    1    3    3    0  502  0.11402803077E+04  0.14862002422E+03 -0.47574238478E+03  0.12444597215E+04  0.46999998093E+01 0.  1.
</event>
<event>
 5   0  0.1744876E-06  0.2300317E+04  0.7818609E-02  0.8477796E-01
        2   -1    0    0  501    0  0.00000000000E+00  0.00000000000E+00  0.14513749940E+04  0.14513749940E+04  0.25500000920E-02 0. -1.
       -2   -1    0    0    0  501  0.00000000000E+00  0.00000000000E+00 -0.91145576959E+03  0.91145576960E+03  0.25500000920E-02 0.  1.
    10030    2    1    2    0    0  0.00000000000E+00  0.00000000000E+00  0.53991922440E+03  0.23628307636E+04  0.23003165974E+04 0.  0.
        1    1    3    3  502    0 -0.53102795389E+03  0.82194690838E+02  0.13145113079E+04  0.14201009238E+04  0.50400001928E-02 0. -1.
       -1    1    3    3    0  502  0.53102795389E+03 -0.82194690838E+02 -0.77459208352E+03  0.94272983982E+03  0.50400001928E-02 0.  1.
</event>
<event>
 5   0  0.8108242E-07  0.2300501E+04  0.7818609E-02  0.8477724E-01
       -1   -1    0    0    0  501  0.00000000000E+00  0.00000000000E+00  0.67547212579E+03  0.67547212581E+03  0.50400001928E-02 0.  1.
        1   -1    0    0  501    0  0.00000000000E+00  0.00000000000E+00 -0.19587424854E+04  0.19587424854E+04  0.50400001928E-02 0. -1.
    10030    2    1    2    0    0  0.00000000000E+00  0.00000000000E+00 -0.12832703596E+04  0.26342146112E+04  0.23005007720E+04 0.  0.
        4    1    3    3  502    0  0.98725597412E+03  0.14334806926E+03 -0.12972778839E+04  0.16365068128E+04  0.12699999809E+01 0. -1.
       -4    1    3    3    0  502 -0.98725597412E+03 -0.14334806926E+03  0.14007524286E+02  0.99770779842E+03  0.12699999809E+01 0.  1.
</event>
<event>
 5   0  0.7932912E-07  0.2299820E+04  0.7818609E-02  0.8477992E-01
        1   -1    0    0  501    0  0.00000000000E+00  0.00000000000E+00  0.29237112541E+04  0.29237112541E+04  0.50400001928E-02 0.  1.
       -1   -1    0    0    0  501  0.00000000000E+00  0.00000000000E+00 -0.45226525381E+03  0.45226525384E+03  0.50400001928E-02 0. -1.
    10030    2    1    2    0    0  0.00000000000E+00  0.00000000000E+00  0.24714460003E+04  0.33759765080E+04  0.22998200038E+04 0.  0.
        5    1    3    3  502    0  0.31203278741E+03  0.62260955821E+03 -0.10746476109E+03  0.70468282742E+03  0.46999998093E+01 0. -1.
       -5    1    3    3    0  502 -0.31203278741E+03 -0.62260955821E+03  0.25789107614E+04  0.26712936806E+04  0.46999998093E+01 0.  1.
</event>
<event>
 5   0  0.1825521E-06  0.2299868E+04  0.7818609E-02  0.8477973E-01
        2   -1    0    0  501    0  0.00000000000E+00  0.00000000000E+00  0.17106212244E+04  0.17106212244E+04  0.25500000920E-02 0. -1.
       -2   -1    0    0    0  501  0.00000000000E+00  0.00000000000E+00 -0.77302221053E+03  0.77302221054E+03  0.25500000920E-02 0.  1.
    10030    2    1    2    0    0  0.00000000000E+00  0.00000000000E+00  0.93759901382E+03  0.24836434349E+04  0.22998679964E+04 0.  0.
        5    1    3    3  502    0  0.22246560284E+03 -0.89667766917E+03  0.12082040941E+04  0.15209539802E+04  0.46999998093E+01 0. -1.
       -5    1    3    3    0  502 -0.22246560284E+03  0.89667766917E+03 -0.27060508024E+03  0.96268945475E+03  0.46999998093E+01 0.  1.
</event>
<event>
 5   0  0.1689444E-06  0.2298844E+04  0.7818609E-02  0.8478377E-01
        2   -1    0    0  501    0  0.00000000000E+00  0.00000000000E+00  0.96075537706E+03  0.96075537706E+03  0.25500000920E-02 0.  1.
       -2   -1    0    0    0  501  0.00000000000E+00  0.00000000000E+00 -0.13751375705E+04  0.13751375705E+04  0.25500000920E-02 0. -1.
    10030    2    1    2    0    0  0.00000000000E+00  0.00000000000E+00 -0.41438219348E+03  0.23358929476E+04  0.22988438965E+04 0.  0.
        2    1    3    3  502    0 -0.86815598576E+02 -0.10879235142E+04  0.15925419118E+03  0.11029398979E+04  0.25500000920E-02 0.  1.
       -2    1    3    3    0  502  0.86815598576E+02  0.10879235142E+04 -0.57363638465E+03  0.12329530497E+04  0.25500000920E-02 0. -1.
</event>
<event>
 5   0  0.1828646E-06  0.2299650E+04  0.7818609E-02  0.8478059E-01
       -2   -1    0    0    0  501  0.00000000000E+00  0.00000000000E+00  0.92062557546E+03  0.92062557546E+03  0.25500000920E-02 0. -1.
        2   -1    0    0  501    0  0.00000000000E+00  0.00000000000E+00 -0.14360858644E+04  0.14360858644E+04  0.25500000920E-02 0.  1.
    10030    2    1    2    0    0  0.00000000000E+00  0.00000000000E+00 -0.51546028894E+03  0.23567114399E+04  0.22996498649E+04 0.  0.
        3    1    3    3  502    0 -0.10987774880E+04  0.32677083926E+03 -0.34942782129E+03  0.11984118499E+04  0.10100000352E+00 0. -1.
       -3    1    3    3    0  502  0.10987774880E+04 -0.32677083926E+03 -0.16603246764E+03  0.11582995899E+04  0.10100000352E+00 0.  1.
</event>
<event>
 5   0  0.7761069E-07  0.2299995E+04  0.7818609E-02  0.8477923E-01
        1   -1    0    0  501    0  0.00000000000E+00  0.00000000000E+00  0.12561801425E+04  0.12561801425E+04  0.50400001928E-02 0.  1.
       -1   -1    0    0    0  501  0.00000000000E+00  0.00000000000E+00 -0.10527903910E+04  0.10527903910E+04  0.50400001928E-02 0. -1.
    10030    2    1    2    0    0  0.00000000000E+00  0.00000000000E+00  0.20338975149E+03  0.23089705335E+04  0.22999951160E+04 0.  0.
        1    1    3    3  502    0  0.83243076255E+03 -0.68025494042E+03  0.51170834556E+03  0.11906020281E+04  0.50400001928E-02 0.  1.
       -1    1    3    3    0  502 -0.83243076255E+03  0.68025494042E+03 -0.30831859407E+03  0.11183685054E+04  0.50400001928E-02 0. -1.
</event>
<event>
 5   0  0.1828646E-06  0.2300679E+04  0.7818609E-02  0.8477653E-01
       -2   -1    0    0    0  501  0.00000000000E+00  0.00000000000E+00  0.12361376573E+04  0.12361376573E+04  0.25500000920E-02 0.  1.
        2   -1    0    0  501    0  0.00000000000E+00  0.00000000000E+00 -0.10704964233E+04  0.10704964233E+04  0.25500000920E-02 0. -1.
    10030    2    1    2    0    0  0.00000000000E+00  0.00000000000E+00  0.16564123394E+03  0.23066340806E+04  0.23006789788E+04 0.  0.
        3    1    3    3  502    0 -0.17815228249E+03 -0.46057967540E+03 -0.95881473050E+03  0.10785163748E+04  0.10100000352E+00 0. -1.
       -3    1    3    3    0  502  0.17815228249E+03  0.46057967540E+03  0.11244559644E+04  0.12281177058E+04  0.10100000352E+00 0.  1.
</event>
<event>
 5   0  0.1825521E-06  0.2299960E+04  0.7818609E-02  0.8477937E-01
       -2   -1    0    0    0  501  0.00000000000E+00  0.00000000000E+00  0.63519198279E+03  0.63519198280E+03  0.25500000920E-02 0. -1.
        2   -1    0    0  501    0  0.00000000000E+00  0.00000000000E+00 -0.20819744461E+04  0.20819744461E+04  0.25500000920E-02 0.  1.
    10030    2    1    2    0    0  0.00000000000E+00  0.00000000000E+00 -0.14467824633E+04  0.27171664289E+04  0.22999595445E+04 0.  0.
        5    1    3    3  502    0 -0.23929782216E+03  0.42172243921E+03 -0.19552881153E+04  0.20145190412E+04  0.46999998093E+01 0.  1.
       -5    1    3    3    0  502  0.23929782216E+03 -0.42172243921E+03  0.50850565197E+03  0.70264738775E+03  0.46999998093E+01 0. -1.
</event>
<event>
 5   0  0.7761069E-07  0.2299171E+04  0.7818609E-02  0.8478248E-01
       -1   -1    0    0    0  501  0.00000000000E+00  0.00000000000E+00  0.94321485453E+03  0.94321485454E+03  0.50400001928E-02 0.  1.
        1   -1    0    0  501    0  0.00000000000E+00  0.00000000000E+00 -0.14011087360E+04  0.14011087360E+04  0.50400001928E-02 0. -1.
    10030    2    1    2    0    0  0.00000000000E+00  0.00000000000E+00 -0.45789388151E+03  0.23443235906E+04  0.22991707833E+04 0.  0.
        1    1    3    3  502    0  0.14628523264E+03 -0.18687110595E+03  0.91796598488E+03  0.94814647020E+03  0.50400001928E-02 0.  1.
       -1    1    3    3    0  502 -0.14628523264E+03  0.18687110595E+03 -0.13758598664E+04  0.13961771204E+04  0.50400001928E-02 0. -1.
</event>
<event>
 5   0  0.7607231E-07  0.2299159E+04  0.7818609E-02  0.8478253E-01
        1   -1    0    0  501    0  0.00000000000E+00  0.00000000000E+00  0.13672886049E+04  0.13672886049E+04  0.50400001928E-02 0. -1.
       -1   -1    0    0    0  501  0.00000000000E+00  0.00000000000E+00 -0.96653531999E+03  0.96653532000E+03  0.50400001928E-02 0.  1.
    10030    2    1    2    0    0  0.00000000000E+00  0.00000000000E+00  0.40075328492E+03  0.23338239249E+04  0.22991587412E+04 0.  0.
        2    1    3    3  502    0  0.91387945876E+03 -0.13208050939E+03 -0.49471923478E+03  0.10475533625E+04  0.25500000920E-02 0.  1.
       -2    1    3    3    0  502 -0.91387945876E+03  0.13208050939E+03  0.89547251970E+03  0.12862705624E+04  0.25500000920E-02 0. -1.
</event>
<event>
 5   0  0.1888779E-06  0.2300580E+04  0.7818609E-02  0.8477693E-01
        2   -1    0    0  501    0  0.00000000000E+00  0.00000000000E+00  0.16015973633E+04  0.16015973633E+04  0.25500000920E-02 0.  1.
       -2   -1    0    0    0  501  0.00000000000E+00  0.00000000000E+00 -0.82615451921E+03  0.82615451921E+03  0.25500000920E-02 0. -1.
    10030    2    1    2    0    0  0.00000000000E+00  0.00000000000E+00  0.77544284410E+03  0.24277518825E+04  0.23005798397E+04 0.  0.
        4    1    3    3  502    0  0.32565028121E+03 -0.63815778057E+03  0.13373967074E+04  0.15172096178E+04  0.12699999809E+01 0.  1.
       -4    1    3    3    0  502 -0.32565028121E+03  0.63815778057E+03 -0.56195386326E+03  0.91054226474E+03  0.12699999809E+01 0. -1.
</event>
<event>
 5   0  0.1888779E-06  0.2298521E+04  0.7818609E-02  0.8478504E-01
        2   -1    0    0  501    0  0.00000000000E+00  0.00000000000E+00  0.12514638653E+04  0.12514638653E+04  0.25500000920E-02 0. -1.
       -2   -1    0    0    0  501  0.00000000000E+00  0.00000000000E+00 -0.10554039230E+04  0.10554039230E+04  0.25500000920E-02 0.  1.
    10030    2    1    2    0    0  0.00000000000E+00  0.00000000000E+00  0.19605994236E+03  0.23068677883E+04  0.22985211532E+04 0.  0.
        4    1    3    3  502    0  0.71649463092E+03 -0.76506806047E+03 -0.37496110172E+03  0.11132345368E+04  0.12699999809E+01 0.  1.
       -4    1    3    3    0  502 -0.71649463092E+03  0.76506806047E+03  0.57102104408E+03  0.11936332515E+04  0.12699999809E+01 0. -1.
</event>
<event>
 5   0  0.1689444E-06  0.2300571E+04  0.7818609E-02  0.8477696E-01
       -2   -1    0    0    0  501  0.00000000000E+00  0.00000000000E+00  0.56240652304E+03  0.56240652305E+03  0.25500000920E-02 0.  1.
        2   -1    0    0  501    0  0.00000000000E+00  0.00000000000E+00 -0.23526687769E+04  0.23526687769E+04  0.25500000920E-02 0. -1.
    10030    2    1    2    0    0  0.00000000000E+00  0.00000000000E+00 -0.17902622538E+04  0.29150752999E+04  0.23005705959E+04 0.  0.
        2    1    3    3  502    0  0.11423979426E+04  0.79358890917E+02 -0.75757311424E+03  0.13730578707E+04  0.25500000920E-02 0. -1.
       -2    1    3    3    0  502 -0.11423979426E+04 -0.79358890917E+02 -0.10326891396E+04  0.15420174292E+04  0.25500000920E-02 0.  1.
</event>
<event>
 5   0  0.1744876E-06  0.2300296E+04  0.7818609E-02  0.8477804E-01
        2   -1    0    0  501    0  0.00000000000E+00  0.00000000000E+00  0.20468848531E+04  0.20468848531E+04  0.25500000920E-02 0. -1.
       -2   -1    0    0    0  501  0.00000000000E+00  0.00000000000E+00 -0.64627020825E+03  0.64627020826E+03  0.25500000920E-02 0.  1.
    10030    2    1    2    0    0  0.00000000000E+00  0.00000000000E+00  0.14006146448E+04  0.26931550614E+04  0.23002962420E+04 0.  0.
        1    1    3    3  502    0 -0.72769235626E+03  0.33648382476E+03  0.16658213839E+04  0.18487072275E+04  0.50400001928E-02 0. -1.
       -1    1    3    3    0  502  0.72769235626E+03 -0.33648382476E+03 -0.26520673909E+03  0.84444783389E+03  0.50400001928E-02 0.  1.
</event>
<event>
 5   0  0.1888779E-06  0.2297429E+04  0.7818609E-02  0.8478936E-01
        2   -1    0    0  501    0  0.00000000000E+00  0.00000000000E+00  0.15029591779E+04  0.15029591779E+04  0.25500000920E-02 0.  1.
       -2   -1    0    0    0  501  0.00000000000E+00  0.00000000000E+00 -0.87796431861E+03  0.87796431862E+03  0.25500000920E-02 0. -1.
    10030    2    1    2    0    0  0.00000000000E+00  0.00000000000E+00  0.62499485926E+03  0.23809234965E+04  0.22974285891E+04 0.  0.
        4    1    3    3  502    0 -0.10820847497E+04  0.31812243876E+03  0.86789622014E+02  0.11312132173E+04  0.12699999809E+01 0. -1.
       -4    1    3    3    0  502  0.10820847497E+04 -0.31812243876E+03  0.53820523725E+03  0.12497102792E+04  0.12699999809E+01 0.  1.
</event>
<event>
 5   0  0.1828646E-06  0.2300209E+04  0.7818609E-02  0.8477839E-01
       -2   -1    0    0    0  501  0.00000000000E+00  0.00000000000E+00  0.31461272975E+04  0.31461272975E+04  0.25500000920E-02 0. -1.
        2   -1    0    0  501    0  0.00000000000E+00  0.00000000000E+00 -0.42043464292E+03  0.42043464292E+03  0.25500000920E-02 0.  1.
    10030    2    1    2    0    0  0.00000000000E+00  0.00000000000E+00  0.27256926546E+04  0.35665619404E+04  0.23002094747E+04 0.  0.
        3    1    3    3  502    0 -0.41946408885E+03 -0.10507817184E+04  0.10426365830E+04  0.15385653695E+04  0.10100000352E+00 0. -1.
       -3    1    3    3    0  502  0.41946408885E+03  0.10507817184E+04  0.16830560716E+04  0.20279965710E+04  0.10100000352E+00 0.  1.
</event>
<event>
 5   0  0.7761069E-07  0.2300906E+04  0.7818609E-02  0.8477564E-01
        1   -1    0    0  501    0  0.00000000000E+00  0.00000000000E+00  0.23664980438E+04  0.23664980438E+04  0.50400001928E-02 0.  1.
       -1   -1    0    0    0  501  0.00000000000E+00  0.00000000000E+00 -0.55928286464E+03  0.55928286466E+03  0.50400001928E-02 0. -1.
    10030    2    1    2    0    0  0.00000000000E+00  0.00000000000E+00  0.18072151792E+04  0.29257809085E+04  0.23009057392E+04 0.  0.
        1    1    3    3  502    0 -0.38685867524E+03 -0.11084261836E+03  0.22740807796E+04  0.23094131534E+04  0.50400001928E-02 0.  1.
       -1    1    3    3    0  502  0.38685867524E+03  0.11084261836E+03 -0.46686560044E+03  0.61636775512E+03  0.50400001928E-02 0. -1.
</event>
<event>
 5   0  0.7761069E-07  0.2299915E+04  0.7818609E-02  0.8477954E-01
       -1   -1    0    0    0  501  0.00000000000E+00  0.00000000000E+00  0.66841479843E+03  0.66841479845E+03  0.50400001928E-02 0. -1.
        1   -1    0    0  501    0  0.00000000000E+00  0.00000000000E+00 -0.19784161347E+04  0.19784161347E+04  0.50400001928E-02 0.  1.
    10030    2    1    2    0    0  0.00000000000E+00  0.00000000000E+00 -0.13100013362E+04  0.26468309331E+04  0.22999153218E+04 0.  0.
        1    1    3    3  502    0  0.35547494045E+03  0.13359102855E+03  0.59417262168E+03  0.70515962772E+03  0.50400001928E-02 0. -1.
       -1    1    3    3    0  502 -0.35547494045E+03 -0.13359102855E+03 -0.19041739579E+04  0.19416713054E+04  0.50400001928E-02 0.  1.
</event>
<event>
 5   0  0.8108242E-07  0.2302996E+04  0.7818609E-02  0.8476741E-01
       -1   -1    0    0    0  501  0.00000000000E+00  0.00000000000E+00  0.13130855103E+04  0.13130855103E+04  0.50400001928E-02 0.  1.
        1   -1    0    0  501    0  0.00000000000E+00  0.00000000000E+00 -0.10097951940E+04  0.10097951940E+04  0.50400001928E-02 0. -1.
    10030    2    1    2    0    0  0.00000000000E+00  0.00000000000E+00  0.30329031634E+03  0.23228807043E+04  0.23029958207E+04 0.  0.
        4    1    3    3  502    0 -0.95321696992E+03 -0.64594630391E+03  0.14281713482E+03  0.11602877084E+04  0.12699999809E+01 0. -1.
       -4    1    3    3    0  502  0.95321696992E+03  0.64594630391E+03  0.16047318152E+03  0.11625929959E+04  0.12699999809E+01 0.  1.
</event>
<event>
 5   0  0.7761069E-07  0.2299532E+04  0.7818609E-02  0.8478106E-01
       -1   -1    0    0    0  501  0.00000000000E+00  0.00000000000E+00  0.93623881774E+03  0.93623881775E+03  0.50400001928E-02 0. -1.
        1   -1    0    0  501    0  0.00000000000E+00  0.00000000000E+00 -0.14119922961E+04  0.14119922961E+04  0.50400001928E-02 0.  1.
    10030    2    1    2    0    0  0.00000000000E+00  0.00000000000E+00 -0.47575347834E+03  0.23482311138E+04  0.22995321246E+04 0.  0.
        1    1    3    3  502    0  0.50012573879E+03  0.16651182022E+03 -0.12813335943E+04  0.13855207399E+04  0.50400001928E-02 0.  1.
       -1    1    3    3    0  502 -0.50012573879E+03 -0.16651182022E+03  0.80558011593E+03  0.96271037393E+03  0.50400001928E-02 0. -1.
</event>
<event>
 5   0  0.1744876E-06  0.2304153E+04  0.7818609E-02  0.8476285E-01
       -2   -1    0    0    0  501  0.00000000000E+00  0.00000000000E+00  0.46182422070E+03  0.46182422070E+03  0.25500000920E-02 0. -1.
        2   -1    0    0  501    0  0.00000000000E+00  0.00000000000E+00 -0.28739943727E+04  0.28739943727E+04  0.25500000920E-02 0.  1.
    10030    2    1    2    0    0  0.00000000000E+00  0.00000000000E+00 -0.24121701520E+04  0.33358185934E+04  0.23041529563E+04 0.  0.
        1    1    3    3  502    0  0.64335869724E+03 -0.60301462106E+03 -0.22795084276E+04  0.24441145059E+04  0.50400001928E-02 0.  1.
       -1    1    3    3    0  502 -0.64335869724E+03  0.60301462106E+03 -0.13266172443E+03  0.89170408751E+03  0.50400001928E-02 0. -1.
</event>
<event>
 5   0  0.1888779E-06  0.2301353E+04  0.7818609E-02  0.8477388E-01
       -2   -1    0    0    0  501  0.00000000000E+00  0.00000000000E+00  0.52098182420E+03  0.52098182420E+03  0.25500000920E-02 0.  1.
        2   -1    0    0  501    0  0.00000000000E+00  0.00000000000E+00 -0.25414644230E+04  0.25414644230E+04  0.25500000920E-02 0. -1.
    10030    2    1    2    0    0  0.00000000000E+00  0.00000000000E+00 -0.20204825988E+04  0.30624462472E+04  0.23013533160E+04 0.  0.
        4    1    3    3  502    0 -0.33616623774E+02  0.56076748603E+03  0.32609440086E+03  0.64956094553E+03  0.12699999809E+01 0.  1.
       -4    1    3    3    0  502  0.33616623774E+02 -0.56076748603E+03 -0.23465769997E+04  0.24128853017E+04  0.12699999809E+01 0. -1.
</event>
<event>
 5   0  0.1689444E-06  0.2299442E+04  0.7818609E-02  0.8478141E-01
       -2   -1    0    0    0  501  0.00000000000E+00  0.00000000000E+00  0.15435418704E+04  0.15435418704E+04  0.25500000920E-02 0. -1.
        2   -1    0    0  501    0  0.00000000000E+00  0.00000000000E+00 -0.85638027656E+03  0.85638027656E+03  0.25500000920E-02 0.  1.
    10030    2    1    2    0    0  0.00000000000E+00  0.00000000000E+00  0.68716159380E+03  0.23999221469E+04  0.22994423792E+04 0.  0.
        2    1    3    3  502    0 -0.60024470488E+03 -0.95554926218E+03  0.11375227762E+03  0.11341550506E+04  0.25500000920E-02 0.  1.
       -2    1    3    3    0  502  0.60024470488E+03  0.95554926218E+03  0.57340931619E+03  0.12657670963E+04  0.25500000920E-02 0. -1.
</event>
<event>
 5   0  0.7932912E-07  0.2299159E+04  0.7818609E-02  0.8478253E-01
       -1   -1    0    0    0  501  0.00000000000E+00  0.00000000000E+00  0.16859481779E+04  0.16859481779E+04  0.50400001928E-02 0.  1.
        1   -1    0    0  501    0  0.00000000000E+00  0.00000000000E+00 -0.78385155150E+03  0.78385155152E+03  0.50400001928E-02 0. -1.
    10030    2    1    2    0    0  0.00000000000E+00  0.00000000000E+00  0.90209662641E+03  0.24697997294E+04  0.22991590593E+04 0.  0.
        5    1    3    3  502    0 -0.84620261370E+03  0.74182595348E+03  0.70330999698E+03  0.13270386771E+04  0.46999998093E+01 0. -1.
       -5    1    3    3    0  502  0.84620261370E+03 -0.74182595348E+03  0.19878662943E+03  0.11427610523E+04  0.46999998093E+01 0.  1.
</event>
<event>
 5   0  0.8097672E-07  0.2300502E+04  0.7818609E-02  0.8477723E-01
        1   -1    0    0  501    0  0.00000000000E+00  0.00000000000E+00  0.17528240647E+04  0.17528240647E+04  0.50400001928E-02 0. -1.
       -1   -1    0    0    0  501  0.00000000000E+00  0.00000000000E+00 -0.75482632025E+03  0.75482632027E+03  0.50400001928E-02 0.  1.
    10030    2    1    2    0    0  0.00000000000E+00  0.00000000000E+00  0.99799774443E+03  0.25076503850E+04  0.23005023267E+04 0.  0.
        3    1    3    3  502    0  0.12054502354E+03  0.81122454086E+03  0.13781328496E+04  0.16037040000E+04  0.10100000352E+00 0. -1.
       -3    1    3    3    0  502 -0.12054502354E+03 -0.81122454086E+03 -0.38013510518E+03  0.90394638491E+03  0.10100000352E+00 0.  1.
</event>
<event>
 5   0  0.1744876E-06  0.2300520E+04  0.7818609E-02  0.8477716E-01
        2   -1    0    0  501    0  0.00000000000E+00  0.00000000000E+00  0.14912167038E+04  0.14912167038E+04  0.25500000920E-02 0.  1.
       -2   -1    0    0    0  501  0.00000000000E+00  0.00000000000E+00 -0.88726038794E+03  0.88726038794E+03  0.25500000920E-02 0. -1.
    10030    2    1    2    0    0  0.00000000000E+00  0.00000000000E+00  0.60395631587E+03  0.23784770917E+04  0.23005195162E+04 0.  0.
        1    1    3    3  502    0  0.51451991356E+03 -0.10030092639E+04  0.53850832244E+03  0.12492996191E+04  0.50400001928E-02 0. -1.
       -1    1    3    3    0  502 -0.51451991356E+03  0.10030092639E+04  0.65447993430E+02  0.11291774727E+04  0.50400001928E-02 0.  1.
</event>
<event>
 5   0  0.8108242E-07  0.2299134E+04  0.7818609E-02  0.8478262E-01
        1   -1    0    0  501    0  0.00000000000E+00  0.00000000000E+00  0.10017455865E+04  0.10017455865E+04  0.50400001928E-02 0.  1.
       -1   -1    0    0    0  501  0.00000000000E+00  0.00000000000E+00 -0.13192020267E+04  0.13192020267E+04  0.50400001928E-02 0. -1.
    10030    2    1    2    0    0  0.00000000000E+00  0.00000000000E+00 -0.31745644022E+03  0.23209476132E+04  0.22991344527E+04 0.  0.
        4    1    3    3  502    0 -0.10003706926E+04  0.29383327445E+03 -0.64749503039E+03  0.12273267467E+04  0.12699999809E+01 0. -1.
       -4    1    3    3    0  502  0.10003706926E+04 -0.29383327445E+03  0.33003859017E+03  0.10936208665E+04  0.12699999809E+01 0.  1.
</event>
<event>
 5   0  0.8097672E-07  0.2298928E+04  0.7818609E-02  0.8478344E-01
       -1   -1    0    0    0  501  0.00000000000E+00  0.00000000000E+00  0.63256677628E+03  0.63256677630E+03  0.50400001928E-02 0.  1.
        1   -1    0    0  501    0  0.00000000000E+00  0.00000000000E+00 -0.20887399004E+04  0.20887399004E+04  0.50400001928E-02 0. -1.
    10030    2    1    2    0    0  0.00000000000E+00  0.00000000000E+00 -0.14561731242E+04  0.27213066767E+04  0.22989279809E+04 0.  0.
        3    1    3    3  502    0  0.11268442399E+04 -0.76820180303E+02 -0.98082902888E+03  0.14958960108E+04  0.10100000352E+00 0. -1.
       -3    1    3    3    0  502 -0.11268442399E+04  0.76820180303E+02 -0.47534409528E+03  0.12254106659E+04  0.10100000352E+00 0.  1.
</event>
<event>
 5   0  0.7761069E-07  0.2299803E+04  0.7818609E-02  0.8477999E-01
        1   -1    0    0  501    0  0.00000000000E+00  0.00000000000E+00  0.70898323414E+03  0.70898323416E+03  0.50400001928E-02 0.  1.
       -1   -1    0    0    0  501  0.00000000000E+00  0.00000000000E+00 -0.18650276529E+04  0.18650276529E+04  0.50400001928E-02 0. -1.
    10030    2    1    2    0    0  0.00000000000E+00  0.00000000000E+00 -0.11560444188E+04  0.25740108871E+04  0.22998028934E+04 0.  0.
        1    1    3    3  502    0 -0.61789160880E+03 -0.60177347991E+03 -0.14291913607E+04  0.16692840702E+04  0.50400001928E-02 0. -1.
       -1    1    3    3    0  502  0.61789160880E+03  0.60177347991E+03  0.27314694193E+03  0.90472681692E+03  0.50400001928E-02 0.  1.
</event>
<event>
 5   0  0.7932912E-07  0.2299843E+04  0.7818609E-02  0.8477983E-01
        1   -1    0    0  501    0  0.00000000000E+00  0.00000000000E+00  0.11799963836E+04  0.11799963836E+04  0.50400001928E-02 0.  1.
       -1   -1    0    0    0  501  0.00000000000E+00  0.00000000000E+00 -0.11206131940E+04  0.11206131940E+04  0.50400001928E-02 0. -1.
    10030    2    1    2    0    0  0.00000000000E+00  0.00000000000E+00  0.59383189567E+02  0.23006095777E+04  0.22998430524E+04 0.  0.
        5    1    3    3  502    0 -0.77918225009E+03  0.69085465736E+03  0.51759618874E+03  0.11628985515E+04  0.46999998093E+01 0.  1.
       -5    1    3    3    0  502  0.77918225009E+03 -0.69085465736E+03 -0.45821299918E+03  0.11377110262E+04  0.46999998093E+01 0. -1.
</event>
<event>
 5   0  0.8097672E-07  0.2300132E+04  0.7818609E-02  0.8477869E-01
       -1   -1    0    0    0  501  0.00000000000E+00  0.00000000000E+00  0.10071117611E+04  0.10071117611E+04  0.50400001928E-02 0.  1.
        1   -1    0    0  501    0  0.00000000000E+00  0.00000000000E+00 -0.13133118047E+04  0.13133118047E+04  0.50400001928E-02 0. -1.
    10030    2    1    2    0    0  0.00000000000E+00  0.00000000000E+00 -0.30620004359E+03  0.23204235658E+04  0.23001319653E+04 0.  0.
        3    1    3    3  502    0  0.59535132795E+03  0.92450460324E+03 -0.49296940346E+03  0.12050604998E+04  0.10100000352E+00 0.  1.
       -3    1    3    3    0  502 -0.59535132795E+03 -0.92450460324E+03  0.18676935987E+03  0.11153630660E+04  0.10100000352E+00 0. -1.
</event>
<event>
 5   0  0.1888779E-06  0.2299616E+04  0.7818609E-02  0.8478073E-01
       -2   -1    0    0    0  501  0.00000000000E+00  0.00000000000E+00  0.12141748249E+04  0.12141748249E+04  0.25500000920E-02 0. -1.
        2   -1    0    0  501    0  0.00000000000E+00  0.00000000000E+00 -0.10888534503E+04  0.10888534503E+04  0.25500000920E-02 0.  1.
    10030    2    1    2    0    0  0.00000000000E+00  0.00000000000E+00  0.12532137464E+03  0.23030282752E+04  0.22996160091E+04 0.  0.
        4    1    3    3  502    0  0.54773081727E+03 -0.97469910476E+03  0.33140461971E+03  0.11661380827E+04  0.12699999809E+01 0. -1.
       -4    1    3    3    0  502 -0.54773081727E+03  0.97469910476E+03 -0.20608324508E+03  0.11368901925E+04  0.12699999809E+01 0.  1.
</event>
<event>
 5   0  0.1744876E-06  0.2300307E+04  0.7818609E-02  0.8477800E-01
       -2   -1    0    0    0  501  0.00000000000E+00  0.00000000000E+00  0.85522392503E+03  0.85522392504E+03  0.25500000920E-02 0. -1.
        2   -1    0    0  501    0  0.00000000000E+00  0.00000000000E+00 -0.15467913586E+04  0.15467913586E+04  0.25500000920E-02 0.  1.
    10030    2    1    2    0    0  0.00000000000E+00  0.00000000000E+00 -0.69156743354E+03  0.24020152836E+04  0.23003069160E+04 0.  0.
        1    1    3    3  502    0  0.28323889314E+03  0.55251304062E+03 -0.13567641195E+04  0.14920803620E+04  0.50400001928E-02 0.  1.
       -1    1    3    3    0  502 -0.28323889314E+03 -0.55251304062E+03  0.66519668593E+03  0.90993492165E+03  0.50400001928E-02 0. -1.
</event>
<event>
 5   0  0.8108242E-07  0.2299899E+04  0.7818609E-02  0.8477961E-01
        1   -1    0    0  501    0  0.00000000000E+00  0.00000000000E+00  0.18179890173E+04  0.18179890173E+04  0.50400001928E-02 0. -1.
       -1   -1    0    0    0  501  0.00000000000E+00  0.00000000000E+00 -0.72738822790E+03  0.72738822791E+03  0.50400001928E-02 0.  1.
    10030    2    1    2    0    0  0.00000000000E+00  0.00000000000E+00  0.10906007894E+04  0.25453772452E+04  0.22998989627E+04 0.  0.
        4    1    3    3  502    0  0.60967063748E+02 -0.45688575983E+03  0.17112757181E+04  0.17722662827E+04  0.12699999809E+01 0. -1.
       -4    1    3    3    0  502 -0.60967063748E+02  0.45688575983E+03 -0.62067492870E+03  0.77311096255E+03  0.12699999809E+01 0.  1.
</event>
<event>
 5   0  0.1825521E-06  0.2296485E+04  0.7818609E-02  0.8479308E-01
        2   -1    0    0  501    0  0.00000000000E+00  0.00000000000E+00  0.14566231583E+04  0.14566231583E+04  0.25500000920E-02 0. -1.
       -2   -1    0    0    0  501  0.00000000000E+00  0.00000000000E+00 -0.90514858719E+03  0.90514858720E+03  0.25500000920E-02 0.  1.
    10030    2    1    2    0    0  0.00000000000E+00  0.00000000000E+00  0.55147457106E+03  0.23617717455E+04  0.22964846124E+04 0.  0.
        5    1    3    3  502    0  0.55778280210E+03 -0.46159774166E+03 -0.64080266928E+03  0.96687345624E+03  0.46999998093E+01 0.  1.
       -5    1    3    3    0  502 -0.55778280210E+03  0.46159774166E+03  0.11922772403E+04  0.13948982892E+04  0.46999998093E+01 0. -1.
</event>
<event>
 5   0  0.8108242E-07  0.2304489E+04  0.7818609E-02  0.8476153E-01
       -1   -1    0    0    0  501  0.00000000000E+00  0.00000000000E+00  0.95643922610E+03  0.95643922611E+03  0.50400001928E-02 0. -1.
        1   -1    0    0  501    0  0.00000000000E+00  0.00000000000E+00 -0.13881355624E+04  0.13881355624E+04  0.50400001928E-02 0.  1.
    10030    2    1    2    0    0  0.00000000000E+00  0.00000000000E+00 -0.43169633628E+03  0.23445747885E+04  0.23044889264E+04 0.  0.
        4    1    3    3  502    0  0.75013489682E+03  0.39046078292E+03  0.58039152674E+03  0.10256792499E+04  0.12699999809E+01 0.  1.
       -4    1    3    3    0  502 -0.75013489682E+03 -0.39046078292E+03 -0.10120878630E+04  0.13188955386E+04  0.12699999809E+01 0. -1.
</event>
<event>
 5   0  0.7761069E-07  0.2299857E+04  0.7818609E-02  0.8477977E-01
        1   -1    0    0  501    0  0.00000000000E+00  0.00000000000E+00  0.15782948527E+04  0.15782948527E+04  0.50400001928E-02 0. -1.
       -1   -1    0    0    0  501  0.00000000000E+00  0.00000000000E+00 -0.83782577810E+03  0.83782577812E+03  0.50400001928E-02 0.  1.
    10030    2    1    2    0    0  0.00000000000E+00  0.00000000000E+00  0.74046907455E+03  0.24161206308E+04  0.22998574852E+04 0.  0.
        1    1    3    3  502    0 -0.10776310234E+04 -0.64357935478E+02 -0.45902946353E+02  0.10805265601E+04  0.50400001928E-02 0.  1.
       -1    1    3    3    0  502  0.10776310234E+04  0.64357935478E+02  0.78637202090E+03  0.13355940707E+04  0.50400001928E-02 0. -1.
</event>
<event>
 5   0  0.7761069E-07  0.2299090E+04  0.7818609E-02  0.8478280E-01
        1   -1    0    0  501    0  0.00000000000E+00  0.00000000000E+00  0.89801143063E+03  0.89801143064E+03  0.50400001928E-02 0.  1.
       -1   -1    0    0    0  501  0.00000000000E+00  0.00000000000E+00 -0.14715327986E+04  0.14715327986E+04  0.50400001928E-02 0. -1.
    10030    2    1    2    0    0  0.00000000000E+00  0.00000000000E+00 -0.57352136797E+03  0.23695442292E+04  0.22990896231E+04 0.  0.
        1    1    3    3  502    0  0.66840136799E+03 -0.36873802893E+03 -0.11725906366E+04  0.13991772310E+04  0.50400001928E-02 0. -1.
       -1    1    3    3    0  502 -0.66840136799E+03  0.36873802893E+03  0.59906926860E+03  0.97036699826E+03  0.50400001928E-02 0.  1.
</event>
<event>
 5   0  0.8097672E-07  0.2300038E+04  0.7818609E-02  0.8477906E-01
        1   -1    0    0  501    0  0.00000000000E+00  0.00000000000E+00  0.11426801318E+04  0.11426801318E+04  0.50400001928E-02 0.  1.
       -1   -1    0    0    0  501  0.00000000000E+00  0.00000000000E+00 -0.11574053464E+04  0.11574053464E+04  0.50400001928E-02 0. -1.
    10030    2    1    2    0    0  0.00000000000E+00  0.00000000000E+00 -0.14725214611E+02  0.23000854783E+04  0.23000383422E+04 0.  0.
        3    1    3    3  502    0 -0.24209736624E+03  0.44986171895E+03 -0.10377027907E+04  0.11566390072E+04  0.10100000352E+00 0. -1.
       -3    1    3    3    0  502  0.24209736624E+03 -0.44986171895E+03  0.10229775761E+04  0.11434464711E+04  0.10100000352E+00 0.  1.
</event>
<event>
 5   0  0.1825521E-06  0.2300363E+04  0.7818609E-02  0.8477778E-01
        2   -1    0    0  501    0  0.00000000000E+00  0.00000000000E+00  0.15709332108E+04  0.15709332108E+04  0.25500000920E-02 0.  1.
       -2   -1    0    0    0  501  0.00000000000E+00  0.00000000000E+00 -0.84212203066E+03  0.84212203067E+03  0.25500000920E-02 0. -1.
    10030    2    1    2    0    0  0.00000000000E+00  0.00000000000E+00  0.72881118014E+03  0.24130552415E+04  0.23003629849E+04 0.  0.
        5    1    3    3  502    0  0.10310171857E+03  0.11072806643E+04  0.56433199896E+02  0.11135112168E+04  0.46999998093E+01 0. -1.
       -5    1    3    3    0  502 -0.10310171857E+03 -0.11072806643E+04  0.67237798024E+03  0.12995440247E+04  0.46999998093E+01 0.  1.
</event>
<event>
 5   0  0.1744876E-06  0.2299733E+04  0.7818609E-02  0.8478027E-01
        2   -1    0    0  501    0  0.00000000000E+00  0.00000000000E+00  0.13650899182E+04  0.13650899182E+04  0.25500000920E-02 0.  1.
       -2   -1    0    0    0  501  0.00000000000E+00  0.00000000000E+00 -0.96857547500E+03  0.96857547500E+03  0.25500000920E-02 0. -1.
    10030    2    1    2    0    0  0.00000000000E+00  0.00000000000E+00  0.39651444322E+03  0.23336653932E+04  0.22997326940E+04 0.  0.
        1    1    3    3  502    0 -0.16639584964E+03 -0.78335906141E+03 -0.63905629381E+03  0.10245642706E+04  0.50400001928E-02 0. -1.
       -1    1    3    3    0  502  0.16639584964E+03  0.78335906141E+03  0.10355707370E+04  0.13091011226E+04  0.50400001928E-02 0.  1.
</event>
<event>
 5   0  0.8108242E-07  0.2299661E+04  0.7818609E-02  0.8478055E-01
       -1   -1    0    0    0  501  0.00000000000E+00  0.00000000000E+00  0.59243232663E+03  0.59243232665E+03  0.50400001928E-02 0.  1.
        1   -1    0    0  501    0  0.00000000000E+00  0.00000000000E+00 -0.22316643108E+04  0.22316643108E+04  0.50400001928E-02 0. -1.
    10030    2    1    2    0    0  0.00000000000E+00  0.00000000000E+00 -0.16392319841E+04  0.28240966374E+04  0.22996609141E+04 0.  0.
        4    1    3    3  502    0 -0.11420434095E+04 -0.29747319989E+02 -0.97954748234E+03  0.15048797079E+04  0.12699999809E+01 0.  1.
       -4    1    3    3    0  502  0.11420434095E+04  0.29747319989E+02 -0.65968450179E+03  0.13192169295E+04  0.12699999809E+01 0. -1.
</event>
<event>
 5   0  0.8097672E-07  0.2297322E+04  0.7818609E-02  0.8478978E-01
       -1   -1    0    0    0  501  0.00000000000E+00  0.00000000000E+00  0.68697747169E+03  0.68697747171E+03  0.50400001928E-02 0. -1.
        1   -1    0    0  501    0  0.00000000000E+00  0.00000000000E+00 -0.19206194906E+04  0.19206194906E+04  0.50400001928E-02 0.  1.
    10030    2    1    2    0    0  0.00000000000E+00  0.00000000000E+00 -0.12336420189E+04  0.26075969623E+04  0.22973221992E+04 0.  0.
        3    1    3    3  502    0  0.70473657454E+03 -0.83948495296E+03 -0.10067823383E+04  0.14882873757E+04  0.10100000352E+00 0.  1.
       -3    1    3    3    0  502 -0.70473657454E+03  0.83948495296E+03 -0.22685968059E+03  0.11193095866E+04  0.10100000352E+00 0. -1.
</event>
<event>
 5   0  0.1825521E-06  0.2299057E+04  0.7818609E-02  0.8478293E-01
       -2   -1    0    0    0  501  0.00000000000E+00  0.00000000000E+00  0.88201743883E+03  0.88201743884E+03  0.25500000920E-02 0. -1.
        2   -1    0    0  501    0  0.00000000000E+00  0.00000000000E+00 -0.14981745847E+04  0.14981745847E+04  0.25500000920E-02 0.  1.
    10030    2    1    2    0    0  0.00000000000E+00  0.00000000000E+00 -0.61615714582E+03  0.23801920235E+04  0.22990572938E+04 0.  0.
        5    1    3    3  502    0 -0.57584246177E+03  0.62590712997E+03  0.49254288302E+03  0.98284019949E+03  0.46999998093E+01 0. -1.
       -5    1    3    3    0  502  0.57584246177E+03 -0.62590712997E+03 -0.11087000288E+04  0.13973518240E+04  0.46999998093E+01 0.  1.
</event>
<event>
 5   0  0.8097672E-07  0.2300498E+04  0.7818609E-02  0.8477725E-01
        1   -1    0    0  501    0  0.00000000000E+00  0.00000000000E+00  0.15853035992E+04  0.15853035992E+04  0.50400001928E-02 0.  1.
       -1   -1    0    0    0  501  0.00000000000E+00  0.00000000000E+00 -0.83458609661E+03  0.83458609663E+03  0.50400001928E-02 0. -1.
    10030    2    1    2    0    0  0.00000000000E+00  0.00000000000E+00  0.75071750255E+03  0.24198896958E+04  0.23004976356E+04 0.  0.
        3    1    3    3  502    0  0.11065379188E+03 -0.76481902852E+02  0.15770017827E+04  0.15827281434E+04  0.10100000352E+00 0.  1.
       -3    1    3    3    0  502 -0.11065379188E+03  0.76481902852E+02 -0.82628428010E+03  0.83716155243E+03  0.10100000352E+00 0. -1.
</event>
<event>
 5   0  0.7761069E-07  0.2300278E+04  0.7818609E-02  0.8477811E-01
        1   -1    0    0  501    0  0.00000000000E+00  0.00000000000E+00  0.24146198813E+04  0.24146198813E+04  0.50400001928E-02 0. -1.
       -1   -1    0    0    0  501  0.00000000000E+00  0.00000000000E+00 -0.54783776510E+03  0.54783776513E+03  0.50400001928E-02 0.  1.
    10030    2    1    2    0    0  0.00000000000E+00  0.00000000000E+00  0.18667821162E+04  0.29624576464E+04  0.23002782087E+04 0.  0.
        1    1    3    3  502    0  0.58879720384E+03 -0.80118070332E+02 -0.33482928843E+03  0.68206429672E+03  0.50400001928E-02 0.  1.
       -1    1    3    3    0  502 -0.58879720384E+03  0.80118070332E+02  0.22016114046E+04  0.22803933497E+04  0.50400001928E-02 0. -1.
</event>
<event>
 5   0  0.1888779E-06  0.2301437E+04  0.7818609E-02  0.8477355E-01
       -2   -1    0    0    0  501  0.00000000000E+00  0.00000000000E+00  0.91365662799E+03  0.91365662799E+03  0.25500000920E-02 0. -1.
        2   -1    0    0  501    0  0.00000000000E+00  0.00000000000E+00 -0.14492896611E+04  0.14492896611E+04  0.25500000920E-02 0.  1.
    10030    2    1    2    0    0  0.00000000000E+00  0.00000000000E+00 -0.53563303310E+03  0.23629462891E+04  0.23014370334E+04 0.  0.
        4    1    3    3  502    0  0.54879530076E+03 -0.66709237507E+03 -0.10483737647E+04  0.13584099832E+04  0.12699999809E+01 0.  1.
       -4    1    3    3    0  502 -0.54879530076E+03  0.66709237507E+03  0.51274073164E+03  0.10045363059E+04  0.12699999809E+01 0. -1.
</event>
<event>
 5   0  0.1689444E-06  0.2298257E+04  0.7818609E-02  0.8478609E-01
        2   -1    0    0  501    0  0.00000000000E+00  0.00000000000E+00  0.13547494805E+04  0.13547494805E+04  0.25500000920E-02 0.  1.
       -2   -1    0    0    0  501  0.00000000000E+00  0.00000000000E+00 -0.97471638078E+03  0.97471638078E+03  0.25500000920E-02 0. -1.
    10030    2    1    2    0    0  0.00000000000E+00  0.00000000000E+00  0.38003309967E+03  0.23294658612E+04  0.22982571749E+04 0.  0.
        2    1    3    3  502    0  0.36754347207E+03  0.24639344591E+03 -0.88490259580E+03  0.98936875739E+03  0.25500000920E-02 0. -1.
       -2    1    3    3    0  502 -0.36754347207E+03 -0.24639344591E+03  0.12649356955E+04  0.13400971038E+04  0.25500000920E-02 0.  1.
</event>
<event>
 5   0  0.7607231E-07  0.2299508E+04  0.7818609E-02  0.8478115E-01
        1   -1    0    0  501    0  0.00000000000E+00  0.00000000000E+00  0.65038853446E+03  0.65038853448E+03  0.50400001928E-02 0. -1.
       -1   -1    0    0    0  501  0.00000000000E+00  0.00000000000E+00 -0.20325294599E+04  0.20325294599E+04  0.50400001928E-02 0.  1.
    10030    2    1    2    0    0  0.00000000000E+00  0.00000000000E+00 -0.13821409255E+04  0.26829179944E+04  0.22995076488E+04 0.  0.
        2    1    3    3  502    0 -0.94377346245E+03 -0.26343611566E+03  0.10745073769E+02  0.97990937953E+03  0.25500000920E-02 0.  1.
       -2    1    3    3    0  502  0.94377346245E+03  0.26343611566E+03 -0.13928859992E+04  0.17030086149E+04  0.25500000920E-02 0. -1.
</event>
<event>
 5   0  0.1689444E-06  0.2299198E+04  0.7818609E-02  0.8478237E-01
        2   -1    0    0  501    0  0.00000000000E+00  0.00000000000E+00  0.23022202414E+04  0.23022202414E+04  0.25500000920E-02 0.  1.
       -2   -1    0    0    0  501  0.00000000000E+00  0.00000000000E+00 -0.57404483750E+03  0.57404483751E+03  0.25500000920E-02 0. -1.
    10030    2    1    2    0    0  0.00000000000E+00  0.00000000000E+00  0.17281754039E+04  0.28762650789E+04  0.22991978118E+04 0.  0.
        2    1    3    3  502    0  0.11002297587E+04 -0.33307446048E+03  0.84963211625E+03  0.14294470439E+04  0.25500000920E-02 0.  1.
       -2    1    3    3    0  502 -0.11002297587E+04  0.33307446048E+03  0.87854328768E+03  0.14468180351E+04  0.25500000920E-02 0. -1.
</event>
<event>
 5   0  0.7607231E-07  0.2299761E+04  0.7818609E-02  0.8478015E-01
        1   -1    0    0  501    0  0.00000000000E+00  0.00000000000E+00  0.11040690388E+04  0.11040690388E+04  0.50400001928E-02 0.  1.
       -1   -1    0    0    0  501  0.00000000000E+00  0.00000000000E+00 -0.11975931124E+04  0.11975931124E+04  0.50400001928E-02 0. -1.
    10030    2    1    2    0    0  0.00000000000E+00  0.00000000000E+00 -0.93524073592E+02  0.23016621512E+04  0.22997612715E+04 0.  0.
        2    1    3    3  502    0  0.20361644899E+03 -0.35480641544E+02 -0.11788499233E+04  0.11968315152E+04  0.25500000920E-02 0. -1.
       -2    1    3    3    0  502 -0.20361644899E+03  0.35480641544E+02  0.10853258497E+04  0.11048306360E+04  0.25500000920E-02 0.  1.
</event>
<event>
 5   0  0.6319125E-07  0.2300155E+04  0.7818609E-02  0.8477860E-01
       -3   -1    0    0    0  501  0.00000000000E+00  0.00000000000E+00  0.13937124144E+04  0.13937124181E+04  0.10100000352E+00 0.  1.
        3   -1    0    0  501    0  0.00000000000E+00  0.00000000000E+00 -0.94903270192E+03  0.94903270729E+03  0.10100000352E+00 0. -1.
    10030    2    1    2    0    0  0.00000000000E+00  0.00000000000E+00  0.44467971249E+03  0.23427451254E+04  0.23001553590E+04 0.  0.
        4    1    3    3  502    0 -0.31335846433E+03 -0.92071572186E+03  0.84751798400E+03  0.12900384931E+04  0.12699999809E+01 0.  1.
       -4    1    3    3    0  502  0.31335846433E+03  0.92071572186E+03 -0.40283827151E+03  0.10527066322E+04  0.12699999809E+01 0. -1.
</event>
<event>
 5   0  0.7761069E-07  0.2300799E+04  0.7818609E-02  0.8477606E-01
        1   -1    0    0  501    0  0.00000000000E+00  0.00000000000E+00  0.84631377420E+03  0.84631377422E+03  0.50400001928E-02 0.  1.
       -1   -1    0    0    0  501  0.00000000000E+00  0.00000000000E+00 -0.15637454965E+04  0.15637454966E+04  0.50400001928E-02 0. -1.
    10030    2    1    2    0    0  0.00000000000E+00  0.00000000000E+00 -0.71743172235E+03  0.24100592708E+04  0.23007992986E+04 0.  0.
        1    1    3    3  502    0  0.88266334299E+03 -0.80706659724E+02 -0.11268974827E+04  0.14337036230E+04  0.50400001928E-02 0. -1.
       -1    1    3    3    0  502 -0.88266334299E+03  0.80706659724E+02  0.40946576039E+03  0.97635564777E+03  0.50400001928E-02 0.  1.
</event>
<event>
 5   0  0.1689444E-06  0.2298152E+04  0.7818609E-02  0.8478650E-01
       -2   -1    0    0    0  501  0.00000000000E+00  0.00000000000E+00  0.13187678754E+04  0.13187678754E+04  0.25500000920E-02 0.  1.
        2   -1    0    0  501    0  0.00000000000E+00  0.00000000000E+00 -0.10012195731E+04  0.10012195731E+04  0.25500000920E-02 0. -1.
    10030    2    1    2    0    0  0.00000000000E+00  0.00000000000E+00  0.31754830233E+03  0.23199874485E+04  0.22981524834E+04 0.  0.
        2    1    3    3  502    0 -0.66213197749E+03  0.90477169541E+03  0.41285102302E+03  0.11947704983E+04  0.25500000920E-02 0. -1.
       -2    1    3    3    0  502  0.66213197749E+03 -0.90477169541E+03 -0.95302720694E+02  0.11252169502E+04  0.25500000920E-02 0.  1.
</event>
<event>
 5   0  0.1888779E-06  0.2299370E+04  0.7818609E-02  0.8478169E-01
       -2   -1    0    0    0  501  0.00000000000E+00  0.00000000000E+00  0.84733915102E+03  0.84733915103E+03  0.25500000920E-02 0.  1.
        2   -1    0    0  501    0  0.00000000000E+00  0.00000000000E+00 -0.15599136670E+04  0.15599136670E+04  0.25500000920E-02 0. -1.
    10030    2    1    2    0    0  0.00000000000E+00  0.00000000000E+00 -0.71257451599E+03  0.24072528180E+04  0.22993702810E+04 0.  0.
        4    1    3    3  502    0 -0.58612888081E+03 -0.24103307877E+03  0.64795260351E+03  0.90635986191E+03  0.12699999809E+01 0.  1.
       -4    1    3    3    0  502  0.58612888081E+03  0.24103307877E+03 -0.13605271195E+04  0.15008929561E+04  0.12699999809E+01 0. -1.
</event>
<event>
 5   0  0.1744876E-06  0.2303192E+04  0.7818609E-02  0.8476664E-01
        2   -1    0    0  501    0  0.00000000000E+00  0.00000000000E+00  0.13647110196E+04  0.13647110196E+04  0.25500000920E-02 0. -1.
       -2   -1    0    0    0  501  0.00000000000E+00  0.00000000000E+00 -0.97176098095E+03  0.97176098096E+03  0.25500000920E-02 0.  1.
    10030    2    1    2    0    0  0.00000000000E+00  0.00000000000E+00  0.39295003860E+03  0.23364720005E+04  0.23031916282E+04 0.  0.
        1    1    3    3  502    0  0.25206890860E+03  0.90363783300E+03 -0.48106258426E+03  0.10542870946E+04  0.50400001928E-02 0.  1.
       -1    1    3    3    0  502 -0.25206890860E+03 -0.90363783300E+03  0.87401262285E+03  0.12821849059E+04  0.50400001928E-02 0. -1.
</event>
<event>
 5   0  0.1744876E-06  0.2299765E+04  0.7818609E-02  0.8478014E-01
       -2   -1    0    0    0  501  0.00000000000E+00  0.00000000000E+00  0.13883829288E+04  0.13883829288E+04  0.25500000920E-02 0. -1.
        2   -1    0    0  501    0  0.00000000000E+00  0.00000000000E+00 -0.95235201969E+03  0.95235201969E+03  0.25500000920E-02 0.  1.
    10030    2    1    2    0    0  0.00000000000E+00  0.00000000000E+00  0.43603090914E+03  0.23407349485E+04  0.22997645848E+04 0.  0.
        1    1    3    3  502    0 -0.41858089505E+02 -0.65240447235E+03 -0.74479968144E+03  0.99101476311E+03  0.50400001928E-02 0.  1.
       -1    1    3    3    0  502  0.41858089505E+02  0.65240447235E+03  0.11808305906E+04  0.13497201854E+04  0.50400001928E-02 0. -1.
</event>
<event>
 5   0  0.7607231E-07  0.2299474E+04  0.7818609E-02  0.8478129E-01
        1   -1    0    0  501    0  0.00000000000E+00  0.00000000000E+00  0.17083493803E+04  0.17083493803E+04  0.50400001928E-02 0.  1.
       -1   -1    0    0    0  501  0.00000000000E+00  0.00000000000E+00 -0.77378473854E+03  0.77378473856E+03  0.50400001928E-02 0. -1.
    10030    2    1    2    0    0  0.00000000000E+00  0.00000000000E+00  0.93456464174E+03  0.24821341188E+04  0.22994735733E+04 0.  0.
        2    1    3    3  502    0 -0.11330823271E+02  0.10746941658E+04  0.90813471717E+03  0.14070552946E+04  0.25500000920E-02 0.  1.
       -2    1    3    3    0  502  0.11330823271E+02 -0.10746941658E+04  0.26429924574E+02  0.10750788243E+04  0.25500000920E-02 0. -1.
</event>
<event>
 5   0  0.1825521E-06  0.2300006E+04  0.7818609E-02  0.8477919E-01
        2   -1    0    0  501    0  0.00000000000E+00  0.00000000000E+00  0.14317465207E+04  0.14317465207E+04  0.25500000920E-02 0. -1.
       -2   -1    0    0    0  501  0.00000000000E+00  0.00000000000E+00 -0.92370175417E+03  0.92370175417E+03  0.25500000920E-02 0.  1.
    10030    2    1    2    0    0  0.00000000000E+00  0.00000000000E+00  0.50804476649E+03  0.23554482748E+04  0.23000058893E+04 0.  0.
        5    1    3    3  502    0 -0.93663202551E+03  0.16817734224E+03 -0.40723689110E+03  0.10350976500E+04  0.46999998093E+01 0.  1.
       -5    1    3    3    0  502  0.93663202551E+03 -0.16817734224E+03  0.91528165759E+03  0.13203506248E+04  0.46999998093E+01 0. -1.
</event>
<event>
 5   0  0.1744876E-06  0.2300230E+04  0.7818609E-02  0.8477831E-01
       -2   -1    0    0    0  501  0.00000000000E+00  0.00000000000E+00  0.64637595783E+03  0.64637595783E+03  0.25500000920E-02 0. -1.
        2   -1    0    0  501    0  0.00000000000E+00  0.00000000000E+00 -0.20464312795E+04  0.20464312795E+04  0.25500000920E-02 0.  1.
    10030    2    1    2    0    0  0.00000000000E+00  0.00000000000E+00 -0.14000553217E+04  0.26928072373E+04  0.23002295350E+04 0.  0.
        1    1    3    3  502    0 -0.11123934292E+04  0.21354998509E+03 -0.46665240723E+03  0.12250662050E+04  0.50400001928E-02 0.  1.
       -1    1    3    3    0  502  0.11123934292E+04 -0.21354998509E+03 -0.93340291442E+03  0.14677410323E+04  0.50400001928E-02 0. -1.
</event>
<event>
 5   0  0.1825521E-06  0.2300119E+04  0.7818609E-02  0.8477874E-01
        2   -1    0    0  501    0  0.00000000000E+00  0.00000000000E+00  0.28011818952E+04  0.28011818952E+04  0.25500000920E-02 0. -1.
       -2   -1    0    0    0  501  0.00000000000E+00  0.00000000000E+00 -0.47217081160E+03  0.47217081160E+03  0.25500000920E-02 0.  1.
    10030    2    1    2    0    0  0.00000000000E+00  0.00000000000E+00  0.23290110836E+04  0.32733527068E+04  0.23001185438E+04 0.  0.
        5    1    3    3  502    0  0.10682054082E+04 -0.35236178031E+03  0.82357130793E+03  0.13940994970E+04  0.46999998093E+01 0.  1.
       -5    1    3    3    0  502 -0.10682054082E+04  0.35236178031E+03  0.15054397757E+04  0.18792532098E+04  0.46999998093E+01 0. -1.
</event>
<event>
 5   0  0.1888779E-06  0.2299999E+04  0.7818609E-02  0.8477921E-01
       -2   -1    0    0    0  501  0.00000000000E+00  0.00000000000E+00  0.74330356039E+03  0.74330356040E+03  0.25500000920E-02 0. -1.
        2   -1    0    0  501    0  0.00000000000E+00  0.00000000000E+00 -0.17792184602E+04  0.17792184602E+04  0.25500000920E-02 0.  1.
    10030    2    1    2    0    0  0.00000000000E+00  0.00000000000E+00 -0.10359148998E+04  0.25225220206E+04  0.22999994923E+04 0.  0.
        4    1    3    3  502    0  0.69114753637E+02 -0.95337899745E+03 -0.12191819167E+04  0.15492302995E+04  0.12699999809E+01 0.  1.
       -4    1    3    3    0  502 -0.69114753637E+02  0.95337899745E+03  0.18326701692E+03  0.97329172109E+03  0.12699999809E+01 0. -1.
</event>
<event>
 5   0  0.7761069E-07  0.2301485E+04  0.7818609E-02  0.8477336E-01
       -1   -1    0    0    0  501  0.00000000000E+00  0.00000000000E+00  0.85272655269E+03  0.85272655271E+03  0.50400001928E-02 0.  1.
        1   -1    0    0  501    0  0.00000000000E+00  0.00000000000E+00 -0.15529108728E+04  0.15529108728E+04  0.50400001928E-02 0. -1.
    10030    2    1    2    0    0  0.00000000000E+00  0.00000000000E+00 -0.70018432011E+03  0.24056374255E+04  0.23014850295E+04 0.  0.
        1    1    3    3  502    0  0.74117937467E+03 -0.29215829076E+03  0.51784988728E+03  0.95019568409E+03  0.50400001928E-02 0. -1.
       -1    1    3    3    0  502 -0.74117937467E+03  0.29215829076E+03 -0.12180342074E+04  0.14554417414E+04  0.50400001928E-02 0.  1.
</event>
<event>
 5   0  0.1828646E-06  0.2300217E+04  0.7818609E-02  0.8477836E-01
        2   -1    0    0  501    0  0.00000000000E+00  0.00000000000E+00  0.22046347537E+04  0.22046347537E+04  0.25500000920E-02 0.  1.
       -2   -1    0    0    0  501  0.00000000000E+00  0.00000000000E+00 -0.59998573499E+03  0.59998573499E+03  0.25500000920E-02 0. -1.
    10030    2    1    2    0    0  0.00000000000E+00  0.00000000000E+00  0.16046490187E+04  0.28046204887E+04  0.23002168620E+04 0.  0.
        3    1    3    3  502    0 -0.74068277115E+03 -0.78127791778E+03  0.30893829566E+03  0.11200218895E+04  0.10100000352E+00 0. -1.
       -3    1    3    3    0  502  0.74068277115E+03  0.78127791778E+03  0.12957107230E+04  0.16845985992E+04  0.10100000352E+00 0.  1.
</event>
<event>
 5   0  0.1744876E-06  0.2300063E+04  0.7818609E-02  0.8477896E-01
       -2   -1    0    0    0  501  0.00000000000E+00  0.00000000000E+00  0.10938927918E+04  0.10938927918E+04  0.25500000920E-02 0.  1.
        2   -1    0    0  501    0  0.00000000000E+00  0.00000000000E+00 -0.12090512759E+04  0.12090512759E+04  0.25500000920E-02 0. -1.
    10030    2    1    2    0    0  0.00000000000E+00  0.00000000000E+00 -0.11515848412E+03  0.23029440678E+04  0.23000630215E+04 0.  0.
        1    1    3    3  502    0 -0.95877448736E+03  0.58706771808E+03 -0.30011282248E+03  0.11635999009E+04  0.50400001928E-02 0. -1.
       -1    1    3    3    0  502  0.95877448736E+03 -0.58706771808E+03  0.18495433836E+03  0.11393441668E+04  0.50400001928E-02 0.  1.
</event>
<event>
 5   0  0.8108242E-07  0.2299874E+04  0.7818609E-02  0.8477971E-01
        1   -1    0    0  501    0  0.00000000000E+00  0.00000000000E+00  0.24798443927E+04  0.24798443927E+04  0.50400001928E-02 0.  1.
       -1   -1    0    0    0  501  0.00000000000E+00  0.00000000000E+00 -0.53324136180E+03  0.53324136183E+03  0.50400001928E-02 0. -1.
    10030    2    1    2    0    0  0.00000000000E+00  0.00000000000E+00  0.19466030309E+04  0.30130857546E+04  0.22998744323E+04 0.  0.
        4    1    3    3  502    0  0.54946096217E+03  0.93554918187E+02 -0.34444531154E+03  0.65521298614E+03  0.12699999809E+01 0. -1.
       -4    1    3    3    0  502 -0.54946096217E+03 -0.93554918187E+02  0.22910483425E+04  0.23578727684E+04  0.12699999809E+01 0.  1.
</event>
<event>
 5   0  0.1828646E-06  0.2299326E+04  0.7818609E-02  0.8478187E-01
        2   -1    0    0  501    0  0.00000000000E+00  0.00000000000E+00  0.10270329374E+04  0.10270329374E+04  0.25500000920E-02 0. -1.
       -2   -1    0    0    0  501  0.00000000000E+00  0.00000000000E+00 -0.12869356898E+04  0.12869356898E+04  0.25500000920E-02 0.  1.
    10030    2    1    2    0    0  0.00000000000E+00  0.00000000000E+00 -0.25990275240E+03  0.23139686273E+04  0.22993262855E+04 0.  0.
        3    1    3    3  502    0 -0.32790987317E+03  0.70017624057E+03 -0.98622438011E+03  0.12531600819E+04  0.10100000352E+00 0.  1.
       -3    1    3    3    0  502  0.32790987317E+03 -0.70017624057E+03  0.72632162772E+03  0.10608085453E+04  0.10100000352E+00 0. -1.
</event>
<event>
 5   0  0.1744876E-06  0.2300007E+04  0.7818609E-02  0.8477918E-01
       -2   -1    0    0    0  501  0.00000000000E+00  0.00000000000E+00  0.59697551917E+03  0.59697551917E+03  0.25500000920E-02 0.  1.
        2   -1    0    0  501    0  0.00000000000E+00  0.00000000000E+00 -0.22153481130E+04  0.22153481130E+04  0.25500000920E-02 0. -1.
    10030    2    1    2    0    0  0.00000000000E+00  0.00000000000E+00 -0.16183725938E+04  0.28123236321E+04  0.23000074695E+04 0.  0.
        1    1    3    3  502    0  0.21859910291E+03 -0.64768584990E+03 -0.19399621174E+04  0.20568751894E+04  0.50400001928E-02 0. -1.
       -1    1    3    3    0  502 -0.21859910291E+03  0.64768584990E+03  0.32158952356E+03  0.75544844274E+03  0.50400001928E-02 0.  1.
</event>
<event>
 5   0  0.7607231E-07  0.2300740E+04  0.7818609E-02  0.8477629E-01
        1   -1    0    0  501    0  0.00000000000E+00  0.00000000000E+00  0.80014119243E+03  0.80014119245E+03  0.50400001928E-02 0. -1.
       -1   -1    0    0    0  501  0.00000000000E+00  0.00000000000E+00 -0.16538967308E+04  0.16538967308E+04  0.50400001928E-02 0.  1.
    10030    2    1    2    0    0  0.00000000000E+00  0.00000000000E+00 -0.85375553840E+03  0.24540379233E+04  0.23007397961E+04 0.  0.
        2    1    3    3  502    0  0.56071276687E+02  0.91762214004E+03 -0.11644556595E+04  0.14836210308E+04  0.25500000920E-02 0.  1.
       -2    1    3    3    0  502 -0.56071276687E+02 -0.91762214004E+03  0.31070012113E+03  0.97041689250E+03  0.25500000920E-02 0. -1.
</event>
<event>
 5   0  0.1825521E-06  0.2300970E+04  0.7818609E-02  0.8477539E-01
        2   -1    0    0  501    0  0.00000000000E+00  0.00000000000E+00  0.13463976145E+04  0.13463976145E+04  0.25500000920E-02 0. -1.
       -2   -1    0    0    0  501  0.00000000000E+00  0.00000000000E+00 -0.98307950052E+03  0.98307950052E+03  0.25500000920E-02 0.  1.
    10030    2    1    2    0    0  0.00000000000E+00  0.00000000000E+00  0.36331811395E+03  0.23294771150E+04  0.23009701383E+04 0.  0.
        5    1    3    3  502    0  0.38170563645E+03  0.79701054864E+03  0.92744619822E+03  0.12810556382E+04  0.46999998093E+01 0. -1.
       -5    1    3    3    0  502 -0.38170563645E+03 -0.79701054864E+03 -0.56412808428E+03  0.10484214768E+04  0.46999998093E+01 0.  1.
</event>
<event>
 5   0  0.7761069E-07  0.2299814E+04  0.7818609E-02  0.8477994E-01
       -1   -1    0    0    0  501  0.00000000000E+00  0.00000000000E+00  0.85073383493E+03  0.85073383495E+03  0.50400001928E-02 0. -1.
        1   -1    0    0  501    0  0.00000000000E+00  0.00000000000E+00 -0.15542887173E+04  0.15542887173E+04  0.50400001928E-02 0.  1.
    10030    2    1    2    0    0  0.00000000000E+00  0.00000000000E+00 -0.70355488240E+03  0.24050225523E+04  0.22998139065E+04 0.  0.
        1    1    3    3  502    0  0.44445067500E+03  0.10341706493E+04 -0.10599213656E+03  0.11306103075E+04  0.50400001928E-02 0. -1.
       -1    1    3    3    0  502 -0.44445067500E+03 -0.10341706493E+04 -0.59756274584E+03  0.12744122448E+04  0.50400001928E-02 0.  1.
</event>
<event>
 5   0  0.1744876E-06  0.2299167E+04  0.7818609E-02  0.8478250E-01
        2   -1    0    0  501    0  0.00000000000E+00  0.00000000000E+00  0.14567210891E+04  0.14567210891E+04  0.25500000920E-02 0.  1.
       -2   -1    0    0    0  501  0.00000000000E+00  0.00000000000E+00 -0.90720317776E+03  0.90720317776E+03  0.25500000920E-02 0. -1.
    10030    2    1    2    0    0  0.00000000000E+00  0.00000000000E+00  0.54951791131E+03  0.23639242668E+04  0.22991668066E+04 0.  0.
        1    1    3    3  502    0 -0.21924423372E+03  0.10422196888E+04  0.71967330401E+03  0.12853869372E+04  0.50400001928E-02 0.  1.
       -1    1    3    3    0  502  0.21924423372E+03 -0.10422196888E+04 -0.17015539271E+03  0.10785373296E+04  0.50400001928E-02 0. -1.
</event>
<event>
 5   0  0.1689444E-06  0.2299922E+04  0.7818609E-02  0.8477952E-01
        2   -1    0    0  501    0  0.00000000000E+00  0.00000000000E+00  0.13051199764E+04  0.13051199764E+04  0.25500000920E-02 0. -1.
       -2   -1    0    0    0  501  0.00000000000E+00  0.00000000000E+00 -0.10132483137E+04  0.10132483137E+04  0.25500000920E-02 0.  1.
    10030    2    1    2    0    0  0.00000000000E+00  0.00000000000E+00  0.29187166270E+03  0.23183682900E+04  0.22999222728E+04 0.  0.
        2    1    3    3  502    0  0.11264426156E+04 -0.22909173730E+03  0.17867127863E+03  0.11633053838E+04  0.25500000920E-02 0.  1.
       -2    1    3    3    0  502 -0.11264426156E+04  0.22909173730E+03  0.11320038407E+03  0.11550629062E+04  0.25500000920E-02 0. -1.
</event>
<event>
 5   0  0.7932912E-07  0.2300297E+04  0.7818609E-02  0.8477804E-01
       -1   -1    0    0    0  501  0.00000000000E+00  0.00000000000E+00  0.15813268640E+04  0.15813268640E+04  0.50400001928E-02 0. -1.
        1   -1    0    0  501    0  0.00000000000E+00  0.00000000000E+00 -0.83653897075E+03  0.83653897077E+03  0.50400001928E-02 0.  1.
    10030    2    1    2    0    0  0.00000000000E+00  0.00000000000E+00  0.74478789321E+03  0.24178658347E+04  0.23002969784E+04 0.  0.
        5    1    3    3  502    0 -0.57680532793E+03  0.90639149259E+03  0.80395061483E+03  0.13418675811E+04  0.46999998093E+01 0. -1.
       -5    1    3    3    0  502  0.57680532793E+03 -0.90639149259E+03 -0.59162721620E+02  0.10759982536E+04  0.46999998093E+01 0.  1.
</event>
<event>
 5   0  0.8097672E-07  0.2299148E+04  0.7818609E-02  0.8478257E-01
        1   -1    0    0  501    0  0.00000000000E+00  0.00000000000E+00  0.17465281099E+04  0.17465281099E+04  0.50400001928E-02 0. -1.
       -1   -1    0    0    0  501  0.00000000000E+00  0.00000000000E+00 -0.75665547895E+03  0.75665547897E+03  0.50400001928E-02 0.  1.
    10030    2    1    2    0    0  0.00000000000E+00  0.00000000000E+00  0.98987263096E+03  0.25031835889E+04  0.22991477234E+04 0.  0.
        3    1    3    3  502    0 -0.62267933026E+03 -0.77903839183E+03  0.11174177995E+04  0.14977492825E+04  0.10100000352E+00 0. -1.
       -3    1    3    3    0  502  0.62267933026E+03  0.77903839183E+03 -0.12754516858E+03  0.10054343064E+04  0.10100000352E+00 0.  1.
</event>
<event>
 5   0  0.1744876E-06  0.2299466E+04  0.7818609E-02  0.8478132E-01
       -2   -1    0    0    0  501  0.00000000000E+00  0.00000000000E+00  0.57887344403E+03  0.57887344403E+03  0.25500000920E-02 0. -1.
        2   -1    0    0  501    0  0.00000000000E+00  0.00000000000E+00 -0.22835499248E+04  0.22835499248E+04  0.25500000920E-02 0.  1.
    10030    2    1    2    0    0  0.00000000000E+00  0.00000000000E+00 -0.17046764807E+04  0.28624233688E+04  0.22994663812E+04 0.  0.
        1    1    3    3  502    0  0.54493917880E+03 -0.25521714944E+03 -0.20718762660E+04  0.21574906172E+04  0.50400001928E-02 0.  1.
       -1    1    3    3    0  502 -0.54493917880E+03  0.25521714944E+03  0.36719978521E+03  0.70493275158E+03  0.50400001928E-02 0. -1.
</event>
<event>
 5   0  0.1825521E-06  0.2300579E+04  0.7818609E-02  0.8477693E-01
       -2   -1    0    0    0  501  0.00000000000E+00  0.00000000000E+00  0.98619727358E+03  0.98619727359E+03  0.25500000920E-02 0. -1.
        2   -1    0    0  501    0  0.00000000000E+00  0.00000000000E+00 -0.13416847486E+04  0.13416847486E+04  0.25500000920E-02 0.  1.
    10030    2    1    2    0    0  0.00000000000E+00  0.00000000000E+00 -0.35548747498E+03  0.23278820222E+04  0.23005789194E+04 0.  0.
        5    1    3    3  502    0 -0.28197250805E+03 -0.77190941654E+03 -0.99215040712E+03  0.12883078681E+04  0.46999998093E+01 0.  1.
       -5    1    3    3    0  502  0.28197250805E+03  0.77190941654E+03  0.63666293214E+03  0.10395741541E+04  0.46999998093E+01 0. -1.
</event>
<event>
 5   0  0.7932912E-07  0.2298324E+04  0.7818609E-02  0.8478582E-01
        1   -1    0    0  501    0  0.00000000000E+00  0.00000000000E+00  0.30279364416E+04  0.30279364416E+04  0.50400001928E-02 0.  1.
       -1   -1    0    0    0  501  0.00000000000E+00  0.00000000000E+00 -0.43612996465E+03  0.43612996468E+03  0.50400001928E-02 0. -1.
    10030    2    1    2    0    0  0.00000000000E+00  0.00000000000E+00  0.25918064770E+04  0.34640664063E+04  0.22983244447E+04 0.  0.
        5    1    3    3  502    0 -0.11177165004E+04  0.17203904605E+03  0.16035525532E+04  0.19622157092E+04  0.46999998093E+01 0.  1.
       -5    1    3    3    0  502  0.11177165004E+04 -0.17203904605E+03  0.98825392379E+03  0.15018506971E+04  0.46999998093E+01 0. -1.
</event>
<event>
 5   0  0.1744876E-06  0.2296399E+04  0.7818609E-02  0.8479342E-01
        2   -1    0    0  501    0  0.00000000000E+00  0.00000000000E+00  0.93652841359E+03  0.93652841360E+03  0.25500000920E-02 0. -1.
       -2   -1    0    0    0  501  0.00000000000E+00  0.00000000000E+00 -0.14077116196E+04  0.14077116196E+04  0.25500000920E-02 0.  1.
    10030    2    1    2    0    0  0.00000000000E+00  0.00000000000E+00 -0.47118320596E+03  0.23442400332E+04  0.22963988590E+04 0.  0.
        1    1    3    3  502    0 -0.43984152648E+03  0.48893887913E+03 -0.11963903590E+04  0.13652368612E+04  0.50400001928E-02 0.  1.
       -1    1    3    3    0  502  0.43984152648E+03 -0.48893887913E+03  0.72520715303E+03  0.97900317200E+03  0.50400001928E-02 0. -1.
</event>
<event>
 5   0  0.7761069E-07  0.2300036E+04  0.7818609E-02  0.8477907E-01
       -1   -1    0    0    0  501  0.00000000000E+00  0.00000000000E+00  0.10490766956E+04  0.10490766956E+04  0.50400001928E-02 0.  1.
        1   -1    0    0  501    0  0.00000000000E+00  0.00000000000E+00 -0.12606713671E+04  0.12606713672E+04  0.50400001928E-02 0. -1.
    10030    2    1    2    0    0  0.00000000000E+00  0.00000000000E+00 -0.21159467151E+03  0.23097480628E+04  0.23000356103E+04 0.  0.
        1    1    3    3  502    0  0.39097208193E+02  0.79904616916E+02 -0.12572111258E+04  0.12603543765E+04  0.50400001928E-02 0. -1.
       -1    1    3    3    0  502 -0.39097208193E+02 -0.79904616916E+02  0.10456164543E+04  0.10493936863E+04  0.50400001928E-02 0.  1.
</event>
<event>
 5   0  0.1828646E-06  0.2299617E+04  0.7818609E-02  0.8478072E-01
        2   -1    0    0  501    0  0.00000000000E+00  0.00000000000E+00  0.14987575740E+04  0.14987575740E+04  0.25500000920E-02 0.  1.
       -2   -1    0    0    0  501  0.00000000000E+00  0.00000000000E+00 -0.88210358643E+03  0.88210358643E+03  0.25500000920E-02 0. -1.
    10030    2    1    2    0    0  0.00000000000E+00  0.00000000000E+00  0.61665398756E+03  0.23808611604E+04  0.22996168648E+04 0.  0.
        3    1    3    3  502    0  0.16986489876E+03  0.22279859806E+03  0.14628777403E+04  0.14894645321E+04  0.10100000352E+00 0.  1.
       -3    1    3    3    0  502 -0.16986489876E+03 -0.22279859806E+03 -0.84622375273E+03  0.89139662834E+03  0.10100000352E+00 0. -1.
</event>
<event>
 5   0  0.1888779E-06  0.2297183E+04  0.7818609E-02  0.8479033E-01
        2   -1    0    0  501    0  0.00000000000E+00  0.00000000000E+00  0.14586564279E+04  0.14586564279E+04  0.25500000920E-02 0. -1.
       -2   -1    0    0    0  501  0.00000000000E+00  0.00000000000E+00 -0.90443667369E+03  0.90443667370E+03  0.25500000920E-02 0.  1.
    10030    2    1    2    0    0  0.00000000000E+00  0.00000000000E+00  0.55421975424E+03  0.23630931016E+04  0.22971829424E+04 0.  0.
        4    1    3    3  502    0 -0.30076714374E+03  0.23385661078E+03 -0.83754346285E+03  0.92012523834E+03  0.12699999809E+01 0.  1.
       -4    1    3    3    0  502  0.30076714374E+03 -0.23385661078E+03  0.13917632171E+04  0.14429678633E+04  0.12699999809E+01 0. -1.
</event>
<event>
 5   0  0.1689444E-06  0.2300019E+04  0.7818609E-02  0.8477913E-01
       -2   -1    0    0    0  501  0.00000000000E+00  0.00000000000E+00  0.70110112724E+03  0.70110112724E+03  0.25500000920E-02 0.  1.
        2   -1    0    0  501    0  0.00000000000E+00  0.00000000000E+00 -0.18863501381E+04  0.18863501381E+04  0.25500000920E-02 0. -1.
    10030    2    1    2    0    0  0.00000000000E+00  0.00000000000E+00 -0.11852490109E+04  0.25874512654E+04  0.23000193114E+04 0.  0.
        2    1    3    3  502    0 -0.14795576012E+03  0.96218114381E+02 -0.18710240590E+04  0.18793296310E+04  0.25500000920E-02 0. -1.
       -2    1    3    3    0  502  0.14795576012E+03 -0.96218114381E+02  0.68577504811E+03  0.70812163440E+03  0.25500000920E-02 0.  1.
</event>
<event>
 5   0  0.1689444E-06  0.2299133E+04  0.7818609E-02  0.8478263E-01
        2   -1    0    0  501    0  0.00000000000E+00  0.00000000000E+00  0.23126222376E+04  0.23126222376E+04  0.25500000920E-02 0.  1.
       -2   -1    0    0    0  501  0.00000000000E+00  0.00000000000E+00 -0.57143083897E+03  0.57143083897E+03  0.25500000920E-02 0. -1.
    10030    2    1    2    0    0  0.00000000000E+00  0.00000000000E+00  0.17411913986E+04  0.28840530765E+04  0.22991334589E+04 0.  0.
        2    1    3    3  502    0 -0.10387486244E+04 -0.48075066752E+03  0.10044344473E+04  0.15228291000E+04  0.25500000920E-02 0. -1.
       -2    1    3    3    0  502  0.10387486244E+04  0.48075066752E+03  0.73675695130E+03  0.13612239765E+04  0.25500000920E-02 0.  1.
</event>
<event>
 5   0  0.1744876E-06  0.2299704E+04  0.7818609E-02  0.8478038E-01
       -2   -1    0    0    0  501  0.00000000000E+00  0.00000000000E+00  0.11834858621E+04  0.11834858621E+04  0.25500000920E-02 0.  1.
        2   -1    0    0  501    0  0.00000000000E+00  0.00000000000E+00 -0.11171742411E+04  0.11171742411E+04  0.25500000920E-02 0. -1.
    10030    2    1    2    0    0  0.00000000000E+00  0.00000000000E+00  0.66311620974E+02  0.23006601032E+04  0.22997042591E+04 0.  0.
        1    1    3    3  502    0 -0.77320649163E+03 -0.31460629223E+03 -0.75795382504E+03  0.11275280035E+04  0.50400001928E-02 0. -1.
       -1    1    3    3    0  502  0.77320649163E+03  0.31460629223E+03  0.82426544601E+03  0.11731320997E+04  0.50400001928E-02 0.  1.
</event>
<event>
 5   0  0.7932912E-07  0.2299873E+04  0.7818609E-02  0.8477971E-01
       -1   -1    0    0    0  501  0.00000000000E+00  0.00000000000E+00  0.14882056336E+04  0.14882056336E+04  0.50400001928E-02 0.  1.
        1   -1    0    0  501    0  0.00000000000E+00  0.00000000000E+00 -0.88855597185E+03  0.88855597187E+03  0.50400001928E-02 0. -1.
    10030    2    1    2    0    0  0.00000000000E+00  0.00000000000E+00  0.59964966176E+03  0.23767616055E+04  0.22998730427E+04 0.  0.
        5    1    3    3  502    0  0.72959915787E+03  0.37890216686E+03  0.11307258161E+04  0.13980145723E+04  0.46999998093E+01 0.  1.
       -5    1    3    3    0  502 -0.72959915787E+03 -0.37890216686E+03 -0.53107615434E+03  0.97874703317E+03  0.46999998093E+01 0. -1.
</event>
<event>
 5   0  0.7761069E-07  0.2300164E+04  0.7818609E-02  0.8477857E-01
        1   -1    0    0  501    0  0.00000000000E+00  0.00000000000E+00  0.11920083209E+04  0.11920083209E+04  0.50400001928E-02 0. -1.
       -1   -1    0    0    0  501  0.00000000000E+00  0.00000000000E+00 -0.11096302081E+04  0.11096302081E+04  0.50400001928E-02 0.  1.
    10030    2    1    2    0    0  0.00000000000E+00  0.00000000000E+00  0.82378112820E+02  0.23016385290E+04  0.23001638560E+04 0.  0.
        1    1    3    3  502    0  0.52020433178E+03 -0.97480046113E+03  0.36051738233E+03  0.11622483679E+04  0.50400001928E-02 0.  1.
       -1    1    3    3    0  502 -0.52020433178E+03  0.97480046113E+03 -0.27813926951E+03  0.11393901610E+04  0.50400001928E-02 0. -1.
</event>
<event>
 5   0  0.1744876E-06  0.2300106E+04  0.7818609E-02  0.8477879E-01
       -2   -1    0    0    0  501  0.00000000000E+00  0.00000000000E+00  0.87663551674E+03  0.87663551674E+03  0.25500000920E-02 0. -1.
        2   -1    0    0  501    0  0.00000000000E+00  0.00000000000E+00 -0.15087481587E+04  0.15087481587E+04  0.25500000920E-02 0.  1.
    10030    2    1    2    0    0  0.00000000000E+00  0.00000000000E+00 -0.63211264193E+03  0.23853836754E+04  0.23001062773E+04 0.  0.
        1    1    3    3  502    0 -0.36939363318E+03  0.13513815559E+03  0.80470904446E+03  0.89569560878E+03  0.50400001928E-02 0. -1.
       -1    1    3    3    0  502  0.36939363318E+03 -0.13513815559E+03 -0.14368216864E+04  0.14896880666E+04  0.50400001928E-02 0.  1.
</event>
<event>
 5   0  0.7607231E-07  0.2299935E+04  0.7818609E-02  0.8477947E-01
       -1   -1    0    0    0  501  0.00000000000E+00  0.00000000000E+00  0.11778455614E+04  0.11778455614E+04  0.50400001928E-02 0. -1.
        1   -1    0    0  501    0  0.00000000000E+00  0.00000000000E+00 -0.11227495793E+04  0.11227495793E+04  0.50400001928E-02 0.  1.
    10030    2    1    2    0    0  0.00000000000E+00  0.00000000000E+00  0.55095982122E+02  0.23005951407E+04  0.22999353109E+04 0.  0.
        2    1    3    3  502    0  0.85382843955E+03  0.30287556773E+03 -0.68094116510E+03  0.11333302626E+04  0.25500000920E-02 0.  1.
       -2    1    3    3    0  502 -0.85382843955E+03 -0.30287556773E+03  0.73603714722E+03  0.11672648782E+04  0.25500000920E-02 0. -1.
</event>
<event>
 5   0  0.8097672E-07  0.2288235E+04  0.7818609E-02  0.8482574E-01
        1   -1    0    0  501    0  0.00000000000E+00  0.00000000000E+00  0.18664001557E+04  0.18664001557E+04  0.50400001928E-02 0. -1.
       -1   -1    0    0    0  501  0.00000000000E+00  0.00000000000E+00 -0.70135269794E+03  0.70135269795E+03  0.50400001928E-02 0.  1.
    10030    2    1    2    0    0  0.00000000000E+00  0.00000000000E+00  0.11650474578E+04  0.25677528537E+04  0.22882349396E+04 0.  0.
        3    1    3    3  502    0 -0.10815399585E+04  0.21943202909E+03  0.92126880596E+03  0.14375727183E+04  0.10100000352E+00 0. -1.
       -3    1    3    3    0  502  0.10815399585E+04 -0.21943202909E+03  0.24377865182E+03  0.11301801354E+04  0.10100000352E+00 0.  1.
</event>
<event>
 5   0  0.8108242E-07  0.2300526E+04  0.7818609E-02  0.8477714E-01
       -1   -1    0    0    0  501  0.00000000000E+00  0.00000000000E+00  0.10872005445E+04  0.10872005445E+04  0.50400001928E-02 0.  1.
        1   -1    0    0  501    0  0.00000000000E+00  0.00000000000E+00 -0.12169835911E+04  0.12169835911E+04  0.50400001928E-02 0. -1.
    10030    2    1    2    0    0  0.00000000000E+00  0.00000000000E+00 -0.12978304659E+03  0.23041841356E+04  0.23005262206E+04 0.  0.
        4    1    3    3  502    0 -0.10016465724E+04  0.33633319901E+03  0.39046057881E+03  0.11264443853E+04  0.12699999809E+01 0. -1.
       -4    1    3    3    0  502  0.10016465724E+04 -0.33633319901E+03 -0.52024362540E+03  0.11777397503E+04  0.12699999809E+01 0.  1.
</event>
<event>
 5   0  0.1744876E-06  0.2299437E+04  0.7818609E-02  0.8478143E-01
        2   -1    0    0  501    0  0.00000000000E+00  0.00000000000E+00  0.90149885711E+03  0.90149885711E+03  0.25500000920E-02 0.  1.
       -2   -1    0    0    0  501  0.00000000000E+00  0.00000000000E+00 -0.14662835849E+04  0.14662835849E+04  0.25500000920E-02 0. -1.
    10030    2    1    2    0    0  0.00000000000E+00  0.00000000000E+00 -0.56478472783E+03  0.23677824421E+04  0.22994373016E+04 0.  0.
        1    1    3    3  502    0 -0.60344534889E+02 -0.66912673943E+02  0.89785755071E+03  0.90236741421E+03  0.50400001928E-02 0.  1.
       -1    1    3    3    0  502  0.60344534889E+02  0.66912673943E+02 -0.14626422785E+04  0.14654150278E+04  0.50400001928E-02 0. -1.
</event>
<event>
 5   0  0.7607231E-07  0.2301006E+04  0.7818609E-02  0.8477524E-01
        1   -1    0    0  501    0  0.00000000000E+00  0.00000000000E+00  0.11922448158E+04  0.11922448158E+04  0.50400001928E-02 0.  1.
       -1   -1    0    0    0  501  0.00000000000E+00  0.00000000000E+00 -0.11102228585E+04  0.11102228585E+04  0.50400001928E-02 0. -1.
    10030    2    1    2    0    0  0.00000000000E+00  0.00000000000E+00  0.82021957311E+02  0.23024676744E+04  0.23010062560E+04 0.  0.
        2    1    3    3  502    0 -0.96283397018E+03 -0.40985867882E+03 -0.43743918289E+03  0.11341897678E+04  0.25500000920E-02 0. -1.
       -2    1    3    3    0  502  0.96283397018E+03  0.40985867882E+03  0.51946114021E+03  0.11682779065E+04  0.25500000920E-02 0.  1.
</event>
<event>
 5   0  0.8097672E-07  0.2300078E+04  0.7818609E-02  0.8477891E-01
        1   -1    0    0  501    0  0.00000000000E+00  0.00000000000E+00  0.15892049462E+04  0.15892049462E+04  0.50400001928E-02 0.  1.
       -1   -1    0    0    0  501  0.00000000000E+00  0.00000000000E+00 -0.83223329118E+03  0.83223329120E+03  0.50400001928E-02 0. -1.
    10030    2    1    2    0    0  0.00000000000E+00  0.00000000000E+00  0.75697165503E+03  0.24214382374E+04  0.23000776185E+04 0.  0.
        3    1    3    3  502    0 -0.76094391895E+03  0.57147487464E+03  0.10582892500E+04  0.14232341083E+04  0.10100000352E+00 0.  1.
       -3    1    3    3    0  502  0.76094391895E+03 -0.57147487464E+03 -0.30131759498E+03  0.99820412912E+03  0.10100000352E+00 0. -1.
</event>
<event>
 5   0  0.7932912E-07  0.2299670E+04  0.7818609E-02  0.8478051E-01
        1   -1    0    0  501    0  0.00000000000E+00  0.00000000000E+00  0.12729885263E+04  0.12729885263E+04  0.50400001928E-02 0.  1.
       -1   -1    0    0    0  501  0.00000000000E+00  0.00000000000E+00 -0.10385959063E+04  0.10385959064E+04  0.50400001928E-02 0. -1.
    10030    2    1    2    0    0  0.00000000000E+00  0.00000000000E+00  0.23439261992E+03  0.23115844326E+04  0.22996701261E+04 0.  0.
        5    1    3    3  502    0  0.53258828058E+03 -0.86058295434E+02 -0.90346688383E+03  0.10522978699E+04  0.46999998093E+01 0. -1.
       -5    1    3    3    0  502 -0.53258828058E+03  0.86058295434E+02  0.11378595037E+04  0.12592865627E+04  0.46999998093E+01 0.  1.
</event>
<event>
 5   0  0.1744876E-06  0.2300835E+04  0.7818609E-02  0.8477592E-01
        2   -1    0    0  501    0  0.00000000000E+00  0.00000000000E+00  0.14970192188E+04  0.14970192188E+04  0.25500000920E-02 0.  1.
       -2   -1    0    0    0  501  0.00000000000E+00  0.00000000000E+00 -0.88406390913E+03  0.88406390913E+03  0.25500000920E-02 0. -1.
    10030    2    1    2    0    0  0.00000000000E+00  0.00000000000E+00  0.61295530966E+03  0.23810831279E+04  0.23008352071E+04 0.  0.
        1    1    3    3  502    0 -0.10648222081E+04  0.36756040834E+03  0.54810260035E+03  0.12527423715E+04  0.50400001928E-02 0.  1.
       -1    1    3    3    0  502  0.10648222081E+04 -0.36756040834E+03  0.64852709303E+02  0.11283407564E+04  0.50400001928E-02 0. -1.
</event>
<event>
 5   0  0.6319125E-07  0.2300320E+04  0.7818609E-02  0.8477795E-01
       -3   -1    0    0    0  501  0.00000000000E+00  0.00000000000E+00  0.51868383151E+03  0.51868384134E+03  0.10100000352E+00 0. -1.
        3   -1    0    0  501    0  0.00000000000E+00  0.00000000000E+00 -0.25504325258E+04  0.25504325278E+04  0.10100000352E+00 0.  1.
    10030    2    1    2    0    0  0.00000000000E+00  0.00000000000E+00 -0.20317486943E+04  0.30691163691E+04  0.23003200931E+04 0.  0.
        5    1    3    3  502    0  0.33072450981E+03 -0.61457793201E+03  0.20386269455E+03  0.72709478346E+03  0.46999998093E+01 0. -1.
       -5    1    3    3    0  502 -0.33072450981E+03  0.61457793201E+03 -0.22356113888E+04  0.23420215857E+04  0.46999998093E+01 0.  1.
</event>
<event>
 5   0  0.7932912E-07  0.2299738E+04  0.7818609E-02  0.8478024E-01
       -1   -1    0    0    0  501  0.00000000000E+00  0.00000000000E+00  0.89842331630E+03  0.89842331632E+03  0.50400001928E-02 0.  1.
        1   -1    0    0  501    0  0.00000000000E+00  0.00000000000E+00 -0.14716884974E+04  0.14716884974E+04  0.50400001928E-02 0. -1.
    10030    2    1    2    0    0  0.00000000000E+00  0.00000000000E+00 -0.57326518108E+03  0.23701118137E+04  0.22997384724E+04 0.  0.
        5    1    3    3  502    0  0.10982402580E+04  0.33830952521E+03 -0.32775563701E+03  0.11950024463E+04  0.46999998093E+01 0.  1.
       -5    1    3    3    0  502 -0.10982402580E+04 -0.33830952521E+03 -0.24550954407E+03  0.11751093674E+04  0.46999998093E+01 0. -1.
</event>
<event>
 5   0  0.1689444E-06  0.2299637E+04  0.7818609E-02  0.8478064E-01
       -2   -1    0    0    0  501  0.00000000000E+00  0.00000000000E+00  0.85668014657E+03  0.85668014658E+03  0.25500000920E-02 0.  1.
        2   -1    0    0  501    0  0.00000000000E+00  0.00000000000E+00 -0.15432624578E+04  0.15432624578E+04  0.25500000920E-02 0. -1.
    10030    2    1    2    0    0  0.00000000000E+00  0.00000000000E+00 -0.68658231127E+03  0.23999426044E+04  0.22996367614E+04 0.  0.
        2    1    3    3  502    0 -0.31738363837E+03  0.22950939835E+03 -0.14714975549E+04  0.15227317531E+04  0.25500000920E-02 0. -1.
       -2    1    3    3    0  502  0.31738363837E+03 -0.22950939835E+03  0.78491524367E+03  0.87721085127E+03  0.25500000920E-02 0.  1.
</event>
<event>
 5   0  0.7607231E-07  0.2299153E+04  0.7818609E-02  0.8478255E-01
        1   -1    0    0  501    0  0.00000000000E+00  0.00000000000E+00  0.16913659448E+04  0.16913659448E+04  0.50400001928E-02 0. -1.
       -1   -1    0    0    0  501  0.00000000000E+00  0.00000000000E+00 -0.78133689639E+03  0.78133689640E+03  0.50400001928E-02 0.  1.
    10030    2    1    2    0    0  0.00000000000E+00  0.00000000000E+00  0.91002904839E+03  0.24727028412E+04  0.22991534250E+04 0.  0.
        2    1    3    3  502    0  0.43358751621E+03  0.40139932960E+03  0.15155569014E+04  0.16266629268E+04  0.25500000920E-02 0. -1.
       -2    1    3    3    0  502 -0.43358751621E+03 -0.40139932960E+03 -0.60552785300E+03  0.84603991441E+03  0.25500000920E-02 0.  1.
</event>
<event>
 5   0  0.1825521E-06  0.2300143E+04  0.7818609E-02  0.8477865E-01
       -2   -1    0    0    0  501  0.00000000000E+00  0.00000000000E+00  0.78326275749E+03  0.78326275750E+03  0.25500000920E-02 0.  1.
        2   -1    0    0  501    0  0.00000000000E+00  0.00000000000E+00 -0.16886595670E+04  0.16886595670E+04  0.25500000920E-02 0. -1.
    10030    2    1    2    0    0  0.00000000000E+00  0.00000000000E+00 -0.90539680955E+03  0.24719223245E+04  0.23001427338E+04 0.  0.
        5    1    3    3  502    0 -0.50503667951E+03  0.82672042602E+03  0.21335604328E+03  0.99200383146E+03  0.46999998093E+01 0.  1.
       -5    1    3    3    0  502  0.50503667951E+03 -0.82672042602E+03 -0.11187528528E+04  0.14799184931E+04  0.46999998093E+01 0. -1.
</event>
<event>
 5   0  0.1888779E-06  0.2299615E+04  0.7818609E-02  0.8478073E-01
        2   -1    0    0  501    0  0.00000000000E+00  0.00000000000E+00  0.19079796497E+04  0.19079796497E+04  0.25500000920E-02 0.  1.
       -2   -1    0    0    0  501  0.00000000000E+00  0.00000000000E+00 -0.69290953110E+03  0.69290953111E+03  0.25500000920E-02 0. -1.
    10030    2    1    2    0    0  0.00000000000E+00  0.00000000000E+00  0.12150701186E+04  0.26008891808E+04  0.22996149977E+04 0.  0.
        4    1    3    3  502    0  0.28065731072E+03 -0.11031729784E+04  0.42412806342E+03  0.12147614472E+04  0.12699999809E+01 0.  1.
       -4    1    3    3    0  502 -0.28065731072E+03  0.11031729784E+04  0.79094205519E+03  0.13861277337E+04  0.12699999809E+01 0. -1.
</event>
<event>
 5   0  0.1888779E-06  0.2300054E+04  0.7818609E-02  0.8477900E-01
       -2   -1    0    0    0  501  0.00000000000E+00  0.00000000000E+00  0.14837257625E+04  0.14837257625E+04  0.25500000920E-02 0. -1.
        2   -1    0    0  501    0  0.00000000000E+00  0.00000000000E+00 -0.89137918073E+03  0.89137918073E+03  0.25500000920E-02 0.  1.
    10030    2    1    2    0    0  0.00000000000E+00  0.00000000000E+00  0.59234658181E+03  0.23751049433E+04  0.23000541338E+04 0.  0.
        4    1    3    3  502    0 -0.61155946417E+03  0.28748088001E+03  0.12570799998E+04  0.14272007474E+04  0.12699999809E+01 0. -1.
       -4    1    3    3    0  502  0.61155946417E+03 -0.28748088001E+03 -0.66473341801E+03  0.94790419585E+03  0.12699999809E+01 0.  1.
</event>
<event>
 5   0  0.7932912E-07  0.2298959E+04  0.7818609E-02  0.8478332E-01
        1   -1    0    0  501    0  0.00000000000E+00  0.00000000000E+00  0.14772971230E+04  0.14772971230E+04  0.50400001928E-02 0.  1.
       -1   -1    0    0    0  501  0.00000000000E+00  0.00000000000E+00 -0.89440544501E+03  0.89440544503E+03  0.50400001928E-02 0. -1.
    10030    2    1    2    0    0  0.00000000000E+00  0.00000000000E+00  0.58289167802E+03  0.23717025681E+04  0.22989585388E+04 0.  0.
        5    1    3    3  502    0  0.75700149919E+03 -0.19985784580E+03  0.11596731361E+04  0.13992348984E+04  0.46999998093E+01 0.  1.
       -5    1    3    3    0  502 -0.75700149919E+03  0.19985784580E+03 -0.57678145803E+03  0.97246766971E+03  0.46999998093E+01 0. -1.
</event>
<event>
 5   0  0.7932912E-07  0.2300024E+04  0.7818609E-02  0.8477912E-01
       -1   -1    0    0    0  501  0.00000000000E+00  0.00000000000E+00  0.69644473295E+03  0.69644473297E+03  0.50400001928E-02 0.  1.
        1   -1    0    0  501    0  0.00000000000E+00  0.00000000000E+00 -0.18989700072E+04  0.18989700072E+04  0.50400001928E-02 0. -1.
    10030    2    1    2    0    0  0.00000000000E+00  0.00000000000E+00 -0.12025252742E+04  0.25954147402E+04  0.23000240517E+04 0.  0.
        5    1    3    3  502    0 -0.37798090306E+03  0.10850210055E+04 -0.65614450710E+03  0.13231356127E+04  0.46999998093E+01 0.  1.
       -5    1    3    3    0  502  0.37798090306E+03 -0.10850210055E+04 -0.54638076715E+03  0.12722791275E+04  0.46999998093E+01 0. -1.
</event>
<event>
 5   0  0.7932912E-07  0.2303084E+04  0.7818609E-02  0.8476706E-01
        1   -1    0    0  501    0  0.00000000000E+00  0.00000000000E+00  0.13585297903E+04  0.13585297903E+04  0.50400001928E-02 0.  1.
       -1   -1    0    0    0  501  0.00000000000E+00  0.00000000000E+00 -0.97609091300E+03  0.97609091301E+03  0.50400001928E-02 0. -1.
    10030    2    1    2    0    0  0.00000000000E+00  0.00000000000E+00  0.38243887733E+03  0.23346207033E+04  0.23030836575E+04 0.  0.
        5    1    3    3  502    0 -0.24310801564E+03 -0.11175622133E+04  0.55294963444E+02  0.11450442921E+04  0.46999998093E+01 0. -1.
       -5    1    3    3    0  502  0.24310801564E+03  0.11175622133E+04  0.32714391389E+03  0.11895764113E+04  0.46999998093E+01 0.  1.
</event>
<event>
 5   0  0.1888779E-06  0.2299757E+04  0.7818609E-02  0.8478017E-01
        2   -1    0    0  501    0  0.00000000000E+00  0.00000000000E+00  0.15036477510E+04  0.15036477510E+04  0.25500000920E-02 0. -1.
       -2   -1    0    0    0  501  0.00000000000E+00  0.00000000000E+00 -0.87934217964E+03  0.87934217965E+03  0.25500000920E-02 0.  1.
    10030    2    1    2    0    0  0.00000000000E+00  0.00000000000E+00  0.62430557132E+03  0.23829899306E+04  0.22997572835E+04 0.  0.
        4    1    3    3  502    0  0.59463639579E+03 -0.23726541968E+03 -0.67757701632E+03  0.93220145276E+03  0.12699999809E+01 0.  1.
       -4    1    3    3    0  502 -0.59463639579E+03  0.23726541968E+03  0.13018825876E+04  0.14507884779E+04  0.12699999809E+01 0. -1.
</event>
<event>
 5   0  0.1825521E-06  0.2299490E+04  0.7818609E-02  0.8478122E-01
        2   -1    0    0  501    0  0.00000000000E+00  0.00000000000E+00  0.13518713400E+04  0.13518713400E+04  0.25500000920E-02 0.  1.
       -2   -1    0    0    0  501  0.00000000000E+00  0.00000000000E+00 -0.97783978373E+03  0.97783978374E+03  0.25500000920E-02 0. -1.
    10030    2    1    2    0    0  0.00000000000E+00  0.00000000000E+00  0.37403155628E+03  0.23297111237E+04  0.22994900119E+04 0.  0.
        5    1    3    3  502    0 -0.13737648227E+03  0.53679432730E+03  0.12076637477E+04  0.13287190317E+04  0.46999998093E+01 0.  1.
       -5    1    3    3    0  502  0.13737648227E+03 -0.53679432730E+03 -0.83363219144E+03  0.10009920920E+04  0.46999998093E+01 0. -1.
</event>
<event>
 5   0  0.8097672E-07  0.2284993E+04  0.7818609E-02  0.8483862E-01
        1   -1    0    0  501    0  0.00000000000E+00  0.00000000000E+00  0.13168814767E+04  0.13168814767E+04  0.50400001928E-02 0.  1.
       -1   -1    0    0    0  501  0.00000000000E+00  0.00000000000E+00 -0.99120441984E+03  0.99120441985E+03  0.50400001928E-02 0. -1.
    10030    2    1    2    0    0  0.00000000000E+00  0.00000000000E+00  0.32567705682E+03  0.23080858965E+04  0.22849934268E+04 0.  0.
        3    1    3    3  502    0 -0.93559620382E+03  0.43880621214E+03 -0.32933052660E+03  0.10845965860E+04  0.10100000352E+00 0.  1.
       -3    1    3    3    0  502  0.93559620382E+03 -0.43880621214E+03  0.65500758342E+03  0.12234893105E+04  0.10100000352E+00 0. -1.
</event>
<event>
 5   0  0.1888779E-06  0.2308292E+04  0.7818609E-02  0.8474659E-01
       -2   -1    0    0    0  501  0.00000000000E+00  0.00000000000E+00  0.79004936453E+03  0.79004936453E+03  0.25500000920E-02 0.  1.
        2   -1    0    0  501    0  0.00000000000E+00  0.00000000000E+00 -0.16860373237E+04  0.16860373237E+04  0.25500000920E-02 0. -1.
    10030    2    1    2    0    0  0.00000000000E+00  0.00000000000E+00 -0.89598795916E+03  0.24760866882E+04  0.23082917633E+04 0.  0.
        4    1    3    3  502    0  0.75435024341E+03 -0.66746127976E+03  0.15643955236E+03  0.10193251670E+04  0.12699999809E+01 0.  1.
       -4    1    3    3    0  502 -0.75435024341E+03  0.66746127976E+03 -0.10524275115E+04  0.14567615212E+04  0.12699999809E+01 0. -1.
</event>
<event>
 5   0  0.1744876E-06  0.2303057E+04  0.7818609E-02  0.8476717E-01
       -2   -1    0    0    0  501  0.00000000000E+00  0.00000000000E+00  0.50169911308E+03  0.50169911309E+03  0.25500000920E-02 0.  1.
        2   -1    0    0  501    0  0.00000000000E+00  0.00000000000E+00 -0.26430537320E+04  0.26430537320E+04  0.25500000920E-02 0. -1.
    10030    2    1    2    0    0  0.00000000000E+00  0.00000000000E+00 -0.21413546189E+04  0.31447528451E+04  0.23030568497E+04 0.  0.
        1    1    3    3  502    0  0.10614409566E+04  0.44543530755E+03 -0.10286307152E+04  0.15437456610E+04  0.50400001928E-02 0. -1.
       -1    1    3    3    0  502 -0.10614409566E+04 -0.44543530755E+03 -0.11127239038E+04  0.16010071841E+04  0.50400001928E-02 0.  1.
</event>
<event>
 5   0  0.7761069E-07  0.2299522E+04  0.7818609E-02  0.8478110E-01
       -1   -1    0    0    0  501  0.00000000000E+00  0.00000000000E+00  0.14118897210E+04  0.14118897211E+04  0.50400001928E-02 0.  1.
        1   -1    0    0  501    0  0.00000000000E+00  0.00000000000E+00 -0.93629825222E+03  0.93629825223E+03  0.50400001928E-02 0. -1.
    10030    2    1    2    0    0  0.00000000000E+00  0.00000000000E+00  0.47559146883E+03  0.23481879733E+04  0.22995215834E+04 0.  0.
        1    1    3    3  502    0 -0.88563815676E+03  0.71450741709E+03  0.69771371292E+02  0.11400630851E+04  0.50400001928E-02 0. -1.
       -1    1    3    3    0  502  0.88563815676E+03 -0.71450741709E+03  0.40582009754E+03  0.12081248882E+04  0.50400001928E-02 0.  1.
</event>
<event>
 5   0  0.1828646E-06  0.2299260E+04  0.7818609E-02  0.8478213E-01
        2   -1    0    0  501    0  0.00000000000E+00  0.00000000000E+00  0.12609828153E+04  0.12609828153E+04  0.25500000920E-02 0. -1.
       -2   -1    0    0    0  501  0.00000000000E+00  0.00000000000E+00 -0.10481107247E+04  0.10481107247E+04  0.25500000920E-02 0.  1.
    10030    2    1    2    0    0  0.00000000000E+00  0.00000000000E+00  0.21287209060E+03  0.23090935400E+04  0.22992604136E+04 0.  0.
        3    1    3    3  502    0 -0.76271385241E+03 -0.58628213140E+03  0.73856453218E+03  0.12128218075E+04  0.10100000352E+00 0. -1.
       -3    1    3    3    0  502  0.76271385241E+03  0.58628213140E+03 -0.52569244158E+03  0.10962717326E+04  0.10100000352E+00 0.  1.
</event>
<event>
 5   0  0.8097672E-07  0.2300068E+04  0.7818609E-02  0.8477894E-01
        1   -1    0    0  501    0  0.00000000000E+00  0.00000000000E+00  0.12807685774E+04  0.12807685774E+04  0.50400001928E-02 0.  1.
       -1   -1    0    0    0  501  0.00000000000E+00  0.00000000000E+00 -0.10326440616E+04  0.10326440616E+04  0.50400001928E-02 0. -1.
    10030    2    1    2    0    0  0.00000000000E+00  0.00000000000E+00  0.24812451584E+03  0.23134126390E+04  0.23000678823E+04 0.  0.
        3    1    3    3  502    0 -0.11352823429E+04  0.34952796658E+01 -0.60577989450E+02  0.11369027742E+04  0.10100000352E+00 0. -1.
       -3    1    3    3    0  502  0.11352823429E+04 -0.34952796658E+01  0.30870250529E+03  0.11765098648E+04  0.10100000352E+00 0.  1.
</event>
<event>
 5   0  0.7932912E-07  0.2300912E+04  0.7818609E-02  0.8477562E-01
       -1   -1    0    0    0  501  0.00000000000E+00  0.00000000000E+00  0.79340013754E+03  0.79340013755E+03  0.50400001928E-02 0. -1.
        1   -1    0    0  501    0  0.00000000000E+00  0.00000000000E+00 -0.16681988193E+04  0.16681988193E+04  0.50400001928E-02 0.  1.
    10030    2    1    2    0    0  0.00000000000E+00  0.00000000000E+00 -0.87479868176E+03  0.24615989569E+04  0.23009121432E+04 0.  0.
        5    1    3    3  502    0  0.96968796164E+03  0.58379642556E+03 -0.65772864060E+03  0.13090997151E+04  0.46999998093E+01 0.  1.
       -5    1    3    3    0  502 -0.96968796164E+03 -0.58379642556E+03 -0.21707004116E+03  0.11524992417E+04  0.46999998093E+01 0. -1.
</event>
<event>
 5   0  0.7761069E-07  0.2299821E+04  0.7818609E-02  0.8477992E-01
        1   -1    0    0  501    0  0.00000000000E+00  0.00000000000E+00  0.14124830984E+04  0.14124830984E+04  0.50400001928E-02 0.  1.
       -1   -1    0    0    0  501  0.00000000000E+00  0.00000000000E+00 -0.93614881525E+03  0.93614881527E+03  0.50400001928E-02 0. -1.
    10030    2    1    2    0    0  0.00000000000E+00  0.00000000000E+00  0.47633428317E+03  0.23486319137E+04  0.22998211923E+04 0.  0.
        1    1    3    3  502    0 -0.98130571131E+03 -0.45534191856E+03  0.63630979354E+03  0.12550646658E+04  0.50400001928E-02 0.  1.
       -1    1    3    3    0  502  0.98130571131E+03  0.45534191856E+03 -0.15997551036E+03  0.10935672479E+04  0.50400001928E-02 0. -1.
</event>
<event>
 5   0  0.7761069E-07  0.2300824E+04  0.7818609E-02  0.8477596E-01
       -1   -1    0    0    0  501  0.00000000000E+00  0.00000000000E+00  0.42254276436E+03  0.42254276439E+03  0.50400001928E-02 0. -1.
        1   -1    0    0  501    0  0.00000000000E+00  0.00000000000E+00 -0.31321033744E+04  0.31321033744E+04  0.50400001928E-02 0.  1.
    10030    2    1    2    0    0  0.00000000000E+00  0.00000000000E+00 -0.27095606101E+04  0.35546461388E+04  0.23008238682E+04 0.  0.
        1    1    3    3  502    0 -0.13744056567E+03 -0.11409548634E+04 -0.14362343468E+04  0.18394121366E+04  0.50400001928E-02 0.  1.
       -1    1    3    3    0  502  0.13744056567E+03  0.11409548634E+04 -0.12733262633E+04  0.17152340022E+04  0.50400001928E-02 0. -1.
</event>
<event>
 5   0  0.1828646E-06  0.2299779E+04  0.7818609E-02  0.8478008E-01
       -2   -1    0    0    0  501  0.00000000000E+00  0.00000000000E+00  0.12329764343E+04  0.12329764343E+04  0.25500000920E-02 0. -1.
        2   -1    0    0  501    0  0.00000000000E+00  0.00000000000E+00 -0.10724018565E+04  0.10724018565E+04  0.25500000920E-02 0.  1.
    10030    2    1    2    0    0  0.00000000000E+00  0.00000000000E+00  0.16057457781E+03  0.23053782909E+04  0.22997793087E+04 0.  0.
        3    1    3    3  502    0  0.10957114406E+04  0.15141342416E+03  0.39527612875E+03  0.11746287985E+04  0.10100000352E+00 0. -1.
       -3    1    3    3    0  502 -0.10957114406E+04 -0.15141342416E+03 -0.23470155094E+03  0.11307494923E+04  0.10100000352E+00 0.  1.
</event>
<event>
 5   0  0.7761069E-07  0.2299482E+04  0.7818609E-02  0.8478125E-01
       -1   -1    0    0    0  501  0.00000000000E+00  0.00000000000E+00  0.14809828114E+04  0.14809828114E+04  0.50400001928E-02 0. -1.
        1   -1    0    0  501    0  0.00000000000E+00  0.00000000000E+00 -0.89258593137E+03  0.89258593138E+03  0.50400001928E-02 0.  1.
    10030    2    1    2    0    0  0.00000000000E+00  0.00000000000E+00  0.58839688002E+03  0.23735687428E+04  0.22994820478E+04 0.  0.
        1    1    3    3  502    0  0.92023743657E+03  0.68050530702E+03  0.18121875176E+03  0.11587772213E+04  0.50400001928E-02 0. -1.
       -1    1    3    3    0  502 -0.92023743657E+03 -0.68050530702E+03  0.40717812826E+03  0.12147915215E+04  0.50400001928E-02 0.  1.
</event>
<event>
 5   0  0.7607231E-07  0.2300144E+04  0.7818609E-02  0.8477865E-01
       -1   -1    0    0    0  501  0.00000000000E+00  0.00000000000E+00  0.93806335189E+03  0.93806335191E+03  0.50400001928E-02 0.  1.
        1   -1    0    0  501    0  0.00000000000E+00  0.00000000000E+00 -0.14099955202E+04  0.14099955202E+04  0.50400001928E-02 0. -1.
    10030    2    1    2    0    0  0.00000000000E+00  0.00000000000E+00 -0.47193216831E+03  0.23480588721E+04  0.23001435815E+04 0.  0.
        2    1    3    3  502    0 -0.90683280396E+03 -0.25803933680E+03 -0.90827104270E+03  0.13091548116E+04  0.25500000920E-02 0. -1.
       -2    1    3    3    0  502  0.90683280396E+03  0.25803933680E+03  0.43633887439E+03  0.10389040605E+04  0.25500000920E-02 0.  1.
</event>
<event>
 5   0  0.7932912E-07  0.2299758E+04  0.7818609E-02  0.8478017E-01
       -1   -1    0    0    0  501  0.00000000000E+00  0.00000000000E+00  0.63620129829E+03  0.63620129831E+03  0.50400001928E-02 0.  1.
        1   -1    0    0  501    0  0.00000000000E+00  0.00000000000E+00 -0.20783063169E+04  0.20783063169E+04  0.50400001928E-02 0. -1.
    10030    2    1    2    0    0  0.00000000000E+00  0.00000000000E+00 -0.14421050186E+04  0.27145076152E+04  0.22997575325E+04 0.  0.
        5    1    3    3  502    0  0.53858826016E+03  0.10082862919E+04 -0.57419306526E+03  0.12792334918E+04  0.46999998093E+01 0. -1.
       -5    1    3    3    0  502 -0.53858826016E+03 -0.10082862919E+04 -0.86791195332E+03  0.14352741233E+04  0.46999998093E+01 0.  1.
</event>
<event>
 5   0  0.1888779E-06  0.2299539E+04  0.7818609E-02  0.8478103E-01
        2   -1    0    0  501    0  0.00000000000E+00  0.00000000000E+00  0.85746103729E+03  0.85746103729E+03  0.25500000920E-02 0.  1.
       -2   -1    0    0    0  501  0.00000000000E+00  0.00000000000E+00 -0.15417262727E+04  0.15417262727E+04  0.25500000920E-02 0. -1.
    10030    2    1    2    0    0  0.00000000000E+00  0.00000000000E+00 -0.68426523545E+03  0.23991873100E+04  0.22995392661E+04 0.  0.
        4    1    3    3  502    0 -0.98428664230E+03 -0.52867720714E+03 -0.62527585971E+03  0.12803481156E+04  0.12699999809E+01 0.  1.
       -4    1    3    3    0  502  0.98428664230E+03  0.52867720714E+03 -0.58989375732E+02  0.11188391944E+04  0.12699999809E+01 0. -1.
</event>
<event>
 5   0  0.1828646E-06  0.2299573E+04  0.7818609E-02  0.8478090E-01
        2   -1    0    0  501    0  0.00000000000E+00  0.00000000000E+00  0.21788792752E+04  0.21788792752E+04  0.25500000920E-02 0.  1.
       -2   -1    0    0    0  501  0.00000000000E+00  0.00000000000E+00 -0.60673801038E+03  0.60673801039E+03  0.25500000920E-02 0. -1.
    10030    2    1    2    0    0  0.00000000000E+00  0.00000000000E+00  0.15721412648E+04  0.27856172856E+04  0.22995728962E+04 0.  0.
        3    1    3    3  502    0 -0.60846502377E+02 -0.54697803172E+03 -0.43681902268E+03  0.70263655812E+03  0.10100000352E+00 0. -1.
       -3    1    3    3    0  502  0.60846502377E+02  0.54697803172E+03  0.20089602875E+04  0.20829807274E+04  0.10100000352E+00 0.  1.
</event>
<event>
 5   0  0.8108242E-07  0.2300847E+04  0.7818609E-02  0.8477587E-01
       -1   -1    0    0    0  501  0.00000000000E+00  0.00000000000E+00  0.71730668264E+03  0.71730668265E+03  0.50400001928E-02 0. -1.
        1   -1    0    0  501    0  0.00000000000E+00  0.00000000000E+00 -0.18450608323E+04  0.18450608323E+04  0.50400001928E-02 0.  1.
    10030    2    1    2    0    0  0.00000000000E+00  0.00000000000E+00 -0.11277541497E+04  0.25623675150E+04  0.23008472048E+04 0.  0.
        4    1    3    3  502    0 -0.58885361611E+03 -0.44925510647E+03  0.41645863744E+03  0.84971650654E+03  0.12699999809E+01 0. -1.
       -4    1    3    3    0  502  0.58885361611E+03  0.44925510647E+03 -0.15442127871E+04  0.17126510084E+04  0.12699999809E+01 0.  1.
</event>
<event>
 5   0  0.7607231E-07  0.2299596E+04  0.7818609E-02  0.8478080E-01
        1   -1    0    0  501    0  0.00000000000E+00  0.00000000000E+00  0.98299645002E+03  0.98299645003E+03  0.50400001928E-02 0.  1.
       -1   -1    0    0    0  501  0.00000000000E+00  0.00000000000E+00 -0.13449034815E+04  0.13449034815E+04  0.50400001928E-02 0. -1.
    10030    2    1    2    0    0  0.00000000000E+00  0.00000000000E+00 -0.36190703145E+03  0.23278999315E+04  0.22995959192E+04 0.  0.
        2    1    3    3  502    0  0.55259093355E+03  0.34315941492E+03 -0.11407371801E+04  0.13131627614E+04  0.25500000920E-02 0. -1.
       -2    1    3    3    0  502 -0.55259093355E+03 -0.34315941492E+03  0.77883014866E+03  0.10147371701E+04  0.25500000920E-02 0.  1.
</event>
<event>
 5   0  0.8108242E-07  0.2300682E+04  0.7818609E-02  0.8477652E-01
        1   -1    0    0  501    0  0.00000000000E+00  0.00000000000E+00  0.15223882795E+04  0.15223882795E+04  0.50400001928E-02 0. -1.
       -1   -1    0    0    0  501  0.00000000000E+00  0.00000000000E+00 -0.86921598496E+03  0.86921598497E+03  0.50400001928E-02 0.  1.
    10030    2    1    2    0    0  0.00000000000E+00  0.00000000000E+00  0.65317229457E+03  0.23916042645E+04  0.23006818362E+04 0.  0.
        4    1    3    3  502    0 -0.23293133186E+03  0.83232494527E+03  0.11157047697E+04  0.14113187330E+04  0.12699999809E+01 0. -1.
       -4    1    3    3    0  502  0.23293133186E+03 -0.83232494527E+03 -0.46253247517E+03  0.98028553155E+03  0.12699999809E+01 0.  1.
</event>
<event>
 5   0  0.7761069E-07  0.2300008E+04  0.7818609E-02  0.8477918E-01
        1   -1    0    0  501    0  0.00000000000E+00  0.00000000000E+00  0.20372145095E+04  0.20372145095E+04  0.50400001928E-02 0.  1.
       -1   -1    0    0    0  501  0.00000000000E+00  0.00000000000E+00 -0.64917524805E+03  0.64917524807E+03  0.50400001928E-02 0. -1.
    10030    2    1    2    0    0  0.00000000000E+00  0.00000000000E+00  0.13880392615E+04  0.26863897576E+04  0.23000080301E+04 0.  0.
        1    1    3    3  502    0  0.16922630655E+03  0.77547003668E+03 -0.27795555300E+03  0.84098193208E+03  0.50400001928E-02 0. -1.
       -1    1    3    3    0  502 -0.16922630655E+03 -0.77547003668E+03  0.16659948145E+04  0.18454078255E+04  0.50400001928E-02 0.  1.
</event>
<event>
 5   0  0.6319125E-07  0.2299947E+04  0.7818609E-02  0.8477942E-01
        3   -1    0    0  501    0  0.00000000000E+00  0.00000000000E+00  0.10228128397E+04  0.10228128447E+04  0.10100000352E+00 0.  1.
       -3   -1    0    0    0  501  0.00000000000E+00  0.00000000000E+00 -0.12929428858E+04  0.12929428898E+04  0.10100000352E+00 0. -1.
    10030    2    1    2    0    0  0.00000000000E+00  0.00000000000E+00 -0.27013004611E+03  0.23157557344E+04  0.22999466037E+04 0.  0.
        4    1    3    3  502    0 -0.42417210694E+03 -0.26997698702E+03 -0.11764019303E+04  0.12793485312E+04  0.12699999809E+01 0. -1.
       -4    1    3    3    0  502  0.42417210694E+03  0.26997698702E+03  0.90627188422E+03  0.10364072032E+04  0.12699999809E+01 0.  1.
</event>
<event>
 5   0  0.8108242E-07  0.2299210E+04  0.7818609E-02  0.8478233E-01
        1   -1    0    0  501    0  0.00000000000E+00  0.00000000000E+00  0.11561365549E+04  0.11561365549E+04  0.50400001928E-02 0. -1.
       -1   -1    0    0    0  501  0.00000000000E+00  0.00000000000E+00 -0.11431106370E+04  0.11431106370E+04  0.50400001928E-02 0.  1.
    10030    2    1    2    0    0  0.00000000000E+00  0.00000000000E+00  0.13025917953E+02  0.22992471919E+04  0.22992102938E+04 0.  0.
        4    1    3    3  502    0 -0.86971516288E+03 -0.54801559350E+03 -0.50814549750E+03  0.11467079030E+04  0.12699999809E+01 0.  1.
       -4    1    3    3    0  502  0.86971516288E+03  0.54801559350E+03  0.52117141545E+03  0.11525392889E+04  0.12699999809E+01 0. -1.
</event>
<event>
 5   0  0.1888779E-06  0.2299706E+04  0.7818609E-02  0.8478037E-01
        2   -1    0    0  501    0  0.00000000000E+00  0.00000000000E+00  0.22437652527E+04  0.22437652527E+04  0.25500000920E-02 0. -1.
       -2   -1    0    0    0  501  0.00000000000E+00  0.00000000000E+00 -0.58926055951E+03  0.58926055951E+03  0.25500000920E-02 0.  1.
    10030    2    1    2    0    0  0.00000000000E+00  0.00000000000E+00  0.16545046932E+04  0.28330258122E+04  0.22997063884E+04 0.  0.
        4    1    3    3  502    0 -0.46376661316E+02 -0.27839976156E+03 -0.54592603016E+03  0.61456819415E+03  0.12699999809E+01 0.  1.
       -4    1    3    3    0  502  0.46376661316E+02  0.27839976156E+03  0.22004307233E+04  0.22184576180E+04  0.12699999809E+01 0. -1.
</event>
<event>
 5   0  0.1888779E-06  0.2300087E+04  0.7818609E-02  0.8477887E-01
       -2   -1    0    0    0  501  0.00000000000E+00  0.00000000000E+00  0.12554792922E+04  0.12554792922E+04  0.25500000920E-02 0. -1.
        2   -1    0    0  501    0  0.00000000000E+00  0.00000000000E+00 -0.10534623308E+04  0.10534623308E+04  0.25500000920E-02 0.  1.
    10030    2    1    2    0    0  0.00000000000E+00  0.00000000000E+00  0.20201696148E+03  0.23089416230E+04  0.23000870779E+04 0.  0.
        4    1    3    3  502    0 -0.10603752565E+04  0.25170712927E+03 -0.26761949951E+03  0.11222183268E+04  0.12699999809E+01 0.  1.
       -4    1    3    3    0  502  0.10603752565E+04 -0.25170712927E+03  0.46963646099E+03  0.11867232963E+04  0.12699999809E+01 0. -1.
</event>
<event>
 5   0  0.7761069E-07  0.2300264E+04  0.7818609E-02  0.8477817E-01
        1   -1    0    0  501    0  0.00000000000E+00  0.00000000000E+00  0.77202879770E+03  0.77202879771E+03  0.50400001928E-02 0.  1.
       -1   -1    0    0    0  501  0.00000000000E+00  0.00000000000E+00 -0.17134122139E+04  0.17134122139E+04  0.50400001928E-02 0. -1.
    10030    2    1    2    0    0  0.00000000000E+00  0.00000000000E+00 -0.94138341620E+03  0.24854410116E+04  0.23002639601E+04 0.  0.
        1    1    3    3  502    0  0.95646116208E+03  0.23329802724E+03 -0.11131662196E+04  0.14860635776E+04  0.50400001928E-02 0. -1.
       -1    1    3    3    0  502 -0.95646116208E+03 -0.23329802724E+03  0.17178280342E+03  0.99937743403E+03  0.50400001928E-02 0.  1.
</event>
<event>
 5   0  0.8108242E-07  0.2299950E+04  0.7818609E-02  0.8477941E-01
        1   -1    0    0  501    0  0.00000000000E+00  0.00000000000E+00  0.64429976324E+03  0.64429976326E+03  0.50400001928E-02 0. -1.
       -1   -1    0    0    0  501  0.00000000000E+00  0.00000000000E+00 -0.20525263163E+04  0.20525263164E+04  0.50400001928E-02 0.  1.
    10030    2    1    2    0    0  0.00000000000E+00  0.00000000000E+00 -0.14082265531E+04  0.26968260796E+04  0.22999497557E+04 0.  0.
        4    1    3    3  502    0 -0.88016147865E+03  0.20212918018E+03 -0.15389389768E+04  0.17843416772E+04  0.12699999809E+01 0. -1.
       -4    1    3    3    0  502  0.88016147865E+03 -0.20212918018E+03  0.13071242367E+03  0.91248440237E+03  0.12699999809E+01 0.  1.
</event>
<event>
 5   0  0.1888779E-06  0.2301318E+04  0.7818609E-02  0.8477401E-01
       -2   -1    0    0    0  501  0.00000000000E+00  0.00000000000E+00  0.97494419813E+03  0.97494419813E+03  0.25500000920E-02 0. -1.
        2   -1    0    0  501    0  0.00000000000E+00  0.00000000000E+00 -0.13580434453E+04  0.13580434453E+04  0.25500000920E-02 0.  1.
    10030    2    1    2    0    0  0.00000000000E+00  0.00000000000E+00 -0.38309924721E+03  0.23329876435E+04  0.23013183855E+04 0.  0.
        4    1    3    3  502    0 -0.10594024536E+04  0.43474122529E+03 -0.77387881747E+02  0.11477473541E+04  0.12699999809E+01 0. -1.
       -4    1    3    3    0  502  0.10594024536E+04 -0.43474122529E+03 -0.30571136546E+03  0.11852402894E+04  0.12699999809E+01 0.  1.
</event>
<event>
 5   0  0.1888779E-06  0.2300007E+04  0.7818609E-02  0.8477918E-01
        2   -1    0    0  501    0  0.00000000000E+00  0.00000000000E+00  0.85053243132E+03  0.85053243132E+03  0.25500000920E-02 0.  1.
       -2   -1    0    0    0  501  0.00000000000E+00  0.00000000000E+00 -0.15549182086E+04  0.15549182086E+04  0.25500000920E-02 0. -1.
    10030    2    1    2    0    0  0.00000000000E+00  0.00000000000E+00 -0.70438577726E+03  0.24054506399E+04  0.23000072734E+04 0.  0.
        4    1    3    3  502    0 -0.56064806250E+03 -0.56968000632E+02  0.69622943181E+03  0.89571682897E+03  0.12699999809E+01 0.  1.
       -4    1    3    3    0  502  0.56064806250E+03  0.56968000632E+02 -0.14006152091E+04  0.15097338109E+04  0.12699999809E+01 0. -1.
</event>
<event>
 5   0  0.1825521E-06  0.2299930E+04  0.7818609E-02  0.8477949E-01
        2   -1    0    0  501    0  0.00000000000E+00  0.00000000000E+00  0.21969335153E+04  0.21969335153E+04  0.25500000920E-02 0.  1.
       -2   -1    0    0    0  501  0.00000000000E+00  0.00000000000E+00 -0.60193872540E+03  0.60193872541E+03  0.25500000920E-02 0. -1.
    10030    2    1    2    0    0  0.00000000000E+00  0.00000000000E+00  0.15949947899E+04  0.27988722407E+04  0.22999298772E+04 0.  0.
        5    1    3    3  502    0  0.35700996708E+03 -0.99416402512E+03  0.24438726546E+03  0.10842349611E+04  0.46999998093E+01 0. -1.
       -5    1    3    3    0  502 -0.35700996708E+03  0.99416402512E+03  0.13506075244E+04  0.17146372796E+04  0.46999998093E+01 0.  1.
</event>
<event>
 5   0  0.1744876E-06  0.2300405E+04  0.7818609E-02  0.8477762E-01
        2   -1    0    0  501    0  0.00000000000E+00  0.00000000000E+00  0.11690505804E+04  0.11690505804E+04  0.25500000920E-02 0. -1.
       -2   -1    0    0    0  501  0.00000000000E+00  0.00000000000E+00 -0.11316579588E+04  0.11316579588E+04  0.25500000920E-02 0.  1.
    10030    2    1    2    0    0  0.00000000000E+00  0.00000000000E+00  0.37392621602E+02  0.23007085392E+04  0.23004046544E+04 0.  0.
        1    1    3    3  502    0  0.10301647656E+04 -0.44254324865E+03  0.27540398404E+03  0.11545264508E+04  0.50400001928E-02 0. -1.
       -1    1    3    3    0  502 -0.10301647656E+04  0.44254324865E+03 -0.23801136244E+03  0.11461820884E+04  0.50400001928E-02 0.  1.
</event>
<event>
 5   0  0.7932912E-07  0.2297957E+04  0.7818609E-02  0.8478727E-01
        1   -1    0    0  501    0  0.00000000000E+00  0.00000000000E+00  0.18420903600E+04  0.18420903600E+04  0.50400001928E-02 0. -1.
       -1   -1    0    0    0  501  0.00000000000E+00  0.00000000000E+00 -0.71665945806E+03  0.71665945808E+03  0.50400001928E-02 0.  1.
    10030    2    1    2    0    0  0.00000000000E+00  0.00000000000E+00  0.11254309019E+04  0.25587498181E+04  0.22979569005E+04 0.  0.
        5    1    3    3  502    0 -0.57947211022E+02 -0.10174146160E+04 -0.28209529566E+02  0.10194646868E+04  0.46999998093E+01 0.  1.
       -5    1    3    3    0  502  0.57947211022E+02  0.10174146160E+04  0.11536404315E+04  0.15392851312E+04  0.46999998093E+01 0. -1.
</event>
<event>
 5   0  0.1825521E-06  0.2301142E+04  0.7818609E-02  0.8477471E-01
        2   -1    0    0  501    0  0.00000000000E+00  0.00000000000E+00  0.15043162077E+04  0.15043162077E+04  0.25500000920E-02 0.  1.
       -2   -1    0    0    0  501  0.00000000000E+00  0.00000000000E+00 -0.88001054918E+03  0.88001054918E+03  0.25500000920E-02 0. -1.
    10030    2    1    2    0    0  0.00000000000E+00  0.00000000000E+00  0.62430565849E+03  0.23843267569E+04  0.23011424398E+04 0.  0.
        5    1    3    3  502    0 -0.72564016656E+03 -0.14054682303E+03  0.12257784596E+04  0.14313846383E+04  0.46999998093E+01 0.  1.
       -5    1    3    3    0  502  0.72564016656E+03  0.14054682303E+03 -0.60147280112E+03  0.95294211853E+03  0.46999998093E+01 0. -1.
</event>
<event>
 5   0  0.7607231E-07  0.2294013E+04  0.7818609E-02  0.8480286E-01
       -1   -1    0    0    0  501  0.00000000000E+00  0.00000000000E+00  0.84258021771E+03  0.84258021772E+03  0.50400001928E-02 0.  1.
        1   -1    0    0  501    0  0.00000000000E+00  0.00000000000E+00 -0.15614221285E+04  0.15614221285E+04  0.50400001928E-02 0. -1.
    10030    2    1    2    0    0  0.00000000000E+00  0.00000000000E+00 -0.71884191079E+03  0.24040023462E+04  0.22940125518E+04 0.  0.
        2    1    3    3  502    0 -0.34973601782E+03 -0.43948882451E+03 -0.14074500422E+04  0.15153815791E+04  0.25500000920E-02 0. -1.
       -2    1    3    3    0  502  0.34973601782E+03  0.43948882451E+03  0.68860813143E+03  0.88862076709E+03  0.25500000920E-02 0.  1.
</event>
<event>
 5   0  0.1825521E-06  0.2299428E+04  0.7818609E-02  0.8478147E-01
        2   -1    0    0  501    0  0.00000000000E+00  0.00000000000E+00  0.11444261984E+04  0.11444261984E+04  0.25500000920E-02 0.  1.
       -2   -1    0    0    0  501  0.00000000000E+00  0.00000000000E+00 -0.11550257460E+04  0.11550257460E+04  0.25500000920E-02 0. -1.
    10030    2    1    2    0    0  0.00000000000E+00  0.00000000000E+00 -0.10599547605E+02  0.22994519444E+04  0.22994275145E+04 0.  0.
        5    1    3    3  502    0  0.82520563184E+03  0.42801792284E+03 -0.68180970069E+03  0.11528444106E+04  0.46999998093E+01 0. -1.
       -5    1    3    3    0  502 -0.82520563184E+03 -0.42801792284E+03  0.67121015309E+03  0.11466075339E+04  0.46999998093E+01 0.  1.
</event>
<event>
 5   0  0.8097672E-07  0.2293044E+04  0.7818609E-02  0.8480669E-01
        1   -1    0    0  501    0  0.00000000000E+00  0.00000000000E+00  0.22139942002E+04  0.22139942002E+04  0.50400001928E-02 0. -1.
       -1   -1    0    0    0  501  0.00000000000E+00  0.00000000000E+00 -0.59372921087E+03  0.59372921089E+03  0.50400001928E-02 0.  1.
    10030    2    1    2    0    0  0.00000000000E+00  0.00000000000E+00  0.16202649893E+04  0.28077234111E+04  0.22930442904E+04 0.  0.
        3    1    3    3  502    0 -0.13527022427E+03 -0.88157853361E+03 -0.72012346704E+02  0.89479859900E+03  0.10100000352E+00 0.  1.
       -3    1    3    3    0  502  0.13527022427E+03  0.88157853361E+03  0.16922773360E+04  0.19129248121E+04  0.10100000352E+00 0. -1.
</event>
<event>
 5   0  0.8108242E-07  0.2299789E+04  0.7818609E-02  0.8478004E-01
       -1   -1    0    0    0  501  0.00000000000E+00  0.00000000000E+00  0.12198508157E+04  0.12198508158E+04  0.50400001928E-02 0. -1.
        1   -1    0    0  501    0  0.00000000000E+00  0.00000000000E+00 -0.10839496747E+04  0.10839496747E+04  0.50400001928E-02 0.  1.
    10030    2    1    2    0    0  0.00000000000E+00  0.00000000000E+00  0.13590114106E+03  0.23038004904E+04  0.22997885946E+04 0.  0.
        4    1    3    3  502    0  0.11168512064E+04 -0.82040654683E+02  0.32949604689E+03  0.11673288072E+04  0.12699999809E+01 0. -1.
       -4    1    3    3    0  502 -0.11168512064E+04  0.82040654683E+02 -0.19359490584E+03  0.11364716832E+04  0.12699999809E+01 0.  1.
</event>
<event>
 5   0  0.8097672E-07  0.2301253E+04  0.7818609E-02  0.8477427E-01
        1   -1    0    0  501    0  0.00000000000E+00  0.00000000000E+00  0.11823255445E+04  0.11823255445E+04  0.50400001928E-02 0. -1.
       -1   -1    0    0    0  501  0.00000000000E+00  0.00000000000E+00 -0.11197769740E+04  0.11197769740E+04  0.50400001928E-02 0.  1.
    10030    2    1    2    0    0  0.00000000000E+00  0.00000000000E+00  0.62548570530E+02  0.23021025185E+04  0.23012526333E+04 0.  0.
        3    1    3    3  502    0  0.44258605454E+02  0.11487419295E+04 -0.17468092706E+02  0.11497269194E+04  0.10100000352E+00 0.  1.
       -3    1    3    3    0  502 -0.44258605454E+02 -0.11487419295E+04  0.80016663235E+02  0.11523755991E+04  0.10100000352E+00 0. -1.
</event>
<event>
 5   0  0.8097672E-07  0.2298956E+04  0.7818609E-02  0.8478333E-01
       -1   -1    0    0    0  501  0.00000000000E+00  0.00000000000E+00  0.78759955541E+03  0.78759955542E+03  0.50400001928E-02 0.  1.
        1   -1    0    0  501    0  0.00000000000E+00  0.00000000000E+00 -0.16776286840E+04  0.16776286840E+04  0.50400001928E-02 0. -1.
    10030    2    1    2    0    0  0.00000000000E+00  0.00000000000E+00 -0.89002912858E+03  0.24652282394E+04  0.22989559419E+04 0.  0.
        3    1    3    3  502    0 -0.83773365034E+03  0.78163450954E+03 -0.54416504255E+03  0.12684107297E+04  0.10100000352E+00 0.  1.
       -3    1    3    3    0  502  0.83773365034E+03 -0.78163450954E+03 -0.34586408603E+03  0.11968175097E+04  0.10100000352E+00 0. -1.
</event>
<event>
 5   0  0.1689444E-06  0.2300004E+04  0.7818609E-02  0.8477920E-01
        2   -1    0    0  501    0  0.00000000000E+00  0.00000000000E+00  0.16311102316E+04  0.16311102316E+04  0.25500000920E-02 0.  1.
       -2   -1    0    0    0  501  0.00000000000E+00  0.00000000000E+00 -0.81080008214E+03  0.81080008214E+03  0.25500000920E-02 0. -1.
    10030    2    1    2    0    0  0.00000000000E+00  0.00000000000E+00  0.82031014945E+03  0.24419103137E+04  0.23000037476E+04 0.  0.
        2    1    3    3  502    0 -0.45156154300E+03 -0.61193016371E+03 -0.50570240040E+03  0.91329144863E+03  0.25500000920E-02 0. -1.
       -2    1    3    3    0  502  0.45156154300E+03  0.61193016371E+03  0.13260125499E+04  0.15286188651E+04  0.25500000920E-02 0.  1.
</event>
<event>
 5   0  0.7932912E-07  0.2299311E+04  0.7818609E-02  0.8478193E-01
       -1   -1    0    0    0  501  0.00000000000E+00  0.00000000000E+00  0.15759716104E+04  0.15759716104E+04  0.50400001928E-02 0. -1.
        1   -1    0    0  501    0  0.00000000000E+00  0.00000000000E+00 -0.83866230875E+03  0.83866230876E+03  0.50400001928E-02 0.  1.
    10030    2    1    2    0    0  0.00000000000E+00  0.00000000000E+00  0.73730930163E+03  0.24146339191E+04  0.22993111919E+04 0.  0.
        5    1    3    3  502    0  0.31132339460E+03  0.77461838506E+02  0.15280010808E+04  0.15613237926E+04  0.46999998093E+01 0. -1.
       -5    1    3    3    0  502 -0.31132339460E+03 -0.77461838506E+02 -0.79069177916E+03  0.85331012655E+03  0.46999998093E+01 0.  1.
</event>
<event>
 5   0  0.7607231E-07  0.2299524E+04  0.7818609E-02  0.8478109E-01
       -1   -1    0    0    0  501  0.00000000000E+00  0.00000000000E+00  0.10848486676E+04  0.10848486676E+04  0.50400001928E-02 0. -1.
        1   -1    0    0  501    0  0.00000000000E+00  0.00000000000E+00 -0.12185596341E+04  0.12185596341E+04  0.50400001928E-02 0.  1.
    10030    2    1    2    0    0  0.00000000000E+00  0.00000000000E+00 -0.13371096654E+03  0.23034083017E+04  0.22995241208E+04 0.  0.
        2    1    3    3  502    0 -0.43272189463E+03 -0.95196991378E+02  0.99589942714E+03  0.10900120982E+04  0.25500000920E-02 0. -1.
       -2    1    3    3    0  502  0.43272189463E+03  0.95196991378E+02 -0.11296103937E+04  0.12133962035E+04  0.25500000920E-02 0.  1.
</event>
<event>
 5   0  0.8097672E-07  0.2299607E+04  0.7818609E-02  0.8478076E-01
       -1   -1    0    0    0  501  0.00000000000E+00  0.00000000000E+00  0.10748435129E+04  0.10748435129E+04  0.50400001928E-02 0. -1.
        1   -1    0    0  501    0  0.00000000000E+00  0.00000000000E+00 -0.12299914899E+04  0.12299914899E+04  0.50400001928E-02 0.  1.
    10030    2    1    2    0    0  0.00000000000E+00  0.00000000000E+00 -0.15514797704E+03  0.23048350028E+04  0.22996072481E+04 0.  0.
        3    1    3    3  502    0 -0.35996801640E+03  0.60275286983E+03 -0.99022647215E+03  0.12138519149E+04  0.10100000352E+00 0.  1.
       -3    1    3    3    0  502  0.35996801640E+03 -0.60275286983E+03  0.83507849511E+03  0.10909830879E+04  0.10100000352E+00 0. -1.
</event>
<event>
 5   0  0.1744876E-06  0.2300769E+04  0.7818609E-02  0.8477618E-01
       -2   -1    0    0    0  501  0.00000000000E+00  0.00000000000E+00  0.83477370439E+03  0.83477370439E+03  0.25500000920E-02 0. -1.
        2   -1    0    0  501    0  0.00000000000E+00  0.00000000000E+00 -0.15853210444E+04  0.15853210444E+04  0.25500000920E-02 0.  1.
    10030    2    1    2    0    0  0.00000000000E+00  0.00000000000E+00 -0.75054734002E+03  0.24200947488E+04  0.23007688462E+04 0.  0.
        1    1    3    3  502    0 -0.39826359526E+02 -0.78472889780E+02 -0.15817753936E+04  0.15842214268E+04  0.50400001928E-02 0.  1.
       -1    1    3    3    0  502  0.39826359526E+02  0.78472889780E+02  0.83122805358E+03  0.83587332200E+03  0.50400001928E-02 0. -1.
</event>
<event>
 5   0  0.1689444E-06  0.2300301E+04  0.7818609E-02  0.8477802E-01
       -2   -1    0    0    0  501  0.00000000000E+00  0.00000000000E+00  0.73462776238E+03  0.73462776238E+03  0.25500000920E-02 0.  1.
        2   -1    0    0  501    0  0.00000000000E+00  0.00000000000E+00 -0.18007027292E+04  0.18007027292E+04  0.25500000920E-02 0. -1.
    10030    2    1    2    0    0  0.00000000000E+00  0.00000000000E+00 -0.10660749669E+04  0.25353304916E+04  0.23003010383E+04 0.  0.
        2    1    3    3  502    0  0.62927143041E+03  0.83928128917E+03 -0.10528972630E+04  0.14862598232E+04  0.25500000920E-02 0. -1.
       -2    1    3    3    0  502 -0.62927143041E+03 -0.83928128917E+03 -0.13177703815E+02  0.10490706684E+04  0.25500000920E-02 0.  1.
</event>
<event>
 5   0  0.8097672E-07  0.2309888E+04  0.7818609E-02  0.8474033E-01
       -1   -1    0    0    0  501  0.00000000000E+00  0.00000000000E+00  0.96312594080E+03  0.96312594081E+03  0.50400001928E-02 0. -1.
        1   -1    0    0  501    0  0.00000000000E+00  0.00000000000E+00 -0.13849652244E+04  0.13849652244E+04  0.50400001928E-02 0.  1.
    10030    2    1    2    0    0  0.00000000000E+00  0.00000000000E+00 -0.42183928357E+03  0.23480911652E+04  0.23098882525E+04 0.  0.
        3    1    3    3  502    0  0.77760683529E+03 -0.54795185981E+03 -0.87671169287E+03  0.12936564589E+04  0.10100000352E+00 0.  1.
       -3    1    3    3    0  502 -0.77760683529E+03  0.54795185981E+03  0.45487240930E+03  0.10544347063E+04  0.10100000352E+00 0. -1.
</event>
<event>
 5   0  0.1744876E-06  0.2299565E+04  0.7818609E-02  0.8478093E-01
       -2   -1    0    0    0  501  0.00000000000E+00  0.00000000000E+00  0.67224573229E+03  0.67224573229E+03  0.25500000920E-02 0.  1.
        2   -1    0    0  501    0  0.00000000000E+00  0.00000000000E+00 -0.19665416833E+04  0.19665416833E+04  0.25500000920E-02 0. -1.
    10030    2    1    2    0    0  0.00000000000E+00  0.00000000000E+00 -0.12942959510E+04  0.26387874156E+04  0.22995645274E+04 0.  0.
        1    1    3    3  502    0  0.76462845461E+03  0.63129549854E+03 -0.13150857413E+04  0.16470097714E+04  0.50400001928E-02 0. -1.
       -1    1    3    3    0  502 -0.76462845461E+03 -0.63129549854E+03  0.20789790314E+02  0.99177764418E+03  0.50400001928E-02 0.  1.
</event>
<event>
 5   0  0.7761069E-07  0.2302416E+04  0.7818609E-02  0.8476969E-01
        1   -1    0    0  501    0  0.00000000000E+00  0.00000000000E+00  0.16351492893E+04  0.16351492893E+04  0.50400001928E-02 0. -1.
       -1   -1    0    0    0  501  0.00000000000E+00  0.00000000000E+00 -0.81049488199E+03  0.81049488200E+03  0.50400001928E-02 0.  1.
    10030    2    1    2    0    0  0.00000000000E+00  0.00000000000E+00  0.82465440731E+03  0.24456441713E+04  0.23024162354E+04 0.  0.
        1    1    3    3  502    0  0.10849042889E+04  0.51840137270E+01  0.33621612738E+01  0.10849218839E+04  0.50400001928E-02 0.  1.
       -1    1    3    3    0  502 -0.10849042889E+04 -0.51840137270E+01  0.82129224603E+03  0.13607222874E+04  0.50400001928E-02 0. -1.
</event>
<event>
 5   0  0.8097672E-07  0.2304118E+04  0.7818609E-02  0.8476299E-01
        1   -1    0    0  501    0  0.00000000000E+00  0.00000000000E+00  0.15549432966E+04  0.15549432966E+04  0.50400001928E-02 0. -1.
       -1   -1    0    0    0  501  0.00000000000E+00  0.00000000000E+00 -0.85356156606E+03  0.85356156608E+03  0.50400001928E-02 0.  1.
    10030    2    1    2    0    0  0.00000000000E+00  0.00000000000E+00  0.70138173053E+03  0.24085048627E+04  0.23041179097E+04 0.  0.
        3    1    3    3  502    0  0.83099283674E+03  0.28423015669E+03 -0.42867738065E+03  0.97729227132E+03  0.10100000352E+00 0.  1.
       -3    1    3    3    0  502 -0.83099283674E+03 -0.28423015669E+03  0.11300591112E+04  0.14312125914E+04  0.10100000352E+00 0. -1.
</event>
<event>
 5   0  0.1888779E-06  0.2302090E+04  0.7818609E-02  0.8477098E-01
       -2   -1    0    0    0  501  0.00000000000E+00  0.00000000000E+00  0.12610912852E+04  0.12610912852E+04  0.25500000920E-02 0.  1.
        2   -1    0    0  501    0  0.00000000000E+00  0.00000000000E+00 -0.10506015294E+04  0.10506015294E+04  0.25500000920E-02 0. -1.
    10030    2    1    2    0    0  0.00000000000E+00  0.00000000000E+00  0.21048975573E+03  0.23116928146E+04  0.23020898618E+04 0.  0.
        4    1    3    3  502    0  0.35637023921E+03 -0.77435717777E+03 -0.67146338958E+03  0.10851237177E+04  0.12699999809E+01 0. -1.
       -4    1    3    3    0  502 -0.35637023921E+03  0.77435717777E+03  0.88195314531E+03  0.12265690969E+04  0.12699999809E+01 0.  1.
</event>
<event>
 5   0  0.1825521E-06  0.2299978E+04  0.7818609E-02  0.8477930E-01
       -2   -1    0    0    0  501  0.00000000000E+00  0.00000000000E+00  0.47475509337E+03  0.47475509338E+03  0.25500000920E-02 0.  1.
        2   -1    0    0  501    0  0.00000000000E+00  0.00000000000E+00 -0.27855924377E+04  0.27855924377E+04  0.25500000920E-02 0. -1.
    10030    2    1    2    0    0  0.00000000000E+00  0.00000000000E+00 -0.23108373444E+04  0.32603475311E+04  0.22999775633E+04 0.  0.
        5    1    3    3  502    0  0.69958618154E+03 -0.85449962096E+02  0.13270991624E+03  0.71718654009E+03  0.46999998093E+01 0.  1.
       -5    1    3    3    0  502 -0.69958618154E+03  0.85449962096E+02 -0.24435472606E+04  0.25431609910E+04  0.46999998093E+01 0. -1.
</event>
<event>
 5   0  0.6319125E-07  0.2302488E+04  0.7818609E-02  0.8476941E-01
       -3   -1    0    0    0  501  0.00000000000E+00  0.00000000000E+00  0.16435853508E+04  0.16435853539E+04  0.10100000352E+00 0. -1.
        3   -1    0    0  501    0  0.00000000000E+00  0.00000000000E+00 -0.80638497746E+03  0.80638498379E+03  0.10100000352E+00 0.  1.
    10030    2    1    2    0    0  0.00000000000E+00  0.00000000000E+00  0.83720037331E+03  0.24499703377E+04  0.23024878263E+04 0.  0.
        3    1    3    3  502    0 -0.31951857950E+02  0.99523700019E+03 -0.19620266882E+03  0.10148956130E+04  0.10100000352E+00 0.  1.
       -3    1    3    3    0  502  0.31951857950E+02 -0.99523700019E+03  0.10334030421E+04  0.14350747247E+04  0.10100000352E+00 0. -1.
</event>
<event>
 5   0  0.1744876E-06  0.2300119E+04  0.7818609E-02  0.8477874E-01
        2   -1    0    0  501    0  0.00000000000E+00  0.00000000000E+00  0.71338435492E+03  0.71338435492E+03  0.25500000920E-02 0.  1.
       -2   -1    0    0    0  501  0.00000000000E+00  0.00000000000E+00 -0.18540316662E+04  0.18540316662E+04  0.25500000920E-02 0. -1.
    10030    2    1    2    0    0  0.00000000000E+00  0.00000000000E+00 -0.11406473113E+04  0.25674160211E+04  0.23001192875E+04 0.  0.
        1    1    3    3  502    0 -0.11290895503E+03 -0.11053627939E+02 -0.18477705000E+04  0.18512499657E+04  0.50400001928E-02 0. -1.
       -1    1    3    3    0  502  0.11290895503E+03  0.11053627939E+02  0.70712318874E+03  0.71616605539E+03  0.50400001928E-02 0.  1.
</event>
<event>
 5   0  0.1825521E-06  0.2296000E+04  0.7818609E-02  0.8479500E-01
       -2   -1    0    0    0  501  0.00000000000E+00  0.00000000000E+00  0.53487584375E+03  0.53487584375E+03  0.25500000920E-02 0.  1.
        2   -1    0    0  501    0  0.00000000000E+00  0.00000000000E+00 -0.24639438359E+04  0.24639438359E+04  0.25500000920E-02 0. -1.
    10030    2    1    2    0    0  0.00000000000E+00  0.00000000000E+00 -0.19290679921E+04  0.29988196796E+04  0.22960000332E+04 0.  0.
        5    1    3    3  502    0  0.45160133816E+03 -0.14597066517E+02  0.41384125583E+03  0.61273445962E+03  0.46999998093E+01 0.  1.
       -5    1    3    3    0  502 -0.45160133816E+03  0.14597066517E+02 -0.23429092479E+04  0.23860852200E+04  0.46999998093E+01 0. -1.
</event>
<event>
 5   0  0.1888779E-06  0.2294498E+04  0.7818609E-02  0.8480094E-01
        2   -1    0    0  501    0  0.00000000000E+00  0.00000000000E+00  0.12878080074E+04  0.12878080074E+04  0.25500000920E-02 0. -1.
       -2   -1    0    0    0  501  0.00000000000E+00  0.00000000000E+00 -0.10220312727E+04  0.10220312727E+04  0.25500000920E-02 0.  1.
    10030    2    1    2    0    0  0.00000000000E+00  0.00000000000E+00  0.26577673470E+03  0.23098392801E+04  0.22944978159E+04 0.  0.
        4    1    3    3  502    0 -0.27836401909E+03 -0.10745311829E+04 -0.15900663369E+03  0.11213333638E+04  0.12699999809E+01 0.  1.
       -4    1    3    3    0  502  0.27836401909E+03  0.10745311829E+04  0.42478336840E+03  0.11885059163E+04  0.12699999809E+01 0. -1.
</event>
<event>
 5   0  0.8097672E-07  0.2300347E+04  0.7818609E-02  0.8477784E-01
        1   -1    0    0  501    0  0.00000000000E+00  0.00000000000E+00  0.19570382199E+04  0.19570382199E+04  0.50400001928E-02 0. -1.
       -1   -1    0    0    0  501  0.00000000000E+00  0.00000000000E+00 -0.67596979725E+03  0.67596979727E+03  0.50400001928E-02 0.  1.
    10030    2    1    2    0    0  0.00000000000E+00  0.00000000000E+00  0.12810684226E+04  0.26330080172E+04  0.23003466945E+04 0.  0.
        3    1    3    3  502    0 -0.41116326576E+03  0.49223530306E+03 -0.45228578285E+03  0.78480141708E+03  0.10100000352E+00 0.  1.
       -3    1    3    3    0  502  0.41116326576E+03 -0.49223530306E+03  0.17333542055E+04  0.18482066001E+04  0.10100000352E+00 0. -1.
</event>
<event>
 5   0  0.8097672E-07  0.2301421E+04  0.7818609E-02  0.8477361E-01
        1   -1    0    0  501    0  0.00000000000E+00  0.00000000000E+00  0.11269845884E+04  0.11269845884E+04  0.50400001928E-02 0.  1.
       -1   -1    0    0    0  501  0.00000000000E+00  0.00000000000E+00 -0.11749363880E+04  0.11749363880E+04  0.50400001928E-02 0. -1.
    10030    2    1    2    0    0  0.00000000000E+00  0.00000000000E+00 -0.47951799616E+02  0.23019209764E+04  0.23014214752E+04 0.  0.
        3    1    3    3  502    0 -0.65738651023E+03 -0.41313112150E+03 -0.87345455210E+03  0.11686561565E+04  0.10100000352E+00 0. -1.
       -3    1    3    3    0  502  0.65738651023E+03  0.41313112150E+03  0.82550275248E+03  0.11332648199E+04  0.10100000352E+00 0.  1.
</event>
<event>
 5   0  0.1828646E-06  0.2296741E+04  0.7818609E-02  0.8479207E-01
       -2   -1    0    0    0  501  0.00000000000E+00  0.00000000000E+00  0.98776464669E+03  0.98776464670E+03  0.25500000920E-02 0. -1.
        2   -1    0    0  501    0  0.00000000000E+00  0.00000000000E+00 -0.13350899172E+04  0.13350899172E+04  0.25500000920E-02 0.  1.
    10030    2    1    2    0    0  0.00000000000E+00  0.00000000000E+00 -0.34732527051E+03  0.23228545639E+04  0.22967408390E+04 0.  0.
        3    1    3    3  502    0 -0.82860759304E+03  0.88833584626E+02  0.62543010369E+03  0.10419427882E+04  0.10100000352E+00 0. -1.
       -3    1    3    3    0  502  0.82860759304E+03 -0.88833584626E+02 -0.97275537420E+03  0.12809117757E+04  0.10100000352E+00 0.  1.
</event>
<event>
 5   0  0.1888779E-06  0.2296414E+04  0.7818609E-02  0.8479336E-01
       -2   -1    0    0    0  501  0.00000000000E+00  0.00000000000E+00  0.85060002001E+03  0.85060002001E+03  0.25500000920E-02 0.  1.
        2   -1    0    0  501    0  0.00000000000E+00  0.00000000000E+00 -0.15499408266E+04  0.15499408266E+04  0.25500000920E-02 0. -1.
    10030    2    1    2    0    0  0.00000000000E+00  0.00000000000E+00 -0.69934080663E+03  0.24005408467E+04  0.22964143338E+04 0.  0.
        4    1    3    3  502    0  0.58606496069E+03 -0.72377691255E+03 -0.10517277758E+04  0.14047982362E+04  0.12699999809E+01 0. -1.
       -4    1    3    3    0  502 -0.58606496069E+03  0.72377691255E+03  0.35238696914E+03  0.99574261042E+03  0.12699999809E+01 0.  1.
</event>
<event>
 5   0  0.7607231E-07  0.2299705E+04  0.7818609E-02  0.8478038E-01
       -1   -1    0    0    0  501  0.00000000000E+00  0.00000000000E+00  0.14558336366E+04  0.14558336366E+04  0.50400001928E-02 0. -1.
        1   -1    0    0  501    0  0.00000000000E+00  0.00000000000E+00 -0.90818088408E+03  0.90818088409E+03  0.50400001928E-02 0.  1.
    10030    2    1    2    0    0  0.00000000000E+00  0.00000000000E+00  0.54765275249E+03  0.23640145207E+04  0.22997045716E+04 0.  0.
        2    1    3    3  502    0  0.10499419795E+03  0.97872932945E+02 -0.89893526302E+03  0.91032274481E+03  0.25500000920E-02 0.  1.
       -2    1    3    3    0  502 -0.10499419795E+03 -0.97872932945E+02  0.14465880155E+04  0.14536917759E+04  0.25500000920E-02 0. -1.
</event>
<event>
 5   0  0.7761069E-07  0.2301459E+04  0.7818609E-02  0.8477346E-01
        1   -1    0    0  501    0  0.00000000000E+00  0.00000000000E+00  0.13983622650E+04  0.13983622650E+04  0.50400001928E-02 0. -1.
       -1   -1    0    0    0  501  0.00000000000E+00  0.00000000000E+00 -0.94694926694E+03  0.94694926695E+03  0.50400001928E-02 0.  1.
    10030    2    1    2    0    0  0.00000000000E+00  0.00000000000E+00  0.45141299803E+03  0.23453115319E+04  0.23014587737E+04 0.  0.
        1    1    3    3  502    0 -0.22428942744E+03 -0.96776038083E+03  0.81755884930E+03  0.12865723353E+04  0.50400001928E-02 0. -1.
       -1    1    3    3    0  502  0.22428942744E+03  0.96776038083E+03 -0.36614585127E+03  0.10587391966E+04  0.50400001928E-02 0.  1.
</event>
<event>
 5   0  0.7607231E-07  0.2299540E+04  0.7818609E-02  0.8478103E-01
       -1   -1    0    0    0  501  0.00000000000E+00  0.00000000000E+00  0.70232185995E+03  0.70232185997E+03  0.50400001928E-02 0.  1.
        1   -1    0    0  501    0  0.00000000000E+00  0.00000000000E+00 -0.18822861556E+04  0.18822861556E+04  0.50400001928E-02 0. -1.
    10030    2    1    2    0    0  0.00000000000E+00  0.00000000000E+00 -0.11799642956E+04  0.25846080156E+04  0.22995397051E+04 0.  0.
        2    1    3    3  502    0  0.87409212805E+02  0.22184338399E+03  0.67422698561E+03  0.71514815642E+03  0.25500000920E-02 0.  1.
       -2    1    3    3    0  502 -0.87409212805E+02 -0.22184338399E+03 -0.18541912813E+04  0.18694598592E+04  0.25500000920E-02 0. -1.
</event>
<event>
 5   0  0.1888779E-06  0.2300496E+04  0.7818609E-02  0.8477726E-01
       -2   -1    0    0    0  501  0.00000000000E+00  0.00000000000E+00  0.79951386930E+03  0.79951386931E+03  0.25500000920E-02 0.  1.
        2   -1    0    0  501    0  0.00000000000E+00  0.00000000000E+00 -0.16548437213E+04  0.16548437213E+04  0.25500000920E-02 0. -1.
    10030    2    1    2    0    0  0.00000000000E+00  0.00000000000E+00 -0.85532985201E+03  0.24543575906E+04  0.23004960393E+04 0.  0.
        4    1    3    3  502    0  0.11410147315E+04 -0.13185462265E+03 -0.36216989226E+03  0.12043541435E+04  0.12699999809E+01 0.  1.
       -4    1    3    3    0  502 -0.11410147315E+04  0.13185462265E+03 -0.49315995975E+03  0.12500034472E+04  0.12699999809E+01 0. -1.
</event>
<event>
 5   0  0.1888779E-06  0.2301024E+04  0.7818609E-02  0.8477517E-01
       -2   -1    0    0    0  501  0.00000000000E+00  0.00000000000E+00  0.84386812507E+03  0.84386812508E+03  0.25500000920E-02 0.  1.
        2   -1    0    0  501    0  0.00000000000E+00  0.00000000000E+00 -0.15685839850E+04  0.15685839850E+04  0.25500000920E-02 0. -1.
    10030    2    1    2    0    0  0.00000000000E+00  0.00000000000E+00 -0.72471585993E+03  0.24124521101E+04  0.23010241428E+04 0.  0.
        4    1    3    3  502    0  0.92538780509E+03 -0.60058428742E+03 -0.19998740025E+02  0.11033791908E+04  0.12699999809E+01 0. -1.
       -4    1    3    3    0  502 -0.92538780509E+03  0.60058428742E+03 -0.70471711990E+03  0.13090729193E+04  0.12699999809E+01 0.  1.
</event>
<event>
 5   0  0.1825521E-06  0.2301043E+04  0.7818609E-02  0.8477510E-01
       -2   -1    0    0    0  501  0.00000000000E+00  0.00000000000E+00  0.13714266060E+04  0.13714266060E+04  0.25500000920E-02 0.  1.
        2   -1    0    0  501    0  0.00000000000E+00  0.00000000000E+00 -0.96519918281E+03  0.96519918282E+03  0.25500000920E-02 0. -1.
    10030    2    1    2    0    0  0.00000000000E+00  0.00000000000E+00  0.40622742318E+03  0.23366257888E+04  0.23010431021E+04 0.  0.
        5    1    3    3  502    0  0.11259171960E+04  0.18638984712E+03  0.55096011945E+02  0.11425796987E+04  0.46999998093E+01 0. -1.
       -5    1    3    3    0  502 -0.11259171960E+04 -0.18638984712E+03  0.35113141123E+03  0.11940460901E+04  0.46999998093E+01 0.  1.
</event>
<event>
 5   0  0.8097672E-07  0.2300112E+04  0.7818609E-02  0.8477877E-01
       -1   -1    0    0    0  501  0.00000000000E+00  0.00000000000E+00  0.14347447510E+04  0.14347447510E+04  0.50400001928E-02 0.  1.
        1   -1    0    0  501    0  0.00000000000E+00  0.00000000000E+00 -0.92185633575E+03  0.92185633576E+03  0.50400001928E-02 0. -1.
    10030    2    1    2    0    0  0.00000000000E+00  0.00000000000E+00  0.51288841529E+03  0.23566010868E+04  0.23001117703E+04 0.  0.
        3    1    3    3  502    0  0.45777632258E+03  0.83204450920E+03 -0.40815556616E+03  0.10336576818E+04  0.10100000352E+00 0. -1.
       -3    1    3    3    0  502 -0.45777632258E+03 -0.83204450920E+03  0.92104398145E+03  0.13229434050E+04  0.10100000352E+00 0.  1.
</event>
<event>
 5   0  0.7607231E-07  0.2297953E+04  0.7818609E-02  0.8478729E-01
       -1   -1    0    0    0  501  0.00000000000E+00  0.00000000000E+00  0.11585442576E+04  0.11585442576E+04  0.50400001928E-02 0. -1.
        1   -1    0    0  501    0  0.00000000000E+00  0.00000000000E+00 -0.11394877994E+04  0.11394877994E+04  0.50400001928E-02 0.  1.
    10030    2    1    2    0    0  0.00000000000E+00  0.00000000000E+00  0.19056458185E+02  0.22980320571E+04  0.22979530428E+04 0.  0.
        2    1    3    3  502    0  0.62147394171E+03  0.82745554089E+03  0.50877932252E+03  0.11531560742E+04  0.25500000920E-02 0. -1.
       -2    1    3    3    0  502 -0.62147394171E+03 -0.82745554089E+03 -0.48972286433E+03  0.11448759829E+04  0.25500000920E-02 0.  1.
</event>
<event>
 5   0  0.1744876E-06  0.2299788E+04  0.7818609E-02  0.8478005E-01
        2   -1    0    0  501    0  0.00000000000E+00  0.00000000000E+00  0.14876683169E+04  0.14876683169E+04  0.25500000920E-02 0.  1.
       -2   -1    0    0    0  501  0.00000000000E+00  0.00000000000E+00 -0.88881099607E+03  0.88881099608E+03  0.25500000920E-02 0. -1.
    10030    2    1    2    0    0  0.00000000000E+00  0.00000000000E+00  0.59885732079E+03  0.23764793129E+04  0.22997877802E+04 0.  0.
        1    1    3    3  502    0  0.81359818020E+03 -0.36128489219E+03  0.10515657429E+04  0.13777733064E+04  0.50400001928E-02 0.  1.
       -1    1    3    3    0  502 -0.81359818020E+03  0.36128489219E+03 -0.45270842206E+03  0.99870600658E+03  0.50400001928E-02 0. -1.
</event>
<event>
 5   0  0.8108242E-07  0.2300256E+04  0.7818609E-02  0.8477820E-01
        1   -1    0    0  501    0  0.00000000000E+00  0.00000000000E+00  0.20061329086E+04  0.20061329086E+04  0.50400001928E-02 0. -1.
       -1   -1    0    0    0  501  0.00000000000E+00  0.00000000000E+00 -0.65937499849E+03  0.65937499851E+03  0.50400001928E-02 0.  1.
    10030    2    1    2    0    0  0.00000000000E+00  0.00000000000E+00  0.13467579101E+04  0.26655079071E+04  0.23002555368E+04 0.  0.
        4    1    3    3  502    0  0.25103325734E+03 -0.78207404023E+03  0.16062820860E+04  0.18041067744E+04  0.12699999809E+01 0. -1.
       -4    1    3    3    0  502 -0.25103325734E+03  0.78207404023E+03 -0.25952417590E+03  0.86140113273E+03  0.12699999809E+01 0.  1.
</event>
<event>
 5   0  0.1888779E-06  0.2300426E+04  0.7818609E-02  0.8477753E-01
       -2   -1    0    0    0  501  0.00000000000E+00  0.00000000000E+00  0.87995474521E+03  0.87995474521E+03  0.25500000920E-02 0.  1.
        2   -1    0    0  501    0  0.00000000000E+00  0.00000000000E+00 -0.15034751872E+04  0.15034751872E+04  0.25500000920E-02 0. -1.
    10030    2    1    2    0    0  0.00000000000E+00  0.00000000000E+00 -0.62352044196E+03  0.23834299324E+04  0.23004261564E+04 0.  0.
        4    1    3    3  502    0  0.16913302138E+03 -0.66881056075E+03 -0.12653355710E+04  0.14411763477E+04  0.12699999809E+01 0. -1.
       -4    1    3    3    0  502 -0.16913302138E+03  0.66881056075E+03  0.64181512902E+03  0.94225358468E+03  0.12699999809E+01 0.  1.
</event>
<event>
 5   0  0.6319125E-07  0.2303329E+04  0.7818609E-02  0.8476610E-01
        3   -1    0    0  501    0  0.00000000000E+00  0.00000000000E+00  0.12574785853E+04  0.12574785893E+04  0.10100000352E+00 0. -1.
       -3   -1    0    0    0  501  0.00000000000E+00  0.00000000000E+00 -0.10547547759E+04  0.10547547808E+04  0.10100000352E+00 0.  1.
    10030    2    1    2    0    0  0.00000000000E+00  0.00000000000E+00  0.20272380935E+03  0.23122333701E+04  0.23033293761E+04 0.  0.
        1    1    3    3  502    0  0.23736413166E+03  0.80334721945E+02  0.12297784746E+04  0.12550499971E+04  0.50400001928E-02 0. -1.
       -1    1    3    3    0  502 -0.23736413166E+03 -0.80334721945E+02 -0.10270546653E+04  0.10571833730E+04  0.50400001928E-02 0.  1.
</event>
<event>
 5   0  0.1689444E-06  0.2300172E+04  0.7818609E-02  0.8477853E-01
        2   -1    0    0  501    0  0.00000000000E+00  0.00000000000E+00  0.16899048271E+04  0.16899048271E+04  0.25500000920E-02 0.  1.
       -2   -1    0    0    0  501  0.00000000000E+00  0.00000000000E+00 -0.78270554345E+03  0.78270554346E+03  0.25500000920E-02 0. -1.
    10030    2    1    2    0    0  0.00000000000E+00  0.00000000000E+00  0.90719928363E+03  0.24726103705E+04  0.23001720597E+04 0.  0.
        2    1    3    3  502    0 -0.18680407841E+03 -0.11546886727E+03 -0.75995688351E+03  0.79105201335E+03  0.25500000920E-02 0. -1.
       -2    1    3    3    0  502  0.18680407841E+03  0.11546886727E+03  0.16671561671E+04  0.16815583572E+04  0.25500000920E-02 0.  1.
</event>
<event>
 5   0  0.8108242E-07  0.2299592E+04  0.7818609E-02  0.8478082E-01
       -1   -1    0    0    0  501  0.00000000000E+00  0.00000000000E+00  0.93537014521E+03  0.93537014522E+03  0.50400001928E-02 0. -1.
        1   -1    0    0  501    0  0.00000000000E+00  0.00000000000E+00 -0.14133766045E+04  0.14133766045E+04  0.50400001928E-02 0.  1.
    10030    2    1    2    0    0  0.00000000000E+00  0.00000000000E+00 -0.47800645929E+03  0.23487467497E+04  0.22995915114E+04 0.  0.
        4    1    3    3  502    0  0.10582427973E+04 -0.42456092586E+03 -0.87857341066E+02  0.11436128380E+04  0.12699999809E+01 0.  1.
       -4    1    3    3    0  502 -0.10582427973E+04  0.42456092586E+03 -0.39014911823E+03  0.12051339118E+04  0.12699999809E+01 0. -1.
</event>
<event>
 5   0  0.1888779E-06  0.2306090E+04  0.7818609E-02  0.8475524E-01
        2   -1    0    0  501    0  0.00000000000E+00  0.00000000000E+00  0.19770724559E+04  0.19770724559E+04  0.25500000920E-02 0. -1.
       -2   -1    0    0    0  501  0.00000000000E+00  0.00000000000E+00 -0.67246539691E+03  0.67246539692E+03  0.25500000920E-02 0.  1.
    10030    2    1    2    0    0  0.00000000000E+00  0.00000000000E+00  0.13046070590E+04  0.26495378528E+04  0.23060900362E+04 0.  0.
        4    1    3    3  502    0  0.57036080527E+03 -0.19574813408E+02 -0.49881766778E+03  0.75796787538E+03  0.12699999809E+01 0.  1.
       -4    1    3    3    0  502 -0.57036080527E+03  0.19574813408E+02  0.18034247268E+04  0.18915699774E+04  0.12699999809E+01 0. -1.
</event>
<event>
 5   0  0.8097672E-07  0.2300079E+04  0.7818609E-02  0.8477890E-01
        1   -1    0    0  501    0  0.00000000000E+00  0.00000000000E+00  0.11514666789E+04  0.11514666789E+04  0.50400001928E-02 0.  1.
       -1   -1    0    0    0  501  0.00000000000E+00  0.00000000000E+00 -0.11486140796E+04  0.11486140796E+04  0.50400001928E-02 0. -1.
    10030    2    1    2    0    0  0.00000000000E+00  0.00000000000E+00  0.28525992620E+01  0.23000807586E+04  0.23000789896E+04 0.  0.
        3    1    3    3  502    0  0.14642395677E+03  0.70225167600E+02 -0.11370908385E+04  0.11486283710E+04  0.10100000352E+00 0. -1.
       -3    1    3    3    0  502 -0.14642395677E+03 -0.70225167600E+02  0.11399434378E+04  0.11514523876E+04  0.10100000352E+00 0.  1.
</event>
<event>
 5   0  0.1825521E-06  0.2299863E+04  0.7818609E-02  0.8477975E-01
        2   -1    0    0  501    0  0.00000000000E+00  0.00000000000E+00  0.16285001379E+04  0.16285001379E+04  0.25500000920E-02 0. -1.
       -2   -1    0    0    0  501  0.00000000000E+00  0.00000000000E+00 -0.81200028155E+03  0.81200028155E+03  0.25500000920E-02 0.  1.
    10030    2    1    2    0    0  0.00000000000E+00  0.00000000000E+00  0.81649985637E+03  0.24405004195E+04  0.22998631007E+04 0.  0.
        5    1    3    3  502    0 -0.98836863944E+03 -0.30477353093E+03  0.94153576814E+03  0.13986676393E+04  0.46999998093E+01 0. -1.
       -5    1    3    3    0  502  0.98836863944E+03  0.30477353093E+03 -0.12503591176E+03  0.10418327802E+04  0.46999998093E+01 0.  1.
</event>
<event>
 5   0  0.1825521E-06  0.2298570E+04  0.7818609E-02  0.8478485E-01
        2   -1    0    0  501    0  0.00000000000E+00  0.00000000000E+00  0.19331543916E+04  0.19331543916E+04  0.25500000920E-02 0.  1.
       -2   -1    0    0    0  501  0.00000000000E+00  0.00000000000E+00 -0.68326484440E+03  0.68326484440E+03  0.25500000920E-02 0. -1.
    10030    2    1    2    0    0  0.00000000000E+00  0.00000000000E+00  0.12498895472E+04  0.26164192360E+04  0.22985703683E+04 0.  0.
        5    1    3    3  502    0 -0.17740876397E+03 -0.70687191833E+03  0.16364742772E+04  0.17914273439E+04  0.46999998093E+01 0.  1.
       -5    1    3    3    0  502  0.17740876397E+03  0.70687191833E+03 -0.38658473007E+03  0.82499189206E+03  0.46999998093E+01 0. -1.
</event>
<event>
 5   0  0.1744876E-06  0.2299391E+04  0.7818609E-02  0.8478161E-01
       -2   -1    0    0    0  501  0.00000000000E+00  0.00000000000E+00  0.10693475889E+04  0.10693475889E+04  0.25500000920E-02 0.  1.
        2   -1    0    0  501    0  0.00000000000E+00  0.00000000000E+00 -0.12360809466E+04  0.12360809466E+04  0.25500000920E-02 0. -1.
    10030    2    1    2    0    0  0.00000000000E+00  0.00000000000E+00 -0.16673335767E+03  0.23054285355E+04  0.22993913803E+04 0.  0.
        1    1    3    3  502    0 -0.76651218596E+03  0.22086677343E+03 -0.91347591516E+03  0.12127494838E+04  0.50400001928E-02 0. -1.
       -1    1    3    3    0  502  0.76651218596E+03 -0.22086677343E+03  0.74674255750E+03  0.10926790517E+04  0.50400001928E-02 0.  1.
</event>
<event>
 5   0  0.7607231E-07  0.2299298E+04  0.7818609E-02  0.8478198E-01
        1   -1    0    0  501    0  0.00000000000E+00  0.00000000000E+00  0.10717478161E+04  0.10717478161E+04  0.50400001928E-02 0.  1.
       -1   -1    0    0    0  501  0.00000000000E+00  0.00000000000E+00 -0.12332130227E+04  0.12332130228E+04  0.50400001928E-02 0. -1.
    10030    2    1    2    0    0  0.00000000000E+00  0.00000000000E+00 -0.16146520665E+03  0.23049608389E+04  0.22992984704E+04 0.  0.
        2    1    3    3  502    0 -0.83581863547E+03  0.57672253278E+03 -0.62103271758E+03  0.11903290753E+04  0.25500000920E-02 0. -1.
       -2    1    3    3    0  502  0.83581863547E+03 -0.57672253278E+03  0.45956751094E+03  0.11146317636E+04  0.25500000920E-02 0.  1.
</event>
<event>
 5   0  0.8097672E-07  0.2303045E+04  0.7818609E-02  0.8476722E-01
       -1   -1    0    0    0  501  0.00000000000E+00  0.00000000000E+00  0.11667100549E+04  0.11667100549E+04  0.50400001928E-02 0. -1.
        1   -1    0    0  501    0  0.00000000000E+00  0.00000000000E+00 -0.11365323114E+04  0.11365323114E+04  0.50400001928E-02 0.  1.
    10030    2    1    2    0    0  0.00000000000E+00  0.00000000000E+00  0.30177743487E+02  0.23032423663E+04  0.23030446591E+04 0.  0.
        3    1    3    3  502    0 -0.11463282538E+04 -0.27446318429E+02  0.12084245040E+03  0.11530067969E+04  0.10100000352E+00 0.  1.
       -3    1    3    3    0  502  0.11463282538E+04  0.27446318429E+02 -0.90664706910E+02  0.11502355694E+04  0.10100000352E+00 0. -1.
</event>
<event>
 5   0  0.7761069E-07  0.2300056E+04  0.7818609E-02  0.8477899E-01
        1   -1    0    0  501    0  0.00000000000E+00  0.00000000000E+00  0.63649453366E+03  0.63649453368E+03  0.50400001928E-02 0.  1.
       -1   -1    0    0    0  501  0.00000000000E+00  0.00000000000E+00 -0.20778878266E+04  0.20778878266E+04  0.50400001928E-02 0. -1.
    10030    2    1    2    0    0  0.00000000000E+00  0.00000000000E+00 -0.14413932929E+04  0.27143823603E+04  0.23000558630E+04 0.  0.
        1    1    3    3  502    0 -0.78898413988E+02  0.87150587054E+03  0.15992388286E+03  0.88956342689E+03  0.50400001928E-02 0.  1.
       -1    1    3    3    0  502  0.78898413988E+02 -0.87150587054E+03 -0.16013171758E+04  0.18248189334E+04  0.50400001928E-02 0. -1.
</event>
<event>
 5   0  0.1888779E-06  0.2300085E+04  0.7818609E-02  0.8477888E-01
       -2   -1    0    0    0  501  0.00000000000E+00  0.00000000000E+00  0.10504341681E+04  0.10504341681E+04  0.25500000920E-02 0.  1.
        2   -1    0    0  501    0  0.00000000000E+00  0.00000000000E+00 -0.12590958042E+04  0.12590958042E+04  0.25500000920E-02 0. -1.
    10030    2    1    2    0    0  0.00000000000E+00  0.00000000000E+00 -0.20866163604E+03  0.23095299723E+04  0.23000845668E+04 0.  0.
        4    1    3    3  502    0 -0.66138840239E+03  0.33320976689E+03 -0.98779182400E+03  0.12345840061E+04  0.12699999809E+01 0. -1.
       -4    1    3    3    0  502  0.66138840239E+03 -0.33320976689E+03  0.77913018796E+03  0.10749459662E+04  0.12699999809E+01 0.  1.
</event>
<event>
 5   0  0.7932912E-07  0.2299912E+04  0.7818609E-02  0.8477956E-01
       -1   -1    0    0    0  501  0.00000000000E+00  0.00000000000E+00  0.12962807471E+04  0.12962807471E+04  0.50400001928E-02 0.  1.
        1   -1    0    0  501    0  0.00000000000E+00  0.00000000000E+00 -0.10201481945E+04  0.10201481946E+04  0.50400001928E-02 0. -1.
    10030    2    1    2    0    0  0.00000000000E+00  0.00000000000E+00  0.27613255256E+03  0.23164289417E+04  0.22999117060E+04 0.  0.
        5    1    3    3  502    0 -0.74636155209E+03 -0.30508560532E+03  0.96385918783E+03  0.12566540562E+04  0.46999998093E+01 0.  1.
       -5    1    3    3    0  502  0.74636155209E+03  0.30508560532E+03 -0.68772663527E+03  0.10597748855E+04  0.46999998093E+01 0. -1.
</event>
<event>
 5   0  0.8108242E-07  0.2299440E+04  0.7818609E-02  0.8478142E-01
        1   -1    0    0  501    0  0.00000000000E+00  0.00000000000E+00  0.17755381864E+04  0.17755381864E+04  0.50400001928E-02 0.  1.
       -1   -1    0    0    0  501  0.00000000000E+00  0.00000000000E+00 -0.74448218082E+03  0.74448218084E+03  0.50400001928E-02 0. -1.
    10030    2    1    2    0    0  0.00000000000E+00  0.00000000000E+00  0.10310560056E+04  0.25200203672E+04  0.22994404025E+04 0.  0.
        4    1    3    3  502    0  0.24699835454E+02 -0.11285955163E+04  0.75442265699E+03  0.13577529523E+04  0.12699999809E+01 0.  1.
       -4    1    3    3    0  502 -0.24699835454E+02  0.11285955163E+04  0.27663334856E+03  0.11622674149E+04  0.12699999809E+01 0. -1.
</event>
<event>
 5   0  0.7607231E-07  0.2298926E+04  0.7818609E-02  0.8478345E-01
        1   -1    0    0  501    0  0.00000000000E+00  0.00000000000E+00  0.69955556599E+03  0.69955556600E+03  0.50400001928E-02 0. -1.
       -1   -1    0    0    0  501  0.00000000000E+00  0.00000000000E+00 -0.18887213461E+04  0.18887213461E+04  0.50400001928E-02 0.  1.
    10030    2    1    2    0    0  0.00000000000E+00  0.00000000000E+00 -0.11891657801E+04  0.25882769121E+04  0.22989262974E+04 0.  0.
        2    1    3    3  502    0 -0.11058240324E+04 -0.15528199796E+03 -0.90148391261E+03  0.14351419909E+04  0.25500000920E-02 0.  1.
       -2    1    3    3    0  502  0.11058240324E+04  0.15528199796E+03 -0.28768186747E+03  0.11531349211E+04  0.25500000920E-02 0. -1.
</event>
<event>
 5   0  0.1828646E-06  0.2299413E+04  0.7818609E-02  0.8478152E-01
       -2   -1    0    0    0  501  0.00000000000E+00  0.00000000000E+00  0.79503081695E+03  0.79503081696E+03  0.25500000920E-02 0.  1.
        2   -1    0    0  501    0  0.00000000000E+00  0.00000000000E+00 -0.16626092398E+04  0.16626092398E+04  0.25500000920E-02 0. -1.
    10030    2    1    2    0    0  0.00000000000E+00  0.00000000000E+00 -0.86757842281E+03  0.24576400567E+04  0.22994134749E+04 0.  0.
        3    1    3    3  502    0  0.11810186309E+02 -0.65644943537E+03 -0.14425347205E+04  0.15849201153E+04  0.10100000352E+00 0. -1.
       -3    1    3    3    0  502 -0.11810186309E+02  0.65644943537E+03  0.57495629771E+03  0.87271994144E+03  0.10100000352E+00 0.  1.
</event>
<event>
 5   0  0.1888779E-06  0.2301475E+04  0.7818609E-02  0.8477340E-01
       -2   -1    0    0    0  501  0.00000000000E+00  0.00000000000E+00  0.11811021212E+04  0.11811021212E+04  0.25500000920E-02 0. -1.
        2   -1    0    0  501    0  0.00000000000E+00  0.00000000000E+00 -0.11211536055E+04  0.11211536055E+04  0.25500000920E-02 0.  1.
    10030    2    1    2    0    0  0.00000000000E+00  0.00000000000E+00  0.59948515729E+02  0.23022557267E+04  0.23014750936E+04 0.  0.
        4    1    3    3  502    0  0.71471708288E+03  0.75059197079E+03  0.53013032072E+03  0.11641514442E+04  0.12699999809E+01 0. -1.
       -4    1    3    3    0  502 -0.71471708288E+03 -0.75059197079E+03 -0.47018180499E+03  0.11381042825E+04  0.12699999809E+01 0.  1.
</event>
<event>
 5   0  0.1744876E-06  0.2301760E+04  0.7818609E-02  0.8477227E-01
        2   -1    0    0  501    0  0.00000000000E+00  0.00000000000E+00  0.16406557899E+04  0.16406557899E+04  0.25500000920E-02 0.  1.
       -2   -1    0    0    0  501  0.00000000000E+00  0.00000000000E+00 -0.80731447505E+03  0.80731447505E+03  0.25500000920E-02 0. -1.
    10030    2    1    2    0    0  0.00000000000E+00  0.00000000000E+00  0.83334131488E+03  0.24479702650E+04  0.23017603418E+04 0.  0.
        1    1    3    3  502    0 -0.76343069531E+03  0.49524930833E+03 -0.33266029560E+03  0.96889688628E+03  0.50400001928E-02 0. -1.
       -1    1    3    3    0  502  0.76343069531E+03 -0.49524930833E+03  0.11660016105E+04  0.14790733787E+04  0.50400001928E-02 0.  1.
</event>
<event>
 5   0  0.1828646E-06  0.2300826E+04  0.7818609E-02  0.8477595E-01
        2   -1    0    0  501    0  0.00000000000E+00  0.00000000000E+00  0.26761632477E+04  0.26761632477E+04  0.25500000920E-02 0. -1.
       -2   -1    0    0    0  501  0.00000000000E+00  0.00000000000E+00 -0.49453280397E+03  0.49453280398E+03  0.25500000920E-02 0.  1.
    10030    2    1    2    0    0  0.00000000000E+00  0.00000000000E+00  0.21816304438E+04  0.31706960517E+04  0.23008263861E+04 0.  0.
        3    1    3    3  502    0  0.66637155252E+03 -0.45001269649E+02  0.23816279168E+04  0.24735051455E+04  0.10100000352E+00 0. -1.
       -3    1    3    3    0  502 -0.66637155252E+03  0.45001269649E+02 -0.19999747308E+03  0.69719090622E+03  0.10100000352E+00 0.  1.
</event>
<event>
 5   0  0.7932912E-07  0.2303770E+04  0.7818609E-02  0.8476436E-01
       -1   -1    0    0    0  501  0.00000000000E+00  0.00000000000E+00  0.13446948617E+04  0.13446948617E+04  0.50400001928E-02 0.  1.
        1   -1    0    0  501    0  0.00000000000E+00  0.00000000000E+00 -0.98672142637E+03  0.98672142638E+03  0.50400001928E-02 0. -1.
    10030    2    1    2    0    0  0.00000000000E+00  0.00000000000E+00  0.35797343532E+03  0.23314162881E+04  0.23037701552E+04 0.  0.
        5    1    3    3  502    0 -0.53293269436E+03  0.71640711728E+03 -0.55745530743E+03  0.10526323785E+04  0.46999998093E+01 0. -1.
       -5    1    3    3    0  502  0.53293269436E+03 -0.71640711728E+03  0.91542874275E+03  0.12787839096E+04  0.46999998093E+01 0.  1.
</event>
<event>
 5   0  0.8108242E-07  0.2299750E+04  0.7818609E-02  0.8478020E-01
       -1   -1    0    0    0  501  0.00000000000E+00  0.00000000000E+00  0.91623977824E+03  0.91623977825E+03  0.50400001928E-02 0. -1.
        1   -1    0    0  501    0  0.00000000000E+00  0.00000000000E+00 -0.14430857872E+04  0.14430857872E+04  0.50400001928E-02 0.  1.
    10030    2    1    2    0    0  0.00000000000E+00  0.00000000000E+00 -0.52684600900E+03  0.23593255655E+04  0.22997500749E+04 0.  0.
        4    1    3    3  502    0  0.97903282800E+03 -0.60250318486E+03 -0.29048090621E+03  0.11857049109E+04  0.12699999809E+01 0.  1.
       -4    1    3    3    0  502 -0.97903282800E+03  0.60250318486E+03 -0.23636510279E+03  0.11736206545E+04  0.12699999809E+01 0. -1.
</event>
<event>
 5   0  0.7932912E-07  0.2303689E+04  0.7818609E-02  0.8476468E-01
        1   -1    0    0  501    0  0.00000000000E+00  0.00000000000E+00  0.73594410260E+03  0.73594410261E+03  0.50400001928E-02 0. -1.
       -1   -1    0    0    0  501  0.00000000000E+00  0.00000000000E+00 -0.18027810418E+04  0.18027810419E+04  0.50400001928E-02 0.  1.
    10030    2    1    2    0    0  0.00000000000E+00  0.00000000000E+00 -0.10668369392E+04  0.25387251445E+04  0.23036892812E+04 0.  0.
        5    1    3    3  502    0  0.93768620134E+03 -0.66590683852E+03 -0.46340160349E+03  0.12399397025E+04  0.46999998093E+01 0. -1.
       -5    1    3    3    0  502 -0.93768620134E+03  0.66590683852E+03 -0.60343533576E+03  0.12987854419E+04  0.46999998093E+01 0.  1.
</event>
<event>
 5   0  0.7761069E-07  0.2300515E+04  0.7818609E-02  0.8477718E-01
        1   -1    0    0  501    0  0.00000000000E+00  0.00000000000E+00  0.19645434932E+04  0.19645434932E+04  0.50400001928E-02 0. -1.
       -1   -1    0    0    0  501  0.00000000000E+00  0.00000000000E+00 -0.67348609335E+03  0.67348609337E+03  0.50400001928E-02 0.  1.
    10030    2    1    2    0    0  0.00000000000E+00  0.00000000000E+00  0.12910573999E+04  0.26380295866E+04  0.23005153531E+04 0.  0.
        1    1    3    3  502    0  0.18830753157E+02  0.13122030998E+03  0.19557546102E+04  0.19602421948E+04  0.50400001928E-02 0. -1.
       -1    1    3    3    0  502 -0.18830753157E+02 -0.13122030998E+03 -0.66469721032E+03  0.67778739178E+03  0.50400001928E-02 0.  1.
</event>
<event>
 5   0  0.1888779E-06  0.2299690E+04  0.7818609E-02  0.8478043E-01
       -2   -1    0    0    0  501  0.00000000000E+00  0.00000000000E+00  0.12560014293E+04  0.12560014293E+04  0.25500000920E-02 0.  1.
        2   -1    0    0  501    0  0.00000000000E+00  0.00000000000E+00 -0.10526612320E+04  0.10526612320E+04  0.25500000920E-02 0. -1.
    10030    2    1    2    0    0  0.00000000000E+00  0.00000000000E+00  0.20334019727E+03  0.23086626613E+04  0.22996904244E+04 0.  0.
        4    1    3    3  502    0  0.42476704067E+03  0.10118870260E+03  0.11695288596E+04  0.12483851804E+04  0.12699999809E+01 0.  1.
       -4    1    3    3    0  502 -0.42476704067E+03 -0.10118870260E+03 -0.96618866234E+03  0.10602774809E+04  0.12699999809E+01 0. -1.
</event>
<event>
 5   0  0.1744876E-06  0.2300337E+04  0.7818609E-02  0.8477788E-01
       -2   -1    0    0    0  501  0.00000000000E+00  0.00000000000E+00  0.59413589927E+03  0.59413589927E+03  0.25500000920E-02 0. -1.
        2   -1    0    0  501    0  0.00000000000E+00  0.00000000000E+00 -0.22265731475E+04  0.22265731475E+04  0.25500000920E-02 0.  1.
    10030    2    1    2    0    0  0.00000000000E+00  0.00000000000E+00 -0.16324372482E+04  0.28207090467E+04  0.23003365313E+04 0.  0.
        1    1    3    3  502    0  0.59934260747E+03 -0.54349694466E+02 -0.20181113037E+04  0.21059294111E+04  0.50400001928E-02 0.  1.
       -1    1    3    3    0  502 -0.59934260747E+03  0.54349694466E+02  0.38567405549E+03  0.71477963564E+03  0.50400001928E-02 0. -1.
</event>
<event>
 5   0  0.1689444E-06  0.2299222E+04  0.7818609E-02  0.8478228E-01
        2   -1    0    0  501    0  0.00000000000E+00  0.00000000000E+00  0.13852120512E+04  0.13852120512E+04  0.25500000920E-02 0.  1.
       -2   -1    0    0    0  501  0.00000000000E+00  0.00000000000E+00 -0.95408138512E+03  0.95408138512E+03  0.25500000920E-02 0. -1.
    10030    2    1    2    0    0  0.00000000000E+00  0.00000000000E+00  0.43113066610E+03  0.23392934363E+04  0.22992216357E+04 0.  0.
        2    1    3    3  502    0 -0.13888541171E+03 -0.54904232911E+03 -0.80230475649E+03  0.98205374549E+03  0.25500000920E-02 0. -1.
       -2    1    3    3    0  502  0.13888541171E+03  0.54904232911E+03  0.12334354226E+04  0.13572396909E+04  0.25500000920E-02 0.  1.
</event>
<event>
 5   0  0.8097672E-07  0.2300345E+04  0.7818609E-02  0.8477785E-01
       -1   -1    0    0    0  501  0.00000000000E+00  0.00000000000E+00  0.11580512125E+04  0.11580512125E+04  0.50400001928E-02 0. -1.
        1   -1    0    0  501    0  0.00000000000E+00  0.00000000000E+00 -0.11423474386E+04  0.11423474387E+04  0.50400001928E-02 0.  1.
    10030    2    1    2    0    0  0.00000000000E+00  0.00000000000E+00  0.15703773874E+02  0.23003986512E+04  0.23003450493E+04 0.  0.
        3    1    3    3  502    0 -0.63585969391E+03 -0.50341774263E+03  0.82343808772E+03  0.11557669611E+04  0.10100000352E+00 0. -1.
       -3    1    3    3    0  502  0.63585969391E+03  0.50341774263E+03 -0.80773431385E+03  0.11446316901E+04  0.10100000352E+00 0.  1.
</event>
<event>
 5   0  0.1828646E-06  0.2296703E+04  0.7818609E-02  0.8479222E-01
        2   -1    0    0  501    0  0.00000000000E+00  0.00000000000E+00  0.21019102850E+04  0.21019102850E+04  0.25500000920E-02 0.  1.
       -2   -1    0    0    0  501  0.00000000000E+00  0.00000000000E+00 -0.62738676162E+03  0.62738676163E+03  0.25500000920E-02 0. -1.
    10030    2    1    2    0    0  0.00000000000E+00  0.00000000000E+00  0.14745235234E+04  0.27292970467E+04  0.22967025815E+04 0.  0.
        3    1    3    3  502    0  0.22321260389E+03  0.10052355861E+04  0.13319852216E+03  0.10382987559E+04  0.10100000352E+00 0. -1.
       -3    1    3    3    0  502 -0.22321260389E+03 -0.10052355861E+04  0.13413250013E+04  0.16909982907E+04  0.10100000352E+00 0.  1.
</event>
<event>
 5   0  0.1825521E-06  0.2302257E+04  0.7818609E-02  0.8477032E-01
        2   -1    0    0  501    0  0.00000000000E+00  0.00000000000E+00  0.11946822232E+04  0.11946822232E+04  0.25500000920E-02 0. -1.
       -2   -1    0    0    0  501  0.00000000000E+00  0.00000000000E+00 -0.11091622044E+04  0.11091622044E+04  0.25500000920E-02 0.  1.
    10030    2    1    2    0    0  0.00000000000E+00  0.00000000000E+00  0.85520018845E+02  0.23038444276E+04  0.23022566045E+04 0.  0.
        5    1    3    3  502    0  0.90013477177E+03  0.48163975624E+03 -0.48944776011E+03  0.11321663579E+04  0.46999998093E+01 0.  1.
       -5    1    3    3    0  502 -0.90013477177E+03 -0.48163975624E+03  0.57496777896E+03  0.11716780697E+04  0.46999998093E+01 0. -1.
</event>
<event>
 5   0  0.1744876E-06  0.2299497E+04  0.7818609E-02  0.8478120E-01
       -2   -1    0    0    0  501  0.00000000000E+00  0.00000000000E+00  0.19163451413E+04  0.19163451413E+04  0.25500000920E-02 0. -1.
        2   -1    0    0  501    0  0.00000000000E+00  0.00000000000E+00 -0.68981381212E+03  0.68981381212E+03  0.25500000920E-02 0.  1.
    10030    2    1    2    0    0  0.00000000000E+00  0.00000000000E+00  0.12265313292E+04  0.26061589534E+04  0.22994967686E+04 0.  0.
        1    1    3    3  502    0  0.74860564880E+03 -0.67632594454E+03  0.12382543097E+04  0.15972166216E+04  0.50400001928E-02 0. -1.
       -1    1    3    3    0  502 -0.74860564880E+03  0.67632594454E+03 -0.11722980548E+02  0.10089423318E+04  0.50400001928E-02 0.  1.
</event>
<event>
 5   0  0.8097672E-07  0.2300072E+04  0.7818609E-02  0.8477893E-01
        1   -1    0    0  501    0  0.00000000000E+00  0.00000000000E+00  0.13706235488E+04  0.13706235488E+04  0.50400001928E-02 0. -1.
       -1   -1    0    0    0  501  0.00000000000E+00  0.00000000000E+00 -0.96494994520E+03  0.96494994522E+03  0.50400001928E-02 0.  1.
    10030    2    1    2    0    0  0.00000000000E+00  0.00000000000E+00  0.40567360363E+03  0.23355734941E+04  0.23000722757E+04 0.  0.
        3    1    3    3  502    0 -0.15902559259E+03 -0.82765530576E+03  0.99739795274E+03  0.13057967417E+04  0.10100000352E+00 0. -1.
       -3    1    3    3    0  502  0.15902559259E+03  0.82765530576E+03 -0.59172434910E+03  0.10297767524E+04  0.10100000352E+00 0.  1.
</event>
<event>
 5   0  0.8108242E-07  0.2301039E+04  0.7818609E-02  0.8477511E-01
        1   -1    0    0  501    0  0.00000000000E+00  0.00000000000E+00  0.24976764703E+04  0.24976764703E+04  0.50400001928E-02 0. -1.
       -1   -1    0    0    0  501  0.00000000000E+00  0.00000000000E+00 -0.52997080791E+03  0.52997080794E+03  0.50400001928E-02 0.  1.
    10030    2    1    2    0    0  0.00000000000E+00  0.00000000000E+00  0.19677056624E+04  0.30276472783E+04  0.23010394320E+04 0.  0.
        4    1    3    3  502    0 -0.26824651687E+03 -0.35222411185E+03  0.23811004663E+04  0.24219122739E+04  0.12699999809E+01 0. -1.
       -4    1    3    3    0  502  0.26824651687E+03  0.35222411185E+03 -0.41339480389E+03  0.60573500440E+03  0.12699999809E+01 0.  1.
</event>
<event>
 5   0  0.8097672E-07  0.2298065E+04  0.7818609E-02  0.8478684E-01
        1   -1    0    0  501    0  0.00000000000E+00  0.00000000000E+00  0.16990669726E+04  0.16990669726E+04  0.50400001928E-02 0. -1.
       -1   -1    0    0    0  501  0.00000000000E+00  0.00000000000E+00 -0.77705944380E+03  0.77705944381E+03  0.50400001928E-02 0.  1.
    10030    2    1    2    0    0  0.00000000000E+00  0.00000000000E+00  0.92200752883E+03  0.24761264164E+04  0.22980653052E+04 0.  0.
        3    1    3    3  502    0  0.25609803681E+02  0.66890392199E+03  0.14672758565E+04  0.16127575044E+04  0.10100000352E+00 0. -1.
       -3    1    3    3    0  502 -0.25609803681E+02 -0.66890392199E+03 -0.54526832765E+03  0.86336891202E+03  0.10100000352E+00 0.  1.
</event>
<event>
 5   0  0.1888779E-06  0.2301410E+04  0.7818609E-02  0.8477365E-01
       -2   -1    0    0    0  501  0.00000000000E+00  0.00000000000E+00  0.61803179825E+03  0.61803179826E+03  0.25500000920E-02 0. -1.
        2   -1    0    0  501    0  0.00000000000E+00  0.00000000000E+00 -0.21424826718E+04  0.21424826718E+04  0.25500000920E-02 0.  1.
    10030    2    1    2    0    0  0.00000000000E+00  0.00000000000E+00 -0.15244508735E+04  0.27605144700E+04  0.23014103662E+04 0.  0.
        4    1    3    3  502    0 -0.43200931901E+03  0.10217084831E+04 -0.39525158912E+03  0.11776016762E+04  0.12699999809E+01 0. -1.
       -4    1    3    3    0  502  0.43200931901E+03 -0.10217084831E+04 -0.11291992844E+04  0.15829127938E+04  0.12699999809E+01 0.  1.
</event>
<event>
 5   0  0.1825521E-06  0.2300612E+04  0.7818609E-02  0.8477680E-01
        2   -1    0    0  501    0  0.00000000000E+00  0.00000000000E+00  0.14289940365E+04  0.14289940365E+04  0.25500000920E-02 0.  1.
       -2   -1    0    0    0  501  0.00000000000E+00  0.00000000000E+00 -0.92596891698E+03  0.92596891698E+03  0.25500000920E-02 0. -1.
    10030    2    1    2    0    0  0.00000000000E+00  0.00000000000E+00  0.50302511950E+03  0.23549629535E+04  0.23006121449E+04 0.  0.
        5    1    3    3  502    0  0.11175753554E+04  0.27074535508E+03  0.28229368306E+03  0.11840563905E+04  0.46999998093E+01 0.  1.
       -5    1    3    3    0  502 -0.11175753554E+04 -0.27074535508E+03  0.22073143644E+03  0.11709065630E+04  0.46999998093E+01 0. -1.
</event>
<event>
 5   0  0.1689444E-06  0.2299559E+04  0.7818609E-02  0.8478095E-01
        2   -1    0    0  501    0  0.00000000000E+00  0.00000000000E+00  0.10304379441E+04  0.10304379441E+04  0.25500000920E-02 0.  1.
       -2   -1    0    0    0  501  0.00000000000E+00  0.00000000000E+00 -0.12829430159E+04  0.12829430159E+04  0.25500000920E-02 0. -1.
    10030    2    1    2    0    0  0.00000000000E+00  0.00000000000E+00 -0.25250507181E+03  0.23133809600E+04  0.22995592306E+04 0.  0.
        2    1    3    3  502    0  0.71162469770E+03  0.35935860108E+03 -0.95975210919E+03  0.12476667927E+04  0.25500000920E-02 0. -1.
       -2    1    3    3    0  502 -0.71162469770E+03 -0.35935860108E+03  0.70724703738E+03  0.10657141673E+04  0.25500000920E-02 0.  1.
</event>
<event>
 5   0  0.1828646E-06  0.2290758E+04  0.7818609E-02  0.8481574E-01
        2   -1    0    0  501    0  0.00000000000E+00  0.00000000000E+00  0.14071559368E+04  0.14071559368E+04  0.25500000920E-02 0.  1.
       -2   -1    0    0    0  501  0.00000000000E+00  0.00000000000E+00 -0.93230142034E+03  0.93230142034E+03  0.25500000920E-02 0. -1.
    10030    2    1    2    0    0  0.00000000000E+00  0.00000000000E+00  0.47485451645E+03  0.23394573571E+04  0.22907583709E+04 0.  0.
        3    1    3    3  502    0 -0.63739888360E+03 -0.46915991290E+03 -0.60812645035E+03  0.99810127267E+03  0.10100000352E+00 0. -1.
       -3    1    3    3    0  502  0.63739888360E+03  0.46915991290E+03  0.10829809668E+04  0.13413560845E+04  0.10100000352E+00 0.  1.
</event>
<event>
 5   0  0.1689444E-06  0.2300065E+04  0.7818609E-02  0.8477895E-01
       -2   -1    0    0    0  501  0.00000000000E+00  0.00000000000E+00  0.58241883751E+03  0.58241883751E+03  0.25500000920E-02 0. -1.
        2   -1    0    0  501    0  0.00000000000E+00  0.00000000000E+00 -0.22708312579E+04  0.22708312579E+04  0.25500000920E-02 0.  1.
    10030    2    1    2    0    0  0.00000000000E+00  0.00000000000E+00 -0.16884124204E+04  0.28532500954E+04  0.23000651307E+04 0.  0.
        2    1    3    3  502    0  0.14177571745E+03 -0.41118042550E+03 -0.21648701135E+04  0.22081286884E+04  0.25500000920E-02 0.  1.
       -2    1    3    3    0  502 -0.14177571745E+03  0.41118042550E+03  0.47645769313E+03  0.64512140696E+03  0.25500000920E-02 0. -1.
</event>
<event>
 5   0  0.1828646E-06  0.2302347E+04  0.7818609E-02  0.8476996E-01
       -2   -1    0    0    0  501  0.00000000000E+00  0.00000000000E+00  0.15521150564E+04  0.15521150564E+04  0.25500000920E-02 0.  1.
        2   -1    0    0  501    0  0.00000000000E+00  0.00000000000E+00 -0.85380258809E+03  0.85380258810E+03  0.25500000920E-02 0. -1.
    10030    2    1    2    0    0  0.00000000000E+00  0.00000000000E+00  0.69831246833E+03  0.24059176445E+04  0.23023465006E+04 0.  0.
        3    1    3    3  502    0  0.55720780579E+03 -0.94511723447E+03  0.71336420278E+03  0.13086694089E+04  0.10100000352E+00 0. -1.
       -3    1    3    3    0  502 -0.55720780579E+03  0.94511723447E+03 -0.15051734449E+02  0.10972482356E+04  0.10100000352E+00 0.  1.
</event>
<event>
 5   0  0.1828646E-06  0.2300876E+04  0.7818609E-02  0.8477576E-01
        2   -1    0    0  501    0  0.00000000000E+00  0.00000000000E+00  0.18586736208E+04  0.18586736208E+04  0.25500000920E-02 0.  1.
       -2   -1    0    0    0  501  0.00000000000E+00  0.00000000000E+00 -0.71207074344E+03  0.71207074345E+03  0.25500000920E-02 0. -1.
    10030    2    1    2    0    0  0.00000000000E+00  0.00000000000E+00  0.11466028774E+04  0.25707443643E+04  0.23008755786E+04 0.  0.
        3    1    3    3  502    0 -0.31557053264E+03 -0.62799095321E+03  0.15909245524E+04  0.17392522359E+04  0.10100000352E+00 0.  1.
       -3    1    3    3    0  502  0.31557053264E+03  0.62799095321E+03 -0.44432167507E+03  0.83149212835E+03  0.10100000352E+00 0. -1.
</event>
<event>
 5   0  0.1689444E-06  0.2299791E+04  0.7818609E-02  0.8478003E-01
       -2   -1    0    0    0  501  0.00000000000E+00  0.00000000000E+00  0.71829082133E+03  0.71829082134E+03  0.25500000920E-02 0.  1.
        2   -1    0    0  501    0  0.00000000000E+00  0.00000000000E+00 -0.18408423182E+04  0.18408423182E+04  0.25500000920E-02 0. -1.
    10030    2    1    2    0    0  0.00000000000E+00  0.00000000000E+00 -0.11225514968E+04  0.25591331395E+04  0.22997914172E+04 0.  0.
        2    1    3    3  502    0  0.40467953081E+03 -0.58537032053E+03 -0.15663679870E+04  0.17204454672E+04  0.25500000920E-02 0. -1.
       -2    1    3    3    0  502 -0.40467953081E+03  0.58537032053E+03  0.44381649015E+03  0.83868767235E+03  0.25500000920E-02 0.  1.
</event>
<event>
 5   0  0.8097672E-07  0.2300364E+04  0.7818609E-02  0.8477778E-01
        1   -1    0    0  501    0  0.00000000000E+00  0.00000000000E+00  0.11834517866E+04  0.11834517867E+04  0.50400001928E-02 0. -1.
       -1   -1    0    0    0  501  0.00000000000E+00  0.00000000000E+00 -0.11178474606E+04  0.11178474606E+04  0.50400001928E-02 0.  1.
    10030    2    1    2    0    0  0.00000000000E+00  0.00000000000E+00  0.65604326081E+02  0.23012992472E+04  0.23003639490E+04 0.  0.
        3    1    3    3  502    0  0.59941036886E+03 -0.97749123833E+03 -0.57437909919E+02  0.11480771033E+04  0.10100000352E+00 0.  1.
       -3    1    3    3    0  502 -0.59941036886E+03  0.97749123833E+03  0.12304223600E+03  0.11532221440E+04  0.10100000352E+00 0. -1.
</event>
<event>
 5   0  0.7607231E-07  0.2300294E+04  0.7818609E-02  0.8477805E-01
       -1   -1    0    0    0  501  0.00000000000E+00  0.00000000000E+00  0.86419880026E+03  0.86419880028E+03  0.50400001928E-02 0.  1.
        1   -1    0    0  501    0  0.00000000000E+00  0.00000000000E+00 -0.15307106868E+04  0.15307106868E+04  0.50400001928E-02 0. -1.
    10030    2    1    2    0    0  0.00000000000E+00  0.00000000000E+00 -0.66651188650E+03  0.23949094870E+04  0.23002941891E+04 0.  0.
        2    1    3    3  502    0 -0.31700708578E+03  0.10899711459E+04 -0.52609803172E+03  0.12511233873E+04  0.25500000920E-02 0. -1.
       -2    1    3    3    0  502  0.31700708578E+03 -0.10899711459E+04 -0.14041385477E+03  0.11437860997E+04  0.25500000920E-02 0.  1.
</event>
<event>
 5   0  0.7607231E-07  0.2299831E+04  0.7818609E-02  0.8477988E-01
        1   -1    0    0  501    0  0.00000000000E+00  0.00000000000E+00  0.78601448509E+03  0.78601448511E+03  0.50400001928E-02 0. -1.
       -1   -1    0    0    0  501  0.00000000000E+00  0.00000000000E+00 -0.16822919858E+04  0.16822919858E+04  0.50400001928E-02 0.  1.
    10030    2    1    2    0    0  0.00000000000E+00  0.00000000000E+00 -0.89627750073E+03  0.24683064709E+04  0.22998311843E+04 0.  0.
        2    1    3    3  502    0 -0.97106045993E+03  0.23946004303E+03 -0.10571640507E+04  0.14552990618E+04  0.25500000920E-02 0. -1.
       -2    1    3    3    0  502  0.97106045993E+03 -0.23946004303E+03  0.16088654999E+03  0.10130074092E+04  0.25500000920E-02 0.  1.
</event>
<event>
 5   0  0.8097672E-07  0.2300174E+04  0.7818609E-02  0.8477853E-01
       -1   -1    0    0    0  501  0.00000000000E+00  0.00000000000E+00  0.50540587608E+03  0.50540587610E+03  0.50400001928E-02 0. -1.
        1   -1    0    0  501    0  0.00000000000E+00  0.00000000000E+00 -0.26171046407E+04  0.26171046407E+04  0.50400001928E-02 0.  1.
    10030    2    1    2    0    0  0.00000000000E+00  0.00000000000E+00 -0.21116987647E+04  0.31225105169E+04  0.23001739619E+04 0.  0.
        3    1    3    3  502    0 -0.73234580300E+03 -0.39870892275E+03 -0.21311150672E+04  0.22884384677E+04  0.10100000352E+00 0.  1.
       -3    1    3    3    0  502  0.73234580300E+03  0.39870892275E+03  0.19416302569E+02  0.83407204920E+03  0.10100000352E+00 0. -1.
</event>
<event>
 5   0  0.1744876E-06  0.2298234E+04  0.7818609E-02  0.8478618E-01
        2   -1    0    0  501    0  0.00000000000E+00  0.00000000000E+00  0.19442853102E+04  0.19442853102E+04  0.25500000920E-02 0. -1.
       -2   -1    0    0    0  501  0.00000000000E+00  0.00000000000E+00 -0.67915428639E+03  0.67915428640E+03  0.25500000920E-02 0.  1.
    10030    2    1    2    0    0  0.00000000000E+00  0.00000000000E+00  0.12651310238E+04  0.26234395966E+04  0.22982338457E+04 0.  0.
        1    1    3    3  502    0  0.29451293266E+02 -0.11343863607E+04  0.42592547700E+03  0.12120694312E+04  0.50400001928E-02 0. -1.
       -1    1    3    3    0  502 -0.29451293266E+02  0.11343863607E+04  0.83920554678E+03  0.14113701654E+04  0.50400001928E-02 0.  1.
</event>
<event>
 5   0  0.8097672E-07  0.2300338E+04  0.7818609E-02  0.8477788E-01
       -1   -1    0    0    0  501  0.00000000000E+00  0.00000000000E+00  0.11389393859E+04  0.11389393859E+04  0.50400001928E-02 0. -1.
        1   -1    0    0  501    0  0.00000000000E+00  0.00000000000E+00 -0.11615096740E+04  0.11615096740E+04  0.50400001928E-02 0.  1.
    10030    2    1    2    0    0  0.00000000000E+00  0.00000000000E+00 -0.22570288180E+02  0.23004490599E+04  0.23003383358E+04 0.  0.
        3    1    3    3  502    0 -0.94387277860E+03  0.38543858882E+03 -0.54369256566E+03  0.11554481140E+04  0.10100000352E+00 0.  1.
       -3    1    3    3    0  502  0.94387277860E+03 -0.38543858882E+03  0.52112227747E+03  0.11450009459E+04  0.10100000352E+00 0. -1.
</event>
<event>
 5   0  0.1828646E-06  0.2299039E+04  0.7818609E-02  0.8478300E-01
        2   -1    0    0  501    0  0.00000000000E+00  0.00000000000E+00  0.70819970582E+03  0.70819970582E+03  0.25500000920E-02 0. -1.
       -2   -1    0    0    0  501  0.00000000000E+00  0.00000000000E+00 -0.18658515118E+04  0.18658515118E+04  0.25500000920E-02 0.  1.
    10030    2    1    2    0    0  0.00000000000E+00  0.00000000000E+00 -0.11576518060E+04  0.25740512177E+04  0.22990393575E+04 0.  0.
        3    1    3    3  502    0  0.62930369324E+03 -0.93199802913E+03 -0.31210231268E+03  0.11670695474E+04  0.10100000352E+00 0. -1.
       -3    1    3    3    0  502 -0.62930369324E+03  0.93199802913E+03 -0.84554949334E+03  0.14069816703E+04  0.10100000352E+00 0.  1.
</event>
<event>
 5   0  0.7761069E-07  0.2299930E+04  0.7818609E-02  0.8477949E-01
        1   -1    0    0  501    0  0.00000000000E+00  0.00000000000E+00  0.13073634201E+04  0.13073634201E+04  0.50400001928E-02 0. -1.
       -1   -1    0    0    0  501  0.00000000000E+00  0.00000000000E+00 -0.10115160931E+04  0.10115160931E+04  0.50400001928E-02 0.  1.
    10030    2    1    2    0    0  0.00000000000E+00  0.00000000000E+00  0.29584732696E+03  0.23188795132E+04  0.22999296850E+04 0.  0.
        1    1    3    3  502    0  0.86170568112E+03  0.75200843724E+03  0.26876848801E+03  0.11748573831E+04  0.50400001928E-02 0. -1.
       -1    1    3    3    0  502 -0.86170568112E+03 -0.75200843724E+03  0.27078838950E+02  0.11440221301E+04  0.50400001928E-02 0.  1.
</event>
<event>
 5   0  0.1888779E-06  0.2300356E+04  0.7818609E-02  0.8477781E-01
       -2   -1    0    0    0  501  0.00000000000E+00  0.00000000000E+00  0.92212856886E+03  0.92212856886E+03  0.25500000920E-02 0.  1.
        2   -1    0    0  501    0  0.00000000000E+00  0.00000000000E+00 -0.14346263631E+04  0.14346263631E+04  0.25500000920E-02 0. -1.
    10030    2    1    2    0    0  0.00000000000E+00  0.00000000000E+00 -0.51249779424E+03  0.23567549320E+04  0.23003564550E+04 0.  0.
        4    1    3    3  502    0 -0.77425237593E+03  0.42073090526E+03  0.50108152692E+03  0.10136890775E+04  0.12699999809E+01 0.  1.
       -4    1    3    3    0  502  0.77425237593E+03 -0.42073090526E+03 -0.10135793212E+04  0.13430658545E+04  0.12699999809E+01 0. -1.
</event>
<event>
 5   0  0.1888779E-06  0.2299853E+04  0.7818609E-02  0.8477979E-01
        2   -1    0    0  501    0  0.00000000000E+00  0.00000000000E+00  0.99010793908E+03  0.99010793908E+03  0.25500000920E-02 0.  1.
       -2   -1    0    0    0  501  0.00000000000E+00  0.00000000000E+00 -0.13355427117E+04  0.13355427117E+04  0.25500000920E-02 0. -1.
    10030    2    1    2    0    0  0.00000000000E+00  0.00000000000E+00 -0.34543477259E+03  0.23256506508E+04  0.22998534230E+04 0.  0.
        4    1    3    3  502    0 -0.89936821473E+02 -0.57782245833E+03 -0.11739561228E+04  0.13115418470E+04  0.12699999809E+01 0. -1.
       -4    1    3    3    0  502  0.89936821473E+02  0.57782245833E+03  0.82852135022E+03  0.10141088038E+04  0.12699999809E+01 0.  1.
</event>
<event>
 5   0  0.7932912E-07  0.2300897E+04  0.7818609E-02  0.8477567E-01
       -1   -1    0    0    0  501  0.00000000000E+00  0.00000000000E+00  0.84043462747E+03  0.84043462748E+03  0.50400001928E-02 0. -1.
        1   -1    0    0  501    0  0.00000000000E+00  0.00000000000E+00 -0.15748187421E+04  0.15748187421E+04  0.50400001928E-02 0.  1.
    10030    2    1    2    0    0  0.00000000000E+00  0.00000000000E+00 -0.73438411461E+03  0.24152533696E+04  0.23008973926E+04 0.  0.
        5    1    3    3  502    0  0.82690903261E+03  0.79930086805E+03 -0.39779019010E+03  0.12169303806E+04  0.46999998093E+01 0.  1.
       -5    1    3    3    0  502 -0.82690903261E+03 -0.79930086805E+03 -0.33659392451E+03  0.11983229890E+04  0.46999998093E+01 0. -1.
</event>
<event>
 5   0  0.8097672E-07  0.2300698E+04  0.7818609E-02  0.8477646E-01
        1   -1    0    0  501    0  0.00000000000E+00  0.00000000000E+00  0.46730249386E+03  0.46730249389E+03  0.50400001928E-02 0.  1.
       -1   -1    0    0    0  501  0.00000000000E+00  0.00000000000E+00 -0.28317896786E+04  0.28317896786E+04  0.50400001928E-02 0. -1.
    10030    2    1    2    0    0  0.00000000000E+00  0.00000000000E+00 -0.23644871848E+04  0.32990921725E+04  0.23006976150E+04 0.  0.
        3    1    3    3  502    0 -0.80057009631E+03  0.50727317771E+03 -0.24735045071E+03  0.97950028668E+03  0.10100000352E+00 0.  1.
       -3    1    3    3    0  502  0.80057009631E+03 -0.50727317771E+03 -0.21171367341E+04  0.23195918859E+04  0.10100000352E+00 0. -1.
</event>
<event>
 5   0  0.7607231E-07  0.2300200E+04  0.7818609E-02  0.8477842E-01
        1   -1    0    0  501    0  0.00000000000E+00  0.00000000000E+00  0.12994832558E+04  0.12994832558E+04  0.50400001928E-02 0. -1.
       -1   -1    0    0    0  501  0.00000000000E+00  0.00000000000E+00 -0.10178890933E+04  0.10178890933E+04  0.50400001928E-02 0.  1.
    10030    2    1    2    0    0  0.00000000000E+00  0.00000000000E+00  0.28159416249E+03  0.23173723491E+04  0.23001998461E+04 0.  0.
        2    1    3    3  502    0  0.92566381049E+03 -0.26256954392E+02  0.82793512766E+03  0.12421833574E+04  0.25500000920E-02 0. -1.
       -2    1    3    3    0  502 -0.92566381049E+03  0.26256954392E+02 -0.54634096518E+03  0.10751889917E+04  0.25500000920E-02 0.  1.
</event>
<event>
 5   0  0.1888779E-06  0.2298498E+04  0.7818609E-02  0.8478513E-01
       -2   -1    0    0    0  501  0.00000000000E+00  0.00000000000E+00  0.59346705712E+03  0.59346705712E+03  0.25500000920E-02 0. -1.
        2   -1    0    0  501    0  0.00000000000E+00  0.00000000000E+00 -0.22255215289E+04  0.22255215289E+04  0.25500000920E-02 0.  1.
    10030    2    1    2    0    0  0.00000000000E+00  0.00000000000E+00 -0.16320544718E+04  0.28189885860E+04  0.22984983901E+04 0.  0.
        4    1    3    3  502    0 -0.21063770484E+03 -0.17452118862E+03 -0.21850124593E+04  0.22020687883E+04  0.12699999809E+01 0.  1.
       -4    1    3    3    0  502  0.21063770484E+03  0.17452118862E+03  0.55295798754E+03  0.61691979775E+03  0.12699999809E+01 0. -1.
</event>
<event>
 5   0  0.8097672E-07  0.2299746E+04  0.7818609E-02  0.8478021E-01
       -1   -1    0    0    0  501  0.00000000000E+00  0.00000000000E+00  0.72156923927E+03  0.72156923929E+03  0.50400001928E-02 0. -1.
        1   -1    0    0  501    0  0.00000000000E+00  0.00000000000E+00 -0.18324067029E+04  0.18324067030E+04  0.50400001928E-02 0.  1.
    10030    2    1    2    0    0  0.00000000000E+00  0.00000000000E+00 -0.11108374637E+04  0.25539759422E+04  0.22997463432E+04 0.  0.
        3    1    3    3  502    0  0.16247333922E+03 -0.73367423565E+02  0.70612916293E+03  0.72828481361E+03  0.10100000352E+00 0. -1.
       -3    1    3    3    0  502 -0.16247333922E+03  0.73367423565E+02 -0.18169666266E+04  0.18256911286E+04  0.10100000352E+00 0.  1.
</event>
<event>
 5   0  0.1689444E-06  0.2301505E+04  0.7818609E-02  0.8477328E-01
       -2   -1    0    0    0  501  0.00000000000E+00  0.00000000000E+00  0.12074911301E+04  0.12074911301E+04  0.25500000920E-02 0.  1.
        2   -1    0    0  501    0  0.00000000000E+00  0.00000000000E+00 -0.10966795926E+04  0.10966795926E+04  0.25500000920E-02 0. -1.
    10030    2    1    2    0    0  0.00000000000E+00  0.00000000000E+00  0.11081153748E+03  0.23041707227E+04  0.23015046214E+04 0.  0.
        2    1    3    3  502    0 -0.76583496770E+02  0.97688815523E+03  0.65947474242E+03  0.11811360784E+04  0.25500000920E-02 0. -1.
       -2    1    3    3    0  502  0.76583496770E+02 -0.97688815523E+03 -0.54866320494E+03  0.11230346443E+04  0.25500000920E-02 0.  1.
</event>
<event>
 5   0  0.1888779E-06  0.2299711E+04  0.7818609E-02  0.8478035E-01
       -2   -1    0    0    0  501  0.00000000000E+00  0.00000000000E+00  0.57243220510E+03  0.57243220511E+03  0.25500000920E-02 0.  1.
        2   -1    0    0  501    0  0.00000000000E+00  0.00000000000E+00 -0.23097370846E+04  0.23097370846E+04  0.25500000920E-02 0. -1.
    10030    2    1    2    0    0  0.00000000000E+00  0.00000000000E+00 -0.17373048795E+04  0.28821692897E+04  0.22997111928E+04 0.  0.
        4    1    3    3  502    0  0.76123755787E+03 -0.57378143414E+03 -0.62787682253E+02  0.95532803770E+03  0.12699999809E+01 0.  1.
       -4    1    3    3    0  502 -0.76123755787E+03  0.57378143414E+03 -0.16745171973E+04  0.19268412520E+04  0.12699999809E+01 0. -1.
</event>
<event>
 5   0  0.7932912E-07  0.2300234E+04  0.7818609E-02  0.8477829E-01
        1   -1    0    0  501    0  0.00000000000E+00  0.00000000000E+00  0.22788011613E+04  0.22788011613E+04  0.50400001928E-02 0.  1.
       -1   -1    0    0    0  501  0.00000000000E+00  0.00000000000E+00 -0.58046716997E+03  0.58046716999E+03  0.50400001928E-02 0. -1.
    10030    2    1    2    0    0  0.00000000000E+00  0.00000000000E+00  0.16983339913E+04  0.28592683313E+04  0.23002341281E+04 0.  0.
        5    1    3    3  502    0 -0.80785746609E+03 -0.71512267495E+02 -0.16449584136E+03  0.82754375216E+03  0.46999998093E+01 0. -1.
       -5    1    3    3    0  502  0.80785746609E+03  0.71512267495E+02  0.18628298327E+04  0.20317245791E+04  0.46999998093E+01 0.  1.
</event>
<event>
 5   0  0.6319125E-07  0.2299574E+04  0.7818609E-02  0.8478089E-01
       -4   -1    0    0    0  501  0.00000000000E+00  0.00000000000E+00  0.12057135549E+04  0.12057142238E+04  0.12699999809E+01 0.  1.
        4   -1    0    0  501    0  0.00000000000E+00  0.00000000000E+00 -0.10964530524E+04  0.10964537879E+04  0.12699999809E+01 0. -1.
    10030    2    1    2    0    0  0.00000000000E+00  0.00000000000E+00  0.10926050250E+03  0.23021680117E+04  0.22995738076E+04 0.  0.
        5    1    3    3  502    0 -0.97736177205E+03  0.14405312173E+03 -0.53425140242E+03  0.11231357827E+04  0.46999998093E+01 0. -1.
       -5    1    3    3    0  502  0.97736177205E+03 -0.14405312173E+03  0.64351190492E+03  0.11790322290E+04  0.46999998093E+01 0.  1.
</event>
<event>
 5   0  0.1689444E-06  0.2296804E+04  0.7818609E-02  0.8479182E-01
        2   -1    0    0  501    0  0.00000000000E+00  0.00000000000E+00  0.15273525479E+04  0.15273525479E+04  0.25500000920E-02 0. -1.
       -2   -1    0    0    0  501  0.00000000000E+00  0.00000000000E+00 -0.86347257005E+03  0.86347257005E+03  0.25500000920E-02 0.  1.
    10030    2    1    2    0    0  0.00000000000E+00  0.00000000000E+00  0.66387997781E+03  0.23908251179E+04  0.22968038923E+04 0.  0.
        2    1    3    3  502    0  0.71980650636E+02  0.18375837990E+03  0.15095684567E+04  0.15224142937E+04  0.25500000920E-02 0. -1.
       -2    1    3    3    0  502 -0.71980650636E+02 -0.18375837990E+03 -0.84568847889E+03  0.86841082420E+03  0.25500000920E-02 0.  1.
</event>
<event>
 5   0  0.1828646E-06  0.2299427E+04  0.7818609E-02  0.8478147E-01
       -2   -1    0    0    0  501  0.00000000000E+00  0.00000000000E+00  0.36719500846E+03  0.36719500846E+03  0.25500000920E-02 0.  1.
        2   -1    0    0  501    0  0.00000000000E+00  0.00000000000E+00 -0.35998342533E+04  0.35998342533E+04  0.25500000920E-02 0. -1.
    10030    2    1    2    0    0  0.00000000000E+00  0.00000000000E+00 -0.32326392448E+04  0.39670292618E+04  0.22994270322E+04 0.  0.
        3    1    3    3  502    0 -0.11171163826E+04  0.15381541981E+03 -0.20029893480E+04  0.22986027351E+04  0.10100000352E+00 0.  1.
       -3    1    3    3    0  502  0.11171163826E+04 -0.15381541981E+03 -0.12296498969E+04  0.16684265266E+04  0.10100000352E+00 0. -1.
</event>
<event>
 5   0  0.1825521E-06  0.2299317E+04  0.7818609E-02  0.8478190E-01
        2   -1    0    0  501    0  0.00000000000E+00  0.00000000000E+00  0.13880606565E+04  0.13880606565E+04  0.25500000920E-02 0. -1.
       -2   -1    0    0    0  501  0.00000000000E+00  0.00000000000E+00 -0.95220258853E+03  0.95220258853E+03  0.25500000920E-02 0.  1.
    10030    2    1    2    0    0  0.00000000000E+00  0.00000000000E+00  0.43585806798E+03  0.23402632450E+04  0.22993172466E+04 0.  0.
        5    1    3    3  502    0 -0.13944002669E+03 -0.52054221728E+03  0.12515354460E+04  0.13626337672E+04  0.46999998093E+01 0. -1.
       -5    1    3    3    0  502  0.13944002669E+03  0.52054221728E+03 -0.81567737798E+03  0.97762947785E+03  0.46999998093E+01 0.  1.
</event>
<event>
 5   0  0.7607231E-07  0.2300047E+04  0.7818609E-02  0.8477903E-01
       -1   -1    0    0    0  501  0.00000000000E+00  0.00000000000E+00  0.87777042568E+03  0.87777042569E+03  0.50400001928E-02 0. -1.
        1   -1    0    0  501    0  0.00000000000E+00  0.00000000000E+00 -0.15067192058E+04  0.15067192058E+04  0.50400001928E-02 0.  1.
    10030    2    1    2    0    0  0.00000000000E+00  0.00000000000E+00 -0.62894878013E+03  0.23844896315E+04  0.23000465723E+04 0.  0.
        2    1    3    3  502    0 -0.99904479903E+03  0.47906239293E+01 -0.90498277735E+03  0.13480012195E+04  0.25500000920E-02 0.  1.
       -2    1    3    3    0  502  0.99904479903E+03 -0.47906239293E+01  0.27603399722E+03  0.10364884120E+04  0.25500000920E-02 0. -1.
</event>
<event>
 5   0  0.1689444E-06  0.2299207E+04  0.7818609E-02  0.8478234E-01
        2   -1    0    0  501    0  0.00000000000E+00  0.00000000000E+00  0.19557191410E+04  0.19557191410E+04  0.25500000920E-02 0. -1.
       -2   -1    0    0    0  501  0.00000000000E+00  0.00000000000E+00 -0.67575536382E+03  0.67575536382E+03  0.25500000920E-02 0.  1.
    10030    2    1    2    0    0  0.00000000000E+00  0.00000000000E+00  0.12799637772E+04  0.26314745048E+04  0.22992065585E+04 0.  0.
        2    1    3    3  502    0  0.33426656347E+03  0.84290026147E+03 -0.16880402955E+03  0.92233930126E+03  0.25500000920E-02 0.  1.
       -2    1    3    3    0  502 -0.33426656347E+03 -0.84290026147E+03  0.14487678067E+04  0.17091352036E+04  0.25500000920E-02 0. -1.
</event>
<event>
 5   0  0.7607231E-07  0.2301611E+04  0.7818609E-02  0.8477286E-01
       -1   -1    0    0    0  501  0.00000000000E+00  0.00000000000E+00  0.10034244916E+04  0.10034244916E+04  0.50400001928E-02 0.  1.
        1   -1    0    0  501    0  0.00000000000E+00  0.00000000000E+00 -0.13198336060E+04  0.13198336060E+04  0.50400001928E-02 0. -1.
    10030    2    1    2    0    0  0.00000000000E+00  0.00000000000E+00 -0.31640911440E+03  0.23232580976E+04  0.23016110576E+04 0.  0.
        2    1    3    3  502    0 -0.12532831986E+03 -0.15506788971E+03  0.98585729454E+03  0.10058170029E+04  0.25500000920E-02 0.  1.
       -2    1    3    3    0  502  0.12532831986E+03  0.15506788971E+03 -0.13022664089E+04  0.13174410947E+04  0.25500000920E-02 0. -1.
</event>
<event>
 5   0  0.1825521E-06  0.2300726E+04  0.7818609E-02  0.8477635E-01
       -2   -1    0    0    0  501  0.00000000000E+00  0.00000000000E+00  0.12449010739E+04  0.12449010739E+04  0.25500000920E-02 0.  1.
        2   -1    0    0  501    0  0.00000000000E+00  0.00000000000E+00 -0.10630037340E+04  0.10630037340E+04  0.25500000920E-02 0. -1.
    10030    2    1    2    0    0  0.00000000000E+00  0.00000000000E+00  0.18189733983E+03  0.23079048079E+04  0.23007255291E+04 0.  0.
        5    1    3    3  502    0  0.39749632816E+03  0.51428833085E+03  0.10430239000E+04  0.12289901399E+04  0.46999998093E+01 0.  1.
       -5    1    3    3    0  502 -0.39749632816E+03 -0.51428833085E+03 -0.86112656015E+03  0.10789146680E+04  0.46999998093E+01 0. -1.
</event>
<event>
 5   0  0.8108242E-07  0.2296608E+04  0.7818609E-02  0.8479260E-01
        1   -1    0    0  501    0  0.00000000000E+00  0.00000000000E+00  0.14654435255E+04  0.14654435255E+04  0.50400001928E-02 0.  1.
       -1   -1    0    0    0  501  0.00000000000E+00  0.00000000000E+00 -0.89979715568E+03  0.89979715569E+03  0.50400001928E-02 0. -1.
    10030    2    1    2    0    0  0.00000000000E+00  0.00000000000E+00  0.56564636983E+03  0.23652406812E+04  0.22966078604E+04 0.  0.
        4    1    3    3  502    0  0.33323129341E+03 -0.22931946004E+03  0.13896350501E+04  0.14473139587E+04  0.12699999809E+01 0.  1.
       -4    1    3    3    0  502 -0.33323129341E+03  0.22931946004E+03 -0.82398868031E+03  0.91792672248E+03  0.12699999809E+01 0. -1.
</event>
<event>
 5   0  0.7607231E-07  0.2299280E+04  0.7818609E-02  0.8478205E-01
       -1   -1    0    0    0  501  0.00000000000E+00  0.00000000000E+00  0.13903162403E+04  0.13903162403E+04  0.50400001928E-02 0. -1.
        1   -1    0    0  501    0  0.00000000000E+00  0.00000000000E+00 -0.95062669293E+03  0.95062669295E+03  0.50400001928E-02 0.  1.
    10030    2    1    2    0    0  0.00000000000E+00  0.00000000000E+00  0.43968954732E+03  0.23409429332E+04  0.22992796521E+04 0.  0.
        2    1    3    3  502    0 -0.45384987636E+03  0.56749392862E+03 -0.68716409352E+03  0.10001117741E+04  0.25500000920E-02 0.  1.
       -2    1    3    3    0  502  0.45384987636E+03 -0.56749392862E+03  0.11268536408E+04  0.13408311591E+04  0.25500000920E-02 0. -1.
</event>
<event>
 5   0  0.7761069E-07  0.2299895E+04  0.7818609E-02  0.8477963E-01
       -1   -1    0    0    0  501  0.00000000000E+00  0.00000000000E+00  0.11945556289E+04  0.11945556289E+04  0.50400001928E-02 0. -1.
        1   -1    0    0  501    0  0.00000000000E+00  0.00000000000E+00 -0.11070050245E+04  0.11070050245E+04  0.50400001928E-02 0.  1.
    10030    2    1    2    0    0  0.00000000000E+00  0.00000000000E+00  0.87550604422E+02  0.23015606534E+04  0.22998948526E+04 0.  0.
        1    1    3    3  502    0  0.82692558539E+03 -0.66583701787E+03 -0.39839790090E+03  0.11339602046E+04  0.50400001928E-02 0. -1.
       -1    1    3    3    0  502 -0.82692558539E+03  0.66583701787E+03  0.48594850532E+03  0.11676004488E+04  0.50400001928E-02 0.  1.
</event>
<event>
 5   0  0.1825521E-06  0.2301096E+04  0.7818609E-02  0.8477489E-01
       -2   -1    0    0    0  501  0.00000000000E+00  0.00000000000E+00  0.11257688242E+04  0.11257688242E+04  0.25500000920E-02 0. -1.
        2   -1    0    0  501    0  0.00000000000E+00  0.00000000000E+00 -0.11758722528E+04  0.11758722528E+04  0.25500000920E-02 0.  1.
    10030    2    1    2    0    0  0.00000000000E+00  0.00000000000E+00 -0.50103428662E+02  0.23016410770E+04  0.23010956724E+04 0.  0.
        5    1    3    3  502    0 -0.11180566011E+04  0.27084415421E+03 -0.68508521459E+01  0.11504243318E+04  0.46999998093E+01 0.  1.
       -5    1    3    3    0  502  0.11180566011E+04 -0.27084415421E+03 -0.43252576516E+02  0.11512167452E+04  0.46999998093E+01 0. -1.
</event>
<event>
 5   0  0.7932912E-07  0.2300068E+04  0.7818609E-02  0.8477894E-01
       -1   -1    0    0    0  501  0.00000000000E+00  0.00000000000E+00  0.73883779592E+03  0.73883779593E+03  0.50400001928E-02 0.  1.
        1   -1    0    0  501    0  0.00000000000E+00  0.00000000000E+00 -0.17900785394E+04  0.17900785394E+04  0.50400001928E-02 0. -1.
    10030    2    1    2    0    0  0.00000000000E+00  0.00000000000E+00 -0.10512407435E+04  0.25289163353E+04  0.23000675491E+04 0.  0.
        5    1    3    3  502    0 -0.28747310656E+03  0.14354500106E+03  0.68846960705E+03  0.75977525898E+03  0.46999998093E+01 0.  1.
       -5    1    3    3    0  502  0.28747310656E+03 -0.14354500106E+03 -0.17397103505E+04  0.17691410764E+04  0.46999998093E+01 0. -1.
</event>
<event>
 5   0  0.8097672E-07  0.2298273E+04  0.7818609E-02  0.8478602E-01
       -1   -1    0    0    0  501  0.00000000000E+00  0.00000000000E+00  0.84358574966E+03  0.84358574967E+03  0.50400001928E-02 0. -1.
        1   -1    0    0  501    0  0.00000000000E+00  0.00000000000E+00 -0.15653587814E+04  0.15653587814E+04  0.50400001928E-02 0.  1.
    10030    2    1    2    0    0  0.00000000000E+00  0.00000000000E+00 -0.72177303174E+03  0.24089445311E+04  0.22982727089E+04 0.  0.
        3    1    3    3  502    0  0.90423257243E+03  0.13088874849E+03  0.36962964862E+03  0.98559347444E+03  0.10100000352E+00 0. -1.
       -3    1    3    3    0  502 -0.90423257243E+03 -0.13088874849E+03 -0.10914026804E+04  0.14233510566E+04  0.10100000352E+00 0.  1.
</event>
<event>
 5   0  0.1744876E-06  0.2296027E+04  0.7818609E-02  0.8479489E-01
        2   -1    0    0  501    0  0.00000000000E+00  0.00000000000E+00  0.18537400158E+04  0.18537400158E+04  0.25500000920E-02 0. -1.
       -2   -1    0    0    0  501  0.00000000000E+00  0.00000000000E+00 -0.71095971204E+03  0.71095971204E+03  0.25500000920E-02 0.  1.
    10030    2    1    2    0    0  0.00000000000E+00  0.00000000000E+00  0.11427803037E+04  0.25646997278E+04  0.22960265398E+04 0.  0.
        1    1    3    3  502    0  0.72291684986E+01  0.10254062906E+04  0.11479526799E+04  0.15392549096E+04  0.50400001928E-02 0. -1.
       -1    1    3    3    0  502 -0.72291684986E+01 -0.10254062906E+04 -0.51723761616E+01  0.10254448182E+04  0.50400001928E-02 0.  1.
</event>
<event>
 5   0  0.7761069E-07  0.2299547E+04  0.7818609E-02  0.8478100E-01
       -1   -1    0    0    0  501  0.00000000000E+00  0.00000000000E+00  0.13463784257E+04  0.13463784257E+04  0.50400001928E-02 0.  1.
        1   -1    0    0  501    0  0.00000000000E+00  0.00000000000E+00 -0.98187766318E+03  0.98187766319E+03  0.50400001928E-02 0. -1.
    10030    2    1    2    0    0  0.00000000000E+00  0.00000000000E+00  0.36450076248E+03  0.23282560888E+04  0.22995468270E+04 0.  0.
        1    1    3    3  502    0 -0.10821552154E+04 -0.38266519948E+03  0.25006673615E+03  0.11747450522E+04  0.50400001928E-02 0.  1.
       -1    1    3    3    0  502  0.10821552154E+04  0.38266519948E+03  0.11443402633E+03  0.11535110366E+04  0.50400001928E-02 0. -1.
</event>
<event>
 5   0  0.1828646E-06  0.2300421E+04  0.7818609E-02  0.8477755E-01
        2   -1    0    0  501    0  0.00000000000E+00  0.00000000000E+00  0.19057371064E+04  0.19057371064E+04  0.25500000920E-02 0.  1.
       -2   -1    0    0    0  501  0.00000000000E+00  0.00000000000E+00 -0.69421156159E+03  0.69421156159E+03  0.25500000920E-02 0. -1.
    10030    2    1    2    0    0  0.00000000000E+00  0.00000000000E+00  0.12115255448E+04  0.25999486680E+04  0.23004214680E+04 0.  0.
        3    1    3    3  502    0  0.21650133967E+03 -0.36159561862E+03 -0.60380014172E+03  0.73634152594E+03  0.10100000352E+00 0. -1.
       -3    1    3    3    0  502 -0.21650133967E+03  0.36159561862E+03  0.18153256865E+04  0.18636071420E+04  0.10100000352E+00 0.  1.
</event>
<event>
 5   0  0.7761069E-07  0.2299417E+04  0.7818609E-02  0.8478151E-01
        1   -1    0    0  501    0  0.00000000000E+00  0.00000000000E+00  0.92608777320E+03  0.92608777322E+03  0.50400001928E-02 0. -1.
       -1   -1    0    0    0  501  0.00000000000E+00  0.00000000000E+00 -0.14273267966E+04  0.14273267966E+04  0.50400001928E-02 0.  1.
    10030    2    1    2    0    0  0.00000000000E+00  0.00000000000E+00 -0.50123902337E+03  0.23534145698E+04  0.22994172259E+04 0.  0.
        1    1    3    3  502    0  0.64730640298E+03  0.78909866777E+03 -0.79233857206E+03  0.12920846333E+04  0.50400001928E-02 0.  1.
       -1    1    3    3    0  502 -0.64730640298E+03 -0.78909866777E+03  0.29109954869E+03  0.10613299365E+04  0.50400001928E-02 0. -1.
</event>
<event>
 5   0  0.8108242E-07  0.2297913E+04  0.7818609E-02  0.8478744E-01
        1   -1    0    0  501    0  0.00000000000E+00  0.00000000000E+00  0.14267422713E+04  0.14267422713E+04  0.50400001928E-02 0. -1.
       -1   -1    0    0    0  501  0.00000000000E+00  0.00000000000E+00 -0.92525573939E+03  0.92525573940E+03  0.50400001928E-02 0.  1.
    10030    2    1    2    0    0  0.00000000000E+00  0.00000000000E+00  0.50148653188E+03  0.23519980107E+04  0.22979133797E+04 0.  0.
        4    1    3    3  502    0  0.38772618150E+03  0.82879881426E+03 -0.46049361574E+03  0.10243510382E+04  0.12699999809E+01 0.  1.
       -4    1    3    3    0  502 -0.38772618150E+03 -0.82879881426E+03  0.96198014762E+03  0.13276469725E+04  0.12699999809E+01 0. -1.
</event>
<event>
 5   0  0.1744876E-06  0.2299958E+04  0.7818609E-02  0.8477938E-01
       -2   -1    0    0    0  501  0.00000000000E+00  0.00000000000E+00  0.62847248041E+03  0.62847248041E+03  0.25500000920E-02 0.  1.
        2   -1    0    0  501    0  0.00000000000E+00  0.00000000000E+00 -0.21042310206E+04  0.21042310206E+04  0.25500000920E-02 0. -1.
    10030    2    1    2    0    0  0.00000000000E+00  0.00000000000E+00 -0.14757585401E+04  0.27327035010E+04  0.22999576421E+04 0.  0.
        1    1    3    3  502    0 -0.52799010365E+02 -0.35156467970E+03  0.56154273474E+03  0.66461695921E+03  0.50400001928E-02 0.  1.
       -1    1    3    3    0  502  0.52799010365E+02  0.35156467970E+03 -0.20373012749E+04  0.20680865418E+04  0.50400001928E-02 0. -1.
</event>
<event>
 5   0  0.7761069E-07  0.2299583E+04  0.7818609E-02  0.8478086E-01
        1   -1    0    0  501    0  0.00000000000E+00  0.00000000000E+00  0.20113914717E+04  0.20113914717E+04  0.50400001928E-02 0. -1.
       -1   -1    0    0    0  501  0.00000000000E+00  0.00000000000E+00 -0.65726669086E+03  0.65726669088E+03  0.50400001928E-02 0.  1.
    10030    2    1    2    0    0  0.00000000000E+00  0.00000000000E+00  0.13541247808E+04  0.26686581626E+04  0.22995831071E+04 0.  0.
        1    1    3    3  502    0 -0.61594840505E+03  0.20962187148E+03  0.17772025815E+04  0.18925598491E+04  0.50400001928E-02 0. -1.
       -1    1    3    3    0  502  0.61594840505E+03 -0.20962187148E+03 -0.42307780069E+03  0.77609831345E+03  0.50400001928E-02 0.  1.
</event>
<event>
 5   0  0.7761069E-07  0.2314066E+04  0.7818609E-02  0.8472396E-01
       -1   -1    0    0    0  501  0.00000000000E+00  0.00000000000E+00  0.80278856568E+03  0.80278856569E+03  0.50400001928E-02 0.  1.
        1   -1    0    0  501    0  0.00000000000E+00  0.00000000000E+00 -0.16675940943E+04  0.16675940943E+04  0.50400001928E-02 0. -1.
    10030    2    1    2    0    0  0.00000000000E+00  0.00000000000E+00 -0.86480552860E+03  0.24703826600E+04  0.23140660934E+04 0.  0.
        1    1    3    3  502    0 -0.10417398331E+03 -0.11493309829E+04 -0.52115432715E+03  0.12662605418E+04  0.50400001928E-02 0.  1.
       -1    1    3    3    0  502  0.10417398331E+03  0.11493309829E+04 -0.34365120145E+03  0.12041221181E+04  0.50400001928E-02 0. -1.
</event>
<event>
 5   0  0.1828646E-06  0.2300174E+04  0.7818609E-02  0.8477852E-01
       -2   -1    0    0    0  501  0.00000000000E+00  0.00000000000E+00  0.65697007064E+03  0.65697007064E+03  0.25500000920E-02 0. -1.
        2   -1    0    0  501    0  0.00000000000E+00  0.00000000000E+00 -0.20133341422E+04  0.20133341422E+04  0.25500000920E-02 0.  1.
    10030    2    1    2    0    0  0.00000000000E+00  0.00000000000E+00 -0.13563640715E+04  0.26703042128E+04  0.23001741444E+04 0.  0.
        3    1    3    3  502    0 -0.33378394628E+03 -0.71072985204E+03  0.29736677279E+03  0.83962828272E+03  0.10100000352E+00 0. -1.
       -3    1    3    3    0  502  0.33378394628E+03  0.71072985204E+03 -0.16537308443E+04  0.18306759301E+04  0.10100000352E+00 0.  1.
</event>
<event>
 5   0  0.1825521E-06  0.2300276E+04  0.7818609E-02  0.8477812E-01
       -2   -1    0    0    0  501  0.00000000000E+00  0.00000000000E+00  0.60714603497E+03  0.60714603498E+03  0.25500000920E-02 0. -1.
        2   -1    0    0  501    0  0.00000000000E+00  0.00000000000E+00 -0.21787462964E+04  0.21787462964E+04  0.25500000920E-02 0.  1.
    10030    2    1    2    0    0  0.00000000000E+00  0.00000000000E+00 -0.15716002615E+04  0.27858923314E+04  0.23002757879E+04 0.  0.
        5    1    3    3  502    0 -0.62206019421E+02 -0.49923342949E+03  0.46680356255E+03  0.68631717302E+03  0.46999998093E+01 0. -1.
       -5    1    3    3    0  502  0.62206019421E+02  0.49923342949E+03 -0.20384038240E+04  0.20995751584E+04  0.46999998093E+01 0.  1.
</event>
<event>
 5   0  0.1689444E-06  0.2300380E+04  0.7818609E-02  0.8477771E-01
       -2   -1    0    0    0  501  0.00000000000E+00  0.00000000000E+00  0.72485399098E+03  0.72485399099E+03  0.25500000920E-02 0. -1.
        2   -1    0    0  501    0  0.00000000000E+00  0.00000000000E+00 -0.18251079933E+04  0.18251079933E+04  0.25500000920E-02 0.  1.
    10030    2    1    2    0    0  0.00000000000E+00  0.00000000000E+00 -0.11002540023E+04  0.25499619843E+04  0.23003798060E+04 0.  0.
        2    1    3    3  502    0  0.35951348785E+03  0.45996490696E+03  0.54841394448E+03  0.80098409353E+03  0.25500000920E-02 0. -1.
       -2    1    3    3    0  502 -0.35951348785E+03 -0.45996490696E+03 -0.16486679468E+04  0.17489778907E+04  0.25500000920E-02 0.  1.
</event>
<event>
 5   0  0.1689444E-06  0.2299295E+04  0.7818609E-02  0.8478199E-01
       -2   -1    0    0    0  501  0.00000000000E+00  0.00000000000E+00  0.14546471257E+04  0.14546471257E+04  0.25500000920E-02 0.  1.
        2   -1    0    0  501    0  0.00000000000E+00  0.00000000000E+00 -0.90859825292E+03  0.90859825292E+03  0.25500000920E-02 0. -1.
    10030    2    1    2    0    0  0.00000000000E+00  0.00000000000E+00  0.54604887278E+03  0.23632453786E+04  0.22992954025E+04 0.  0.
        2    1    3    3  502    0  0.34729075775E+03  0.41823927559E+03 -0.76814282275E+03  0.94105172983E+03  0.25500000920E-02 0. -1.
       -2    1    3    3    0  502 -0.34729075775E+03 -0.41823927559E+03  0.13141916955E+04  0.14221936488E+04  0.25500000920E-02 0.  1.
</event>
<event>
 5   0  0.1828646E-06  0.2298142E+04  0.7818609E-02  0.8478654E-01
        2   -1    0    0  501    0  0.00000000000E+00  0.00000000000E+00  0.99734542102E+03  0.99734542102E+03  0.25500000920E-02 0. -1.
       -2   -1    0    0    0  501  0.00000000000E+00  0.00000000000E+00 -0.13238785046E+04  0.13238785046E+04  0.25500000920E-02 0.  1.
    10030    2    1    2    0    0  0.00000000000E+00  0.00000000000E+00 -0.32653308355E+03  0.23212239256E+04  0.22981420013E+04 0.  0.
        3    1    3    3  502    0 -0.69861009021E+03  0.48849861080E+03  0.61497671197E+03  0.10511343003E+04  0.10100000352E+00 0. -1.
       -3    1    3    3    0  502  0.69861009021E+03 -0.48849861080E+03 -0.94150979552E+03  0.12700896252E+04  0.10100000352E+00 0.  1.
</event>
<event>
 5   0  0.7607231E-07  0.2295836E+04  0.7818609E-02  0.8479565E-01
        1   -1    0    0  501    0  0.00000000000E+00  0.00000000000E+00  0.26830617315E+04  0.26830617315E+04  0.50400001928E-02 0.  1.
       -1   -1    0    0    0  501  0.00000000000E+00  0.00000000000E+00 -0.49112380599E+03  0.49112380601E+03  0.50400001928E-02 0. -1.
    10030    2    1    2    0    0  0.00000000000E+00  0.00000000000E+00  0.21919379255E+04  0.31741855376E+04  0.22958357862E+04 0.  0.
        2    1    3    3  502    0  0.36445057488E+03 -0.43859062382E+03 -0.28144095713E+03  0.63592056830E+03  0.25500000920E-02 0. -1.
       -2    1    3    3    0  502 -0.36445057488E+03  0.43859062382E+03  0.24733788827E+04  0.25382649692E+04  0.25500000920E-02 0.  1.
</event>
<event>
 5   0  0.1744876E-06  0.2302247E+04  0.7818609E-02  0.8477036E-01
       -2   -1    0    0    0  501  0.00000000000E+00  0.00000000000E+00  0.16703903577E+04  0.16703903577E+04  0.25500000920E-02 0.  1.
        2   -1    0    0  501    0  0.00000000000E+00  0.00000000000E+00 -0.79327913208E+03  0.79327913208E+03  0.25500000920E-02 0. -1.
    10030    2    1    2    0    0  0.00000000000E+00  0.00000000000E+00  0.87711122561E+03  0.24636694898E+04  0.23022474352E+04 0.  0.
        1    1    3    3  502    0  0.57397627799E+03 -0.43454107683E+03 -0.52265017929E+03  0.88962797004E+03  0.50400001928E-02 0. -1.
       -1    1    3    3    0  502 -0.57397627799E+03  0.43454107683E+03  0.13997614049E+04  0.15740415197E+04  0.50400001928E-02 0.  1.
</event>
<event>
 5   0  0.7761069E-07  0.2302398E+04  0.7818609E-02  0.8476976E-01
       -1   -1    0    0    0  501  0.00000000000E+00  0.00000000000E+00  0.15961493427E+04  0.15961493428E+04  0.50400001928E-02 0.  1.
        1   -1    0    0  501    0  0.00000000000E+00  0.00000000000E+00 -0.83028551157E+03  0.83028551159E+03  0.50400001928E-02 0. -1.
    10030    2    1    2    0    0  0.00000000000E+00  0.00000000000E+00  0.76586383117E+03  0.24264348543E+04  0.23023984656E+04 0.  0.
        1    1    3    3  502    0 -0.62978380368E+02 -0.73442132979E+03  0.13148311404E+04  0.15073559281E+04  0.50400001928E-02 0.  1.
       -1    1    3    3    0  502  0.62978380368E+02  0.73442132979E+03 -0.54896730925E+03  0.91907892626E+03  0.50400001928E-02 0. -1.
</event>
<event>
 5   0  0.8097672E-07  0.2299470E+04  0.7818609E-02  0.8478130E-01
       -1   -1    0    0    0  501  0.00000000000E+00  0.00000000000E+00  0.14968232388E+04  0.14968232388E+04  0.50400001928E-02 0.  1.
        1   -1    0    0  501    0  0.00000000000E+00  0.00000000000E+00 -0.88313069254E+03  0.88313069256E+03  0.50400001928E-02 0. -1.
    10030    2    1    2    0    0  0.00000000000E+00  0.00000000000E+00  0.61369254625E+03  0.23799539314E+04  0.22994699768E+04 0.  0.
        3    1    3    3  502    0  0.83241216848E+03  0.48009429597E+03  0.96020171221E+03  0.13584505473E+04  0.10100000352E+00 0. -1.
       -3    1    3    3    0  502 -0.83241216848E+03 -0.48009429597E+03 -0.34650916596E+03  0.10215033840E+04  0.10100000352E+00 0.  1.
</event>
<event>
 5   0  0.8108242E-07  0.2299904E+04  0.7818609E-02  0.8477959E-01
       -1   -1    0    0    0  501  0.00000000000E+00  0.00000000000E+00  0.10796482735E+04  0.10796482736E+04  0.50400001928E-02 0.  1.
        1   -1    0    0  501    0  0.00000000000E+00  0.00000000000E+00 -0.12248332253E+04  0.12248332253E+04  0.50400001928E-02 0. -1.
    10030    2    1    2    0    0  0.00000000000E+00  0.00000000000E+00 -0.14518495179E+03  0.23044814989E+04  0.22999035433E+04 0.  0.
        4    1    3    3  502    0 -0.83184022128E+03  0.28557661418E+03 -0.81492835275E+03  0.11990087528E+04  0.12699999809E+01 0. -1.
       -4    1    3    3    0  502  0.83184022128E+03 -0.28557661418E+03  0.66974340096E+03  0.11054727461E+04  0.12699999809E+01 0.  1.
</event>
<event>
 5   0  0.1888779E-06  0.2299498E+04  0.7818609E-02  0.8478119E-01
        2   -1    0    0  501    0  0.00000000000E+00  0.00000000000E+00  0.14369583148E+04  0.14369583148E+04  0.25500000920E-02 0. -1.
       -2   -1    0    0    0  501  0.00000000000E+00  0.00000000000E+00 -0.91994510863E+03  0.91994510864E+03  0.25500000920E-02 0.  1.
    10030    2    1    2    0    0  0.00000000000E+00  0.00000000000E+00  0.51701320616E+03  0.23569034234E+04  0.22994980087E+04 0.  0.
        4    1    3    3  502    0 -0.27331696009E+03 -0.10229540356E+04 -0.20076896619E+03  0.10777044633E+04  0.12699999809E+01 0.  1.
       -4    1    3    3    0  502  0.27331696009E+03  0.10229540356E+04  0.71778217235E+03  0.12791989601E+04  0.12699999809E+01 0. -1.
</event>
<event>
 5   0  0.8097672E-07  0.2300658E+04  0.7818609E-02  0.8477662E-01
       -1   -1    0    0    0  501  0.00000000000E+00  0.00000000000E+00  0.10650064294E+04  0.10650064294E+04  0.50400001928E-02 0. -1.
        1   -1    0    0  501    0  0.00000000000E+00  0.00000000000E+00 -0.12424875552E+04  0.12424875552E+04  0.50400001928E-02 0.  1.
    10030    2    1    2    0    0  0.00000000000E+00  0.00000000000E+00 -0.17748112580E+03  0.23074939846E+04  0.23006583707E+04 0.  0.
        3    1    3    3  502    0  0.63066753366E+03 -0.15603173044E+03 -0.10408607087E+04  0.12269794065E+04  0.10100000352E+00 0.  1.
       -3    1    3    3    0  502 -0.63066753366E+03  0.15603173044E+03  0.86337958293E+03  0.10805145780E+04  0.10100000352E+00 0. -1.
</event>
<event>
 5   0  0.1825521E-06  0.2298870E+04  0.7818609E-02  0.8478367E-01
        2   -1    0    0  501    0  0.00000000000E+00  0.00000000000E+00  0.15429060035E+04  0.15429060035E+04  0.25500000920E-02 0.  1.
       -2   -1    0    0    0  501  0.00000000000E+00  0.00000000000E+00 -0.85630645237E+03  0.85630645237E+03  0.25500000920E-02 0. -1.
    10030    2    1    2    0    0  0.00000000000E+00  0.00000000000E+00  0.68659955112E+03  0.23992124559E+04  0.22988696059E+04 0.  0.
        5    1    3    3  502    0 -0.47884230325E+03 -0.89072344619E+03  0.91349895205E+03  0.13627841481E+04  0.46999998093E+01 0.  1.
       -5    1    3    3    0  502  0.47884230325E+03  0.89072344619E+03 -0.22689940093E+03  0.10364283077E+04  0.46999998093E+01 0. -1.
</event>
<event>
 5   0  0.8097672E-07  0.2301573E+04  0.7818609E-02  0.8477301E-01
        1   -1    0    0  501    0  0.00000000000E+00  0.00000000000E+00  0.14571584360E+04  0.14571584360E+04  0.50400001928E-02 0. -1.
       -1   -1    0    0    0  501  0.00000000000E+00  0.00000000000E+00 -0.90883020193E+03  0.90883020195E+03  0.50400001928E-02 0.  1.
    10030    2    1    2    0    0  0.00000000000E+00  0.00000000000E+00  0.54832823402E+03  0.23659886379E+04  0.23015730235E+04 0.  0.
        3    1    3    3  502    0 -0.95261669718E+03 -0.24954506762E+03  0.88627726446E+03  0.13248542230E+04  0.10100000352E+00 0. -1.
       -3    1    3    3    0  502  0.95261669718E+03  0.24954506762E+03 -0.33794903044E+03  0.10411344149E+04  0.10100000352E+00 0.  1.
</event>
<event>
 5   0  0.1744876E-06  0.2299124E+04  0.7818609E-02  0.8478266E-01
       -2   -1    0    0    0  501  0.00000000000E+00  0.00000000000E+00  0.10260651358E+04  0.10260651358E+04  0.25500000920E-02 0. -1.
        2   -1    0    0  501    0  0.00000000000E+00  0.00000000000E+00 -0.12879232085E+04  0.12879232085E+04  0.25500000920E-02 0.  1.
    10030    2    1    2    0    0  0.00000000000E+00  0.00000000000E+00 -0.26185807270E+03  0.23139883444E+04  0.22991242697E+04 0.  0.
        1    1    3    3  502    0 -0.37060857080E+03  0.33183207562E+03  0.91212521985E+03  0.10389589289E+04  0.50400001928E-02 0. -1.
       -1    1    3    3    0  502  0.37060857080E+03 -0.33183207562E+03 -0.11739832925E+04  0.12750294155E+04  0.50400001928E-02 0.  1.
</event>
<event>
 5   0  0.8097672E-07  0.2299968E+04  0.7818609E-02  0.8477934E-01
        1   -1    0    0  501    0  0.00000000000E+00  0.00000000000E+00  0.10271765987E+04  0.10271765987E+04  0.50400001928E-02 0. -1.
       -1   -1    0    0    0  501  0.00000000000E+00  0.00000000000E+00 -0.12874735840E+04  0.12874735840E+04  0.50400001928E-02 0.  1.
    10030    2    1    2    0    0  0.00000000000E+00  0.00000000000E+00 -0.26029698535E+03  0.23146501827E+04  0.22999675971E+04 0.  0.
        3    1    3    3  502    0  0.25852325397E+03 -0.84415178346E+03  0.61146572298E+03  0.10739259038E+04  0.10100000352E+00 0. -1.
       -3    1    3    3    0  502 -0.25852325397E+03  0.84415178346E+03 -0.87176270833E+03  0.12407242789E+04  0.10100000352E+00 0.  1.
</event>
<event>
 5   0  0.1825521E-06  0.2303297E+04  0.7818609E-02  0.8476622E-01
        2   -1    0    0  501    0  0.00000000000E+00  0.00000000000E+00  0.24322900897E+04  0.24322900897E+04  0.25500000920E-02 0. -1.
       -2   -1    0    0    0  501  0.00000000000E+00  0.00000000000E+00 -0.54528611001E+03  0.54528611002E+03  0.25500000920E-02 0.  1.
    10030    2    1    2    0    0  0.00000000000E+00  0.00000000000E+00  0.18870039797E+04  0.29775761997E+04  0.23032967689E+04 0.  0.
        5    1    3    3  502    0  0.42274114697E+03  0.21380777282E+03 -0.41347925046E+03  0.62881716072E+03  0.46999998093E+01 0.  1.
       -5    1    3    3    0  502 -0.42274114697E+03 -0.21380777282E+03  0.23004832301E+04  0.23487590390E+04  0.46999998093E+01 0. -1.
</event>
<event>
 5   0  0.1828646E-06  0.2299945E+04  0.7818609E-02  0.8477943E-01
        2   -1    0    0  501    0  0.00000000000E+00  0.00000000000E+00  0.25837798932E+04  0.25837798932E+04  0.25500000920E-02 0.  1.
       -2   -1    0    0    0  501  0.00000000000E+00  0.00000000000E+00 -0.51182243620E+03  0.51182243621E+03  0.25500000920E-02 0. -1.
    10030    2    1    2    0    0  0.00000000000E+00  0.00000000000E+00  0.20719574570E+04  0.30956023294E+04  0.22999447990E+04 0.  0.
        3    1    3    3  502    0  0.46409435039E+03 -0.50718529505E+03 -0.20478819930E+03  0.71732747497E+03  0.10100000352E+00 0. -1.
       -3    1    3    3    0  502 -0.46409435039E+03  0.50718529505E+03  0.22767456563E+04  0.23782748545E+04  0.10100000352E+00 0.  1.
</event>
<event>
 5   0  0.1828646E-06  0.2300556E+04  0.7818609E-02  0.8477702E-01
       -2   -1    0    0    0  501  0.00000000000E+00  0.00000000000E+00  0.13951118227E+04  0.13951118227E+04  0.25500000920E-02 0. -1.
        2   -1    0    0  501    0  0.00000000000E+00  0.00000000000E+00 -0.94841090247E+03  0.94841090248E+03  0.25500000920E-02 0.  1.
    10030    2    1    2    0    0  0.00000000000E+00  0.00000000000E+00  0.44670092021E+03  0.23435227252E+04  0.23005558135E+04 0.  0.
        3    1    3    3  502    0  0.34396635808E+03  0.87594154593E+03 -0.45048153958E+03  0.10433216547E+04  0.10100000352E+00 0.  1.
       -3    1    3    3    0  502 -0.34396635808E+03 -0.87594154593E+03  0.89718245979E+03  0.13002010705E+04  0.10100000352E+00 0. -1.
</event>
<event>
 5   0  0.7761069E-07  0.2300352E+04  0.7818609E-02  0.8477782E-01
       -1   -1    0    0    0  501  0.00000000000E+00  0.00000000000E+00  0.58587284437E+03  0.58587284440E+03  0.50400001928E-02 0.  1.
        1   -1    0    0  501    0  0.00000000000E+00  0.00000000000E+00 -0.22580069167E+04  0.22580069167E+04  0.50400001928E-02 0. -1.
    10030    2    1    2    0    0  0.00000000000E+00  0.00000000000E+00 -0.16721340723E+04  0.28438797611E+04  0.23003520904E+04 0.  0.
        1    1    3    3  502    0  0.90263703475E+03  0.25863177230E+03 -0.14837327396E+02  0.93907622505E+03  0.50400001928E-02 0.  1.
       -1    1    3    3    0  502 -0.90263703475E+03 -0.25863177230E+03 -0.16572967449E+04  0.19048035360E+04  0.50400001928E-02 0. -1.
</event>
<event>
 5   0  0.8108242E-07  0.2289491E+04  0.7818609E-02  0.8482076E-01
        1   -1    0    0  501    0  0.00000000000E+00  0.00000000000E+00  0.95622776117E+03  0.95622776118E+03  0.50400001928E-02 0. -1.
       -1   -1    0    0    0  501  0.00000000000E+00  0.00000000000E+00 -0.13704293176E+04  0.13704293176E+04  0.50400001928E-02 0.  1.
    10030    2    1    2    0    0  0.00000000000E+00  0.00000000000E+00 -0.41420155644E+03  0.23266570788E+04  0.22894912607E+04 0.  0.
        4    1    3    3  502    0  0.35558148107E+03 -0.10836866588E+04 -0.30680553872E+03  0.11810784121E+04  0.12699999809E+01 0. -1.
       -4    1    3    3    0  502 -0.35558148107E+03  0.10836866588E+04 -0.10739601772E+03  0.11455786667E+04  0.12699999809E+01 0.  1.
</event>
<event>
 5   0  0.7761069E-07  0.2293070E+04  0.7818609E-02  0.8480658E-01
        1   -1    0    0  501    0  0.00000000000E+00  0.00000000000E+00  0.15644985513E+04  0.15644985513E+04  0.50400001928E-02 0.  1.
       -1   -1    0    0    0  501  0.00000000000E+00  0.00000000000E+00 -0.84023280476E+03  0.84023280478E+03  0.50400001928E-02 0. -1.
    10030    2    1    2    0    0  0.00000000000E+00  0.00000000000E+00  0.72426574656E+03  0.24047313561E+04  0.22930704358E+04 0.  0.
        1    1    3    3  502    0  0.10464502210E+04 -0.20233410326E+03  0.80525562924E+03  0.13358270033E+04  0.50400001928E-02 0. -1.
       -1    1    3    3    0  502 -0.10464502210E+04  0.20233410326E+03 -0.80989882674E+02  0.10689043528E+04  0.50400001928E-02 0.  1.
</event>
<event>
 5   0  0.7932912E-07  0.2299693E+04  0.7818609E-02  0.8478042E-01
       -1   -1    0    0    0  501  0.00000000000E+00  0.00000000000E+00  0.84641134849E+03  0.84641134851E+03  0.50400001928E-02 0.  1.
        1   -1    0    0  501    0  0.00000000000E+00  0.00000000000E+00 -0.15620613762E+04  0.15620613762E+04  0.50400001928E-02 0. -1.
    10030    2    1    2    0    0  0.00000000000E+00  0.00000000000E+00 -0.71565002769E+03  0.24084727247E+04  0.22996925672E+04 0.  0.
        5    1    3    3  502    0 -0.46377162721E+03 -0.24486206374E+02 -0.14594556883E+04  0.15315732737E+04  0.46999998093E+01 0. -1.
       -5    1    3    3    0  502  0.46377162721E+03  0.24486206374E+02  0.74380566060E+03  0.87689945105E+03  0.46999998093E+01 0.  1.
</event>
<event>
 5   0  0.8097672E-07  0.2304850E+04  0.7818609E-02  0.8476011E-01
        1   -1    0    0  501    0  0.00000000000E+00  0.00000000000E+00  0.82485921325E+03  0.82485921327E+03  0.50400001928E-02 0.  1.
       -1   -1    0    0    0  501  0.00000000000E+00  0.00000000000E+00 -0.16100729268E+04  0.16100729268E+04  0.50400001928E-02 0. -1.
    10030    2    1    2    0    0  0.00000000000E+00  0.00000000000E+00 -0.78521371353E+03  0.24349321401E+04  0.23048500929E+04 0.  0.
        3    1    3    3  502    0 -0.95974673975E+03 -0.47062342520E+03 -0.84759129591E+03  0.13641888535E+04  0.10100000352E+00 0. -1.
       -3    1    3    3    0  502  0.95974673975E+03  0.47062342520E+03  0.62377582374E+02  0.10707432866E+04  0.10100000352E+00 0.  1.
</event>
<event>
 5   0  0.8108242E-07  0.2300452E+04  0.7818609E-02  0.8477743E-01
       -1   -1    0    0    0  501  0.00000000000E+00  0.00000000000E+00  0.72873873227E+03  0.72873873229E+03  0.50400001928E-02 0. -1.
        1   -1    0    0  501    0  0.00000000000E+00  0.00000000000E+00 -0.18154924985E+04  0.18154924985E+04  0.50400001928E-02 0.  1.
    10030    2    1    2    0    0  0.00000000000E+00  0.00000000000E+00 -0.10867537662E+04  0.25442312308E+04  0.23004518703E+04 0.  0.
        4    1    3    3  502    0 -0.60780451906E+03 -0.59236573256E+03  0.31522547328E+03  0.90536854728E+03  0.12699999809E+01 0. -1.
       -4    1    3    3    0  502  0.60780451906E+03  0.59236573256E+03 -0.14019792395E+04  0.16388626835E+04  0.12699999809E+01 0.  1.
</event>
<event>
 5   0  0.7607231E-07  0.2299572E+04  0.7818609E-02  0.8478090E-01
       -1   -1    0    0    0  501  0.00000000000E+00  0.00000000000E+00  0.65894374976E+03  0.65894374978E+03  0.50400001928E-02 0.  1.
        1   -1    0    0  501    0  0.00000000000E+00  0.00000000000E+00 -0.20062535956E+04  0.20062535956E+04  0.50400001928E-02 0. -1.
    10030    2    1    2    0    0  0.00000000000E+00  0.00000000000E+00 -0.13473098458E+04  0.26651973454E+04  0.22995723666E+04 0.  0.
        2    1    3    3  502    0  0.20679219909E+03 -0.10326421160E+04 -0.13888675760E+03  0.10622628135E+04  0.25500000920E-02 0.  1.
       -2    1    3    3    0  502 -0.20679219909E+03  0.10326421160E+04 -0.12084230882E+04  0.16029345319E+04  0.25500000920E-02 0. -1.
</event>
<event>
 5   0  0.1689444E-06  0.2299766E+04  0.7818609E-02  0.8478013E-01
        2   -1    0    0  501    0  0.00000000000E+00  0.00000000000E+00  0.22773063040E+04  0.22773063040E+04  0.25500000920E-02 0.  1.
       -2   -1    0    0    0  501  0.00000000000E+00  0.00000000000E+00 -0.58061172421E+03  0.58061172422E+03  0.25500000920E-02 0. -1.
    10030    2    1    2    0    0  0.00000000000E+00  0.00000000000E+00  0.16966945797E+04  0.28579180282E+04  0.22997658487E+04 0.  0.
        2    1    3    3  502    0  0.61935474288E+03 -0.84871712137E+03  0.14289815453E+04  0.17736711382E+04  0.25500000920E-02 0. -1.
       -2    1    3    3    0  502 -0.61935474288E+03  0.84871712137E+03  0.26771303446E+03  0.10842468900E+04  0.25500000920E-02 0.  1.
</event>
<event>
 5   0  0.7932912E-07  0.2301036E+04  0.7818609E-02  0.8477513E-01
       -1   -1    0    0    0  501  0.00000000000E+00  0.00000000000E+00  0.12726578315E+04  0.12726578315E+04  0.50400001928E-02 0. -1.
        1   -1    0    0  501    0  0.00000000000E+00  0.00000000000E+00 -0.10401005006E+04  0.10401005006E+04  0.50400001928E-02 0.  1.
    10030    2    1    2    0    0  0.00000000000E+00  0.00000000000E+00  0.23255733094E+03  0.23127583321E+04  0.23010363297E+04 0.  0.
        5    1    3    3  502    0 -0.11095332182E+03 -0.69990630873E+03 -0.79469966264E+03  0.10647765608E+04  0.46999998093E+01 0.  1.
       -5    1    3    3    0  502  0.11095332182E+03  0.69990630873E+03  0.10272569936E+04  0.12479817713E+04  0.46999998093E+01 0. -1.
</event>
<event>
 5   0  0.8097672E-07  0.2299033E+04  0.7818609E-02  0.8478303E-01
        1   -1    0    0  501    0  0.00000000000E+00  0.00000000000E+00  0.14377722020E+04  0.14377722020E+04  0.50400001928E-02 0.  1.
       -1   -1    0    0    0  501  0.00000000000E+00  0.00000000000E+00 -0.91905215228E+03  0.91905215229E+03  0.50400001928E-02 0. -1.
    10030    2    1    2    0    0  0.00000000000E+00  0.00000000000E+00  0.51872004973E+03  0.23568243543E+04  0.22990325242E+04 0.  0.
        3    1    3    3  502    0  0.10221239067E+04 -0.51384047490E+03  0.14420504128E+03  0.11530673954E+04  0.10100000352E+00 0. -1.
       -3    1    3    3    0  502 -0.10221239067E+04  0.51384047490E+03  0.37451500846E+03  0.12037569589E+04  0.10100000352E+00 0.  1.
</event>
<event>
 5   0  0.1689444E-06  0.2302233E+04  0.7818609E-02  0.8477041E-01
       -2   -1    0    0    0  501  0.00000000000E+00  0.00000000000E+00  0.54036143393E+03  0.54036143393E+03  0.25500000920E-02 0.  1.
        2   -1    0    0  501    0  0.00000000000E+00  0.00000000000E+00 -0.24521907146E+04  0.24521907146E+04  0.25500000920E-02 0. -1.
    10030    2    1    2    0    0  0.00000000000E+00  0.00000000000E+00 -0.19118292807E+04  0.29925521485E+04  0.23022330819E+04 0.  0.
        2    1    3    3  502    0  0.82426545533E+03  0.75661756340E+02 -0.19957367032E+04  0.21605793739E+04  0.25500000920E-02 0. -1.
       -2    1    3    3    0  502 -0.82426545533E+03 -0.75661756340E+02  0.83907422536E+02  0.83197277467E+03  0.25500000920E-02 0.  1.
</event>
<event>
 5   0  0.7607231E-07  0.2301187E+04  0.7818609E-02  0.8477453E-01
       -1   -1    0    0    0  501  0.00000000000E+00  0.00000000000E+00  0.51808156571E+03  0.51808156573E+03  0.50400001928E-02 0. -1.
        1   -1    0    0  501    0  0.00000000000E+00  0.00000000000E+00 -0.25553213351E+04  0.25553213351E+04  0.50400001928E-02 0.  1.
    10030    2    1    2    0    0  0.00000000000E+00  0.00000000000E+00 -0.20372397694E+04  0.30734029008E+04  0.23011865446E+04 0.  0.
        2    1    3    3  502    0  0.18831726901E+03  0.11287203557E+04 -0.85839650873E+03  0.14304955789E+04  0.25500000920E-02 0. -1.
       -2    1    3    3    0  502 -0.18831726901E+03 -0.11287203557E+04 -0.11788432606E+04  0.16429073219E+04  0.25500000920E-02 0.  1.
</event>
<event>
 5   0  0.7932912E-07  0.2301056E+04  0.7818609E-02  0.8477505E-01
        1   -1    0    0  501    0  0.00000000000E+00  0.00000000000E+00  0.13884352236E+04  0.13884352236E+04  0.50400001928E-02 0. -1.
       -1   -1    0    0    0  501  0.00000000000E+00  0.00000000000E+00 -0.95338573921E+03  0.95338573922E+03  0.50400001928E-02 0.  1.
    10030    2    1    2    0    0  0.00000000000E+00  0.00000000000E+00  0.43504948441E+03  0.23418209629E+04  0.23010557073E+04 0.  0.
        5    1    3    3  502    0  0.26602167476E+02 -0.11500409761E+04  0.23763152297E+03  0.11746457988E+04  0.46999998093E+01 0. -1.
       -5    1    3    3    0  502 -0.26602167476E+02  0.11500409761E+04  0.19741796144E+03  0.11671751640E+04  0.46999998093E+01 0.  1.
</event>
<event>
 5   0  0.1744876E-06  0.2300105E+04  0.7818609E-02  0.8477880E-01
       -2   -1    0    0    0  501  0.00000000000E+00  0.00000000000E+00  0.11079933381E+04  0.11079933381E+04  0.25500000920E-02 0.  1.
        2   -1    0    0  501    0  0.00000000000E+00  0.00000000000E+00 -0.11937084104E+04  0.11937084104E+04  0.25500000920E-02 0. -1.
    10030    2    1    2    0    0  0.00000000000E+00  0.00000000000E+00 -0.85715072325E+02  0.23017017484E+04  0.23001051857E+04 0.  0.
        1    1    3    3  502    0 -0.86354549142E+03 -0.66480738828E+03  0.32474100098E+03  0.11371615527E+04  0.50400001928E-02 0.  1.
       -1    1    3    3    0  502  0.86354549142E+03  0.66480738828E+03 -0.41045607331E+03  0.11645401957E+04  0.50400001928E-02 0. -1.
</event>
<event>
 5   0  0.1689444E-06  0.2300361E+04  0.7818609E-02  0.8477779E-01
        2   -1    0    0  501    0  0.00000000000E+00  0.00000000000E+00  0.21491535709E+04  0.21491535709E+04  0.25500000920E-02 0. -1.
       -2   -1    0    0    0  501  0.00000000000E+00  0.00000000000E+00 -0.61555197361E+03  0.61555197362E+03  0.25500000920E-02 0.  1.
    10030    2    1    2    0    0  0.00000000000E+00  0.00000000000E+00  0.15336015973E+04  0.27647055445E+04  0.23003614691E+04 0.  0.
        2    1    3    3  502    0  0.71317244615E+02  0.10305924534E+04  0.15904990153E+03  0.10452290781E+04  0.25500000920E-02 0.  1.
       -2    1    3    3    0  502 -0.71317244615E+02 -0.10305924534E+04  0.13745516958E+04  0.17194764665E+04  0.25500000920E-02 0. -1.
</event>
<event>
 5   0  0.1888779E-06  0.2298854E+04  0.7818609E-02  0.8478373E-01
       -2   -1    0    0    0  501  0.00000000000E+00  0.00000000000E+00  0.82288406777E+03  0.82288406777E+03  0.25500000920E-02 0.  1.
        2   -1    0    0  501    0  0.00000000000E+00  0.00000000000E+00 -0.16055504411E+04  0.16055504411E+04  0.25500000920E-02 0. -1.
    10030    2    1    2    0    0  0.00000000000E+00  0.00000000000E+00 -0.78266637330E+03  0.24284345088E+04  0.22988535212E+04 0.  0.
        4    1    3    3  502    0  0.77068646727E+02 -0.11373188007E+04 -0.54711297913E+03  0.12644239225E+04  0.12699999809E+01 0. -1.
       -4    1    3    3    0  502 -0.77068646727E+02  0.11373188007E+04 -0.23555339417E+03  0.11640105864E+04  0.12699999809E+01 0.  1.
</event>
<event>
 5   0  0.1825521E-06  0.2299030E+04  0.7818609E-02  0.8478304E-01
       -2   -1    0    0    0  501  0.00000000000E+00  0.00000000000E+00  0.77626723239E+03  0.77626723240E+03  0.25500000920E-02 0.  1.
        2   -1    0    0  501    0  0.00000000000E+00  0.00000000000E+00 -0.17022289645E+04  0.17022289645E+04  0.25500000920E-02 0. -1.
    10030    2    1    2    0    0  0.00000000000E+00  0.00000000000E+00 -0.92596173215E+03  0.24784961969E+04  0.22990298538E+04 0.  0.
        5    1    3    3  502    0 -0.45298937862E+03  0.75699527243E+02  0.67304903817E+03  0.81482936456E+03  0.46999998093E+01 0.  1.
       -5    1    3    3    0  502  0.45298937862E+03 -0.75699527243E+02 -0.15990107703E+04  0.16636668324E+04  0.46999998093E+01 0. -1.
</event>
<event>
 5   0  0.1888779E-06  0.2296888E+04  0.7818609E-02  0.8479149E-01
       -2   -1    0    0    0  501  0.00000000000E+00  0.00000000000E+00  0.10910445104E+04  0.10910445104E+04  0.25500000920E-02 0.  1.
        2   -1    0    0  501    0  0.00000000000E+00  0.00000000000E+00 -0.12088636522E+04  0.12088636522E+04  0.25500000920E-02 0. -1.
    10030    2    1    2    0    0  0.00000000000E+00  0.00000000000E+00 -0.11781914177E+03  0.22999081626E+04  0.22968883748E+04 0.  0.
        4    1    3    3  502    0  0.43656782932E+03  0.20141783100E+02 -0.11223441300E+04  0.12044314509E+04  0.12699999809E+01 0. -1.
       -4    1    3    3    0  502 -0.43656782932E+03 -0.20141783100E+02  0.10045249882E+04  0.10954767117E+04  0.12699999809E+01 0.  1.
</event>
<event>
 5   0  0.1744876E-06  0.2300491E+04  0.7818609E-02  0.8477727E-01
       -2   -1    0    0    0  501  0.00000000000E+00  0.00000000000E+00  0.68932014545E+03  0.68932014545E+03  0.25500000920E-02 0. -1.
        2   -1    0    0  501    0  0.00000000000E+00  0.00000000000E+00 -0.19193768238E+04  0.19193768238E+04  0.25500000920E-02 0.  1.
    10030    2    1    2    0    0  0.00000000000E+00  0.00000000000E+00 -0.12300566784E+04  0.26086969693E+04  0.23004913487E+04 0.  0.
        1    1    3    3  502    0 -0.10495385915E+04  0.25708266290E+03 -0.16794578740E+03  0.10935394543E+04  0.50400001928E-02 0.  1.
       -1    1    3    3    0  502  0.10495385915E+04 -0.25708266290E+03 -0.10621108910E+04  0.15151575150E+04  0.50400001928E-02 0. -1.
</event>
<event>
 5   0  0.7607231E-07  0.2300093E+04  0.7818609E-02  0.8477884E-01
        1   -1    0    0  501    0  0.00000000000E+00  0.00000000000E+00  0.22169502571E+04  0.22169502571E+04  0.50400001928E-02 0.  1.
       -1   -1    0    0    0  501  0.00000000000E+00  0.00000000000E+00 -0.59658858340E+03  0.59658858342E+03  0.50400001928E-02 0. -1.
    10030    2    1    2    0    0  0.00000000000E+00  0.00000000000E+00  0.16203616737E+04  0.28135388406E+04  0.23000932272E+04 0.  0.
        2    1    3    3  502    0  0.27312426982E+03 -0.62611540867E+03  0.19419081079E+04  0.20585491181E+04  0.25500000920E-02 0.  1.
       -2    1    3    3    0  502 -0.27312426982E+03  0.62611540867E+03 -0.32154643420E+03  0.75498972251E+03  0.25500000920E-02 0. -1.
</event>
<event>
 5   0  0.1689444E-06  0.2299683E+04  0.7818609E-02  0.8478046E-01
       -2   -1    0    0    0  501  0.00000000000E+00  0.00000000000E+00  0.12117660157E+04  0.12117660157E+04  0.25500000920E-02 0. -1.
        2   -1    0    0  501    0  0.00000000000E+00  0.00000000000E+00 -0.10910815017E+04  0.10910815017E+04  0.25500000920E-02 0.  1.
    10030    2    1    2    0    0  0.00000000000E+00  0.00000000000E+00  0.12068451398E+03  0.23028475173E+04  0.22996830078E+04 0.  0.
        2    1    3    3  502    0 -0.27566022783E+02 -0.11160554171E+04  0.33603166172E+03  0.11658717156E+04  0.25500000920E-02 0. -1.
       -2    1    3    3    0  502  0.27566022783E+02  0.11160554171E+04 -0.21534714774E+03  0.11369758017E+04  0.25500000920E-02 0.  1.
</event>
<event>
 5   0  0.1828646E-06  0.2301248E+04  0.7818609E-02  0.8477429E-01
        2   -1    0    0  501    0  0.00000000000E+00  0.00000000000E+00  0.16417053328E+04  0.16417053328E+04  0.25500000920E-02 0. -1.
       -2   -1    0    0    0  501  0.00000000000E+00  0.00000000000E+00 -0.80643917331E+03  0.80643917332E+03  0.25500000920E-02 0.  1.
    10030    2    1    2    0    0  0.00000000000E+00  0.00000000000E+00  0.83526615945E+03  0.24481445061E+04  0.23012479148E+04 0.  0.
        3    1    3    3  502    0  0.31347670570E+03 -0.60885925615E+03  0.14012955295E+04  0.15596815092E+04  0.10100000352E+00 0. -1.
       -3    1    3    3    0  502 -0.31347670570E+03  0.60885925615E+03 -0.56602937009E+03  0.88846299688E+03  0.10100000352E+00 0.  1.
</event>
<event>
 5   0  0.1825521E-06  0.2300674E+04  0.7818609E-02  0.8477655E-01
        2   -1    0    0  501    0  0.00000000000E+00  0.00000000000E+00  0.18418122236E+04  0.18418122236E+04  0.25500000920E-02 0.  1.
       -2   -1    0    0    0  501  0.00000000000E+00  0.00000000000E+00 -0.71846374041E+03  0.71846374041E+03  0.25500000920E-02 0. -1.
    10030    2    1    2    0    0  0.00000000000E+00  0.00000000000E+00  0.11233484832E+04  0.25602759640E+04  0.23006740745E+04 0.  0.
        5    1    3    3  502    0 -0.78726590722E+03 -0.37850899571E+03  0.13945915592E+04  0.16455893702E+04  0.46999998093E+01 0.  1.
       -5    1    3    3    0  502  0.78726590722E+03  0.37850899571E+03 -0.27124307602E+03  0.91468659375E+03  0.46999998093E+01 0. -1.
</event>
<event>
 5   0  0.1744876E-06  0.2296074E+04  0.7818609E-02  0.8479471E-01
        2   -1    0    0  501    0  0.00000000000E+00  0.00000000000E+00  0.15713746972E+04  0.15713746973E+04  0.25500000920E-02 0.  1.
       -2   -1    0    0    0  501  0.00000000000E+00  0.00000000000E+00 -0.83874909470E+03  0.83874909470E+03  0.25500000920E-02 0. -1.
    10030    2    1    2    0    0  0.00000000000E+00  0.00000000000E+00  0.73262560255E+03  0.24101237920E+04  0.22960741319E+04 0.  0.
        1    1    3    3  502    0  0.17292834704E+03  0.48324730709E+03  0.14442375904E+04  0.15327277614E+04  0.50400001928E-02 0.  1.
       -1    1    3    3    0  502 -0.17292834704E+03 -0.48324730709E+03 -0.71161198789E+03  0.87739603051E+03  0.50400001928E-02 0. -1.
</event>
<event>
 5   0  0.7761069E-07  0.2292292E+04  0.7818609E-02  0.8480967E-01
       -1   -1    0    0    0  501  0.00000000000E+00  0.00000000000E+00  0.14095352092E+04  0.14095352092E+04  0.50400001928E-02 0.  1.
        1   -1    0    0  501    0  0.00000000000E+00  0.00000000000E+00 -0.93197423303E+03  0.93197423304E+03  0.50400001928E-02 0. -1.
    10030    2    1    2    0    0  0.00000000000E+00  0.00000000000E+00  0.47756097621E+03  0.23415094423E+04  0.22922918624E+04 0.  0.
        1    1    3    3  502    0  0.68737576656E+03  0.79035644987E+03 -0.23650733693E+03  0.10738177139E+04  0.50400001928E-02 0. -1.
       -1    1    3    3    0  502 -0.68737576656E+03 -0.79035644987E+03  0.71406831313E+03  0.12676917284E+04  0.50400001928E-02 0.  1.
</event>
<event>
 5   0  0.1689444E-06  0.2300095E+04  0.7818609E-02  0.8477884E-01
        2   -1    0    0  501    0  0.00000000000E+00  0.00000000000E+00  0.13635672606E+04  0.13635672606E+04  0.25500000920E-02 0.  1.
       -2   -1    0    0    0  501  0.00000000000E+00  0.00000000000E+00 -0.96996265665E+03  0.96996265665E+03  0.25500000920E-02 0. -1.
    10030    2    1    2    0    0  0.00000000000E+00  0.00000000000E+00  0.39360460397E+03  0.23335299173E+04  0.23000950612E+04 0.  0.
        2    1    3    3  502    0 -0.51286154337E+03  0.76239830472E+03 -0.50486612597E+03  0.10484121055E+04  0.25500000920E-02 0. -1.
       -2    1    3    3    0  502  0.51286154337E+03 -0.76239830472E+03  0.89847072994E+03  0.12851178118E+04  0.25500000920E-02 0.  1.
</event>
<event>
 5   0  0.8097672E-07  0.2301452E+04  0.7818609E-02  0.8477349E-01
       -1   -1    0    0    0  501  0.00000000000E+00  0.00000000000E+00  0.14544166306E+04  0.14544166306E+04  0.50400001928E-02 0. -1.
        1   -1    0    0  501    0  0.00000000000E+00  0.00000000000E+00 -0.91044773774E+03  0.91044773776E+03  0.50400001928E-02 0.  1.
    10030    2    1    2    0    0  0.00000000000E+00  0.00000000000E+00  0.54396889282E+03  0.23648643683E+04  0.23014520035E+04 0.  0.
        3    1    3    3  502    0 -0.10490674894E+04  0.33411305918E+03  0.61586366765E+03  0.12615316885E+04  0.10100000352E+00 0. -1.
       -3    1    3    3    0  502  0.10490674894E+04 -0.33411305918E+03 -0.71894774822E+02  0.11033326799E+04  0.10100000352E+00 0.  1.
</event>
<event>
 5   0  0.1825521E-06  0.2301711E+04  0.7818609E-02  0.8477247E-01
        2   -1    0    0  501    0  0.00000000000E+00  0.00000000000E+00  0.92827938166E+03  0.92827938166E+03  0.25500000920E-02 0. -1.
       -2   -1    0    0    0  501  0.00000000000E+00  0.00000000000E+00 -0.14267994725E+04  0.14267994725E+04  0.25500000920E-02 0.  1.
    10030    2    1    2    0    0  0.00000000000E+00  0.00000000000E+00 -0.49852009081E+03  0.23550788541E+04  0.23017111305E+04 0.  0.
        5    1    3    3  502    0  0.11050718961E+04 -0.63491614895E+02  0.73053910049E+02  0.11093124197E+04  0.46999998093E+01 0. -1.
       -5    1    3    3    0  502 -0.11050718961E+04  0.63491614895E+02 -0.57157400086E+03  0.12457664344E+04  0.46999998093E+01 0.  1.
</event>
<event>
 5   0  0.7607231E-07  0.2303725E+04  0.7818609E-02  0.8476454E-01
        1   -1    0    0  501    0  0.00000000000E+00  0.00000000000E+00  0.14355585366E+04  0.14355585367E+04  0.50400001928E-02 0.  1.
       -1   -1    0    0    0  501  0.00000000000E+00  0.00000000000E+00 -0.92423100782E+03  0.92423100784E+03  0.50400001928E-02 0. -1.
    10030    2    1    2    0    0  0.00000000000E+00  0.00000000000E+00  0.51132752882E+03  0.23597895445E+04  0.23037254291E+04 0.  0.
        2    1    3    3  502    0  0.72331735159E+03  0.75521180794E+03 -0.23905444394E+03  0.10726974844E+04  0.25500000920E-02 0. -1.
       -2    1    3    3    0  502 -0.72331735159E+03 -0.75521180794E+03  0.75038197276E+03  0.12870920600E+04  0.25500000920E-02 0.  1.
</event>
<event>
 5   0  0.1888779E-06  0.2299493E+04  0.7818609E-02  0.8478121E-01
        2   -1    0    0  501    0  0.00000000000E+00  0.00000000000E+00  0.14575927158E+04  0.14575927158E+04  0.25500000920E-02 0.  1.
       -2   -1    0    0    0  501  0.00000000000E+00  0.00000000000E+00 -0.90691773248E+03  0.90691773248E+03  0.25500000920E-02 0. -1.
    10030    2    1    2    0    0  0.00000000000E+00  0.00000000000E+00  0.55067498333E+03  0.23645104483E+04  0.22994927099E+04 0.  0.
        4    1    3    3  502    0  0.36306300162E+03 -0.31111370205E+03 -0.79984103056E+03  0.93185501330E+03  0.12699999809E+01 0. -1.
       -4    1    3    3    0  502 -0.36306300162E+03  0.31111370205E+03  0.13505160139E+04  0.14326554350E+04  0.12699999809E+01 0.  1.
</event>
<event>
 5   0  0.7761069E-07  0.2299963E+04  0.7818609E-02  0.8477936E-01
       -1   -1    0    0    0  501  0.00000000000E+00  0.00000000000E+00  0.12424828501E+04  0.12424828501E+04  0.50400001928E-02 0. -1.
        1   -1    0    0  501    0  0.00000000000E+00  0.00000000000E+00 -0.10643666156E+04  0.10643666156E+04  0.50400001928E-02 0.  1.
    10030    2    1    2    0    0  0.00000000000E+00  0.00000000000E+00  0.17811623449E+03  0.23068494657E+04  0.22999628398E+04 0.  0.
        1    1    3    3  502    0  0.13734997386E+03 -0.12374452002E+03 -0.10493644380E+04  0.10655249623E+04  0.50400001928E-02 0.  1.
       -1    1    3    3    0  502 -0.13734997386E+03  0.12374452002E+03  0.12274806724E+04  0.12413245034E+04  0.50400001928E-02 0. -1.
</event>
<event>
 5   0  0.1744876E-06  0.2300051E+04  0.7818609E-02  0.8477901E-01
        2   -1    0    0  501    0  0.00000000000E+00  0.00000000000E+00  0.25497809283E+04  0.25497809283E+04  0.25500000920E-02 0.  1.
       -2   -1    0    0    0  501  0.00000000000E+00  0.00000000000E+00 -0.51869485815E+03  0.51869485816E+03  0.25500000920E-02 0. -1.
    10030    2    1    2    0    0  0.00000000000E+00  0.00000000000E+00  0.20310860701E+04  0.30684757864E+04  0.23000506576E+04 0.  0.
        1    1    3    3  502    0  0.10213894836E+04  0.48863538473E+03  0.12842132350E+04  0.17120761225E+04  0.50400001928E-02 0.  1.
       -1    1    3    3    0  502 -0.10213894836E+04 -0.48863538473E+03  0.74687283516E+03  0.13563996639E+04  0.50400001928E-02 0. -1.
</event>
<event>
 5   0  0.8108242E-07  0.2299703E+04  0.7818609E-02  0.8478038E-01
        1   -1    0    0  501    0  0.00000000000E+00  0.00000000000E+00  0.58103367877E+03  0.58103367879E+03  0.50400001928E-02 0. -1.
       -1   -1    0    0    0  501  0.00000000000E+00  0.00000000000E+00 -0.22755278659E+04  0.22755278659E+04  0.50400001928E-02 0.  1.
    10030    2    1    2    0    0  0.00000000000E+00  0.00000000000E+00 -0.16944941872E+04  0.28565615447E+04  0.22997028740E+04 0.  0.
        4    1    3    3  502    0  0.12044946249E+03  0.21479281176E+02 -0.22674184998E+04  0.22707174414E+04  0.12699999809E+01 0.  1.
       -4    1    3    3    0  502 -0.12044946249E+03 -0.21479281176E+02  0.57292431262E+03  0.58584410335E+03  0.12699999809E+01 0. -1.
</event>
<event>
 5   0  0.6319125E-07  0.2299848E+04  0.7818609E-02  0.8477981E-01
        3   -1    0    0  501    0  0.00000000000E+00  0.00000000000E+00  0.62540814022E+03  0.62540814837E+03  0.10100000352E+00 0. -1.
       -3   -1    0    0    0  501  0.00000000000E+00  0.00000000000E+00 -0.21143394132E+04  0.21143394156E+04  0.10100000352E+00 0.  1.
    10030    2    1    2    0    0  0.00000000000E+00  0.00000000000E+00 -0.14889312730E+04  0.27397475640E+04  0.22998479034E+04 0.  0.
        5    1    3    3  502    0  0.10418051443E+04  0.32299588488E+03 -0.11782898859E+04  0.16056380182E+04  0.46999998093E+01 0.  1.
       -5    1    3    3    0  502 -0.10418051443E+04 -0.32299588488E+03 -0.31064138711E+03  0.11341095458E+04  0.46999998093E+01 0. -1.
</event>
<event>
 5   0  0.1828646E-06  0.2300074E+04  0.7818609E-02  0.8477892E-01
        2   -1    0    0  501    0  0.00000000000E+00  0.00000000000E+00  0.11342199279E+04  0.11342199279E+04  0.25500000920E-02 0.  1.
       -2   -1    0    0    0  501  0.00000000000E+00  0.00000000000E+00 -0.11660751497E+04  0.11660751498E+04  0.25500000920E-02 0. -1.
    10030    2    1    2    0    0  0.00000000000E+00  0.00000000000E+00 -0.31855221878E+02  0.23002950776E+04  0.23000744964E+04 0.  0.
        3    1    3    3  502    0  0.78609326758E+03  0.75998252152E+03 -0.37243003346E+03  0.11550844984E+04  0.10100000352E+00 0. -1.
       -3    1    3    3    0  502 -0.78609326758E+03 -0.75998252152E+03  0.34057481158E+03  0.11452105793E+04  0.10100000352E+00 0.  1.
</event>
<event>
 5   0  0.8097672E-07  0.2299880E+04  0.7818609E-02  0.8477968E-01
        1   -1    0    0  501    0  0.00000000000E+00  0.00000000000E+00  0.24130599337E+04  0.24130599337E+04  0.50400001928E-02 0. -1.
       -1   -1    0    0    0  501  0.00000000000E+00  0.00000000000E+00 -0.54800209942E+03  0.54800209945E+03  0.50400001928E-02 0.  1.
    10030    2    1    2    0    0  0.00000000000E+00  0.00000000000E+00  0.18650578343E+04  0.29610620331E+04  0.22998799184E+04 0.  0.
        3    1    3    3  502    0  0.69413514990E+03 -0.77391731223E+03  0.15653516611E+04  0.18791214558E+04  0.10100000352E+00 0.  1.
       -3    1    3    3    0  502 -0.69413514990E+03  0.77391731223E+03  0.29970617318E+03  0.10819405774E+04  0.10100000352E+00 0. -1.
</event>
<event>
 5   0  0.1744876E-06  0.2298218E+04  0.7818609E-02  0.8478624E-01
       -2   -1    0    0    0  501  0.00000000000E+00  0.00000000000E+00  0.10441814070E+04  0.10441814070E+04  0.25500000920E-02 0.  1.
        2   -1    0    0  501    0  0.00000000000E+00  0.00000000000E+00 -0.12645810356E+04  0.12645810356E+04  0.25500000920E-02 0. -1.
    10030    2    1    2    0    0  0.00000000000E+00  0.00000000000E+00 -0.22039962862E+03  0.23087624427E+04  0.22982184449E+04 0.  0.
        1    1    3    3  502    0  0.17363916271E+03  0.17370046489E+02 -0.12511922165E+04  0.12633029090E+04  0.50400001928E-02 0. -1.
       -1    1    3    3    0  502 -0.17363916271E+03 -0.17370046489E+02  0.10307925878E+04  0.10454595337E+04  0.50400001928E-02 0.  1.
</event>
<event>
 5   0  0.8108242E-07  0.2300083E+04  0.7818609E-02  0.8477888E-01
        1   -1    0    0  501    0  0.00000000000E+00  0.00000000000E+00  0.96900731639E+03  0.96900731640E+03  0.50400001928E-02 0.  1.
       -1   -1    0    0    0  501  0.00000000000E+00  0.00000000000E+00 -0.13648972156E+04  0.13648972157E+04  0.50400001928E-02 0. -1.
    10030    2    1    2    0    0  0.00000000000E+00  0.00000000000E+00 -0.39588989926E+03  0.23339045321E+04  0.23000829447E+04 0.  0.
        4    1    3    3  502    0 -0.69462708534E+03 -0.90593905469E+03 -0.56753578470E+02  0.11430025985E+04  0.12699999809E+01 0. -1.
       -4    1    3    3    0  502  0.69462708534E+03  0.90593905469E+03 -0.33913632079E+03  0.11909019336E+04  0.12699999809E+01 0.  1.
</event>
<event>
 5   0  0.1828646E-06  0.2299902E+04  0.7818609E-02  0.8477960E-01
       -2   -1    0    0    0  501  0.00000000000E+00  0.00000000000E+00  0.96304146682E+03  0.96304146682E+03  0.25500000920E-02 0.  1.
        2   -1    0    0  501    0  0.00000000000E+00  0.00000000000E+00 -0.13731366623E+04  0.13731366623E+04  0.25500000920E-02 0. -1.
    10030    2    1    2    0    0  0.00000000000E+00  0.00000000000E+00 -0.41009519545E+03  0.23361781291E+04  0.22999022113E+04 0.  0.
        3    1    3    3  502    0  0.57796121703E+03  0.48753648593E+03 -0.10851176036E+04  0.13225774901E+04  0.10100000352E+00 0. -1.
       -3    1    3    3    0  502 -0.57796121703E+03 -0.48753648593E+03  0.67502240820E+03  0.10136006389E+04  0.10100000352E+00 0.  1.
</event>
<event>
 5   0  0.8108242E-07  0.2297632E+04  0.7818609E-02  0.8478855E-01
        1   -1    0    0  501    0  0.00000000000E+00  0.00000000000E+00  0.13614859460E+04  0.13614859460E+04  0.50400001928E-02 0.  1.
       -1   -1    0    0    0  501  0.00000000000E+00  0.00000000000E+00 -0.96936636428E+03  0.96936636429E+03  0.50400001928E-02 0. -1.
    10030    2    1    2    0    0  0.00000000000E+00  0.00000000000E+00  0.39211958169E+03  0.23308523103E+04  0.22976324175E+04 0.  0.
        4    1    3    3  502    0  0.30052246387E+03 -0.10371632311E+04  0.59384615179E+03  0.12323458054E+04  0.12699999809E+01 0.  1.
       -4    1    3    3    0  502 -0.30052246387E+03  0.10371632311E+04 -0.20172657009E+03  0.10985065049E+04  0.12699999809E+01 0. -1.
</event>
<event>
 5   0  0.7932912E-07  0.2301720E+04  0.7818609E-02  0.8477243E-01
       -1   -1    0    0    0  501  0.00000000000E+00  0.00000000000E+00  0.15622715216E+04  0.15622715217E+04  0.50400001928E-02 0. -1.
        1   -1    0    0  501    0  0.00000000000E+00  0.00000000000E+00 -0.84779068578E+03  0.84779068579E+03  0.50400001928E-02 0.  1.
    10030    2    1    2    0    0  0.00000000000E+00  0.00000000000E+00  0.71448083587E+03  0.24100622074E+04  0.23017204389E+04 0.  0.
        5    1    3    3  502    0  0.13346183425E+03 -0.99144773663E+03  0.95294542291E+03  0.13816322755E+04  0.46999998093E+01 0. -1.
       -5    1    3    3    0  502 -0.13346183425E+03  0.99144773663E+03 -0.23846458704E+03  0.10284299320E+04  0.46999998093E+01 0.  1.
</event>
<event>
 5   0  0.8108242E-07  0.2300125E+04  0.7818609E-02  0.8477872E-01
        1   -1    0    0  501    0  0.00000000000E+00  0.00000000000E+00  0.17307727128E+04  0.17307727128E+04  0.50400001928E-02 0.  1.
       -1   -1    0    0    0  501  0.00000000000E+00  0.00000000000E+00 -0.76419234918E+03  0.76419234920E+03  0.50400001928E-02 0. -1.
    10030    2    1    2    0    0  0.00000000000E+00  0.00000000000E+00  0.96658036364E+03  0.24949650620E+04  0.23001245752E+04 0.  0.
        4    1    3    3  502    0 -0.74912820342E+03 -0.85802906433E+03  0.31097946583E+03  0.11807272257E+04  0.12699999809E+01 0.  1.
       -4    1    3    3    0  502  0.74912820342E+03  0.85802906433E+03  0.65560089781E+03  0.13142378363E+04  0.12699999809E+01 0. -1.
</event>
<event>
 5   0  0.8097672E-07  0.2300825E+04  0.7818609E-02  0.8477596E-01
       -1   -1    0    0    0  501  0.00000000000E+00  0.00000000000E+00  0.93374027370E+03  0.93374027371E+03  0.50400001928E-02 0.  1.
        1   -1    0    0  501    0  0.00000000000E+00  0.00000000000E+00 -0.14173631142E+04  0.14173631143E+04  0.50400001928E-02 0. -1.
    10030    2    1    2    0    0  0.00000000000E+00  0.00000000000E+00 -0.48362284055E+03  0.23511033880E+04  0.23008250887E+04 0.  0.
        3    1    3    3  502    0 -0.21584353331E+03 -0.12949162013E+03 -0.13888798751E+04  0.14115041014E+04  0.10100000352E+00 0. -1.
       -3    1    3    3    0  502  0.21584353331E+03  0.12949162013E+03  0.90525703455E+03  0.93959928659E+03  0.10100000352E+00 0.  1.
</event>
<event>
 5   0  0.1689444E-06  0.2300477E+04  0.7818609E-02  0.8477733E-01
       -2   -1    0    0    0  501  0.00000000000E+00  0.00000000000E+00  0.66468088406E+03  0.66468088406E+03  0.25500000920E-02 0. -1.
        2   -1    0    0  501    0  0.00000000000E+00  0.00000000000E+00 -0.19905020213E+04  0.19905020213E+04  0.25500000920E-02 0.  1.
    10030    2    1    2    0    0  0.00000000000E+00  0.00000000000E+00 -0.13258211373E+04  0.26551829054E+04  0.23004770316E+04 0.  0.
        2    1    3    3  502    0 -0.16433409041E+03  0.91907160701E+03  0.11250305042E+03  0.94040164209E+03  0.25500000920E-02 0. -1.
       -2    1    3    3    0  502  0.16433409041E+03 -0.91907160701E+03 -0.14383241877E+04  0.17147812633E+04  0.25500000920E-02 0.  1.
</event>
<event>
 5   0  0.1888779E-06  0.2300186E+04  0.7818609E-02  0.8477848E-01
       -2   -1    0    0    0  501  0.00000000000E+00  0.00000000000E+00  0.99413982599E+03  0.99413982599E+03  0.25500000920E-02 0. -1.
        2   -1    0    0  501    0  0.00000000000E+00  0.00000000000E+00 -0.13305114146E+04  0.13305114146E+04  0.25500000920E-02 0.  1.
    10030    2    1    2    0    0  0.00000000000E+00  0.00000000000E+00 -0.33637158858E+03  0.23246512406E+04  0.23001864152E+04 0.  0.
        4    1    3    3  502    0  0.82621462261E+02  0.15586616233E+02  0.99102892892E+03  0.99458996551E+03  0.12699999809E+01 0. -1.
       -4    1    3    3    0  502 -0.82621462261E+02 -0.15586616233E+02 -0.13274005175E+04  0.13300612750E+04  0.12699999809E+01 0.  1.
</event>
<event>
 5   0  0.1828646E-06  0.2301361E+04  0.7818609E-02  0.8477385E-01
        2   -1    0    0  501    0  0.00000000000E+00  0.00000000000E+00  0.93206527950E+03  0.93206527951E+03  0.25500000920E-02 0. -1.
       -2   -1    0    0    0  501  0.00000000000E+00  0.00000000000E+00 -0.14205714352E+04  0.14205714352E+04  0.25500000920E-02 0.  1.
    10030    2    1    2    0    0  0.00000000000E+00  0.00000000000E+00 -0.48850615571E+03  0.23526367147E+04  0.23013607382E+04 0.  0.
        3    1    3    3  502    0  0.63186892209E+03 -0.88486409046E+03  0.14073098524E+03  0.10963795026E+04  0.10100000352E+00 0.  1.
       -3    1    3    3    0  502 -0.63186892209E+03  0.88486409046E+03 -0.62923714095E+03  0.12562572121E+04  0.10100000352E+00 0. -1.
</event>
<event>
 5   0  0.1825521E-06  0.2299907E+04  0.7818609E-02  0.8477958E-01
       -2   -1    0    0    0  501  0.00000000000E+00  0.00000000000E+00  0.12854910090E+04  0.12854910090E+04  0.25500000920E-02 0. -1.
        2   -1    0    0  501    0  0.00000000000E+00  0.00000000000E+00 -0.10287061768E+04  0.10287061768E+04  0.25500000920E-02 0.  1.
    10030    2    1    2    0    0  0.00000000000E+00  0.00000000000E+00  0.25678483217E+03  0.23141971858E+04  0.22999065557E+04 0.  0.
        5    1    3    3  502    0  0.10155581791E+04  0.16797743830E+02 -0.41415162580E+03  0.10968975515E+04  0.46999998093E+01 0.  1.
       -5    1    3    3    0  502 -0.10155581791E+04 -0.16797743830E+02  0.67093645797E+03  0.12172996344E+04  0.46999998093E+01 0. -1.
</event>
<event>
 5   0  0.8108242E-07  0.2290910E+04  0.7818609E-02  0.8481514E-01
       -1   -1    0    0    0  501  0.00000000000E+00  0.00000000000E+00  0.10912743625E+04  0.10912743625E+04  0.50400001928E-02 0.  1.
        1   -1    0    0  501    0  0.00000000000E+00  0.00000000000E+00 -0.12023258244E+04  0.12023258244E+04  0.50400001928E-02 0. -1.
    10030    2    1    2    0    0  0.00000000000E+00  0.00000000000E+00 -0.11105146187E+03  0.22936001869E+04  0.22909101664E+04 0.  0.
        4    1    3    3  502    0  0.72634468175E+03 -0.88512713502E+03 -0.23252917047E+02  0.11452375094E+04  0.12699999809E+01 0. -1.
       -4    1    3    3    0  502 -0.72634468175E+03  0.88512713502E+03 -0.87798544824E+02  0.11483626776E+04  0.12699999809E+01 0.  1.
</event>
<event>
 5   0  0.7761069E-07  0.2300136E+04  0.7818609E-02  0.8477868E-01
       -1   -1    0    0    0  501  0.00000000000E+00  0.00000000000E+00  0.99437825738E+03  0.99437825739E+03  0.50400001928E-02 0.  1.
        1   -1    0    0  501    0  0.00000000000E+00  0.00000000000E+00 -0.13301336096E+04  0.13301336097E+04  0.50400001928E-02 0. -1.
    10030    2    1    2    0    0  0.00000000000E+00  0.00000000000E+00 -0.33575535226E+03  0.23245118670E+04  0.23001355968E+04 0.  0.
        1    1    3    3  502    0  0.46665581517E+03  0.10896188453E+03 -0.12244312138E+04  0.13148658256E+04  0.50400001928E-02 0. -1.
       -1    1    3    3    0  502 -0.46665581517E+03 -0.10896188453E+03  0.88867586150E+03  0.10096460414E+04  0.50400001928E-02 0.  1.
</event>
<event>
 5   0  0.1828646E-06  0.2300025E+04  0.7818609E-02  0.8477911E-01
        2   -1    0    0  501    0  0.00000000000E+00  0.00000000000E+00  0.30726179599E+04  0.30726179599E+04  0.25500000920E-02 0.  1.
       -2   -1    0    0    0  501  0.00000000000E+00  0.00000000000E+00 -0.43042421531E+03  0.43042421531E+03  0.25500000920E-02 0. -1.
    10030    2    1    2    0    0  0.00000000000E+00  0.00000000000E+00  0.26421937446E+04  0.35030421752E+04  0.23000253689E+04 0.  0.
        3    1    3    3  502    0  0.67163300234E+02  0.11443777383E+04  0.11813592781E+04  0.16461230425E+04  0.10100000352E+00 0.  1.
       -3    1    3    3    0  502 -0.67163300234E+02 -0.11443777383E+04  0.14608344665E+04  0.18569191328E+04  0.10100000352E+00 0. -1.
</event>
<event>
 5   0  0.1744876E-06  0.2300600E+04  0.7818609E-02  0.8477685E-01
        2   -1    0    0  501    0  0.00000000000E+00  0.00000000000E+00  0.14210393661E+04  0.14210393661E+04  0.25500000920E-02 0.  1.
       -2   -1    0    0    0  501  0.00000000000E+00  0.00000000000E+00 -0.93114248736E+03  0.93114248737E+03  0.25500000920E-02 0. -1.
    10030    2    1    2    0    0  0.00000000000E+00  0.00000000000E+00  0.48989687872E+03  0.23521818534E+04  0.23006000348E+04 0.  0.
        1    1    3    3  502    0  0.19630409971E+02 -0.10551018261E+04  0.71299500112E+03  0.12735725689E+04  0.50400001928E-02 0.  1.
       -1    1    3    3    0  502 -0.19630409971E+02  0.10551018261E+04 -0.22309812240E+03  0.10786092846E+04  0.50400001928E-02 0. -1.
</event>
<event>
 5   0  0.6319125E-07  0.2300896E+04  0.7818609E-02  0.8477568E-01
        3   -1    0    0  501    0  0.00000000000E+00  0.00000000000E+00  0.10069672685E+04  0.10069672736E+04  0.10100000352E+00 0. -1.
       -3   -1    0    0    0  501  0.00000000000E+00  0.00000000000E+00 -0.13143725989E+04  0.13143726028E+04  0.10100000352E+00 0.  1.
    10030    2    1    2    0    0  0.00000000000E+00  0.00000000000E+00 -0.30740533042E+03  0.23213398764E+04  0.23008956483E+04 0.  0.
        3    1    3    3  502    0  0.11419703643E+03  0.65830092656E+03  0.79117062422E+03  0.10355443206E+04  0.10100000352E+00 0. -1.
       -3    1    3    3    0  502 -0.11419703643E+03 -0.65830092656E+03 -0.10985759546E+04  0.12857955558E+04  0.10100000352E+00 0.  1.
</event>
<event>
 5   0  0.1828646E-06  0.2300560E+04  0.7818609E-02  0.8477700E-01
        2   -1    0    0  501    0  0.00000000000E+00  0.00000000000E+00  0.20811949902E+04  0.20811949902E+04  0.25500000920E-02 0. -1.
       -2   -1    0    0    0  501  0.00000000000E+00  0.00000000000E+00 -0.63576194089E+03  0.63576194089E+03  0.25500000920E-02 0.  1.
    10030    2    1    2    0    0  0.00000000000E+00  0.00000000000E+00  0.14454330493E+04  0.27169569310E+04  0.23005604242E+04 0.  0.
        3    1    3    3  502    0 -0.10006192179E+03 -0.69049745837E+03  0.18027617793E+04  0.19330672961E+04  0.10100000352E+00 0. -1.
       -3    1    3    3    0  502  0.10006192179E+03  0.69049745837E+03 -0.35732873005E+03  0.78388963492E+03  0.10100000352E+00 0.  1.
</event>
<event>
 5   0  0.8097672E-07  0.2299539E+04  0.7818609E-02  0.8478103E-01
        1   -1    0    0  501    0  0.00000000000E+00  0.00000000000E+00  0.10151067713E+04  0.10151067713E+04  0.50400001928E-02 0. -1.
       -1   -1    0    0    0  501  0.00000000000E+00  0.00000000000E+00 -0.13022965882E+04  0.13022965882E+04  0.50400001928E-02 0.  1.
    10030    2    1    2    0    0  0.00000000000E+00  0.00000000000E+00 -0.28718981686E+03  0.23174033595E+04  0.22995391582E+04 0.  0.
        3    1    3    3  502    0 -0.14884474427E+03 -0.11399664219E+04 -0.12637787160E+03  0.11565680168E+04  0.10100000352E+00 0. -1.
       -3    1    3    3    0  502  0.14884474427E+03  0.11399664219E+04 -0.16081194526E+03  0.11608353427E+04  0.10100000352E+00 0.  1.
</event>
<event>
 5   0  0.1689444E-06  0.2300224E+04  0.7818609E-02  0.8477833E-01
        2   -1    0    0  501    0  0.00000000000E+00  0.00000000000E+00  0.10894959556E+04  0.10894959556E+04  0.25500000920E-02 0. -1.
       -2   -1    0    0    0  501  0.00000000000E+00  0.00000000000E+00 -0.12141001803E+04  0.12141001803E+04  0.25500000920E-02 0.  1.
    10030    2    1    2    0    0  0.00000000000E+00  0.00000000000E+00 -0.12460422463E+03  0.23035961359E+04  0.23002236727E+04 0.  0.
        2    1    3    3  502    0 -0.16555262031E+03  0.11245938930E+04  0.11299206265E+03  0.11423161998E+04  0.25500000920E-02 0. -1.
       -2    1    3    3    0  502  0.16555262031E+03 -0.11245938930E+04 -0.23759628728E+03  0.11612799361E+04  0.25500000920E-02 0.  1.
</event>
<event>
 5   0  0.7761069E-07  0.2300315E+04  0.7818609E-02  0.8477797E-01
        1   -1    0    0  501    0  0.00000000000E+00  0.00000000000E+00  0.13540137207E+04  0.13540137207E+04  0.50400001928E-02 0.  1.
       -1   -1    0    0    0  501  0.00000000000E+00  0.00000000000E+00 -0.97699367820E+03  0.97699367821E+03  0.50400001928E-02 0. -1.
    10030    2    1    2    0    0  0.00000000000E+00  0.00000000000E+00  0.37702004245E+03  0.23310073989E+04  0.23003154960E+04 0.  0.
        1    1    3    3  502    0  0.43735200692E+03  0.25193577915E+03 -0.85877559357E+03  0.99611441859E+03  0.50400001928E-02 0. -1.
       -1    1    3    3    0  502 -0.43735200692E+03 -0.25193577915E+03  0.12357956360E+04  0.13348929803E+04  0.50400001928E-02 0.  1.
</event>
<event>
 5   0  0.1828646E-06  0.2299844E+04  0.7818609E-02  0.8477983E-01
       -2   -1    0    0    0  501  0.00000000000E+00  0.00000000000E+00  0.10726792762E+04  0.10726792762E+04  0.25500000920E-02 0. -1.
        2   -1    0    0  501    0  0.00000000000E+00  0.00000000000E+00 -0.12327267021E+04  0.12327267021E+04  0.25500000920E-02 0.  1.
    10030    2    1    2    0    0  0.00000000000E+00  0.00000000000E+00 -0.16004742591E+03  0.23054059784E+04  0.22998438092E+04 0.  0.
        3    1    3    3  502    0 -0.70138340521E+03 -0.90692889193E+03  0.88568428985E+01  0.11465326642E+04  0.10100000352E+00 0. -1.
       -3    1    3    3    0  502  0.70138340521E+03  0.90692889193E+03 -0.16890426881E+03  0.11588733142E+04  0.10100000352E+00 0.  1.
</event>
<event>
 5   0  0.1689444E-06  0.2296509E+04  0.7818609E-02  0.8479299E-01
       -2   -1    0    0    0  501  0.00000000000E+00  0.00000000000E+00  0.60444585977E+03  0.60444585978E+03  0.25500000920E-02 0. -1.
        2   -1    0    0  501    0  0.00000000000E+00  0.00000000000E+00 -0.21813182804E+04  0.21813182804E+04  0.25500000920E-02 0.  1.
    10030    2    1    2    0    0  0.00000000000E+00  0.00000000000E+00 -0.15768724206E+04  0.27857641401E+04  0.22965093541E+04 0.  0.
        2    1    3    3  502    0  0.66941490075E+03 -0.92815982786E+03 -0.90282188859E+03  0.14576296985E+04  0.25500000920E-02 0. -1.
       -2    1    3    3    0  502 -0.66941490075E+03  0.92815982786E+03 -0.67405053199E+03  0.13281344416E+04  0.25500000920E-02 0.  1.
</event>
<event>
 5   0  0.7761069E-07  0.2298508E+04  0.7818609E-02  0.8478510E-01
        1   -1    0    0  501    0  0.00000000000E+00  0.00000000000E+00  0.48008357923E+03  0.48008357926E+03  0.50400001928E-02 0. -1.
       -1   -1    0    0    0  501  0.00000000000E+00  0.00000000000E+00 -0.27511548082E+04  0.27511548082E+04  0.50400001928E-02 0.  1.
    10030    2    1    2    0    0  0.00000000000E+00  0.00000000000E+00 -0.22710712290E+04  0.32312383875E+04  0.22985075570E+04 0.  0.
        1    1    3    3  502    0  0.47998017196E+03 -0.68529292888E+03 -0.27915505409E+02  0.83713000144E+03  0.50400001928E-02 0. -1.
       -1    1    3    3    0  502 -0.47998017196E+03  0.68529292888E+03 -0.22431557236E+04  0.23941083861E+04  0.50400001928E-02 0.  1.
</event>
<event>
 5   0  0.1825521E-06  0.2300082E+04  0.7818609E-02  0.8477889E-01
       -2   -1    0    0    0  501  0.00000000000E+00  0.00000000000E+00  0.11664897637E+04  0.11664897637E+04  0.25500000920E-02 0.  1.
        2   -1    0    0  501    0  0.00000000000E+00  0.00000000000E+00 -0.11338244618E+04  0.11338244618E+04  0.25500000920E-02 0. -1.
    10030    2    1    2    0    0  0.00000000000E+00  0.00000000000E+00  0.32665301824E+02  0.23003142255E+04  0.23000822842E+04 0.  0.
        5    1    3    3  502    0  0.82755908380E+03  0.18372897796E+03  0.79356104576E+03  0.11611940397E+04  0.46999998093E+01 0.  1.
       -5    1    3    3    0  502 -0.82755908380E+03 -0.18372897796E+03 -0.76089574394E+03  0.11391201858E+04  0.46999998093E+01 0. -1.
</event>
<event>
 5   0  0.1689444E-06  0.2299818E+04  0.7818609E-02  0.8477993E-01
       -2   -1    0    0    0  501  0.00000000000E+00  0.00000000000E+00  0.10136299633E+04  0.10136299633E+04  0.25500000920E-02 0. -1.
        2   -1    0    0  501    0  0.00000000000E+00  0.00000000000E+00 -0.13045107728E+04  0.13045107728E+04  0.25500000920E-02 0.  1.
    10030    2    1    2    0    0  0.00000000000E+00  0.00000000000E+00 -0.29088080951E+03  0.23181407362E+04  0.22998184336E+04 0.  0.
        2    1    3    3  502    0  0.10287145030E+04  0.23435272983E+02 -0.66284115346E+03  0.12239939279E+04  0.25500000920E-02 0. -1.
       -2    1    3    3    0  502 -0.10287145030E+04 -0.23435272983E+02  0.37196034394E+03  0.10941468083E+04  0.25500000920E-02 0.  1.
</event>
<event>
 5   0  0.1825521E-06  0.2299524E+04  0.7818609E-02  0.8478109E-01
        2   -1    0    0  501    0  0.00000000000E+00  0.00000000000E+00  0.14400828723E+04  0.14400828723E+04  0.25500000920E-02 0. -1.
       -2   -1    0    0    0  501  0.00000000000E+00  0.00000000000E+00 -0.91797020644E+03  0.91797020644E+03  0.25500000920E-02 0.  1.
    10030    2    1    2    0    0  0.00000000000E+00  0.00000000000E+00  0.52211266587E+03  0.23580530788E+04  0.22995244479E+04 0.  0.
        5    1    3    3  502    0  0.25876184710E+02  0.37609855352E+03 -0.85278116964E+03  0.93240415710E+03  0.46999998093E+01 0.  1.
       -5    1    3    3    0  502 -0.25876184710E+02 -0.37609855352E+03  0.13748938355E+04  0.14256489217E+04  0.46999998093E+01 0. -1.
</event>
<event>
 5   0  0.7761069E-07  0.2300642E+04  0.7818609E-02  0.8477668E-01
       -1   -1    0    0    0  501  0.00000000000E+00  0.00000000000E+00  0.15232816203E+04  0.15232816203E+04  0.50400001928E-02 0. -1.
        1   -1    0    0  501    0  0.00000000000E+00  0.00000000000E+00 -0.86867615355E+03  0.86867615356E+03  0.50400001928E-02 0.  1.
    10030    2    1    2    0    0  0.00000000000E+00  0.00000000000E+00  0.65460546679E+03  0.23919577739E+04  0.23006420137E+04 0.  0.
        1    1    3    3  502    0  0.32762467360E+03 -0.10280737253E+04 -0.87226432606E+02  0.10825349704E+04  0.50400001928E-02 0.  1.
       -1    1    3    3    0  502 -0.32762467360E+03  0.10280737253E+04  0.74183189939E+03  0.13094228036E+04  0.50400001928E-02 0. -1.
</event>
<event>
 5   0  0.1888779E-06  0.2299834E+04  0.7818609E-02  0.8477987E-01
       -2   -1    0    0    0  501  0.00000000000E+00  0.00000000000E+00  0.11895789484E+04  0.11895789485E+04  0.25500000920E-02 0.  1.
        2   -1    0    0  501    0  0.00000000000E+00  0.00000000000E+00 -0.11115771803E+04  0.11115771803E+04  0.25500000920E-02 0. -1.
    10030    2    1    2    0    0  0.00000000000E+00  0.00000000000E+00  0.78001768194E+02  0.23011561287E+04  0.22998337446E+04 0.  0.
        4    1    3    3  502    0 -0.41328850651E+03  0.57455102099E+03  0.94582820593E+03  0.11813165847E+04  0.12699999809E+01 0.  1.
       -4    1    3    3    0  502  0.41328850651E+03 -0.57455102099E+03 -0.86782643773E+03  0.11198395440E+04  0.12699999809E+01 0. -1.
</event>
<event>
 5   0  0.1828646E-06  0.2296686E+04  0.7818609E-02  0.8479229E-01
       -2   -1    0    0    0  501  0.00000000000E+00  0.00000000000E+00  0.62302922503E+03  0.62302922504E+03  0.25500000920E-02 0. -1.
        2   -1    0    0  501    0  0.00000000000E+00  0.00000000000E+00 -0.21165799289E+04  0.21165799289E+04  0.25500000920E-02 0.  1.
    10030    2    1    2    0    0  0.00000000000E+00  0.00000000000E+00 -0.14935507039E+04  0.27396091540E+04  0.22966855709E+04 0.  0.
        3    1    3    3  502    0 -0.90746320604E+03  0.15759959519E+03  0.71320371974E+02  0.92380393395E+03  0.10100000352E+00 0. -1.
       -3    1    3    3    0  502  0.90746320604E+03 -0.15759959519E+03 -0.15648710759E+04  0.18158052200E+04  0.10100000352E+00 0.  1.
</event>
<event>
 5   0  0.1825521E-06  0.2302720E+04  0.7818609E-02  0.8476849E-01
       -2   -1    0    0    0  501  0.00000000000E+00  0.00000000000E+00  0.19196189066E+04  0.19196189066E+04  0.25500000920E-02 0. -1.
        2   -1    0    0  501    0  0.00000000000E+00  0.00000000000E+00 -0.69056940413E+03  0.69056940414E+03  0.25500000920E-02 0.  1.
    10030    2    1    2    0    0  0.00000000000E+00  0.00000000000E+00  0.12290495024E+04  0.26101883107E+04  0.23027202040E+04 0.  0.
        5    1    3    3  502    0  0.41921791304E+03  0.80457121380E+03  0.14180720558E+04  0.16834574370E+04  0.46999998093E+01 0. -1.
       -5    1    3    3    0  502 -0.41921791304E+03 -0.80457121380E+03 -0.18902255334E+03  0.92673087375E+03  0.46999998093E+01 0.  1.
</event>
<event>
 5   0  0.1828646E-06  0.2298543E+04  0.7818609E-02  0.8478496E-01
       -2   -1    0    0    0  501  0.00000000000E+00  0.00000000000E+00  0.69528388293E+03  0.69528388294E+03  0.25500000920E-02 0. -1.
        2   -1    0    0  501    0  0.00000000000E+00  0.00000000000E+00 -0.18996920764E+04  0.18996920764E+04  0.25500000920E-02 0.  1.
    10030    2    1    2    0    0  0.00000000000E+00  0.00000000000E+00 -0.12044081935E+04  0.25949759593E+04  0.22985432633E+04 0.  0.
        3    1    3    3  502    0 -0.10148073391E+04 -0.43334935253E+03 -0.23952725625E+03  0.11291584980E+04  0.10100000352E+00 0. -1.
       -3    1    3    3    0  502  0.10148073391E+04  0.43334935253E+03 -0.96488093722E+03  0.14658174614E+04  0.10100000352E+00 0.  1.
</event>
<event>
 5   0  0.8097672E-07  0.2298752E+04  0.7818609E-02  0.8478413E-01
       -1   -1    0    0    0  501  0.00000000000E+00  0.00000000000E+00  0.12645224607E+04  0.12645224608E+04  0.50400001928E-02 0. -1.
        1   -1    0    0  501    0  0.00000000000E+00  0.00000000000E+00 -0.10447144468E+04  0.10447144468E+04  0.50400001928E-02 0.  1.
    10030    2    1    2    0    0  0.00000000000E+00  0.00000000000E+00  0.21980801397E+03  0.23092369075E+04  0.22987517335E+04 0.  0.
        3    1    3    3  502    0  0.65887734061E+03 -0.93877355961E+03  0.34396498904E+02  0.11474311637E+04  0.10100000352E+00 0.  1.
       -3    1    3    3    0  502 -0.65887734061E+03  0.93877355961E+03  0.18541151507E+03  0.11618057438E+04  0.10100000352E+00 0. -1.
</event>
<event>
 5   0  0.8097672E-07  0.2299841E+04  0.7818609E-02  0.8477984E-01
        1   -1    0    0  501    0  0.00000000000E+00  0.00000000000E+00  0.17266648791E+04  0.17266648791E+04  0.50400001928E-02 0. -1.
       -1   -1    0    0    0  501  0.00000000000E+00  0.00000000000E+00 -0.76582174766E+03  0.76582174767E+03  0.50400001928E-02 0.  1.
    10030    2    1    2    0    0  0.00000000000E+00  0.00000000000E+00  0.96084313142E+03  0.24924866268E+04  0.22998413122E+04 0.  0.
        3    1    3    3  502    0 -0.26991994496E+03  0.18418743762E+03  0.16752865328E+04  0.17068587423E+04  0.10100000352E+00 0. -1.
       -3    1    3    3    0  502  0.26991994496E+03 -0.18418743762E+03 -0.71444340140E+03  0.78562788447E+03  0.10100000352E+00 0.  1.
</event>
<event>
 5   0  0.1888779E-06  0.2299405E+04  0.7818609E-02  0.8478156E-01
        2   -1    0    0  501    0  0.00000000000E+00  0.00000000000E+00  0.11673267554E+04  0.11673267554E+04  0.25500000920E-02 0.  1.
       -2   -1    0    0    0  501  0.00000000000E+00  0.00000000000E+00 -0.11323445400E+04  0.11323445400E+04  0.25500000920E-02 0. -1.
    10030    2    1    2    0    0  0.00000000000E+00  0.00000000000E+00  0.34982215447E+02  0.22996712954E+04  0.22994052082E+04 0.  0.
        4    1    3    3  502    0 -0.83733711728E+03  0.61393649019E+03 -0.47628963595E+03  0.11423243376E+04  0.12699999809E+01 0. -1.
       -4    1    3    3    0  502  0.83733711728E+03 -0.61393649019E+03  0.51127185139E+03  0.11573469579E+04  0.12699999809E+01 0.  1.
</event>
<event>
 5   0  0.7932912E-07  0.2299229E+04  0.7818609E-02  0.8478225E-01
       -1   -1    0    0    0  501  0.00000000000E+00  0.00000000000E+00  0.48932851941E+03  0.48932851943E+03  0.50400001928E-02 0.  1.
        1   -1    0    0  501    0  0.00000000000E+00  0.00000000000E+00 -0.27008723363E+04  0.27008723363E+04  0.50400001928E-02 0. -1.
    10030    2    1    2    0    0  0.00000000000E+00  0.00000000000E+00 -0.22115438169E+04  0.31902008557E+04  0.22992293156E+04 0.  0.
        5    1    3    3  502    0 -0.64855905681E+03 -0.55346280191E+03 -0.21757218857E+04  0.23368221449E+04  0.46999998093E+01 0. -1.
       -5    1    3    3    0  502  0.64855905681E+03  0.55346280191E+03 -0.35821931192E+02  0.85337871078E+03  0.46999998093E+01 0.  1.
</event>
<event>
 5   0  0.6319125E-07  0.2299919E+04  0.7818609E-02  0.8477953E-01
        3   -1    0    0  501    0  0.00000000000E+00  0.00000000000E+00  0.11204554116E+04  0.11204554161E+04  0.10100000352E+00 0. -1.
       -3   -1    0    0    0  501  0.00000000000E+00  0.00000000000E+00 -0.11802403912E+04  0.11802403955E+04  0.10100000352E+00 0.  1.
    10030    2    1    2    0    0  0.00000000000E+00  0.00000000000E+00 -0.59784979655E+02  0.23006958117E+04  0.22999189060E+04 0.  0.
        1    1    3    3  502    0  0.81028382775E+03  0.30331662930E+03 -0.78767454073E+03  0.11700393332E+04  0.50400001928E-02 0.  1.
       -1    1    3    3    0  502 -0.81028382775E+03 -0.30331662930E+03  0.72788956108E+03  0.11306564785E+04  0.50400001928E-02 0. -1.
</event>
<event>
 5   0  0.8097672E-07  0.2300019E+04  0.7818609E-02  0.8477914E-01
        1   -1    0    0  501    0  0.00000000000E+00  0.00000000000E+00  0.11062787862E+04  0.11062787862E+04  0.50400001928E-02 0.  1.
       -1   -1    0    0    0  501  0.00000000000E+00  0.00000000000E+00 -0.11954683584E+04  0.11954683584E+04  0.50400001928E-02 0. -1.
    10030    2    1    2    0    0  0.00000000000E+00  0.00000000000E+00 -0.89189572202E+02  0.23017471446E+04  0.23000185082E+04 0.  0.
        3    1    3    3  502    0 -0.10777858741E+04 -0.11796972487E+03 -0.42826527871E+03  0.11657402822E+04  0.10100000352E+00 0.  1.
       -3    1    3    3    0  502  0.10777858741E+04  0.11796972487E+03  0.33907570650E+03  0.11360068624E+04  0.10100000352E+00 0. -1.
</event>
<event>
 5   0  0.6319125E-07  0.2299148E+04  0.7818609E-02  0.8478257E-01
       -3   -1    0    0    0  501  0.00000000000E+00  0.00000000000E+00  0.21696375528E+04  0.21696375552E+04  0.10100000352E+00 0. -1.
        3   -1    0    0  501    0  0.00000000000E+00  0.00000000000E+00 -0.60909749204E+03  0.60909750041E+03  0.10100000352E+00 0.  1.
    10030    2    1    2    0    0  0.00000000000E+00  0.00000000000E+00  0.15605400608E+04  0.27787350556E+04  0.22991483701E+04 0.  0.
        2    1    3    3  502    0 -0.30625704889E+03 -0.65891738216E+03  0.18569056471E+04  0.19940070408E+04  0.25500000920E-02 0. -1.
       -2    1    3    3    0  502  0.30625704889E+03  0.65891738216E+03 -0.29636558628E+03  0.78472801482E+03  0.25500000920E-02 0.  1.
</event>
<event>
 5   0  0.8097672E-07  0.2300027E+04  0.7818609E-02  0.8477911E-01
        1   -1    0    0  501    0  0.00000000000E+00  0.00000000000E+00  0.95900119548E+03  0.95900119549E+03  0.50400001928E-02 0. -1.
       -1   -1    0    0    0  501  0.00000000000E+00  0.00000000000E+00 -0.13790711544E+04  0.13790711544E+04  0.50400001928E-02 0.  1.
    10030    2    1    2    0    0  0.00000000000E+00  0.00000000000E+00 -0.42006995893E+03  0.23380723499E+04  0.23000268570E+04 0.  0.
        3    1    3    3  502    0  0.92405205883E+03 -0.56484906251E+03  0.18315001823E+03  0.10983945604E+04  0.10100000352E+00 0. -1.
       -3    1    3    3    0  502 -0.92405205883E+03  0.56484906251E+03 -0.60321997716E+03  0.12396777895E+04  0.10100000352E+00 0.  1.
</event>
<event>
 5   0  0.1744876E-06  0.2300135E+04  0.7818609E-02  0.8477868E-01
        2   -1    0    0  501    0  0.00000000000E+00  0.00000000000E+00  0.19379299620E+04  0.19379299621E+04  0.25500000920E-02 0. -1.
       -2   -1    0    0    0  501  0.00000000000E+00  0.00000000000E+00 -0.68250953852E+03  0.68250953852E+03  0.25500000920E-02 0.  1.
    10030    2    1    2    0    0  0.00000000000E+00  0.00000000000E+00  0.12554204235E+04  0.26204395006E+04  0.23001353735E+04 0.  0.
        1    1    3    3  502    0 -0.24890230932E+03 -0.13220182928E+03  0.18979794546E+04  0.19187901639E+04  0.50400001928E-02 0. -1.
       -1    1    3    3    0  502  0.24890230932E+03  0.13220182928E+03 -0.64255903102E+03  0.70164933665E+03  0.50400001928E-02 0.  1.
</event>
<event>
 5   0  0.7607231E-07  0.2300294E+04  0.7818609E-02  0.8477805E-01
        1   -1    0    0  501    0  0.00000000000E+00  0.00000000000E+00  0.15155828049E+04  0.15155828049E+04  0.50400001928E-02 0. -1.
       -1   -1    0    0    0  501  0.00000000000E+00  0.00000000000E+00 -0.87282433552E+03  0.87282433554E+03  0.50400001928E-02 0.  1.
    10030    2    1    2    0    0  0.00000000000E+00  0.00000000000E+00  0.64275846935E+03  0.23884071404E+04  0.23002935070E+04 0.  0.
        2    1    3    3  502    0 -0.35109851614E+03 -0.30308442463E+03  0.14141714691E+04  0.14882913964E+04  0.25500000920E-02 0. -1.
       -2    1    3    3    0  502  0.35109851614E+03  0.30308442463E+03 -0.77141299975E+03  0.90011574404E+03  0.25500000920E-02 0.  1.
</event>
<event>
 5   0  0.8097672E-07  0.2299979E+04  0.7818609E-02  0.8477929E-01
       -1   -1    0    0    0  501  0.00000000000E+00  0.00000000000E+00  0.75721983186E+03  0.75721983188E+03  0.50400001928E-02 0.  1.
        1   -1    0    0  501    0  0.00000000000E+00  0.00000000000E+00 -0.17464886138E+04  0.17464886138E+04  0.50400001928E-02 0. -1.
    10030    2    1    2    0    0  0.00000000000E+00  0.00000000000E+00 -0.98926878191E+03  0.25037084457E+04  0.22999789690E+04 0.  0.
        3    1    3    3  502    0 -0.91001670656E+03 -0.64004950050E+02  0.26756420316E+03  0.95069324856E+03  0.10100000352E+00 0.  1.
       -3    1    3    3    0  502  0.91001670656E+03  0.64004950050E+02 -0.12568329851E+04  0.15530151971E+04  0.10100000352E+00 0. -1.
</event>
<event>
 5   0  0.7607231E-07  0.2300055E+04  0.7818609E-02  0.8477899E-01
        1   -1    0    0  501    0  0.00000000000E+00  0.00000000000E+00  0.17644774990E+04  0.17644774990E+04  0.50400001928E-02 0. -1.
       -1   -1    0    0    0  501  0.00000000000E+00  0.00000000000E+00 -0.74954960784E+03  0.74954960785E+03  0.50400001928E-02 0.  1.
    10030    2    1    2    0    0  0.00000000000E+00  0.00000000000E+00  0.10149278912E+04  0.25140271069E+04  0.23000551450E+04 0.  0.
        2    1    3    3  502    0 -0.29084699238E+03 -0.10182237348E+04  0.99773575447E+03  0.14549392368E+04  0.25500000920E-02 0. -1.
       -2    1    3    3    0  502  0.29084699238E+03  0.10182237348E+04  0.17192136725E+02  0.10590878701E+04  0.25500000920E-02 0.  1.
</event>
<event>
 5   0  0.8097672E-07  0.2303069E+04  0.7818609E-02  0.8476712E-01
       -1   -1    0    0    0  501  0.00000000000E+00  0.00000000000E+00  0.10026323284E+04  0.10026323284E+04  0.50400001928E-02 0.  1.
        1   -1    0    0  501    0  0.00000000000E+00  0.00000000000E+00 -0.13225498146E+04  0.13225498147E+04  0.50400001928E-02 0. -1.
    10030    2    1    2    0    0  0.00000000000E+00  0.00000000000E+00 -0.31991748626E+03  0.23251821431E+04  0.23030685618E+04 0.  0.
        3    1    3    3  502    0  0.41003983513E+03 -0.80705248661E+03  0.55860883744E+03  0.10637246946E+04  0.10100000352E+00 0.  1.
       -3    1    3    3    0  502 -0.41003983513E+03  0.80705248661E+03 -0.87852632370E+03  0.12614574484E+04  0.10100000352E+00 0. -1.
</event>
<event>
 5   0  0.1825521E-06  0.2299784E+04  0.7818609E-02  0.8478006E-01
       -2   -1    0    0    0  501  0.00000000000E+00  0.00000000000E+00  0.72010623714E+03  0.72010623715E+03  0.25500000920E-02 0. -1.
        2   -1    0    0  501    0  0.00000000000E+00  0.00000000000E+00 -0.18361901691E+04  0.18361901691E+04  0.25500000920E-02 0.  1.
    10030    2    1    2    0    0  0.00000000000E+00  0.00000000000E+00 -0.11160839319E+04  0.25562964062E+04  0.22997843319E+04 0.  0.
        5    1    3    3  502    0  0.61157938409E+03  0.28631719928E+03  0.47647819692E+03  0.82647470850E+03  0.46999998093E+01 0. -1.
       -5    1    3    3    0  502 -0.61157938409E+03 -0.28631719928E+03 -0.15925621289E+04  0.17298216977E+04  0.46999998093E+01 0.  1.
</event>
<event>
 5   0  0.1744876E-06  0.2299013E+04  0.7818609E-02  0.8478310E-01
        2   -1    0    0  501    0  0.00000000000E+00  0.00000000000E+00  0.16949718181E+04  0.16949718181E+04  0.25500000920E-02 0.  1.
       -2   -1    0    0    0  501  0.00000000000E+00  0.00000000000E+00 -0.77957949423E+03  0.77957949423E+03  0.25500000920E-02 0. -1.
    10030    2    1    2    0    0  0.00000000000E+00  0.00000000000E+00  0.91539232384E+03  0.24745513123E+04  0.22990130688E+04 0.  0.
        1    1    3    3  502    0  0.48296175265E+02  0.93292267325E+03 -0.26329056461E+03  0.97056641001E+03  0.50400001928E-02 0. -1.
       -1    1    3    3    0  502 -0.48296175265E+02 -0.93292267325E+03  0.11786828884E+04  0.15039849023E+04  0.50400001928E-02 0.  1.
</event>
<event>
 5   0  0.7761069E-07  0.2299569E+04  0.7818609E-02  0.8478091E-01
       -1   -1    0    0    0  501  0.00000000000E+00  0.00000000000E+00  0.61905755374E+03  0.61905755376E+03  0.50400001928E-02 0.  1.
        1   -1    0    0  501    0  0.00000000000E+00  0.00000000000E+00 -0.21355104458E+04  0.21355104458E+04  0.50400001928E-02 0. -1.
    10030    2    1    2    0    0  0.00000000000E+00  0.00000000000E+00 -0.15164528920E+04  0.27545679995E+04  0.22995685444E+04 0.  0.
        1    1    3    3  502    0  0.10443307338E+04 -0.12851206409E+03 -0.13134741663E+04  0.16829606109E+04  0.50400001928E-02 0. -1.
       -1    1    3    3    0  502 -0.10443307338E+04  0.12851206409E+03 -0.20297872572E+03  0.10716073886E+04  0.50400001928E-02 0.  1.
</event>
<event>
 5   0  0.1689444E-06  0.2297858E+04  0.7818609E-02  0.8478766E-01
        2   -1    0    0  501    0  0.00000000000E+00  0.00000000000E+00  0.13809151132E+04  0.13809151132E+04  0.25500000920E-02 0.  1.
       -2   -1    0    0    0  501  0.00000000000E+00  0.00000000000E+00 -0.95591524000E+03  0.95591524000E+03  0.25500000920E-02 0. -1.
    10030    2    1    2    0    0  0.00000000000E+00  0.00000000000E+00  0.42499987318E+03  0.23368303532E+04  0.22978579606E+04 0.  0.
        2    1    3    3  502    0 -0.50376145411E+03  0.70168397900E+02  0.12601855589E+04  0.13589580014E+04  0.25500000920E-02 0.  1.
       -2    1    3    3    0  502  0.50376145411E+03 -0.70168397900E+02 -0.83518568572E+03  0.97787235177E+03  0.25500000920E-02 0. -1.
</event>
<event>
 5   0  0.1825521E-06  0.2300824E+04  0.7818609E-02  0.8477596E-01
        2   -1    0    0  501    0  0.00000000000E+00  0.00000000000E+00  0.26173667533E+04  0.26173667533E+04  0.25500000920E-02 0.  1.
       -2   -1    0    0    0  501  0.00000000000E+00  0.00000000000E+00 -0.50564089087E+03  0.50564089088E+03  0.25500000920E-02 0. -1.
    10030    2    1    2    0    0  0.00000000000E+00  0.00000000000E+00  0.21117258624E+04  0.31230076442E+04  0.23008239019E+04 0.  0.
        5    1    3    3  502    0 -0.47764383984E+03 -0.10836498660E+03 -0.35703871921E+03  0.60612320948E+03  0.46999998093E+01 0. -1.
       -5    1    3    3    0  502  0.47764383984E+03  0.10836498660E+03  0.24687645816E+04  0.25168844347E+04  0.46999998093E+01 0.  1.
</event>
<event>
 5   0  0.7607231E-07  0.2299628E+04  0.7818609E-02  0.8478068E-01
       -1   -1    0    0    0  501  0.00000000000E+00  0.00000000000E+00  0.92235728037E+03  0.92235728038E+03  0.50400001928E-02 0.  1.
        1   -1    0    0  501    0  0.00000000000E+00  0.00000000000E+00 -0.14333621160E+04  0.14333621160E+04  0.50400001928E-02 0. -1.
    10030    2    1    2    0    0  0.00000000000E+00  0.00000000000E+00 -0.51100483564E+03  0.23557193964E+04  0.22996277813E+04 0.  0.
        2    1    3    3  502    0  0.10139315064E+04  0.52569444719E+03 -0.11936916915E+03  0.11483295477E+04  0.25500000920E-02 0. -1.
       -2    1    3    3    0  502 -0.10139315064E+04 -0.52569444719E+03 -0.39163566649E+03  0.12073898487E+04  0.25500000920E-02 0.  1.
</event>
<event>
 5   0  0.1689444E-06  0.2300755E+04  0.7818609E-02  0.8477623E-01
        2   -1    0    0  501    0  0.00000000000E+00  0.00000000000E+00  0.12350936642E+04  0.12350936642E+04  0.25500000920E-02 0. -1.
       -2   -1    0    0    0  501  0.00000000000E+00  0.00000000000E+00 -0.10714722065E+04  0.10714722065E+04  0.25500000920E-02 0.  1.
    10030    2    1    2    0    0  0.00000000000E+00  0.00000000000E+00  0.16362145769E+03  0.23065658707E+04  0.23007551226E+04 0.  0.
        2    1    3    3  502    0  0.10837945348E+03 -0.44702441280E+03 -0.97526757364E+03  0.10782966993E+04  0.25500000920E-02 0.  1.
       -2    1    3    3    0  502 -0.10837945348E+03  0.44702441280E+03  0.11388890313E+04  0.12282691713E+04  0.25500000920E-02 0. -1.
</event>
<event>
 5   0  0.1828646E-06  0.2300084E+04  0.7818609E-02  0.8477888E-01
        2   -1    0    0  501    0  0.00000000000E+00  0.00000000000E+00  0.79210894143E+03  0.79210894143E+03  0.25500000920E-02 0.  1.
       -2   -1    0    0    0  501  0.00000000000E+00  0.00000000000E+00 -0.16697150338E+04  0.16697150338E+04  0.25500000920E-02 0. -1.
    10030    2    1    2    0    0  0.00000000000E+00  0.00000000000E+00 -0.87760609237E+03  0.24618239752E+04  0.23000836575E+04 0.  0.
        3    1    3    3  502    0 -0.22542189049E+03  0.84438423246E+03  0.36128941582E+03  0.94569012522E+03  0.10100000352E+00 0.  1.
       -3    1    3    3    0  502  0.22542189049E+03 -0.84438423246E+03 -0.12388955082E+04  0.15161338500E+04  0.10100000352E+00 0. -1.
</event>
<event>
 5   0  0.7932912E-07  0.2299665E+04  0.7818609E-02  0.8478053E-01
        1   -1    0    0  501    0  0.00000000000E+00  0.00000000000E+00  0.66125418781E+03  0.66125418783E+03  0.50400001928E-02 0.  1.
       -1   -1    0    0    0  501  0.00000000000E+00  0.00000000000E+00 -0.19994050106E+04  0.19994050106E+04  0.50400001928E-02 0. -1.
    10030    2    1    2    0    0  0.00000000000E+00  0.00000000000E+00 -0.13381508228E+04  0.26606591985E+04  0.22996651378E+04 0.  0.
        5    1    3    3  502    0 -0.60381679087E+03  0.97491329321E+03 -0.76616637988E+03  0.13791604903E+04  0.46999998093E+01 0. -1.
       -5    1    3    3    0  502  0.60381679087E+03 -0.97491329321E+03 -0.57198444295E+03  0.12814987082E+04  0.46999998093E+01 0.  1.
</event>
<event>
 5   0  0.7932912E-07  0.2300185E+04  0.7818609E-02  0.8477848E-01
        1   -1    0    0  501    0  0.00000000000E+00  0.00000000000E+00  0.91980230861E+03  0.91980230862E+03  0.50400001928E-02 0.  1.
       -1   -1    0    0    0  501  0.00000000000E+00  0.00000000000E+00 -0.14380396473E+04  0.14380396473E+04  0.50400001928E-02 0. -1.
    10030    2    1    2    0    0  0.00000000000E+00  0.00000000000E+00 -0.51823733865E+03  0.23578419559E+04  0.23001845034E+04 0.  0.
        5    1    3    3  502    0 -0.63302271020E+03 -0.28064299246E+03  0.68216466711E+03  0.97203341707E+03  0.46999998093E+01 0.  1.
       -5    1    3    3    0  502  0.63302271020E+03  0.28064299246E+03 -0.12004020058E+04  0.13858085388E+04  0.46999998093E+01 0. -1.
</event>
<event>
 5   0  0.1744876E-06  0.2300259E+04  0.7818609E-02  0.8477819E-01
        2   -1    0    0  501    0  0.00000000000E+00  0.00000000000E+00  0.98370556309E+03  0.98370556309E+03  0.25500000920E-02 0.  1.
       -2   -1    0    0    0  501  0.00000000000E+00  0.00000000000E+00 -0.13447089277E+04  0.13447089277E+04  0.25500000920E-02 0. -1.
    10030    2    1    2    0    0  0.00000000000E+00  0.00000000000E+00 -0.36100336458E+03  0.23284144908E+04  0.23002588140E+04 0.  0.
        1    1    3    3  502    0 -0.86899819186E+03  0.35981933544E+03 -0.85054800961E+03  0.12680929494E+04  0.50400001928E-02 0. -1.
       -1    1    3    3    0  502  0.86899819186E+03 -0.35981933544E+03  0.48954464503E+03  0.10603215414E+04  0.50400001928E-02 0.  1.
</event>
<event>
 5   0  0.8108242E-07  0.2300751E+04  0.7818609E-02  0.8477625E-01
       -1   -1    0    0    0  501  0.00000000000E+00  0.00000000000E+00  0.86856854416E+03  0.86856854418E+03  0.50400001928E-02 0.  1.
        1   -1    0    0  501    0  0.00000000000E+00  0.00000000000E+00 -0.15236144656E+04  0.15236144656E+04  0.50400001928E-02 0. -1.
    10030    2    1    2    0    0  0.00000000000E+00  0.00000000000E+00 -0.65504592147E+03  0.23921830098E+04  0.23007508325E+04 0.  0.
        4    1    3    3  502    0 -0.33158164118E+03 -0.88843221534E+02 -0.14691190459E+04  0.15086921113E+04  0.12699999809E+01 0. -1.
       -4    1    3    3    0  502  0.33158164118E+03  0.88843221534E+02  0.81407312448E+03  0.88349089847E+03  0.12699999809E+01 0.  1.
</event>
<event>
 5   0  0.7607231E-07  0.2300380E+04  0.7818609E-02  0.8477771E-01
        1   -1    0    0  501    0  0.00000000000E+00  0.00000000000E+00  0.10601921730E+04  0.10601921731E+04  0.50400001928E-02 0.  1.
       -1   -1    0    0    0  501  0.00000000000E+00  0.00000000000E+00 -0.12478271685E+04  0.12478271685E+04  0.50400001928E-02 0. -1.
    10030    2    1    2    0    0  0.00000000000E+00  0.00000000000E+00 -0.18763499545E+03  0.23080193416E+04  0.23003796186E+04 0.  0.
        2    1    3    3  502    0 -0.61666672838E+02 -0.11060563357E+04  0.21668273833E+03  0.11287669402E+04  0.25500000920E-02 0.  1.
       -2    1    3    3    0  502  0.61666672838E+02  0.11060563357E+04 -0.40431773378E+03  0.11792524013E+04  0.25500000920E-02 0. -1.
</event>
<event>
 5   0  0.1888779E-06  0.2301824E+04  0.7818609E-02  0.8477202E-01
        2   -1    0    0  501    0  0.00000000000E+00  0.00000000000E+00  0.13001049036E+04  0.13001049036E+04  0.25500000920E-02 0.  1.
       -2   -1    0    0    0  501  0.00000000000E+00  0.00000000000E+00 -0.10188399887E+04  0.10188399887E+04  0.25500000920E-02 0. -1.
    10030    2    1    2    0    0  0.00000000000E+00  0.00000000000E+00  0.28126491489E+03  0.23189448923E+04  0.23018243767E+04 0.  0.
        4    1    3    3  502    0 -0.15182088891E+03  0.19420432168E+03 -0.99193212760E+03  0.10221036442E+04  0.12699999809E+01 0. -1.
       -4    1    3    3    0  502  0.15182088891E+03 -0.19420432168E+03  0.12731970425E+04  0.12968412481E+04  0.12699999809E+01 0.  1.
</event>
<event>
 5   0  0.1689444E-06  0.2299486E+04  0.7818609E-02  0.8478124E-01
       -2   -1    0    0    0  501  0.00000000000E+00  0.00000000000E+00  0.75445443745E+03  0.75445443745E+03  0.25500000920E-02 0.  1.
        2   -1    0    0  501    0  0.00000000000E+00  0.00000000000E+00 -0.17521390850E+04  0.17521390850E+04  0.25500000920E-02 0. -1.
    10030    2    1    2    0    0  0.00000000000E+00  0.00000000000E+00 -0.99768464755E+03  0.25065935225E+04  0.22994861232E+04 0.  0.
        2    1    3    3  502    0 -0.62023957466E+03  0.36065307875E+03 -0.14781697434E+04  0.16430926826E+04  0.25500000920E-02 0. -1.
       -2    1    3    3    0  502  0.62023957466E+03 -0.36065307875E+03  0.48048509584E+03  0.86350083990E+03  0.25500000920E-02 0.  1.
</event>
<event>
 5   0  0.1828646E-06  0.2299951E+04  0.7818609E-02  0.8477940E-01
        2   -1    0    0  501    0  0.00000000000E+00  0.00000000000E+00  0.26116014284E+04  0.26116014284E+04  0.25500000920E-02 0.  1.
       -2   -1    0    0    0  501  0.00000000000E+00  0.00000000000E+00 -0.50637286508E+03  0.50637286508E+03  0.25500000920E-02 0. -1.
    10030    2    1    2    0    0  0.00000000000E+00  0.00000000000E+00  0.21052285634E+04  0.31179742935E+04  0.22999513889E+04 0.  0.
        3    1    3    3  502    0 -0.10399923507E+04 -0.40676854544E+03  0.68036174139E+03  0.13076455362E+04  0.10100000352E+00 0.  1.
       -3    1    3    3    0  502  0.10399923507E+04  0.40676854544E+03  0.14248668220E+04  0.18103287573E+04  0.10100000352E+00 0. -1.
</event>
<event>
 5   0  0.6319125E-07  0.2300058E+04  0.7818609E-02  0.8477898E-01
       -4   -1    0    0    0  501  0.00000000000E+00  0.00000000000E+00  0.16135296856E+04  0.16135301854E+04  0.12699999809E+01 0.  1.
        4   -1    0    0  501    0  0.00000000000E+00  0.00000000000E+00 -0.81967181850E+03  0.81967280237E+03  0.12699999809E+01 0. -1.
    10030    2    1    2    0    0  0.00000000000E+00  0.00000000000E+00  0.79385786714E+03  0.24332029878E+04  0.23000579268E+04 0.  0.
        4    1    3    3  502    0 -0.85993095735E+03 -0.62260352320E+03  0.86461653317E+03  0.13691894540E+04  0.12699999809E+01 0.  1.
       -4    1    3    3    0  502  0.85993095735E+03  0.62260352320E+03 -0.70758666034E+02  0.10640135339E+04  0.12699999809E+01 0. -1.
</event>
<event>
 5   0  0.1888779E-06  0.2300060E+04  0.7818609E-02  0.8477897E-01
       -2   -1    0    0    0  501  0.00000000000E+00  0.00000000000E+00  0.21936963565E+04  0.21936963565E+04  0.25500000920E-02 0. -1.
        2   -1    0    0  501    0  0.00000000000E+00  0.00000000000E+00 -0.60289530461E+03  0.60289530462E+03  0.25500000920E-02 0.  1.
    10030    2    1    2    0    0  0.00000000000E+00  0.00000000000E+00  0.15908010519E+04  0.27965916611E+04  0.23000602019E+04 0.  0.
        4    1    3    3  502    0 -0.10421084973E+04  0.23206834173E+03  0.13151391821E+04  0.16939417099E+04  0.12699999809E+01 0. -1.
       -4    1    3    3    0  502  0.10421084973E+04 -0.23206834173E+03  0.27566186974E+03  0.11026499512E+04  0.12699999809E+01 0.  1.
</event>
<event>
 5   0  0.1828646E-06  0.2298877E+04  0.7818609E-02  0.8478364E-01
       -2   -1    0    0    0  501  0.00000000000E+00  0.00000000000E+00  0.81440841019E+03  0.81440841019E+03  0.25500000920E-02 0. -1.
        2   -1    0    0  501    0  0.00000000000E+00  0.00000000000E+00 -0.16222928100E+04  0.16222928100E+04  0.25500000920E-02 0.  1.
    10030    2    1    2    0    0  0.00000000000E+00  0.00000000000E+00 -0.80788439986E+03  0.24367012202E+04  0.22988770374E+04 0.  0.
        3    1    3    3  502    0  0.98355372075E+03  0.52429698498E+03 -0.10612818314E+03  0.11196108483E+04  0.10100000352E+00 0. -1.
       -3    1    3    3    0  502 -0.98355372075E+03 -0.52429698498E+03 -0.70175621672E+03  0.13170903720E+04  0.10100000352E+00 0.  1.
</event>
<event>
 5   0  0.8097672E-07  0.2300219E+04  0.7818609E-02  0.8477835E-01
        1   -1    0    0  501    0  0.00000000000E+00  0.00000000000E+00  0.15489092228E+04  0.15489092228E+04  0.50400001928E-02 0. -1.
       -1   -1    0    0    0  501  0.00000000000E+00  0.00000000000E+00 -0.85398934502E+03  0.85398934503E+03  0.50400001928E-02 0.  1.
    10030    2    1    2    0    0  0.00000000000E+00  0.00000000000E+00  0.69491987777E+03  0.24028985678E+04  0.23002190963E+04 0.  0.
        3    1    3    3  502    0  0.65859376467E+03  0.27921990351E+03 -0.59331996071E+03  0.92937510584E+03  0.10100000352E+00 0.  1.
       -3    1    3    3    0  502 -0.65859376467E+03 -0.27921990351E+03  0.12882398385E+04  0.14735234620E+04  0.10100000352E+00 0. -1.
</event>
<event>
 5   0  0.1744876E-06  0.2307761E+04  0.7818609E-02  0.8474868E-01
        2   -1    0    0  501    0  0.00000000000E+00  0.00000000000E+00  0.43938220039E+03  0.43938220040E+03  0.25500000920E-02 0.  1.
       -2   -1    0    0    0  501  0.00000000000E+00  0.00000000000E+00 -0.30302541486E+04  0.30302541486E+04  0.25500000920E-02 0. -1.
    10030    2    1    2    0    0  0.00000000000E+00  0.00000000000E+00 -0.25908719482E+04  0.34696363490E+04  0.23077605903E+04 0.  0.
        1    1    3    3  502    0  0.26667127640E+02 -0.53733989719E+03  0.23927255270E+03  0.58880952379E+03  0.50400001928E-02 0.  1.
       -1    1    3    3    0  502 -0.26667127640E+02  0.53733989719E+03 -0.28301445009E+04  0.28808268252E+04  0.50400001928E-02 0. -1.
</event>
<event>
 5   0  0.7607231E-07  0.2300760E+04  0.7818609E-02  0.8477622E-01
        1   -1    0    0  501    0  0.00000000000E+00  0.00000000000E+00  0.10014771507E+04  0.10014771507E+04  0.50400001928E-02 0.  1.
       -1   -1    0    0    0  501  0.00000000000E+00  0.00000000000E+00 -0.13214218015E+04  0.13214218015E+04  0.50400001928E-02 0. -1.
    10030    2    1    2    0    0  0.00000000000E+00  0.00000000000E+00 -0.31994465076E+03  0.23228989523E+04  0.23007596491E+04 0.  0.
        2    1    3    3  502    0  0.51619918142E+03 -0.48743223761E+03  0.75390176266E+03  0.10355769643E+04  0.25500000920E-02 0.  1.
       -2    1    3    3    0  502 -0.51619918142E+03  0.48743223761E+03 -0.10738464134E+04  0.12873219880E+04  0.25500000920E-02 0. -1.
</event>
<event>
 5   0  0.7761069E-07  0.2299466E+04  0.7818609E-02  0.8478132E-01
       -1   -1    0    0    0  501  0.00000000000E+00  0.00000000000E+00  0.69244890257E+03  0.69244890259E+03  0.50400001928E-02 0.  1.
        1   -1    0    0  501    0  0.00000000000E+00  0.00000000000E+00 -0.19090010152E+04  0.19090010152E+04  0.50400001928E-02 0. -1.
    10030    2    1    2    0    0  0.00000000000E+00  0.00000000000E+00 -0.12165521126E+04  0.26014499178E+04  0.22994657275E+04 0.  0.
        1    1    3    3  502    0 -0.90162854473E+01 -0.93665716953E+02  0.68808517453E+03  0.69448957326E+03  0.50400001928E-02 0.  1.
       -1    1    3    3    0  502  0.90162854473E+01  0.93665716953E+02 -0.19046372872E+04  0.19069603445E+04  0.50400001928E-02 0. -1.
</event>
<event>
 5   0  0.1888779E-06  0.2298061E+04  0.7818609E-02  0.8478686E-01
       -2   -1    0    0    0  501  0.00000000000E+00  0.00000000000E+00  0.88993220353E+03  0.88993220353E+03  0.25500000920E-02 0. -1.
        2   -1    0    0  501    0  0.00000000000E+00  0.00000000000E+00 -0.14835643174E+04  0.14835643174E+04  0.25500000920E-02 0.  1.
    10030    2    1    2    0    0  0.00000000000E+00  0.00000000000E+00 -0.59363211388E+03  0.23734965209E+04  0.22980614979E+04 0.  0.
        4    1    3    3  502    0 -0.10739795436E+04  0.35966200945E+03 -0.96860324596E+02  0.11367375935E+04  0.12699999809E+01 0.  1.
       -4    1    3    3    0  502  0.10739795436E+04 -0.35966200945E+03 -0.49677178928E+03  0.12367589274E+04  0.12699999809E+01 0. -1.
</event>
<event>
 5   0  0.1888779E-06  0.2300047E+04  0.7818609E-02  0.8477903E-01
        2   -1    0    0  501    0  0.00000000000E+00  0.00000000000E+00  0.10217160450E+04  0.10217160450E+04  0.25500000920E-02 0. -1.
       -2   -1    0    0    0  501  0.00000000000E+00  0.00000000000E+00 -0.12944438439E+04  0.12944438439E+04  0.25500000920E-02 0.  1.
    10030    2    1    2    0    0  0.00000000000E+00  0.00000000000E+00 -0.27272779899E+03  0.23161598889E+04  0.23000469949E+04 0.  0.
        4    1    3    3  502    0  0.49683243019E+03 -0.45701037432E+03 -0.10739349207E+04  0.12684789209E+04  0.12699999809E+01 0.  1.
       -4    1    3    3    0  502 -0.49683243019E+03  0.45701037432E+03  0.80120712172E+03  0.10476809680E+04  0.12699999809E+01 0. -1.
</event>
<event>
 5   0  0.1888779E-06  0.2298680E+04  0.7818609E-02  0.8478442E-01
        2   -1    0    0  501    0  0.00000000000E+00  0.00000000000E+00  0.15246475225E+04  0.15246475225E+04  0.25500000920E-02 0. -1.
       -2   -1    0    0    0  501  0.00000000000E+00  0.00000000000E+00 -0.86641848219E+03  0.86641848220E+03  0.25500000920E-02 0.  1.
    10030    2    1    2    0    0  0.00000000000E+00  0.00000000000E+00  0.65822904030E+03  0.23910660047E+04  0.22986803104E+04 0.  0.
        4    1    3    3  502    0  0.43540787635E+03 -0.41150661301E+03 -0.69115485502E+03  0.91466625490E+03  0.12699999809E+01 0.  1.
       -4    1    3    3    0  502 -0.43540787635E+03  0.41150661301E+03  0.13493838953E+04  0.14763997498E+04  0.12699999809E+01 0. -1.
</event>
<event>
 5   0  0.6319125E-07  0.2299740E+04  0.7818609E-02  0.8478024E-01
       -3   -1    0    0    0  501  0.00000000000E+00  0.00000000000E+00  0.79602532128E+03  0.79602532769E+03  0.10100000352E+00 0. -1.
        3   -1    0    0  501    0  0.00000000000E+00  0.00000000000E+00 -0.16610035862E+04  0.16610035893E+04  0.10100000352E+00 0.  1.
    10030    2    1    2    0    0  0.00000000000E+00  0.00000000000E+00 -0.86497826495E+03  0.24570289170E+04  0.22997399201E+04 0.  0.
        3    1    3    3  502    0 -0.56963380718E+03  0.16952129845E+03  0.61920420560E+03  0.85827385102E+03  0.10100000352E+00 0. -1.
       -3    1    3    3    0  502  0.56963380718E+03 -0.16952129845E+03 -0.14841824705E+04  0.15987550660E+04  0.10100000352E+00 0.  1.
</event>
<event>
 5   0  0.7761069E-07  0.2298722E+04  0.7818609E-02  0.8478425E-01
       -1   -1    0    0    0  501  0.00000000000E+00  0.00000000000E+00  0.99545085716E+03  0.99545085717E+03  0.50400001928E-02 0.  1.
        1   -1    0    0  501    0  0.00000000000E+00  0.00000000000E+00 -0.13270673208E+04  0.13270673208E+04  0.50400001928E-02 0. -1.
    10030    2    1    2    0    0  0.00000000000E+00  0.00000000000E+00 -0.33161646364E+03  0.23225181780E+04  0.22987216465E+04 0.  0.
        1    1    3    3  502    0  0.17707554670E+03 -0.13554396660E+02 -0.13131211025E+04  0.13250760358E+04  0.50400001928E-02 0. -1.
       -1    1    3    3    0  502 -0.17707554670E+03  0.13554396660E+02  0.98150463883E+03  0.99744214217E+03  0.50400001928E-02 0.  1.
</event>
<event>
 5   0  0.6319125E-07  0.2299308E+04  0.7818609E-02  0.8478194E-01
        3   -1    0    0  501    0  0.00000000000E+00  0.00000000000E+00  0.16824295605E+04  0.16824295636E+04  0.10100000352E+00 0. -1.
       -3   -1    0    0    0  501  0.00000000000E+00  0.00000000000E+00 -0.78559254333E+03  0.78559254982E+03  0.10100000352E+00 0.  1.
    10030    2    1    2    0    0  0.00000000000E+00  0.00000000000E+00  0.89683701720E+03  0.24680221134E+04  0.22993078343E+04 0.  0.
        5    1    3    3  502    0 -0.22327029162E+02 -0.11466189326E+04  0.53461379428E+03  0.12653329490E+04  0.46999998093E+01 0. -1.
       -5    1    3    3    0  502  0.22327029162E+02  0.11466189326E+04  0.36222322293E+03  0.12026891644E+04  0.46999998093E+01 0.  1.
</event>
<event>
 5   0  0.1828646E-06  0.2298861E+04  0.7818609E-02  0.8478370E-01
        2   -1    0    0  501    0  0.00000000000E+00  0.00000000000E+00  0.16421838240E+04  0.16421838240E+04  0.25500000920E-02 0.  1.
       -2   -1    0    0    0  501  0.00000000000E+00  0.00000000000E+00 -0.80453239425E+03  0.80453239425E+03  0.25500000920E-02 0. -1.
    10030    2    1    2    0    0  0.00000000000E+00  0.00000000000E+00  0.83765142977E+03  0.24467162183E+04  0.22988606602E+04 0.  0.
        3    1    3    3  502    0 -0.92290735006E+03  0.43989979454E+03 -0.14023986347E+03  0.10319578652E+04  0.10100000352E+00 0. -1.
       -3    1    3    3    0  502  0.92290735006E+03 -0.43989979454E+03  0.97789129324E+03  0.14147583531E+04  0.10100000352E+00 0.  1.
</event>
<event>
 5   0  0.1744876E-06  0.2302591E+04  0.7818609E-02  0.8476900E-01
        2   -1    0    0  501    0  0.00000000000E+00  0.00000000000E+00  0.23019511499E+04  0.23019511499E+04  0.25500000920E-02 0. -1.
       -2   -1    0    0    0  501  0.00000000000E+00  0.00000000000E+00 -0.57580754239E+03  0.57580754240E+03  0.25500000920E-02 0.  1.
    10030    2    1    2    0    0  0.00000000000E+00  0.00000000000E+00  0.17261436075E+04  0.28777586923E+04  0.23025905709E+04 0.  0.
        1    1    3    3  502    0 -0.59184345175E+02  0.34989572489E+03  0.22318939288E+04  0.22599292720E+04  0.50400001928E-02 0. -1.
       -1    1    3    3    0  502  0.59184345175E+02 -0.34989572489E+03 -0.50575032132E+03  0.61782942027E+03  0.50400001928E-02 0.  1.
</event>
<event>
 5   0  0.6319125E-07  0.2299511E+04  0.7818609E-02  0.8478114E-01
       -4   -1    0    0    0  501  0.00000000000E+00  0.00000000000E+00  0.19499172017E+04  0.19499176153E+04  0.12699999809E+01 0.  1.
        4   -1    0    0  501    0  0.00000000000E+00  0.00000000000E+00 -0.67794472396E+03  0.67794591351E+03  0.12699999809E+01 0. -1.
    10030    2    1    2    0    0  0.00000000000E+00  0.00000000000E+00  0.12719724778E+04  0.26278635288E+04  0.22995114137E+04 0.  0.
        3    1    3    3  502    0 -0.60445107515E+03  0.92380786663E+03  0.26894514356E+03  0.11362717884E+04  0.10100000352E+00 0. -1.
       -3    1    3    3    0  502  0.60445107515E+03 -0.92380786663E+03  0.10030273342E+04  0.14915917404E+04  0.10100000352E+00 0.  1.
</event>
<event>
 5   0  0.7761069E-07  0.2299881E+04  0.7818609E-02  0.8477968E-01
       -1   -1    0    0    0  501  0.00000000000E+00  0.00000000000E+00  0.11748686667E+04  0.11748686667E+04  0.50400001928E-02 0.  1.
        1   -1    0    0  501    0  0.00000000000E+00  0.00000000000E+00 -0.11255408900E+04  0.11255408900E+04  0.50400001928E-02 0. -1.
    10030    2    1    2    0    0  0.00000000000E+00  0.00000000000E+00  0.49327776711E+02  0.23004095568E+04  0.22998806272E+04 0.  0.
        1    1    3    3  502    0  0.20745571259E+03 -0.61779551513E+03  0.97232758829E+03  0.11705255701E+04  0.50400001928E-02 0.  1.
       -1    1    3    3    0  502 -0.20745571259E+03  0.61779551513E+03 -0.92299981158E+03  0.11298839867E+04  0.50400001928E-02 0. -1.
</event>
<event>
 5   0  0.7607231E-07  0.2300439E+04  0.7818609E-02  0.8477748E-01
       -1   -1    0    0    0  501  0.00000000000E+00  0.00000000000E+00  0.17371942790E+04  0.17371942790E+04  0.50400001928E-02 0. -1.
        1   -1    0    0  501    0  0.00000000000E+00  0.00000000000E+00 -0.76157546963E+03  0.76157546965E+03  0.50400001928E-02 0.  1.
    10030    2    1    2    0    0  0.00000000000E+00  0.00000000000E+00  0.97561880939E+03  0.24987697487E+04  0.23004386964E+04 0.  0.
        2    1    3    3  502    0  0.69317843429E+03  0.59087165579E+03  0.12507765880E+04  0.15472775214E+04  0.25500000920E-02 0. -1.
       -2    1    3    3    0  502 -0.69317843429E+03 -0.59087165579E+03 -0.27515777856E+03  0.95149222724E+03  0.25500000920E-02 0.  1.
</event>
<event>
 5   0  0.1828646E-06  0.2298232E+04  0.7818609E-02  0.8478618E-01
        2   -1    0    0  501    0  0.00000000000E+00  0.00000000000E+00  0.12821101919E+04  0.12821101919E+04  0.25500000920E-02 0. -1.
       -2   -1    0    0    0  501  0.00000000000E+00  0.00000000000E+00 -0.10299175246E+04  0.10299175246E+04  0.25500000920E-02 0.  1.
    10030    2    1    2    0    0  0.00000000000E+00  0.00000000000E+00  0.25219266732E+03  0.23120277166E+04  0.22982321512E+04 0.  0.
        3    1    3    3  502    0  0.33095022789E+03  0.59972820645E+03 -0.80208263876E+03  0.10547694272E+04  0.10100000352E+00 0. -1.
       -3    1    3    3    0  502 -0.33095022789E+03 -0.59972820645E+03  0.10542753061E+04  0.12572582894E+04  0.10100000352E+00 0.  1.
</event>
<event>
 5   0  0.7607231E-07  0.2300756E+04  0.7818609E-02  0.8477623E-01
        1   -1    0    0  501    0  0.00000000000E+00  0.00000000000E+00  0.91724959377E+03  0.91724959379E+03  0.50400001928E-02 0.  1.
       -1   -1    0    0    0  501  0.00000000000E+00  0.00000000000E+00 -0.14427578565E+04  0.14427578565E+04  0.50400001928E-02 0. -1.
    10030    2    1    2    0    0  0.00000000000E+00  0.00000000000E+00 -0.52550826268E+03  0.23600074502E+04  0.23007555783E+04 0.  0.
        2    1    3    3  502    0  0.19741801659E+03 -0.32862094753E+03 -0.13753079697E+04  0.14277386357E+04  0.25500000920E-02 0. -1.
       -2    1    3    3    0  502 -0.19741801659E+03  0.32862094753E+03  0.84979970703E+03  0.93226881451E+03  0.25500000920E-02 0.  1.
</event>
<event>
 5   0  0.1689444E-06  0.2301205E+04  0.7818609E-02  0.8477446E-01
        2   -1    0    0  501    0  0.00000000000E+00  0.00000000000E+00  0.11259899107E+04  0.11259899107E+04  0.25500000920E-02 0. -1.
       -2   -1    0    0    0  501  0.00000000000E+00  0.00000000000E+00 -0.11757532197E+04  0.11757532197E+04  0.25500000920E-02 0.  1.
    10030    2    1    2    0    0  0.00000000000E+00  0.00000000000E+00 -0.49763308987E+02  0.23017431305E+04  0.23012051303E+04 0.  0.
        2    1    3    3  502    0  0.80245004542E+03  0.40843130554E+03  0.69162655954E+03  0.11353807752E+04  0.25500000920E-02 0. -1.
       -2    1    3    3    0  502 -0.80245004542E+03 -0.40843130554E+03 -0.74138986853E+03  0.11663623553E+04  0.25500000920E-02 0.  1.
</event>
<event>
 5   0  0.8097672E-07  0.2299812E+04  0.7818609E-02  0.8477995E-01
       -1   -1    0    0    0  501  0.00000000000E+00  0.00000000000E+00  0.19298497573E+04  0.19298497573E+04  0.50400001928E-02 0. -1.
        1   -1    0    0  501    0  0.00000000000E+00  0.00000000000E+00 -0.68517463019E+03  0.68517463021E+03  0.50400001928E-02 0.  1.
    10030    2    1    2    0    0  0.00000000000E+00  0.00000000000E+00  0.12446751271E+04  0.26150243875E+04  0.22998122478E+04 0.  0.
        3    1    3    3  502    0  0.23220867215E+03 -0.26564180639E+03 -0.62210566439E+03  0.71519361336E+03  0.10100000352E+00 0.  1.
       -3    1    3    3    0  502 -0.23220867215E+03  0.26564180639E+03  0.18667807915E+04  0.18998307742E+04  0.10100000352E+00 0. -1.
</event>
<event>
 5   0  0.7761069E-07  0.2300794E+04  0.7818609E-02  0.8477608E-01
       -1   -1    0    0    0  501  0.00000000000E+00  0.00000000000E+00  0.80537070426E+03  0.80537070427E+03  0.50400001928E-02 0. -1.
        1   -1    0    0  501    0  0.00000000000E+00  0.00000000000E+00 -0.16432351019E+04  0.16432351019E+04  0.50400001928E-02 0.  1.
    10030    2    1    2    0    0  0.00000000000E+00  0.00000000000E+00 -0.83786439762E+03  0.24486058062E+04  0.23007941336E+04 0.  0.
        1    1    3    3  502    0  0.73261703458E+03 -0.77091091238E+03  0.47859791826E+02  0.10645759315E+04  0.50400001928E-02 0. -1.
       -1    1    3    3    0  502 -0.73261703458E+03  0.77091091238E+03 -0.88572418945E+03  0.13840298747E+04  0.50400001928E-02 0.  1.
</event>
<event>
 5   0  0.1888779E-06  0.2302368E+04  0.7818609E-02  0.8476988E-01
        2   -1    0    0  501    0  0.00000000000E+00  0.00000000000E+00  0.14318968236E+04  0.14318968237E+04  0.25500000920E-02 0. -1.
       -2   -1    0    0    0  501  0.00000000000E+00  0.00000000000E+00 -0.92550297739E+03  0.92550297739E+03  0.25500000920E-02 0.  1.
    10030    2    1    2    0    0  0.00000000000E+00  0.00000000000E+00  0.50639384626E+03  0.23573998010E+04  0.23023681492E+04 0.  0.
        4    1    3    3  502    0  0.35302916346E+03 -0.42675463761E+03  0.12865136458E+04  0.14006670142E+04  0.12699999809E+01 0. -1.
       -4    1    3    3    0  502 -0.35302916346E+03  0.42675463761E+03 -0.78011979950E+03  0.95673278686E+03  0.12699999809E+01 0.  1.
</event>
<event>
 5   0  0.1825521E-06  0.2300645E+04  0.7818609E-02  0.8477667E-01
        2   -1    0    0  501    0  0.00000000000E+00  0.00000000000E+00  0.13376004594E+04  0.13376004594E+04  0.25500000920E-02 0. -1.
       -2   -1    0    0    0  501  0.00000000000E+00  0.00000000000E+00 -0.98926577978E+03  0.98926577979E+03  0.25500000920E-02 0.  1.
    10030    2    1    2    0    0  0.00000000000E+00  0.00000000000E+00  0.34833467961E+03  0.23268662392E+04  0.23006454412E+04 0.  0.
        5    1    3    3  502    0  0.59769798414E+03  0.43484033371E+03  0.10656273111E+04  0.12968857514E+04  0.46999998093E+01 0.  1.
       -5    1    3    3    0  502 -0.59769798414E+03 -0.43484033371E+03 -0.71729263146E+03  0.10299804878E+04  0.46999998093E+01 0. -1.
</event>
<event>
 5   0  0.7607231E-07  0.2299547E+04  0.7818609E-02  0.8478100E-01
        1   -1    0    0  501    0  0.00000000000E+00  0.00000000000E+00  0.73869178058E+03  0.73869178059E+03  0.50400001928E-02 0. -1.
       -1   -1    0    0    0  501  0.00000000000E+00  0.00000000000E+00 -0.17896218911E+04  0.17896218911E+04  0.50400001928E-02 0.  1.
    10030    2    1    2    0    0  0.00000000000E+00  0.00000000000E+00 -0.10509301105E+04  0.25283136717E+04  0.22995468957E+04 0.  0.
        2    1    3    3  502    0  0.21884188932E+02 -0.11201279036E+04 -0.24126710986E+03  0.11460258533E+04  0.25500000920E-02 0.  1.
       -2    1    3    3    0  502 -0.21884188932E+02  0.11201279036E+04 -0.80966300068E+03  0.13822878184E+04  0.25500000920E-02 0. -1.
</event>
<event>
 5   0  0.7607231E-07  0.2296250E+04  0.7818609E-02  0.8479401E-01
       -1   -1    0    0    0  501  0.00000000000E+00  0.00000000000E+00  0.15436284231E+04  0.15436284231E+04  0.50400001928E-02 0.  1.
        1   -1    0    0  501    0  0.00000000000E+00  0.00000000000E+00 -0.85395631664E+03  0.85395631665E+03  0.50400001928E-02 0. -1.
    10030    2    1    2    0    0  0.00000000000E+00  0.00000000000E+00  0.68967210642E+03  0.23975847397E+04  0.22962501976E+04 0.  0.
        2    1    3    3  502    0  0.28342205899E+03 -0.11109926004E+04  0.28254931118E+03  0.11808754104E+04  0.25500000920E-02 0.  1.
       -2    1    3    3    0  502 -0.28342205899E+03  0.11109926004E+04  0.40712279524E+03  0.12167093293E+04  0.25500000920E-02 0. -1.
</event>
<event>
 5   0  0.7761069E-07  0.2299768E+04  0.7818609E-02  0.8478013E-01
        1   -1    0    0  501    0  0.00000000000E+00  0.00000000000E+00  0.14984066220E+04  0.14984066220E+04  0.50400001928E-02 0. -1.
       -1   -1    0    0    0  501  0.00000000000E+00  0.00000000000E+00 -0.88242596727E+03  0.88242596729E+03  0.50400001928E-02 0.  1.
    10030    2    1    2    0    0  0.00000000000E+00  0.00000000000E+00  0.61598065473E+03  0.23808325893E+04  0.22997677385E+04 0.  0.
        1    1    3    3  502    0 -0.13023650846E+03  0.34384761406E+03 -0.81992783928E+03  0.89859578871E+03  0.50400001928E-02 0.  1.
       -1    1    3    3    0  502  0.13023650846E+03 -0.34384761406E+03  0.14359084940E+04  0.14822368006E+04  0.50400001928E-02 0. -1.
</event>
<event>
 5   0  0.7932912E-07  0.2300016E+04  0.7818609E-02  0.8477915E-01
       -1   -1    0    0    0  501  0.00000000000E+00  0.00000000000E+00  0.75947424301E+03  0.75947424303E+03  0.50400001928E-02 0.  1.
        1   -1    0    0  501    0  0.00000000000E+00  0.00000000000E+00 -0.17413604070E+04  0.17413604070E+04  0.50400001928E-02 0. -1.
    10030    2    1    2    0    0  0.00000000000E+00  0.00000000000E+00 -0.98188616403E+03  0.25008346501E+04  0.23000159799E+04 0.  0.
        5    1    3    3  502    0 -0.24717125777E+03  0.10675535280E+04 -0.11157855481E+03  0.11014699405E+04  0.46999998093E+01 0.  1.
       -5    1    3    3    0  502  0.24717125777E+03 -0.10675535280E+04 -0.87030760921E+03  0.13993647096E+04  0.46999998093E+01 0. -1.
</event>
<event>
 5   0  0.8097672E-07  0.2299073E+04  0.7818609E-02  0.8478287E-01
        1   -1    0    0  501    0  0.00000000000E+00  0.00000000000E+00  0.20805536002E+04  0.20805536002E+04  0.50400001928E-02 0.  1.
       -1   -1    0    0    0  501  0.00000000000E+00  0.00000000000E+00 -0.63513594738E+03  0.63513594740E+03  0.50400001928E-02 0. -1.
    10030    2    1    2    0    0  0.00000000000E+00  0.00000000000E+00  0.14454176528E+04  0.27156895476E+04  0.22990731889E+04 0.  0.
        3    1    3    3  502    0 -0.80385147466E+03  0.50906840098E+02  0.16914928238E+04  0.18734771637E+04  0.10100000352E+00 0.  1.
       -3    1    3    3    0  502  0.80385147466E+03 -0.50906840098E+02 -0.24607517097E+03  0.84221238393E+03  0.10100000352E+00 0. -1.
</event>
<event>
 5   0  0.1744876E-06  0.2299854E+04  0.7818609E-02  0.8477979E-01
       -2   -1    0    0    0  501  0.00000000000E+00  0.00000000000E+00  0.81011713063E+03  0.81011713063E+03  0.25500000920E-02 0.  1.
        2   -1    0    0  501    0  0.00000000000E+00  0.00000000000E+00 -0.16322729397E+04  0.16322729397E+04  0.25500000920E-02 0. -1.
    10030    2    1    2    0    0  0.00000000000E+00  0.00000000000E+00 -0.82215580908E+03  0.24423900703E+04  0.22998541435E+04 0.  0.
        1    1    3    3  502    0 -0.38392376179E+03  0.82178234668E+03 -0.11617144076E+04  0.14738738226E+04  0.50400001928E-02 0. -1.
       -1    1    3    3    0  502  0.38392376179E+03 -0.82178234668E+03  0.33955859854E+03  0.96851624770E+03  0.50400001928E-02 0.  1.
</event>
<event>
 5   0  0.7932912E-07  0.2300704E+04  0.7818609E-02  0.8477643E-01
       -1   -1    0    0    0  501  0.00000000000E+00  0.00000000000E+00  0.69056875749E+03  0.69056875750E+03  0.50400001928E-02 0.  1.
        1   -1    0    0  501    0  0.00000000000E+00  0.00000000000E+00 -0.19162613276E+04  0.19162613276E+04  0.50400001928E-02 0. -1.
    10030    2    1    2    0    0  0.00000000000E+00  0.00000000000E+00 -0.12256925701E+04  0.26068300851E+04  0.23007044174E+04 0.  0.
        5    1    3    3  502    0  0.44099277933E+03 -0.21150647243E+02 -0.18164317087E+04  0.18693229318E+04  0.46999998093E+01 0. -1.
       -5    1    3    3    0  502 -0.44099277933E+03  0.21150647243E+02  0.59073913855E+03  0.73750715326E+03  0.46999998093E+01 0.  1.
</event>
<event>
 5   0  0.7761069E-07  0.2299598E+04  0.7818609E-02  0.8478079E-01
       -1   -1    0    0    0  501  0.00000000000E+00  0.00000000000E+00  0.77195638874E+03  0.77195638876E+03  0.50400001928E-02 0.  1.
        1   -1    0    0  501    0  0.00000000000E+00  0.00000000000E+00 -0.17125815859E+04  0.17125815859E+04  0.50400001928E-02 0. -1.
    10030    2    1    2    0    0  0.00000000000E+00  0.00000000000E+00 -0.94062519715E+03  0.24845379747E+04  0.22995984837E+04 0.  0.
        1    1    3    3  502    0 -0.43328349066E+03 -0.69698673118E+03 -0.13403802834E+04  0.15716693008E+04  0.50400001928E-02 0. -1.
       -1    1    3    3    0  502  0.43328349066E+03  0.69698673118E+03  0.39975508629E+03  0.91286867389E+03  0.50400001928E-02 0.  1.
</event>
<event>
 5   0  0.7761069E-07  0.2299952E+04  0.7818609E-02  0.8477940E-01
        1   -1    0    0  501    0  0.00000000000E+00  0.00000000000E+00  0.16080738333E+04  0.16080738333E+04  0.50400001928E-02 0. -1.
       -1   -1    0    0    0  501  0.00000000000E+00  0.00000000000E+00 -0.82237809137E+03  0.82237809138E+03  0.50400001928E-02 0.  1.
    10030    2    1    2    0    0  0.00000000000E+00  0.00000000000E+00  0.78569574191E+03  0.24304519247E+04  0.22999519037E+04 0.  0.
        1    1    3    3  502    0  0.46203521150E+03  0.35029688445E+03 -0.65660766966E+03  0.87596693762E+03  0.50400001928E-02 0.  1.
       -1    1    3    3    0  502 -0.46203521150E+03 -0.35029688445E+03  0.14423034116E+04  0.15544849870E+04  0.50400001928E-02 0. -1.
</event>
<event>
 5   0  0.7607231E-07  0.2300982E+04  0.7818609E-02  0.8477534E-01
        1   -1    0    0  501    0  0.00000000000E+00  0.00000000000E+00  0.15057859550E+04  0.15057859550E+04  0.50400001928E-02 0.  1.
       -1   -1    0    0    0  501  0.00000000000E+00  0.00000000000E+00 -0.87902917669E+03  0.87902917671E+03  0.50400001928E-02 0. -1.
    10030    2    1    2    0    0  0.00000000000E+00  0.00000000000E+00  0.62675677827E+03  0.23848151317E+04  0.23009822149E+04 0.  0.
        2    1    3    3  502    0 -0.15891506964E+03  0.48162061265E+03 -0.75692047083E+03  0.91112074560E+03  0.25500000920E-02 0. -1.
       -2    1    3    3    0  502  0.15891506964E+03 -0.48162061265E+03  0.13836772491E+04  0.14736943861E+04  0.25500000920E-02 0.  1.
</event>
<event>
 5   0  0.8097672E-07  0.2298970E+04  0.7818609E-02  0.8478328E-01
        1   -1    0    0  501    0  0.00000000000E+00  0.00000000000E+00  0.12738674601E+04  0.12738674601E+04  0.50400001928E-02 0.  1.
       -1   -1    0    0    0  501  0.00000000000E+00  0.00000000000E+00 -0.10372470258E+04  0.10372470258E+04  0.50400001928E-02 0. -1.
    10030    2    1    2    0    0  0.00000000000E+00  0.00000000000E+00  0.23662043426E+03  0.23111144859E+04  0.22989695381E+04 0.  0.
        3    1    3    3  502    0  0.21779944032E+03  0.39005632239E+03  0.11830250856E+04  0.12645666824E+04  0.10100000352E+00 0.  1.
       -3    1    3    3    0  502 -0.21779944032E+03 -0.39005632239E+03 -0.94640465131E+03  0.10465478035E+04  0.10100000352E+00 0. -1.
</event>
<event>
 5   0  0.1744876E-06  0.2300166E+04  0.7818609E-02  0.8477856E-01
        2   -1    0    0  501    0  0.00000000000E+00  0.00000000000E+00  0.98521228255E+03  0.98521228255E+03  0.25500000920E-02 0.  1.
       -2   -1    0    0    0  501  0.00000000000E+00  0.00000000000E+00 -0.13425436204E+04  0.13425436204E+04  0.25500000920E-02 0. -1.
    10030    2    1    2    0    0  0.00000000000E+00  0.00000000000E+00 -0.35733133788E+03  0.23277559030E+04  0.23001656155E+04 0.  0.
        1    1    3    3  502    0  0.98337125887E+03  0.59562454359E+03 -0.20907329520E+03  0.11685457939E+04  0.50400001928E-02 0.  1.
       -1    1    3    3    0  502 -0.98337125887E+03 -0.59562454359E+03 -0.14825804269E+03  0.11592101091E+04  0.50400001928E-02 0. -1.
</event>
<event>
 5   0  0.1828646E-06  0.2299123E+04  0.7818609E-02  0.8478267E-01
       -2   -1    0    0    0  501  0.00000000000E+00  0.00000000000E+00  0.65918562577E+03  0.65918562578E+03  0.25500000920E-02 0. -1.
        2   -1    0    0  501    0  0.00000000000E+00  0.00000000000E+00 -0.20047342881E+04  0.20047342881E+04  0.25500000920E-02 0.  1.
    10030    2    1    2    0    0  0.00000000000E+00  0.00000000000E+00 -0.13455486623E+04  0.26639199138E+04  0.22991233340E+04 0.  0.
        3    1    3    3  502    0  0.27888831374E+03 -0.89140683011E+03  0.10371214850E+03  0.93975584502E+03  0.10100000352E+00 0. -1.
       -3    1    3    3    0  502 -0.27888831374E+03  0.89140683011E+03 -0.14492608108E+04  0.17241640688E+04  0.10100000352E+00 0.  1.
</event>
<event>
 5   0  0.8097672E-07  0.2297346E+04  0.7818609E-02  0.8478968E-01
        1   -1    0    0  501    0  0.00000000000E+00  0.00000000000E+00  0.12744944441E+04  0.12744944441E+04  0.50400001928E-02 0. -1.
       -1   -1    0    0    0  501  0.00000000000E+00  0.00000000000E+00 -0.10352730034E+04  0.10352730034E+04  0.50400001928E-02 0.  1.
    10030    2    1    2    0    0  0.00000000000E+00  0.00000000000E+00  0.23922144073E+03  0.23097674476E+04  0.22973460262E+04 0.  0.
        3    1    3    3  502    0  0.28247285885E+03 -0.11124411791E+04  0.73172373869E+02  0.11500741278E+04  0.10100000352E+00 0.  1.
       -3    1    3    3    0  502 -0.28247285885E+03  0.11124411791E+04  0.16604906686E+03  0.11596933197E+04  0.10100000352E+00 0. -1.
</event>
<event>
 5   0  0.1825521E-06  0.2293785E+04  0.7818609E-02  0.8480376E-01
       -2   -1    0    0    0  501  0.00000000000E+00  0.00000000000E+00  0.76278436917E+03  0.76278436917E+03  0.25500000920E-02 0. -1.
        2   -1    0    0  501    0  0.00000000000E+00  0.00000000000E+00 -0.17244218662E+04  0.17244218662E+04  0.25500000920E-02 0.  1.
    10030    2    1    2    0    0  0.00000000000E+00  0.00000000000E+00 -0.96163749702E+03  0.24872062354E+04  0.22937846851E+04 0.  0.
        5    1    3    3  502    0  0.67163830421E+03 -0.22663099736E+03 -0.14584441059E+04  0.16215859276E+04  0.46999998093E+01 0.  1.
       -5    1    3    3    0  502 -0.67163830421E+03  0.22663099736E+03  0.49680660884E+03  0.86562030777E+03  0.46999998093E+01 0. -1.
</event>
<event>
 5   0  0.8108242E-07  0.2299447E+04  0.7818609E-02  0.8478139E-01
        1   -1    0    0  501    0  0.00000000000E+00  0.00000000000E+00  0.11055272640E+04  0.11055272640E+04  0.50400001928E-02 0. -1.
       -1   -1    0    0    0  501  0.00000000000E+00  0.00000000000E+00 -0.11956865230E+04  0.11956865230E+04  0.50400001928E-02 0.  1.
    10030    2    1    2    0    0  0.00000000000E+00  0.00000000000E+00 -0.90159259001E+02  0.23012137871E+04  0.22994469339E+04 0.  0.
        4    1    3    3  502    0 -0.20089523178E+03 -0.30896680233E+01  0.10878211196E+04  0.11062209731E+04  0.12699999809E+01 0. -1.
       -4    1    3    3    0  502  0.20089523178E+03  0.30896680233E+01 -0.11779803786E+04  0.11949928140E+04  0.12699999809E+01 0.  1.
</event>
<event>
 5   0  0.7607231E-07  0.2300626E+04  0.7818609E-02  0.8477674E-01
       -1   -1    0    0    0  501  0.00000000000E+00  0.00000000000E+00  0.57718084935E+03  0.57718084937E+03  0.50400001928E-02 0. -1.
        1   -1    0    0  501    0  0.00000000000E+00  0.00000000000E+00 -0.22925574603E+04  0.22925574603E+04  0.50400001928E-02 0.  1.
    10030    2    1    2    0    0  0.00000000000E+00  0.00000000000E+00 -0.17153766109E+04  0.28697383097E+04  0.23006262297E+04 0.  0.
        2    1    3    3  502    0 -0.61498489081E+03  0.42462448835E+03 -0.19484855045E+04  0.20868895834E+04  0.25500000920E-02 0.  1.
       -2    1    3    3    0  502  0.61498489081E+03 -0.42462448835E+03  0.23310889352E+03  0.78284872630E+03  0.25500000920E-02 0. -1.
</event>
<event>
 5   0  0.7761069E-07  0.2307872E+04  0.7818609E-02  0.8474824E-01
       -1   -1    0    0    0  501  0.00000000000E+00  0.00000000000E+00  0.10253235574E+04  0.10253235575E+04  0.50400001928E-02 0. -1.
        1   -1    0    0  501    0  0.00000000000E+00  0.00000000000E+00 -0.12986811560E+04  0.12986811560E+04  0.50400001928E-02 0.  1.
    10030    2    1    2    0    0  0.00000000000E+00  0.00000000000E+00 -0.27335759853E+03  0.23240047134E+04  0.23078720787E+04 0.  0.
        1    1    3    3  502    0  0.75008149948E+03 -0.84167415865E+02  0.74226968214E+03  0.10586173486E+04  0.50400001928E-02 0. -1.
       -1    1    3    3    0  502 -0.75008149948E+03  0.84167415865E+02 -0.10156272807E+04  0.12653873648E+04  0.50400001928E-02 0.  1.
</event>
<event>
 5   0  0.7932912E-07  0.2297349E+04  0.7818609E-02  0.8478967E-01
        1   -1    0    0  501    0  0.00000000000E+00  0.00000000000E+00  0.82976891068E+03  0.82976891069E+03  0.50400001928E-02 0. -1.
       -1   -1    0    0    0  501  0.00000000000E+00  0.00000000000E+00 -0.15901446076E+04  0.15901446076E+04  0.50400001928E-02 0.  1.
    10030    2    1    2    0    0  0.00000000000E+00  0.00000000000E+00 -0.76037569694E+03  0.24199135183E+04  0.22973485229E+04 0.  0.
        5    1    3    3  502    0 -0.14376277773E+03 -0.63805803548E+03 -0.13748346044E+04  0.15224907462E+04  0.46999998093E+01 0.  1.
       -5    1    3    3    0  502  0.14376277773E+03  0.63805803548E+03  0.61445890746E+03  0.89742277209E+03  0.46999998093E+01 0. -1.
</event>
<event>
 5   0  0.1825521E-06  0.2300133E+04  0.7818609E-02  0.8477869E-01
       -2   -1    0    0    0  501  0.00000000000E+00  0.00000000000E+00  0.61187507798E+03  0.61187507799E+03  0.25500000920E-02 0.  1.
        2   -1    0    0  501    0  0.00000000000E+00  0.00000000000E+00 -0.21616391215E+04  0.21616391215E+04  0.25500000920E-02 0. -1.
    10030    2    1    2    0    0  0.00000000000E+00  0.00000000000E+00 -0.15497640435E+04  0.27735141995E+04  0.23001331318E+04 0.  0.
        5    1    3    3  502    0 -0.71980627511E+03  0.41144846477E+03  0.18615371376E+03  0.84975655808E+03  0.46999998093E+01 0.  1.
       -5    1    3    3    0  502  0.71980627511E+03 -0.41144846477E+03 -0.17359177572E+04  0.19237576414E+04  0.46999998093E+01 0. -1.
</event>
<event>
 5   0  0.1888779E-06  0.2299544E+04  0.7818609E-02  0.8478101E-01
       -2   -1    0    0    0  501  0.00000000000E+00  0.00000000000E+00  0.12319256261E+04  0.12319256261E+04  0.25500000920E-02 0.  1.
        2   -1    0    0  501    0  0.00000000000E+00  0.00000000000E+00 -0.10730970125E+04  0.10730970126E+04  0.25500000920E-02 0. -1.
    10030    2    1    2    0    0  0.00000000000E+00  0.00000000000E+00  0.15882861356E+03  0.23050226387E+04  0.22995440496E+04 0.  0.
        4    1    3    3  502    0  0.21854034141E+03 -0.75026110421E+03  0.92482304454E+03  0.12107645857E+04  0.12699999809E+01 0.  1.
       -4    1    3    3    0  502 -0.21854034141E+03  0.75026110421E+03 -0.76599443098E+03  0.10942580530E+04  0.12699999809E+01 0. -1.
</event>
<event>
 5   0  0.7932912E-07  0.2295010E+04  0.7818609E-02  0.8479891E-01
       -1   -1    0    0    0  501  0.00000000000E+00  0.00000000000E+00  0.12736303009E+04  0.12736303009E+04  0.50400001928E-02 0.  1.
        1   -1    0    0  501    0  0.00000000000E+00  0.00000000000E+00 -0.10338693387E+04  0.10338693387E+04  0.50400001928E-02 0. -1.
    10030    2    1    2    0    0  0.00000000000E+00  0.00000000000E+00  0.23976096220E+03  0.23074996397E+04  0.22950096444E+04 0.  0.
        5    1    3    3  502    0 -0.39531336496E+03  0.23029896525E+03  0.11779549646E+04  0.12636891463E+04  0.46999998093E+01 0.  1.
       -5    1    3    3    0  502  0.39531336496E+03 -0.23029896525E+03 -0.93819400239E+03  0.10438104933E+04  0.46999998093E+01 0. -1.
</event>
<event>
 5   0  0.7932912E-07  0.2299980E+04  0.7818609E-02  0.8477929E-01
        1   -1    0    0  501    0  0.00000000000E+00  0.00000000000E+00  0.20734100575E+04  0.20734100575E+04  0.50400001928E-02 0.  1.
       -1   -1    0    0    0  501  0.00000000000E+00  0.00000000000E+00 -0.63782689163E+03  0.63782689165E+03  0.50400001928E-02 0. -1.
    10030    2    1    2    0    0  0.00000000000E+00  0.00000000000E+00  0.14355831658E+04  0.27112369491E+04  0.22999797321E+04 0.  0.
        5    1    3    3  502    0 -0.70444065195E+03 -0.57573509840E+03 -0.11136218650E+03  0.91658669106E+03  0.46999998093E+01 0. -1.
       -5    1    3    3    0  502  0.70444065195E+03  0.57573509840E+03  0.15469453523E+04  0.17946502581E+04  0.46999998093E+01 0.  1.
</event>
<event>
 5   0  0.1744876E-06  0.2300436E+04  0.7818609E-02  0.8477749E-01
       -2   -1    0    0    0  501  0.00000000000E+00  0.00000000000E+00  0.48924498746E+03  0.48924498746E+03  0.25500000920E-02 0.  1.
        2   -1    0    0  501    0  0.00000000000E+00  0.00000000000E+00 -0.27041707894E+04  0.27041707894E+04  0.25500000920E-02 0. -1.
    10030    2    1    2    0    0  0.00000000000E+00  0.00000000000E+00 -0.22149258019E+04  0.31934157768E+04  0.23004364837E+04 0.  0.
        1    1    3    3  502    0 -0.70106507754E+03  0.88220859728E+03 -0.14277013560E+04  0.18188225351E+04  0.50400001928E-02 0.  1.
       -1    1    3    3    0  502  0.70106507754E+03 -0.88220859728E+03 -0.78722444586E+03  0.13745932417E+04  0.50400001928E-02 0. -1.
</event>
<event>
 5   0  0.1888779E-06  0.2300603E+04  0.7818609E-02  0.8477683E-01
        2   -1    0    0  501    0  0.00000000000E+00  0.00000000000E+00  0.17951583377E+04  0.17951583377E+04  0.25500000920E-02 0.  1.
       -2   -1    0    0    0  501  0.00000000000E+00  0.00000000000E+00 -0.73709040638E+03  0.73709040639E+03  0.25500000920E-02 0. -1.
    10030    2    1    2    0    0  0.00000000000E+00  0.00000000000E+00  0.10580679313E+04  0.25322487441E+04  0.23006033893E+04 0.  0.
        4    1    3    3  502    0  0.59272410296E+03 -0.95715000978E+03  0.78888602699E+03  0.13747002509E+04  0.12699999809E+01 0.  1.
       -4    1    3    3    0  502 -0.59272410296E+03  0.95715000978E+03  0.26918190433E+03  0.11575484931E+04  0.12699999809E+01 0. -1.
</event>
<event>
 5   0  0.1888779E-06  0.2291742E+04  0.7818609E-02  0.8481184E-01
       -2   -1    0    0    0  501  0.00000000000E+00  0.00000000000E+00  0.16321859546E+04  0.16321859546E+04  0.25500000920E-02 0.  1.
        2   -1    0    0  501    0  0.00000000000E+00  0.00000000000E+00 -0.80445498580E+03  0.80445498580E+03  0.25500000920E-02 0. -1.
    10030    2    1    2    0    0  0.00000000000E+00  0.00000000000E+00  0.82773096876E+03  0.24366409404E+04  0.22917418082E+04 0.  0.
        4    1    3    3  502    0  0.38787089596E+03  0.11452926105E+02  0.15602010814E+04  0.16077325737E+04  0.12699999809E+01 0.  1.
       -4    1    3    3    0  502 -0.38787089596E+03 -0.11452926105E+02 -0.73247011262E+03  0.82890836661E+03  0.12699999809E+01 0. -1.
</event>
<event>
 5   0  0.8108242E-07  0.2298977E+04  0.7818609E-02  0.8478324E-01
        1   -1    0    0  501    0  0.00000000000E+00  0.00000000000E+00  0.11020970859E+04  0.11020970859E+04  0.50400001928E-02 0.  1.
       -1   -1    0    0    0  501  0.00000000000E+00  0.00000000000E+00 -0.11989182172E+04  0.11989182172E+04  0.50400001928E-02 0. -1.
    10030    2    1    2    0    0  0.00000000000E+00  0.00000000000E+00 -0.96821131345E+02  0.23010153031E+04  0.22989774018E+04 0.  0.
        4    1    3    3  502    0  0.15667979458E+03 -0.61927218567E+03  0.90809134534E+03  0.11102603759E+04  0.12699999809E+01 0.  1.
       -4    1    3    3    0  502 -0.15667979458E+03  0.61927218567E+03 -0.10049124767E+04  0.11907549272E+04  0.12699999809E+01 0. -1.
</event>
<event>
 5   0  0.8097672E-07  0.2304171E+04  0.7818609E-02  0.8476279E-01
        1   -1    0    0  501    0  0.00000000000E+00  0.00000000000E+00  0.13374438266E+04  0.13374438266E+04  0.50400001928E-02 0. -1.
       -1   -1    0    0    0  501  0.00000000000E+00  0.00000000000E+00 -0.99241586301E+03  0.99241586303E+03  0.50400001928E-02 0.  1.
    10030    2    1    2    0    0  0.00000000000E+00  0.00000000000E+00  0.34502796361E+03  0.23298596897E+04  0.23041705401E+04 0.  0.
        3    1    3    3  502    0  0.16538211843E+03 -0.37250248120E+03  0.12621137444E+04  0.13262882257E+04  0.10100000352E+00 0. -1.
       -3    1    3    3    0  502 -0.16538211843E+03  0.37250248120E+03 -0.91708578084E+03  0.10035714639E+04  0.10100000352E+00 0.  1.
</event>
<event>
 5   0  0.8097672E-07  0.2299677E+04  0.7818609E-02  0.8478049E-01
       -1   -1    0    0    0  501  0.00000000000E+00  0.00000000000E+00  0.97073757915E+03  0.97073757917E+03  0.50400001928E-02 0.  1.
        1   -1    0    0  501    0  0.00000000000E+00  0.00000000000E+00 -0.13619829821E+04  0.13619829821E+04  0.50400001928E-02 0. -1.
    10030    2    1    2    0    0  0.00000000000E+00  0.00000000000E+00 -0.39124540293E+03  0.23327205613E+04  0.22996765537E+04 0.  0.
        3    1    3    3  502    0 -0.13929839602E+03 -0.94349433054E+03  0.45590109973E+03  0.10570862868E+04  0.10100000352E+00 0.  1.
       -3    1    3    3    0  502  0.13929839602E+03  0.94349433054E+03 -0.84714650266E+03  0.12756342744E+04  0.10100000352E+00 0. -1.
</event>
<event>
 5   0  0.1888779E-06  0.2300450E+04  0.7818609E-02  0.8477744E-01
        2   -1    0    0  501    0  0.00000000000E+00  0.00000000000E+00  0.12377362081E+04  0.12377362081E+04  0.25500000920E-02 0. -1.
       -2   -1    0    0    0  501  0.00000000000E+00  0.00000000000E+00 -0.10689012711E+04  0.10689012711E+04  0.25500000920E-02 0.  1.
    10030    2    1    2    0    0  0.00000000000E+00  0.00000000000E+00  0.16883493702E+03  0.23066374791E+04  0.23004502221E+04 0.  0.
        4    1    3    3  502    0 -0.78766598394E+03  0.68822399083E+02  0.92204562890E+03  0.12146291531E+04  0.12699999809E+01 0.  1.
       -4    1    3    3    0  502  0.78766598394E+03 -0.68822399083E+02 -0.75321069188E+03  0.10920083260E+04  0.12699999809E+01 0. -1.
</event>
<event>
 5   0  0.8108242E-07  0.2299487E+04  0.7818609E-02  0.8478124E-01
        1   -1    0    0  501    0  0.00000000000E+00  0.00000000000E+00  0.13694149366E+04  0.13694149366E+04  0.50400001928E-02 0.  1.
       -1   -1    0    0    0  501  0.00000000000E+00  0.00000000000E+00 -0.96530973479E+03  0.96530973480E+03  0.50400001928E-02 0. -1.
    10030    2    1    2    0    0  0.00000000000E+00  0.00000000000E+00  0.40410520185E+03  0.23347246714E+04  0.22994865247E+04 0.  0.
        4    1    3    3  502    0 -0.51032514692E+03 -0.56074357376E+03  0.10796140954E+04  0.13192548347E+04  0.12699999809E+01 0.  1.
       -4    1    3    3    0  502  0.51032514692E+03  0.56074357376E+03 -0.67550889355E+03  0.10154698367E+04  0.12699999809E+01 0. -1.
</event>
<event>
 5   0  0.1744876E-06  0.2300087E+04  0.7818609E-02  0.8477887E-01
        2   -1    0    0  501    0  0.00000000000E+00  0.00000000000E+00  0.10427279198E+04  0.10427279198E+04  0.25500000920E-02 0.  1.
       -2   -1    0    0    0  501  0.00000000000E+00  0.00000000000E+00 -0.12684042128E+04  0.12684042128E+04  0.25500000920E-02 0. -1.
    10030    2    1    2    0    0  0.00000000000E+00  0.00000000000E+00 -0.22567629298E+03  0.23111321326E+04  0.23000873777E+04 0.  0.
        1    1    3    3  502    0  0.90170769256E+03 -0.36863300542E+03 -0.72702894375E+03  0.12155402670E+04  0.50400001928E-02 0. -1.
       -1    1    3    3    0  502 -0.90170769256E+03  0.36863300542E+03  0.50135265078E+03  0.10955918656E+04  0.50400001928E-02 0.  1.
</event>
<event>
 5   0  0.7932912E-07  0.2299557E+04  0.7818609E-02  0.8478096E-01
        1   -1    0    0  501    0  0.00000000000E+00  0.00000000000E+00  0.11724531465E+04  0.11724531465E+04  0.50400001928E-02 0.  1.
       -1   -1    0    0    0  501  0.00000000000E+00  0.00000000000E+00 -0.11275419569E+04  0.11275419569E+04  0.50400001928E-02 0. -1.
    10030    2    1    2    0    0  0.00000000000E+00  0.00000000000E+00  0.44911189643E+02  0.22999951034E+04  0.22995565792E+04 0.  0.
        5    1    3    3  502    0  0.77896276416E+03 -0.51329622143E+03 -0.64976782434E+03  0.11368712831E+04  0.46999998093E+01 0. -1.
       -5    1    3    3    0  502 -0.77896276416E+03  0.51329622143E+03  0.69467901398E+03  0.11631238203E+04  0.46999998093E+01 0.  1.
</event>
<event>
 5   0  0.1828646E-06  0.2299513E+04  0.7818609E-02  0.8478113E-01
        2   -1    0    0  501    0  0.00000000000E+00  0.00000000000E+00  0.72738922485E+03  0.72738922485E+03  0.25500000920E-02 0.  1.
       -2   -1    0    0    0  501  0.00000000000E+00  0.00000000000E+00 -0.18173768730E+04  0.18173768730E+04  0.25500000920E-02 0. -1.
    10030    2    1    2    0    0  0.00000000000E+00  0.00000000000E+00 -0.10899876482E+04  0.25447660979E+04  0.22995133006E+04 0.  0.
        3    1    3    3  502    0  0.50296447841E+03  0.10310425349E+03 -0.16834697468E+04  0.17600210659E+04  0.10100000352E+00 0. -1.
       -3    1    3    3    0  502 -0.50296447841E+03 -0.10310425349E+03  0.59348209866E+03  0.78474503200E+03  0.10100000352E+00 0.  1.
</event>
<event>
 5   0  0.1744876E-06  0.2300476E+04  0.7818609E-02  0.8477733E-01
       -2   -1    0    0    0  501  0.00000000000E+00  0.00000000000E+00  0.83702861199E+03  0.83702861200E+03  0.25500000920E-02 0. -1.
        2   -1    0    0  501    0  0.00000000000E+00  0.00000000000E+00 -0.15806482463E+04  0.15806482463E+04  0.25500000920E-02 0.  1.
    10030    2    1    2    0    0  0.00000000000E+00  0.00000000000E+00 -0.74361963426E+03  0.24176768583E+04  0.23004763051E+04 0.  0.
        1    1    3    3  502    0 -0.64758534543E+03 -0.81062106757E+03  0.15005086900E+03  0.10483265513E+04  0.50400001928E-02 0. -1.
       -1    1    3    3    0  502  0.64758534543E+03  0.81062106757E+03 -0.89367050326E+03  0.13693503070E+04  0.50400001928E-02 0.  1.
</event>
<event>
 5   0  0.7932912E-07  0.2299367E+04  0.7818609E-02  0.8478171E-01
       -1   -1    0    0    0  501  0.00000000000E+00  0.00000000000E+00  0.17636171601E+04  0.17636171601E+04  0.50400001928E-02 0. -1.
        1   -1    0    0  501    0  0.00000000000E+00  0.00000000000E+00 -0.74946664176E+03  0.74946664177E+03  0.50400001928E-02 0.  1.
    10030    2    1    2    0    0  0.00000000000E+00  0.00000000000E+00  0.10141505184E+04  0.25130838019E+04  0.22993670698E+04 0.  0.
        5    1    3    3  502    0  0.78840417562E+03  0.44826708035E+03  0.12793060187E+04  0.15681742566E+04  0.46999998093E+01 0. -1.
       -5    1    3    3    0  502 -0.78840417562E+03 -0.44826708035E+03 -0.26515550036E+03  0.94490954532E+03  0.46999998093E+01 0.  1.
</event>
<event>
 5   0  0.7607231E-07  0.2300921E+04  0.7818609E-02  0.8477558E-01
       -1   -1    0    0    0  501  0.00000000000E+00  0.00000000000E+00  0.12164611166E+04  0.12164611166E+04  0.50400001928E-02 0. -1.
        1   -1    0    0  501    0  0.00000000000E+00  0.00000000000E+00 -0.10880410689E+04  0.10880410689E+04  0.50400001928E-02 0.  1.
    10030    2    1    2    0    0  0.00000000000E+00  0.00000000000E+00  0.12842004762E+03  0.23045021855E+04  0.23009212534E+04 0.  0.
        2    1    3    3  502    0 -0.53236731125E+03 -0.83347768008E+03  0.65288291538E+03  0.11850553145E+04  0.25500000920E-02 0. -1.
       -2    1    3    3    0  502  0.53236731125E+03  0.83347768008E+03 -0.52446286775E+03  0.11194468710E+04  0.25500000920E-02 0.  1.
</event>
<event>
 5   0  0.1689444E-06  0.2299666E+04  0.7818609E-02  0.8478053E-01
       -2   -1    0    0    0  501  0.00000000000E+00  0.00000000000E+00  0.54031033061E+03  0.54031033062E+03  0.25500000920E-02 0.  1.
        2   -1    0    0  501    0  0.00000000000E+00  0.00000000000E+00 -0.24469576456E+04  0.24469576456E+04  0.25500000920E-02 0. -1.
    10030    2    1    2    0    0  0.00000000000E+00  0.00000000000E+00 -0.19066473150E+04  0.29872679762E+04  0.22996664928E+04 0.  0.
        2    1    3    3  502    0  0.10666453461E+03  0.99696792316E+03 -0.22218812634E+03  0.10269809766E+04  0.25500000920E-02 0.  1.
       -2    1    3    3    0  502 -0.10666453461E+03 -0.99696792316E+03 -0.16844591886E+04  0.19602869996E+04  0.25500000920E-02 0. -1.
</event>
<event>
 5   0  0.1689444E-06  0.2298900E+04  0.7818609E-02  0.8478355E-01
        2   -1    0    0  501    0  0.00000000000E+00  0.00000000000E+00  0.20425305570E+04  0.20425305570E+04  0.25500000920E-02 0. -1.
       -2   -1    0    0    0  501  0.00000000000E+00  0.00000000000E+00 -0.64686208472E+03  0.64686208472E+03  0.25500000920E-02 0.  1.
    10030    2    1    2    0    0  0.00000000000E+00  0.00000000000E+00  0.13956684723E+04  0.26893926418E+04  0.22989002364E+04 0.  0.
        2    1    3    3  502    0 -0.26023243713E+03  0.71606270551E+02  0.20049340116E+04  0.20230197157E+04  0.25500000920E-02 0. -1.
       -2    1    3    3    0  502  0.26023243713E+03 -0.71606270551E+02 -0.60926553923E+03  0.66637292609E+03  0.25500000920E-02 0.  1.
</event>
<event>
 5   0  0.8097672E-07  0.2299910E+04  0.7818609E-02  0.8477956E-01
        1   -1    0    0  501    0  0.00000000000E+00  0.00000000000E+00  0.16565698444E+04  0.16565698444E+04  0.50400001928E-02 0. -1.
       -1   -1    0    0    0  501  0.00000000000E+00  0.00000000000E+00 -0.79827421886E+03  0.79827421887E+03  0.50400001928E-02 0.  1.
    10030    2    1    2    0    0  0.00000000000E+00  0.00000000000E+00  0.85829562557E+03  0.24548440633E+04  0.22999104318E+04 0.  0.
        3    1    3    3  502    0 -0.11329181473E+04 -0.85371302908E+02  0.23939323478E+03  0.11610774818E+04  0.10100000352E+00 0. -1.
       -3    1    3    3    0  502  0.11329181473E+04  0.85371302908E+02  0.61890239079E+03  0.12937665815E+04  0.10100000352E+00 0.  1.
</event>
<event>
 5   0  0.7607231E-07  0.2301053E+04  0.7818609E-02  0.8477506E-01
        1   -1    0    0  501    0  0.00000000000E+00  0.00000000000E+00  0.98322258312E+03  0.98322258313E+03  0.50400001928E-02 0. -1.
       -1   -1    0    0    0  501  0.00000000000E+00  0.00000000000E+00 -0.13462984594E+04  0.13462984594E+04  0.50400001928E-02 0.  1.
    10030    2    1    2    0    0  0.00000000000E+00  0.00000000000E+00 -0.36307587630E+03  0.23295210426E+04  0.23010528451E+04 0.  0.
        2    1    3    3  502    0  0.11914787716E+03 -0.94938173114E+03 -0.82833908199E+03  0.12655700387E+04  0.25500000920E-02 0.  1.
       -2    1    3    3    0  502 -0.11914787716E+03  0.94938173114E+03  0.46526320570E+03  0.10639510039E+04  0.25500000920E-02 0. -1.
</event>
<event>
 5   0  0.1744876E-06  0.2294689E+04  0.7818609E-02  0.8480018E-01
       -2   -1    0    0    0  501  0.00000000000E+00  0.00000000000E+00  0.65136031483E+03  0.65136031484E+03  0.25500000920E-02 0.  1.
        2   -1    0    0  501    0  0.00000000000E+00  0.00000000000E+00 -0.20210008687E+04  0.20210008687E+04  0.25500000920E-02 0. -1.
    10030    2    1    2    0    0  0.00000000000E+00  0.00000000000E+00 -0.13696405538E+04  0.26723611835E+04  0.22946893141E+04 0.  0.
        1    1    3    3  502    0  0.58717147895E+03 -0.94982066271E+03 -0.99177216002E+03  0.14934998006E+04  0.50400001928E-02 0. -1.
       -1    1    3    3    0  502 -0.58717147895E+03  0.94982066271E+03 -0.37786839380E+03  0.11788613829E+04  0.50400001928E-02 0.  1.
</event>
<event>
 5   0  0.8108242E-07  0.2296008E+04  0.7818609E-02  0.8479497E-01
       -1   -1    0    0    0  501  0.00000000000E+00  0.00000000000E+00  0.12227775434E+04  0.12227775434E+04  0.50400001928E-02 0.  1.
        1   -1    0    0  501    0  0.00000000000E+00  0.00000000000E+00 -0.10778029897E+04  0.10778029897E+04  0.50400001928E-02 0. -1.
    10030    2    1    2    0    0  0.00000000000E+00  0.00000000000E+00  0.14497455368E+03  0.23005805331E+04  0.22960080941E+04 0.  0.
        4    1    3    3  502    0 -0.32109172815E+03  0.60874386666E+03 -0.84816934100E+03  0.10922737006E+04  0.12699999809E+01 0. -1.
       -4    1    3    3    0  502  0.32109172815E+03 -0.60874386666E+03  0.99314389469E+03  0.12083068325E+04  0.12699999809E+01 0.  1.
</event>
<event>
 5   0  0.1744876E-06  0.2301121E+04  0.7818609E-02  0.8477479E-01
       -2   -1    0    0    0  501  0.00000000000E+00  0.00000000000E+00  0.50435170433E+03  0.50435170434E+03  0.25500000920E-02 0. -1.
        2   -1    0    0  501    0  0.00000000000E+00  0.00000000000E+00 -0.26247352455E+04  0.26247352455E+04  0.25500000920E-02 0.  1.
    10030    2    1    2    0    0  0.00000000000E+00  0.00000000000E+00 -0.21203835412E+04  0.31290869498E+04  0.23011212002E+04 0.  0.
        1    1    3    3  502    0 -0.13401461106E+03 -0.11244004490E+04 -0.13373842648E+04  0.17523792276E+04  0.50400001928E-02 0.  1.
       -1    1    3    3    0  502  0.13401461106E+03  0.11244004490E+04 -0.78299927638E+03  0.13767077222E+04  0.50400001928E-02 0. -1.
</event>
<event>
 5   0  0.7761069E-07  0.2299564E+04  0.7818609E-02  0.8478093E-01
        1   -1    0    0  501    0  0.00000000000E+00  0.00000000000E+00  0.12750369603E+04  0.12750369603E+04  0.50400001928E-02 0.  1.
       -1   -1    0    0    0  501  0.00000000000E+00  0.00000000000E+00 -0.10368313953E+04  0.10368313953E+04  0.50400001928E-02 0. -1.
    10030    2    1    2    0    0  0.00000000000E+00  0.00000000000E+00  0.23820556499E+03  0.23118683556E+04  0.22995637417E+04 0.  0.
        1    1    3    3  502    0 -0.15978514662E+03 -0.44079727620E+03  0.11745606955E+04  0.12646842923E+04  0.50400001928E-02 0.  1.
       -1    1    3    3    0  502  0.15978514662E+03  0.44079727620E+03 -0.93635513054E+03  0.10471840632E+04  0.50400001928E-02 0. -1.
</event>
<event>
 5   0  0.1888779E-06  0.2296874E+04  0.7818609E-02  0.8479155E-01
       -2   -1    0    0    0  501  0.00000000000E+00  0.00000000000E+00  0.11737288343E+04  0.11737288343E+04  0.25500000920E-02 0. -1.
        2   -1    0    0  501    0  0.00000000000E+00  0.00000000000E+00 -0.11236904435E+04  0.11236904435E+04  0.25500000920E-02 0.  1.
    10030    2    1    2    0    0  0.00000000000E+00  0.00000000000E+00  0.50038390801E+02  0.22974192778E+04  0.22968742886E+04 0.  0.
        4    1    3    3  502    0  0.65432444309E+03  0.12363019178E+02 -0.91892764085E+03  0.11281502307E+04  0.12699999809E+01 0.  1.
       -4    1    3    3    0  502 -0.65432444309E+03 -0.12363019178E+02  0.96896603165E+03  0.11692690471E+04  0.12699999809E+01 0. -1.
</event>
<event>
 5   0  0.7932912E-07  0.2299731E+04  0.7818609E-02  0.8478027E-01
        1   -1    0    0  501    0  0.00000000000E+00  0.00000000000E+00  0.10510627725E+04  0.10510627725E+04  0.50400001928E-02 0. -1.
       -1   -1    0    0    0  501  0.00000000000E+00  0.00000000000E+00 -0.12579562848E+04  0.12579562848E+04  0.50400001928E-02 0.  1.
    10030    2    1    2    0    0  0.00000000000E+00  0.00000000000E+00 -0.20689351230E+03  0.23090190574E+04  0.22997313064E+04 0.  0.
        5    1    3    3  502    0  0.10076729044E+04  0.52478443293E+03 -0.28126521984E+03  0.11704424792E+04  0.46999998093E+01 0. -1.
       -5    1    3    3    0  502 -0.10076729044E+04 -0.52478443293E+03  0.74371707533E+02  0.11385765781E+04  0.46999998093E+01 0.  1.
</event>
<event>
 5   0  0.1828646E-06  0.2301290E+04  0.7818609E-02  0.8477413E-01
       -2   -1    0    0    0  501  0.00000000000E+00  0.00000000000E+00  0.82534415970E+03  0.82534415970E+03  0.25500000920E-02 0. -1.
        2   -1    0    0  501    0  0.00000000000E+00  0.00000000000E+00 -0.16041602637E+04  0.16041602637E+04  0.25500000920E-02 0.  1.
    10030    2    1    2    0    0  0.00000000000E+00  0.00000000000E+00 -0.77881610398E+03  0.24295044234E+04  0.23012903379E+04 0.  0.
        3    1    3    3  502    0  0.97943032655E+03  0.36894002699E+03  0.11533342171E+03  0.10529493418E+04  0.10100000352E+00 0. -1.
       -3    1    3    3    0  502 -0.97943032655E+03 -0.36894002699E+03 -0.89414952569E+03  0.13765550816E+04  0.10100000352E+00 0.  1.
</event>
<event>
 5   0  0.1689444E-06  0.2297219E+04  0.7818609E-02  0.8479018E-01
       -2   -1    0    0    0  501  0.00000000000E+00  0.00000000000E+00  0.21071765719E+04  0.21071765719E+04  0.25500000920E-02 0.  1.
        2   -1    0    0  501    0  0.00000000000E+00  0.00000000000E+00 -0.62610034269E+03  0.62610034269E+03  0.25500000920E-02 0. -1.
    10030    2    1    2    0    0  0.00000000000E+00  0.00000000000E+00  0.14810762292E+04  0.27332769146E+04  0.22972191657E+04 0.  0.
        2    1    3    3  502    0 -0.70627702112E+03  0.85531582367E+03  0.10953191351E+04  0.15588830605E+04  0.25500000920E-02 0. -1.
       -2    1    3    3    0  502  0.70627702112E+03 -0.85531582367E+03  0.38575709416E+03  0.11743938541E+04  0.25500000920E-02 0.  1.
</event>
<event>
 5   0  0.1744876E-06  0.2300106E+04  0.7818609E-02  0.8477879E-01
        2   -1    0    0  501    0  0.00000000000E+00  0.00000000000E+00  0.18725541111E+04  0.18725541111E+04  0.25500000920E-02 0. -1.
       -2   -1    0    0    0  501  0.00000000000E+00  0.00000000000E+00 -0.70631965209E+03  0.70631965209E+03  0.25500000920E-02 0.  1.
    10030    2    1    2    0    0  0.00000000000E+00  0.00000000000E+00  0.11662344590E+04  0.25788737632E+04  0.23001058830E+04 0.  0.
        1    1    3    3  502    0  0.92212763685E+03 -0.33091005836E+03  0.12584478575E+04  0.15948391315E+04  0.50400001928E-02 0. -1.
       -1    1    3    3    0  502 -0.92212763685E+03  0.33091005836E+03 -0.92213398531E+02  0.98403463163E+03  0.50400001928E-02 0.  1.
</event>
<event>
 5   0  0.7607231E-07  0.2302460E+04  0.7818609E-02  0.8476952E-01
       -1   -1    0    0    0  501  0.00000000000E+00  0.00000000000E+00  0.99252467228E+03  0.99252467230E+03  0.50400001928E-02 0. -1.
        1   -1    0    0  501    0  0.00000000000E+00  0.00000000000E+00 -0.13353127231E+04  0.13353127231E+04  0.50400001928E-02 0.  1.
    10030    2    1    2    0    0  0.00000000000E+00  0.00000000000E+00 -0.34278805078E+03  0.23278373954E+04  0.23024602693E+04 0.  0.
        2    1    3    3  502    0  0.79414530122E+03  0.16109754200E+03  0.65536689285E+03  0.10421731822E+04  0.25500000920E-02 0. -1.
       -2    1    3    3    0  502 -0.79414530122E+03 -0.16109754200E+03 -0.99815494363E+03  0.12856642132E+04  0.25500000920E-02 0.  1.
</event>
<event>
 5   0  0.1689444E-06  0.2299456E+04  0.7818609E-02  0.8478136E-01
       -2   -1    0    0    0  501  0.00000000000E+00  0.00000000000E+00  0.14158759704E+04  0.14158759704E+04  0.25500000920E-02 0. -1.
        2   -1    0    0  501    0  0.00000000000E+00  0.00000000000E+00 -0.93360860384E+03  0.93360860384E+03  0.25500000920E-02 0.  1.
    10030    2    1    2    0    0  0.00000000000E+00  0.00000000000E+00  0.48226736653E+03  0.23494845742E+04  0.22994555772E+04 0.  0.
        2    1    3    3  502    0  0.92930264452E+03  0.18582909920E+03  0.90624807652E+03  0.13112671106E+04  0.25500000920E-02 0. -1.
       -2    1    3    3    0  502 -0.92930264452E+03 -0.18582909920E+03 -0.42398070999E+03  0.10382174636E+04  0.25500000920E-02 0.  1.
</event>
<event>
 5   0  0.8097672E-07  0.2299029E+04  0.7818609E-02  0.8478304E-01
        1   -1    0    0  501    0  0.00000000000E+00  0.00000000000E+00  0.60921155760E+03  0.60921155762E+03  0.50400001928E-02 0.  1.
       -1   -1    0    0    0  501  0.00000000000E+00  0.00000000000E+00 -0.21690059398E+04  0.21690059398E+04  0.50400001928E-02 0. -1.
    10030    2    1    2    0    0  0.00000000000E+00  0.00000000000E+00 -0.15597943822E+04  0.27782174974E+04  0.22990289142E+04 0.  0.
        3    1    3    3  502    0  0.36956262561E+03 -0.83104171785E+03 -0.16293962459E+04  0.18660490367E+04  0.10100000352E+00 0. -1.
       -3    1    3    3    0  502 -0.36956262561E+03  0.83104171785E+03  0.69601863725E+02  0.91216846069E+03  0.10100000352E+00 0.  1.
</event>
<event>
 5   0  0.8108242E-07  0.2301915E+04  0.7818609E-02  0.8477166E-01
        1   -1    0    0  501    0  0.00000000000E+00  0.00000000000E+00  0.12253688897E+04  0.12253688897E+04  0.50400001928E-02 0.  1.
       -1   -1    0    0    0  501  0.00000000000E+00  0.00000000000E+00 -0.10810649729E+04  0.10810649730E+04  0.50400001928E-02 0. -1.
    10030    2    1    2    0    0  0.00000000000E+00  0.00000000000E+00  0.14430391674E+03  0.23064338627E+04  0.23019151901E+04 0.  0.
        4    1    3    3  502    0  0.70950316426E+02 -0.64905274896E+03 -0.87754743532E+03  0.10937982138E+04  0.12699999809E+01 0. -1.
       -4    1    3    3    0  502 -0.70950316426E+02  0.64905274896E+03  0.10218513521E+04  0.12126356489E+04  0.12699999809E+01 0.  1.
</event>
<event>
 5   0  0.7607231E-07  0.2299866E+04  0.7818609E-02  0.8477974E-01
        1   -1    0    0  501    0  0.00000000000E+00  0.00000000000E+00  0.11237490967E+04  0.11237490967E+04  0.50400001928E-02 0.  1.
       -1   -1    0    0    0  501  0.00000000000E+00  0.00000000000E+00 -0.11767271867E+04  0.11767271867E+04  0.50400001928E-02 0. -1.
    10030    2    1    2    0    0  0.00000000000E+00  0.00000000000E+00 -0.52978090012E+02  0.23004762834E+04  0.22998661815E+04 0.  0.
        2    1    3    3  502    0  0.15370442922E+03  0.80717501984E+03 -0.83118337436E+03  0.11687695949E+04  0.25500000920E-02 0. -1.
       -2    1    3    3    0  502 -0.15370442922E+03 -0.80717501984E+03  0.77820528435E+03  0.11317066885E+04  0.25500000920E-02 0.  1.
</event>
<event>
 5   0  0.7932912E-07  0.2299507E+04  0.7818609E-02  0.8478115E-01
       -1   -1    0    0    0  501  0.00000000000E+00  0.00000000000E+00  0.68970414866E+03  0.68970414868E+03  0.50400001928E-02 0.  1.
        1   -1    0    0  501    0  0.00000000000E+00  0.00000000000E+00 -0.19166674851E+04  0.19166674851E+04  0.50400001928E-02 0. -1.
    10030    2    1    2    0    0  0.00000000000E+00  0.00000000000E+00 -0.12269633364E+04  0.26063716338E+04  0.22995073525E+04 0.  0.
        5    1    3    3  502    0 -0.29674074541E+03  0.11024490176E+04 -0.45947234059E+03  0.12306851052E+04  0.46999998093E+01 0. -1.
       -5    1    3    3    0  502  0.29674074541E+03 -0.11024490176E+04 -0.76749099585E+03  0.13756865286E+04  0.46999998093E+01 0.  1.
</event>
<event>
 5   0  0.1744876E-06  0.2300873E+04  0.7818609E-02  0.8477577E-01
       -2   -1    0    0    0  501  0.00000000000E+00  0.00000000000E+00  0.13082334022E+04  0.13082334022E+04  0.25500000920E-02 0. -1.
        2   -1    0    0  501    0  0.00000000000E+00  0.00000000000E+00 -0.10116726537E+04  0.10116726537E+04  0.25500000920E-02 0.  1.
    10030    2    1    2    0    0  0.00000000000E+00  0.00000000000E+00  0.29656074848E+03  0.23199060559E+04  0.23008728411E+04 0.  0.
        1    1    3    3  502    0 -0.38281223281E+03 -0.57673894696E+03  0.10747562867E+04  0.12783873022E+04  0.50400001928E-02 0. -1.
       -1    1    3    3    0  502  0.38281223281E+03  0.57673894696E+03 -0.77819553827E+03  0.10415187537E+04  0.50400001928E-02 0.  1.
</event>
<event>
 5   0  0.1888779E-06  0.2299244E+04  0.7818609E-02  0.8478219E-01
       -2   -1    0    0    0  501  0.00000000000E+00  0.00000000000E+00  0.86328670404E+03  0.86328670404E+03  0.25500000920E-02 0.  1.
        2   -1    0    0  501    0  0.00000000000E+00  0.00000000000E+00 -0.15309292946E+04  0.15309292946E+04  0.25500000920E-02 0. -1.
    10030    2    1    2    0    0  0.00000000000E+00  0.00000000000E+00 -0.66764259057E+03  0.23942159987E+04  0.22992441409E+04 0.  0.
        4    1    3    3  502    0  0.39560474240E+03  0.48632847325E+03  0.66962724207E+03  0.91728989546E+03  0.12699999809E+01 0.  1.
       -4    1    3    3    0  502 -0.39560474240E+03 -0.48632847325E+03 -0.13372698326E+04  0.14769261032E+04  0.12699999809E+01 0. -1.
</event>
<event>
 5   0  0.1828646E-06  0.2300185E+04  0.7818609E-02  0.8477848E-01
       -2   -1    0    0    0  501  0.00000000000E+00  0.00000000000E+00  0.56952308118E+03  0.56952308119E+03  0.25500000920E-02 0.  1.
        2   -1    0    0  501    0  0.00000000000E+00  0.00000000000E+00 -0.23224912970E+04  0.23224912970E+04  0.25500000920E-02 0. -1.
    10030    2    1    2    0    0  0.00000000000E+00  0.00000000000E+00 -0.17529682158E+04  0.28920143782E+04  0.23001846878E+04 0.  0.
        3    1    3    3  502    0 -0.41762683658E+03 -0.92395079625E+01 -0.22237376023E+04  0.22626326430E+04  0.10100000352E+00 0. -1.
       -3    1    3    3    0  502  0.41762683658E+03  0.92395079625E+01  0.47076938648E+03  0.62938173518E+03  0.10100000352E+00 0.  1.
</event>
<event>
 5   0  0.7607231E-07  0.2300267E+04  0.7818609E-02  0.8477816E-01
        1   -1    0    0  501    0  0.00000000000E+00  0.00000000000E+00  0.13374874931E+04  0.13374874931E+04  0.50400001928E-02 0. -1.
       -1   -1    0    0    0  501  0.00000000000E+00  0.00000000000E+00 -0.98902416059E+03  0.98902416060E+03  0.50400001928E-02 0.  1.
    10030    2    1    2    0    0  0.00000000000E+00  0.00000000000E+00  0.34846333251E+03  0.23265116537E+04  0.23002673281E+04 0.  0.
        2    1    3    3  502    0  0.93013433003E+03  0.50350719099E+03 -0.28273964540E+03  0.10948109747E+04  0.25500000920E-02 0.  1.
       -2    1    3    3    0  502 -0.93013433003E+03 -0.50350719099E+03  0.63120297791E+03  0.12317006790E+04  0.25500000920E-02 0. -1.
</event>
<event>
 5   0  0.6319125E-07  0.2300947E+04  0.7818609E-02  0.8477548E-01
       -4   -1    0    0    0  501  0.00000000000E+00  0.00000000000E+00  0.21492172030E+04  0.21492175782E+04  0.12699999809E+01 0.  1.
        4   -1    0    0  501    0  0.00000000000E+00  0.00000000000E+00 -0.61584585877E+03  0.61584716827E+03  0.12699999809E+01 0. -1.
    10030    2    1    2    0    0  0.00000000000E+00  0.00000000000E+00  0.15333713442E+04  0.27650647465E+04  0.23009466254E+04 0.  0.
        1    1    3    3  502    0  0.88265151810E+03 -0.69961240861E+03  0.10486586376E+04  0.15389009594E+04  0.50400001928E-02 0.  1.
       -1    1    3    3    0  502 -0.88265151810E+03  0.69961240861E+03  0.48471270659E+03  0.12261637870E+04  0.50400001928E-02 0. -1.
</event>
<event>
 5   0  0.6319125E-07  0.2300336E+04  0.7818609E-02  0.8477788E-01
        3   -1    0    0  501    0  0.00000000000E+00  0.00000000000E+00  0.84422096828E+03  0.84422097433E+03  0.10100000352E+00 0. -1.
       -3   -1    0    0    0  501  0.00000000000E+00  0.00000000000E+00 -0.15669912992E+04  0.15669913025E+04  0.10100000352E+00 0.  1.
    10030    2    1    2    0    0  0.00000000000E+00  0.00000000000E+00 -0.72277033094E+03  0.24112122768E+04  0.23003364303E+04 0.  0.
        4    1    3    3  502    0 -0.85706987413E+03  0.48790257848E+03 -0.98174558563E+03  0.13915616059E+04  0.12699999809E+01 0.  1.
       -4    1    3    3    0  502  0.85706987413E+03 -0.48790257848E+03  0.25897525469E+03  0.10196506709E+04  0.12699999809E+01 0. -1.
</event>
<event>
 5   0  0.7932912E-07  0.2301340E+04  0.7818609E-02  0.8477393E-01
       -1   -1    0    0    0  501  0.00000000000E+00  0.00000000000E+00  0.73028077184E+03  0.73028077186E+03  0.50400001928E-02 0. -1.
        1   -1    0    0  501    0  0.00000000000E+00  0.00000000000E+00 -0.18130584755E+04  0.18130584755E+04  0.50400001928E-02 0.  1.
    10030    2    1    2    0    0  0.00000000000E+00  0.00000000000E+00 -0.10827777037E+04  0.25433392474E+04  0.23013402555E+04 0.  0.
        5    1    3    3  502    0  0.63502494150E+03 -0.32960522014E+03 -0.15373318078E+04  0.16956731568E+04  0.46999998093E+01 0.  1.
       -5    1    3    3    0  502 -0.63502494150E+03  0.32960522014E+03  0.45455410415E+03  0.84766609055E+03  0.46999998093E+01 0. -1.
</event>
<event>
 5   0  0.8108242E-07  0.2301725E+04  0.7818609E-02  0.8477241E-01
       -1   -1    0    0    0  501  0.00000000000E+00  0.00000000000E+00  0.10137167164E+04  0.10137167164E+04  0.50400001928E-02 0.  1.
        1   -1    0    0  501    0  0.00000000000E+00  0.00000000000E+00 -0.13065628505E+04  0.13065628505E+04  0.50400001928E-02 0. -1.
    10030    2    1    2    0    0  0.00000000000E+00  0.00000000000E+00 -0.29284613413E+03  0.23202795669E+04  0.23017250944E+04 0.  0.
        4    1    3    3  502    0  0.28472114442E+03  0.81528883327E+02 -0.12674894160E+04  0.13016313309E+04  0.12699999809E+01 0. -1.
       -4    1    3    3    0  502 -0.28472114442E+03 -0.81528883327E+02  0.97464328189E+03  0.10186482360E+04  0.12699999809E+01 0.  1.
</event>
<event>
 5   0  0.7761069E-07  0.2300235E+04  0.7818609E-02  0.8477828E-01
        1   -1    0    0  501    0  0.00000000000E+00  0.00000000000E+00  0.29622967907E+04  0.29622967907E+04  0.50400001928E-02 0. -1.
       -1   -1    0    0    0  501  0.00000000000E+00  0.00000000000E+00 -0.44653543094E+03  0.44653543097E+03  0.50400001928E-02 0.  1.
    10030    2    1    2    0    0  0.00000000000E+00  0.00000000000E+00  0.25157613597E+04  0.34088322216E+04  0.23002351828E+04 0.  0.
        1    1    3    3  502    0 -0.95884854304E+03 -0.54836938621E+03  0.78302985176E+03  0.13539701847E+04  0.50400001928E-02 0. -1.
       -1    1    3    3    0  502  0.95884854304E+03  0.54836938621E+03  0.17327315080E+04  0.20548620370E+04  0.50400001928E-02 0.  1.
</event>
<event>
 5   0  0.1888779E-06  0.2299892E+04  0.7818609E-02  0.8477964E-01
       -2   -1    0    0    0  501  0.00000000000E+00  0.00000000000E+00  0.10013292727E+04  0.10013292727E+04  0.25500000920E-02 0. -1.
        2   -1    0    0  501    0  0.00000000000E+00  0.00000000000E+00 -0.13206198877E+04  0.13206198877E+04  0.25500000920E-02 0.  1.
    10030    2    1    2    0    0  0.00000000000E+00  0.00000000000E+00 -0.31929061495E+03  0.23219491604E+04  0.22998916076E+04 0.  0.
        4    1    3    3  502    0 -0.43126899189E+03 -0.44802313002E+02 -0.12349298023E+04  0.13088366667E+04  0.12699999809E+01 0.  1.
       -4    1    3    3    0  502  0.43126899189E+03  0.44802313002E+02  0.91563918736E+03  0.10131124937E+04  0.12699999809E+01 0. -1.
</event>
<event>
 5   0  0.1825521E-06  0.2300234E+04  0.7818609E-02  0.8477829E-01
       -2   -1    0    0    0  501  0.00000000000E+00  0.00000000000E+00  0.10790900614E+04  0.10790900614E+04  0.25500000920E-02 0.  1.
        2   -1    0    0  501    0  0.00000000000E+00  0.00000000000E+00 -0.12258190816E+04  0.12258190816E+04  0.25500000920E-02 0. -1.
    10030    2    1    2    0    0  0.00000000000E+00  0.00000000000E+00 -0.14672902019E+03  0.23049091429E+04  0.23002340646E+04 0.  0.
        5    1    3    3  502    0  0.50782499423E+01 -0.60611715942E+03  0.90603867185E+03  0.10901064005E+04  0.46999998093E+01 0.  1.
       -5    1    3    3    0  502 -0.50782499423E+01  0.60611715942E+03 -0.10527676920E+04  0.12148027424E+04  0.46999998093E+01 0. -1.
</event>
<event>
 5   0  0.7932912E-07  0.2299681E+04  0.7818609E-02  0.8478047E-01
        1   -1    0    0  501    0  0.00000000000E+00  0.00000000000E+00  0.12279631652E+04  0.12279631652E+04  0.50400001928E-02 0.  1.
       -1   -1    0    0    0  501  0.00000000000E+00  0.00000000000E+00 -0.10766882653E+04  0.10766882653E+04  0.50400001928E-02 0. -1.
    10030    2    1    2    0    0  0.00000000000E+00  0.00000000000E+00  0.15127489992E+03  0.23046514305E+04  0.22996813086E+04 0.  0.
        5    1    3    3  502    0 -0.10473886875E+04 -0.28453171509E+03  0.45610262335E+03  0.11772990497E+04  0.46999998093E+01 0.  1.
       -5    1    3    3    0  502  0.10473886875E+04  0.28453171509E+03 -0.30482772344E+03  0.11273523808E+04  0.46999998093E+01 0. -1.
</event>
<event>
 5   0  0.1744876E-06  0.2300417E+04  0.7818609E-02  0.8477757E-01
       -2   -1    0    0    0  501  0.00000000000E+00  0.00000000000E+00  0.59993061035E+03  0.59993061035E+03  0.25500000920E-02 0.  1.
        2   -1    0    0  501    0  0.00000000000E+00  0.00000000000E+00 -0.22052207925E+04  0.22052207925E+04  0.25500000920E-02 0. -1.
    10030    2    1    2    0    0  0.00000000000E+00  0.00000000000E+00 -0.16052901821E+04  0.28051514028E+04  0.23004168805E+04 0.  0.
        1    1    3    3  502    0  0.94529940099E+03  0.62390597409E+03 -0.10469225772E+04  0.15423671757E+04  0.50400001928E-02 0.  1.
       -1    1    3    3    0  502 -0.94529940099E+03 -0.62390597409E+03 -0.55836760492E+03  0.12627842271E+04  0.50400001928E-02 0. -1.
</event>
<event>
 5   0  0.1689444E-06  0.2300463E+04  0.7818609E-02  0.8477739E-01
       -2   -1    0    0    0  501  0.00000000000E+00  0.00000000000E+00  0.92012449154E+03  0.92012449155E+03  0.25500000920E-02 0.  1.
        2   -1    0    0  501    0  0.00000000000E+00  0.00000000000E+00 -0.14378841011E+04  0.14378841011E+04  0.25500000920E-02 0. -1.
    10030    2    1    2    0    0  0.00000000000E+00  0.00000000000E+00 -0.51775960960E+03  0.23580085927E+04  0.23004628904E+04 0.  0.
        2    1    3    3  502    0 -0.94714504035E+03  0.13240764157E+03 -0.91394116992E+03  0.13228393603E+04  0.25500000920E-02 0. -1.
       -2    1    3    3    0  502  0.94714504035E+03 -0.13240764157E+03  0.39618156031E+03  0.10351692324E+04  0.25500000920E-02 0.  1.
</event>
<event>
 5   0  0.1689444E-06  0.2300147E+04  0.7818609E-02  0.8477863E-01
       -2   -1    0    0    0  501  0.00000000000E+00  0.00000000000E+00  0.19756520768E+04  0.19756520768E+04  0.25500000920E-02 0.  1.
        2   -1    0    0  501    0  0.00000000000E+00  0.00000000000E+00 -0.66948473941E+03  0.66948473942E+03  0.25500000920E-02 0. -1.
    10030    2    1    2    0    0  0.00000000000E+00  0.00000000000E+00  0.13061673374E+04  0.26451368162E+04  0.23001468786E+04 0.  0.
        2    1    3    3  502    0 -0.53186682103E+03 -0.64651498370E+03  0.15599006989E+04  0.17703542385E+04  0.25500000920E-02 0.  1.
       -2    1    3    3    0  502  0.53186682103E+03  0.64651498370E+03 -0.25373336151E+03  0.87478257768E+03  0.25500000920E-02 0. -1.
</event>
<event>
 5   0  0.8108242E-07  0.2299505E+04  0.7818609E-02  0.8478116E-01
       -1   -1    0    0    0  501  0.00000000000E+00  0.00000000000E+00  0.81497913383E+03  0.81497913385E+03  0.50400001928E-02 0. -1.
        1   -1    0    0  501    0  0.00000000000E+00  0.00000000000E+00 -0.16220428608E+04  0.16220428608E+04  0.50400001928E-02 0.  1.
    10030    2    1    2    0    0  0.00000000000E+00  0.00000000000E+00 -0.80706372700E+03  0.24370219947E+04  0.22995052388E+04 0.  0.
        4    1    3    3  502    0  0.67445904937E+03 -0.63752790457E+03 -0.11227879404E+04  0.14567056018E+04  0.12699999809E+01 0.  1.
       -4    1    3    3    0  502 -0.67445904937E+03  0.63752790457E+03  0.31572421337E+03  0.98031639290E+03  0.12699999809E+01 0. -1.
</event>
<event>
 5   0  0.7761069E-07  0.2298366E+04  0.7818609E-02  0.8478566E-01
        1   -1    0    0  501    0  0.00000000000E+00  0.00000000000E+00  0.14123524128E+04  0.14123524128E+04  0.50400001928E-02 0.  1.
       -1   -1    0    0    0  501  0.00000000000E+00  0.00000000000E+00 -0.93505108918E+03  0.93505108920E+03  0.50400001928E-02 0. -1.
    10030    2    1    2    0    0  0.00000000000E+00  0.00000000000E+00  0.47730132361E+03  0.23474035020E+04  0.22983660822E+04 0.  0.
        1    1    3    3  502    0  0.99806765430E+03 -0.32537482138E+03  0.71618804524E+03  0.12708001940E+04  0.50400001928E-02 0.  1.
       -1    1    3    3    0  502 -0.99806765430E+03  0.32537482138E+03 -0.23888672164E+03  0.10766033080E+04  0.50400001928E-02 0. -1.
</event>
<event>
 5   0  0.1825521E-06  0.2300080E+04  0.7818609E-02  0.8477890E-01
       -2   -1    0    0    0  501  0.00000000000E+00  0.00000000000E+00  0.10795972832E+04  0.10795972832E+04  0.25500000920E-02 0. -1.
        2   -1    0    0  501    0  0.00000000000E+00  0.00000000000E+00 -0.12250790919E+04  0.12250790919E+04  0.25500000920E-02 0.  1.
    10030    2    1    2    0    0  0.00000000000E+00  0.00000000000E+00 -0.14548180868E+03  0.23046763752E+04  0.23000800503E+04 0.  0.
        5    1    3    3  502    0 -0.57682128719E+03  0.29704635379E+03  0.87868837416E+03  0.10922795808E+04  0.46999998093E+01 0. -1.
       -5    1    3    3    0  502  0.57682128719E+03 -0.29704635379E+03 -0.10241701828E+04  0.12123967944E+04  0.46999998093E+01 0.  1.
</event>
<event>
 5   0  0.7932912E-07  0.2299715E+04  0.7818609E-02  0.8478033E-01
        1   -1    0    0  501    0  0.00000000000E+00  0.00000000000E+00  0.11865804082E+04  0.11865804082E+04  0.50400001928E-02 0. -1.
       -1   -1    0    0    0  501  0.00000000000E+00  0.00000000000E+00 -0.11142713518E+04  0.11142713518E+04  0.50400001928E-02 0.  1.
    10030    2    1    2    0    0  0.00000000000E+00  0.00000000000E+00  0.72309056355E+02  0.23008517600E+04  0.22997152480E+04 0.  0.
        5    1    3    3  502    0 -0.55463005502E+03  0.95880227917E+03 -0.27259830034E+03  0.11407226796E+04  0.46999998093E+01 0.  1.
       -5    1    3    3    0  502  0.55463005502E+03 -0.95880227917E+03  0.34490735670E+03  0.11601290804E+04  0.46999998093E+01 0. -1.
</event>
<event>
 5   0  0.1689444E-06  0.2298941E+04  0.7818609E-02  0.8478339E-01
       -2   -1    0    0    0  501  0.00000000000E+00  0.00000000000E+00  0.19328111063E+04  0.19328111063E+04  0.25500000920E-02 0.  1.
        2   -1    0    0  501    0  0.00000000000E+00  0.00000000000E+00 -0.68360680052E+03  0.68360680052E+03  0.25500000920E-02 0. -1.
    10030    2    1    2    0    0  0.00000000000E+00  0.00000000000E+00  0.12492043058E+04  0.26164179068E+04  0.22989413358E+04 0.  0.
        2    1    3    3  502    0  0.63963211341E+03  0.14107320998E+02  0.17114426768E+04  0.18271191239E+04  0.25500000920E-02 0.  1.
       -2    1    3    3    0  502 -0.63963211341E+03 -0.14107320998E+02 -0.46223837103E+03  0.78929878289E+03  0.25500000920E-02 0. -1.
</event>
<event>
 5   0  0.1888779E-06  0.2317730E+04  0.7818609E-02  0.8470963E-01
        2   -1    0    0  501    0  0.00000000000E+00  0.00000000000E+00  0.19496339277E+04  0.19496339277E+04  0.25500000920E-02 0. -1.
       -2   -1    0    0    0  501  0.00000000000E+00  0.00000000000E+00 -0.68883104306E+03  0.68883104307E+03  0.25500000920E-02 0.  1.
    10030    2    1    2    0    0  0.00000000000E+00  0.00000000000E+00  0.12608028846E+04  0.26384649708E+04  0.23177302449E+04 0.  0.
        4    1    3    3  502    0  0.45599019175E+03  0.14457691698E+03 -0.57119265420E+03  0.74504509998E+03  0.12699999809E+01 0.  1.
       -4    1    3    3    0  502 -0.45599019175E+03 -0.14457691698E+03  0.18319955388E+04  0.18934198708E+04  0.12699999809E+01 0. -1.
</event>
<event>
 5   0  0.8108242E-07  0.2299367E+04  0.7818609E-02  0.8478171E-01
       -1   -1    0    0    0  501  0.00000000000E+00  0.00000000000E+00  0.77563363023E+03  0.77563363024E+03  0.50400001928E-02 0.  1.
        1   -1    0    0  501    0  0.00000000000E+00  0.00000000000E+00 -0.17041194380E+04  0.17041194381E+04  0.50400001928E-02 0. -1.
    10030    2    1    2    0    0  0.00000000000E+00  0.00000000000E+00 -0.92848580782E+03  0.24797530683E+04  0.22993671704E+04 0.  0.
        4    1    3    3  502    0  0.51327617927E+03  0.98165612853E+03 -0.79606495895E+03  0.13641195778E+04  0.12699999809E+01 0. -1.
       -4    1    3    3    0  502 -0.51327617927E+03 -0.98165612853E+03 -0.13242084887E+03  0.11156334904E+04  0.12699999809E+01 0.  1.
</event>
<event>
 5   0  0.1825521E-06  0.2301087E+04  0.7818609E-02  0.8477493E-01
        2   -1    0    0  501    0  0.00000000000E+00  0.00000000000E+00  0.16943595546E+04  0.16943595546E+04  0.25500000920E-02 0.  1.
       -2   -1    0    0    0  501  0.00000000000E+00  0.00000000000E+00 -0.78126868894E+03  0.78126868895E+03  0.25500000920E-02 0. -1.
    10030    2    1    2    0    0  0.00000000000E+00  0.00000000000E+00  0.91309086570E+03  0.24756282436E+04  0.23010867588E+04 0.  0.
        5    1    3    3  502    0 -0.37281358428E+03  0.29199851982E+03 -0.67154804893E+03  0.82173716980E+03  0.46999998093E+01 0. -1.
       -5    1    3    3    0  502  0.37281358428E+03 -0.29199851982E+03  0.15846389146E+04  0.16538910738E+04  0.46999998093E+01 0.  1.
</event>
<event>
 5   0  0.1828646E-06  0.2301058E+04  0.7818609E-02  0.8477504E-01
        2   -1    0    0  501    0  0.00000000000E+00  0.00000000000E+00  0.44945530624E+03  0.44945530625E+03  0.25500000920E-02 0.  1.
       -2   -1    0    0    0  501  0.00000000000E+00  0.00000000000E+00 -0.29451590288E+04  0.29451590288E+04  0.25500000920E-02 0. -1.
    10030    2    1    2    0    0  0.00000000000E+00  0.00000000000E+00 -0.24957037225E+04  0.33946143350E+04  0.23010583245E+04 0.  0.
        3    1    3    3  502    0  0.80165678753E+03  0.12127921538E+03 -0.24520991405E+04  0.25826638298E+04  0.10100000352E+00 0. -1.
       -3    1    3    3    0  502 -0.80165678753E+03 -0.12127921538E+03 -0.43604582049E+02  0.81195050517E+03  0.10100000352E+00 0.  1.
</event>
<event>
 5   0  0.1888779E-06  0.2299325E+04  0.7818609E-02  0.8478187E-01
       -2   -1    0    0    0  501  0.00000000000E+00  0.00000000000E+00  0.93815385052E+03  0.93815385052E+03  0.25500000920E-02 0. -1.
        2   -1    0    0  501    0  0.00000000000E+00  0.00000000000E+00 -0.14088556814E+04  0.14088556814E+04  0.25500000920E-02 0.  1.
    10030    2    1    2    0    0  0.00000000000E+00  0.00000000000E+00 -0.47070183088E+03  0.23470095319E+04  0.22993245811E+04 0.  0.
        4    1    3    3  502    0  0.28279190432E+03 -0.74242652301E+03 -0.10835800680E+04  0.13436204002E+04  0.12699999809E+01 0.  1.
       -4    1    3    3    0  502 -0.28279190432E+03  0.74242652301E+03  0.61287823712E+03  0.10033891317E+04  0.12699999809E+01 0. -1.
</event>
<event>
 5   0  0.7607231E-07  0.2300051E+04  0.7818609E-02  0.8477901E-01
       -1   -1    0    0    0  501  0.00000000000E+00  0.00000000000E+00  0.85189376173E+03  0.85189376174E+03  0.50400001928E-02 0.  1.
        1   -1    0    0  501    0  0.00000000000E+00  0.00000000000E+00 -0.15524920867E+04  0.15524920868E+04  0.50400001928E-02 0. -1.
    10030    2    1    2    0    0  0.00000000000E+00  0.00000000000E+00 -0.70059832502E+03  0.24043858485E+04  0.23000507158E+04 0.  0.
        2    1    3    3  502    0  0.24807969515E+02 -0.84794061379E+03  0.46141599645E+03  0.96567253335E+03  0.25500000920E-02 0.  1.
       -2    1    3    3    0  502 -0.24807969515E+02  0.84794061379E+03 -0.11620143215E+04  0.14387133151E+04  0.25500000920E-02 0. -1.
</event>
<event>
 5   0  0.1828646E-06  0.2301532E+04  0.7818609E-02  0.8477317E-01
        2   -1    0    0  501    0  0.00000000000E+00  0.00000000000E+00  0.10366556948E+04  0.10366556948E+04  0.25500000920E-02 0.  1.
       -2   -1    0    0    0  501  0.00000000000E+00  0.00000000000E+00 -0.12774374650E+04  0.12774374650E+04  0.25500000920E-02 0. -1.
    10030    2    1    2    0    0  0.00000000000E+00  0.00000000000E+00 -0.24078177024E+03  0.23140931598E+04  0.23015323789E+04 0.  0.
        3    1    3    3  502    0 -0.36542089480E+03 -0.97369997700E+03 -0.61566293287E+03  0.12085797171E+04  0.10100000352E+00 0. -1.
       -3    1    3    3    0  502  0.36542089480E+03  0.97369997700E+03  0.37488116263E+03  0.11055134426E+04  0.10100000352E+00 0.  1.
</event>
<event>
 5   0  0.8097672E-07  0.2301262E+04  0.7818609E-02  0.8477424E-01
        1   -1    0    0  501    0  0.00000000000E+00  0.00000000000E+00  0.11985585485E+04  0.11985585485E+04  0.50400001928E-02 0. -1.
       -1   -1    0    0    0  501  0.00000000000E+00  0.00000000000E+00 -0.11046199685E+04  0.11046199685E+04  0.50400001928E-02 0.  1.
    10030    2    1    2    0    0  0.00000000000E+00  0.00000000000E+00  0.93938579924E+02  0.23031785170E+04  0.23012620069E+04 0.  0.
        3    1    3    3  502    0  0.72884827698E+02 -0.46618223094E+02 -0.11013598789E+04  0.11047529362E+04  0.10100000352E+00 0.  1.
       -3    1    3    3    0  502 -0.72884827698E+02  0.46618223094E+02  0.11952984589E+04  0.11984255808E+04  0.10100000352E+00 0. -1.
</event>
<event>
 5   0  0.1888779E-06  0.2304694E+04  0.7818609E-02  0.8476073E-01
       -2   -1    0    0    0  501  0.00000000000E+00  0.00000000000E+00  0.83938072170E+03  0.83938072170E+03  0.25500000920E-02 0.  1.
        2   -1    0    0  501    0  0.00000000000E+00  0.00000000000E+00 -0.15820033400E+04  0.15820033400E+04  0.25500000920E-02 0. -1.
    10030    2    1    2    0    0  0.00000000000E+00  0.00000000000E+00 -0.74262261826E+03  0.24213840617E+04  0.23046935633E+04 0.  0.
        4    1    3    3  502    0  0.19294576646E+03  0.81469589213E+03  0.46057672038E+03  0.95555742564E+03  0.12699999809E+01 0.  1.
       -4    1    3    3    0  502 -0.19294576646E+03 -0.81469589213E+03 -0.12031993386E+04  0.14658266360E+04  0.12699999809E+01 0. -1.
</event>
<event>
 5   0  0.7761069E-07  0.2299534E+04  0.7818609E-02  0.8478105E-01
        1   -1    0    0  501    0  0.00000000000E+00  0.00000000000E+00  0.13023595800E+04  0.13023595800E+04  0.50400001928E-02 0.  1.
       -1   -1    0    0    0  501  0.00000000000E+00  0.00000000000E+00 -0.10150528474E+04  0.10150528474E+04  0.50400001928E-02 0. -1.
    10030    2    1    2    0    0  0.00000000000E+00  0.00000000000E+00  0.28730673252E+03  0.23174124274E+04  0.22995336919E+04 0.  0.
        1    1    3    3  502    0  0.25295777688E+03 -0.54662148259E+03 -0.84333916186E+03  0.10363414611E+04  0.50400001928E-02 0. -1.
       -1    1    3    3    0  502 -0.25295777688E+03  0.54662148259E+03  0.11306458944E+04  0.12810709663E+04  0.50400001928E-02 0.  1.
</event>
<event>
 5   0  0.1825521E-06  0.2299263E+04  0.7818609E-02  0.8478212E-01
        2   -1    0    0  501    0  0.00000000000E+00  0.00000000000E+00  0.14303968363E+04  0.14303968364E+04  0.25500000920E-02 0. -1.
       -2   -1    0    0    0  501  0.00000000000E+00  0.00000000000E+00 -0.92397636816E+03  0.92397636816E+03  0.25500000920E-02 0.  1.
    10030    2    1    2    0    0  0.00000000000E+00  0.00000000000E+00  0.50642046819E+03  0.23543732045E+04  0.22992632506E+04 0.  0.
        5    1    3    3  502    0  0.17260684540E+03  0.49000358478E+03  0.13033318442E+04  0.14030654376E+04  0.46999998093E+01 0. -1.
       -5    1    3    3    0  502 -0.17260684540E+03 -0.49000358478E+03 -0.79691137599E+03  0.95130776690E+03  0.46999998093E+01 0.  1.
</event>
<event>
 5   0  0.7932912E-07  0.2299728E+04  0.7818609E-02  0.8478028E-01
        1   -1    0    0  501    0  0.00000000000E+00  0.00000000000E+00  0.13373092928E+04  0.13373092928E+04  0.50400001928E-02 0. -1.
       -1   -1    0    0    0  501  0.00000000000E+00  0.00000000000E+00 -0.98869216952E+03  0.98869216954E+03  0.50400001928E-02 0.  1.
    10030    2    1    2    0    0  0.00000000000E+00  0.00000000000E+00  0.34861712323E+03  0.23260014623E+04  0.22997280065E+04 0.  0.
        5    1    3    3  502    0  0.96751433929E+03  0.25894485073E+03 -0.39697060795E+03  0.10773783857E+04  0.46999998093E+01 0.  1.
       -5    1    3    3    0  502 -0.96751433929E+03 -0.25894485073E+03  0.74558773118E+03  0.12486230766E+04  0.46999998093E+01 0. -1.
</event>
<event>
 5   0  0.7932912E-07  0.2303906E+04  0.7818609E-02  0.8476383E-01
       -1   -1    0    0    0  501  0.00000000000E+00  0.00000000000E+00  0.15074448992E+04  0.15074448992E+04  0.50400001928E-02 0. -1.
        1   -1    0    0  501    0  0.00000000000E+00  0.00000000000E+00 -0.88029492059E+03  0.88029492060E+03  0.50400001928E-02 0.  1.
    10030    2    1    2    0    0  0.00000000000E+00  0.00000000000E+00  0.62714997858E+03  0.23877398198E+04  0.23039063243E+04 0.  0.
        5    1    3    3  502    0  0.52845621805E+03 -0.80163249763E+03  0.97320400127E+03  0.13671242642E+04  0.46999998093E+01 0. -1.
       -5    1    3    3    0  502 -0.52845621805E+03  0.80163249763E+03 -0.34605402270E+03  0.10206155556E+04  0.46999998093E+01 0.  1.
</event>
<event>
 5   0  0.1825521E-06  0.2307320E+04  0.7818609E-02  0.8475041E-01
        2   -1    0    0  501    0  0.00000000000E+00  0.00000000000E+00  0.16024948397E+04  0.16024948397E+04  0.25500000920E-02 0. -1.
       -2   -1    0    0    0  501  0.00000000000E+00  0.00000000000E+00 -0.83053676561E+03  0.83053676561E+03  0.25500000920E-02 0.  1.
    10030    2    1    2    0    0  0.00000000000E+00  0.00000000000E+00  0.77195807410E+03  0.24330316053E+04  0.23073195540E+04 0.  0.
        5    1    3    3  502    0 -0.90363535248E+03  0.92836732878E+02  0.11358745784E+04  0.14544444496E+04  0.46999998093E+01 0.  1.
       -5    1    3    3    0  502  0.90363535248E+03 -0.92836732878E+02 -0.36391650429E+03  0.97858715570E+03  0.46999998093E+01 0. -1.
</event>
<event>
 5   0  0.8108242E-07  0.2299622E+04  0.7818609E-02  0.8478070E-01
       -1   -1    0    0    0  501  0.00000000000E+00  0.00000000000E+00  0.79487364964E+03  0.79487364965E+03  0.50400001928E-02 0.  1.
        1   -1    0    0  501    0  0.00000000000E+00  0.00000000000E+00 -0.16632402385E+04  0.16632402385E+04  0.50400001928E-02 0. -1.
    10030    2    1    2    0    0  0.00000000000E+00  0.00000000000E+00 -0.86836658890E+03  0.24581138882E+04  0.22996224374E+04 0.  0.
        4    1    3    3  502    0 -0.28383710051E+02  0.37806133381E+03 -0.15945054965E+04  0.16389586323E+04  0.12699999809E+01 0. -1.
       -4    1    3    3    0  502  0.28383710051E+02 -0.37806133381E+03  0.72613890764E+03  0.81915525586E+03  0.12699999809E+01 0.  1.
</event>
<event>
 5   0  0.8108242E-07  0.2299628E+04  0.7818609E-02  0.8478068E-01
       -1   -1    0    0    0  501  0.00000000000E+00  0.00000000000E+00  0.56569343977E+03  0.56569343979E+03  0.50400001928E-02 0.  1.
        1   -1    0    0  501    0  0.00000000000E+00  0.00000000000E+00 -0.23370820122E+04  0.23370820122E+04  0.50400001928E-02 0. -1.
    10030    2    1    2    0    0  0.00000000000E+00  0.00000000000E+00 -0.17713885724E+04  0.29027754520E+04  0.22996277634E+04 0.  0.
        4    1    3    3  502    0  0.17373519042E+03  0.26488522501E+03 -0.22809125102E+04  0.23028051569E+04  0.12699999809E+01 0. -1.
       -4    1    3    3    0  502 -0.17373519042E+03 -0.26488522501E+03  0.50952393780E+03  0.59997029502E+03  0.12699999809E+01 0.  1.
</event>
<event>
 5   0  0.7932912E-07  0.2300152E+04  0.7818609E-02  0.8477861E-01
       -1   -1    0    0    0  501  0.00000000000E+00  0.00000000000E+00  0.90774944543E+03  0.90774944545E+03  0.50400001928E-02 0. -1.
        1   -1    0    0  501    0  0.00000000000E+00  0.00000000000E+00 -0.14570922370E+04  0.14570922370E+04  0.50400001928E-02 0.  1.
    10030    2    1    2    0    0  0.00000000000E+00  0.00000000000E+00 -0.54934279158E+03  0.23648416825E+04  0.23001518820E+04 0.  0.
        5    1    3    3  502    0  0.11504060191E+03  0.10453210174E+04  0.20395568622E+03  0.10712377801E+04  0.46999998093E+01 0.  1.
       -5    1    3    3    0  502 -0.11504060191E+03 -0.10453210174E+04 -0.75329847780E+03  0.12936039024E+04  0.46999998093E+01 0. -1.
</event>
<event>
 5   0  0.7607231E-07  0.2300114E+04  0.7818609E-02  0.8477876E-01
       -1   -1    0    0    0  501  0.00000000000E+00  0.00000000000E+00  0.11187001713E+04  0.11187001714E+04  0.50400001928E-02 0. -1.
        1   -1    0    0  501    0  0.00000000000E+00  0.00000000000E+00 -0.11822923596E+04  0.11822923596E+04  0.50400001928E-02 0.  1.
    10030    2    1    2    0    0  0.00000000000E+00  0.00000000000E+00 -0.63592188209E+02  0.23009925309E+04  0.23001136191E+04 0.  0.
        2    1    3    3  502    0  0.34872024797E+02  0.33071488983E+03 -0.11331446896E+04  0.11809340727E+04  0.25500000920E-02 0.  1.
       -2    1    3    3    0  502 -0.34872024797E+02 -0.33071488983E+03  0.10695525014E+04  0.11200584582E+04  0.25500000920E-02 0. -1.
</event>
<event>
 5   0  0.8108242E-07  0.2300163E+04  0.7818609E-02  0.8477857E-01
       -1   -1    0    0    0  501  0.00000000000E+00  0.00000000000E+00  0.14078190954E+04  0.14078190954E+04  0.50400001928E-02 0.  1.
        1   -1    0    0  501    0  0.00000000000E+00  0.00000000000E+00 -0.93952967731E+03  0.93952967732E+03  0.50400001928E-02 0. -1.
    10030    2    1    2    0    0  0.00000000000E+00  0.00000000000E+00  0.46828941806E+03  0.23473487727E+04  0.23001633163E+04 0.  0.
        4    1    3    3  502    0  0.90129807648E+03 -0.69276860592E+02  0.95975001398E+03  0.13184305853E+04  0.12699999809E+01 0.  1.
       -4    1    3    3    0  502 -0.90129807648E+03  0.69276860592E+02 -0.49146059592E+03  0.10289181874E+04  0.12699999809E+01 0. -1.
</event>
<event>
 5   0  0.8108242E-07  0.2300566E+04  0.7818609E-02  0.8477698E-01
       -1   -1    0    0    0  501  0.00000000000E+00  0.00000000000E+00  0.15320110706E+04  0.15320110706E+04  0.50400001928E-02 0.  1.
        1   -1    0    0  501    0  0.00000000000E+00  0.00000000000E+00 -0.86366931720E+03  0.86366931721E+03  0.50400001928E-02 0. -1.
    10030    2    1    2    0    0  0.00000000000E+00  0.00000000000E+00  0.66834175339E+03  0.23956803878E+04  0.23005659784E+04 0.  0.
        4    1    3    3  502    0  0.47740138642E+03  0.77188686389E+03 -0.40174910789E+03  0.99253482205E+03  0.12699999809E+01 0. -1.
       -4    1    3    3    0  502 -0.47740138642E+03 -0.77188686389E+03  0.10700908613E+04  0.14031455658E+04  0.12699999809E+01 0.  1.
</event>
<event>
 5   0  0.7761069E-07  0.2299918E+04  0.7818609E-02  0.8477953E-01
        1   -1    0    0  501    0  0.00000000000E+00  0.00000000000E+00  0.15386785129E+04  0.15386785129E+04  0.50400001928E-02 0. -1.
       -1   -1    0    0    0  501  0.00000000000E+00  0.00000000000E+00 -0.85944252453E+03  0.85944252454E+03  0.50400001928E-02 0.  1.
    10030    2    1    2    0    0  0.00000000000E+00  0.00000000000E+00  0.67923598840E+03  0.23981210375E+04  0.22999180382E+04 0.  0.
        1    1    3    3  502    0 -0.64946833381E+03 -0.63476028772E+03  0.10752016841E+04  0.14074048462E+04  0.50400001928E-02 0. -1.
       -1    1    3    3    0  502  0.64946833381E+03  0.63476028772E+03 -0.39596569573E+03  0.99071619130E+03  0.50400001928E-02 0.  1.
</event>
<event>
 5   0  0.1689444E-06  0.2299766E+04  0.7818609E-02  0.8478013E-01
        2   -1    0    0  501    0  0.00000000000E+00  0.00000000000E+00  0.51460441145E+03  0.51460441146E+03  0.25500000920E-02 0. -1.
       -2   -1    0    0    0  501  0.00000000000E+00  0.00000000000E+00 -0.25694130484E+04  0.25694130484E+04  0.25500000920E-02 0.  1.
    10030    2    1    2    0    0  0.00000000000E+00  0.00000000000E+00 -0.20548086369E+04  0.30840174598E+04  0.22997663269E+04 0.  0.
        2    1    3    3  502    0 -0.70529729017E+03  0.15269029747E+03  0.17313802664E+03  0.74211546995E+03  0.25500000920E-02 0. -1.
       -2    1    3    3    0  502  0.70529729017E+03 -0.15269029747E+03 -0.22279466636E+04  0.23419019899E+04  0.25500000920E-02 0.  1.
</event>
<event>
 5   0  0.7761069E-07  0.2298830E+04  0.7818609E-02  0.8478383E-01
        1   -1    0    0  501    0  0.00000000000E+00  0.00000000000E+00  0.16652543597E+04  0.16652543597E+04  0.50400001928E-02 0. -1.
       -1   -1    0    0    0  501  0.00000000000E+00  0.00000000000E+00 -0.79336525837E+03  0.79336525839E+03  0.50400001928E-02 0.  1.
    10030    2    1    2    0    0  0.00000000000E+00  0.00000000000E+00  0.87188910135E+03  0.24586196181E+04  0.22988300984E+04 0.  0.
        1    1    3    3  502    0  0.10726702402E+04 -0.41230961284E+03  0.41122305736E+03  0.12205429382E+04  0.50400001928E-02 0.  1.
       -1    1    3    3    0  502 -0.10726702402E+04  0.41230961284E+03  0.46066604399E+03  0.12380766799E+04  0.50400001928E-02 0. -1.
</event>
<event>
 5   0  0.8108242E-07  0.2309457E+04  0.7818609E-02  0.8474202E-01
       -1   -1    0    0    0  501  0.00000000000E+00  0.00000000000E+00  0.58775613673E+03  0.58775613675E+03  0.50400001928E-02 0. -1.
        1   -1    0    0  501    0  0.00000000000E+00  0.00000000000E+00 -0.22686246058E+04  0.22686246058E+04  0.50400001928E-02 0.  1.
    10030    2    1    2    0    0  0.00000000000E+00  0.00000000000E+00 -0.16808684691E+04  0.28563807426E+04  0.23094571085E+04 0.  0.
        4    1    3    3  502    0  0.60326904570E+02 -0.48967539031E+02 -0.22653869014E+04  0.22667193432E+04  0.12699999809E+01 0.  1.
       -4    1    3    3    0  502 -0.60326904570E+02  0.48967539031E+02  0.58451843227E+03  0.58966139933E+03  0.12699999809E+01 0. -1.
</event>
<event>
 5   0  0.1825521E-06  0.2299227E+04  0.7818609E-02  0.8478226E-01
       -2   -1    0    0    0  501  0.00000000000E+00  0.00000000000E+00  0.69925639553E+03  0.69925639553E+03  0.25500000920E-02 0.  1.
        2   -1    0    0  501    0  0.00000000000E+00  0.00000000000E+00 -0.18900243461E+04  0.18900243461E+04  0.25500000920E-02 0. -1.
    10030    2    1    2    0    0  0.00000000000E+00  0.00000000000E+00 -0.11907679506E+04  0.25892807416E+04  0.22992273587E+04 0.  0.
        5    1    3    3  502    0  0.11097729099E+04  0.27717533643E+03 -0.46615855702E+03  0.12352117102E+04  0.46999998093E+01 0. -1.
       -5    1    3    3    0  502 -0.11097729099E+04 -0.27717533643E+03 -0.72460939355E+03  0.13540690314E+04  0.46999998093E+01 0.  1.
</event>
<event>
 5   0  0.1825521E-06  0.2300317E+04  0.7818609E-02  0.8477796E-01
        2   -1    0    0  501    0  0.00000000000E+00  0.00000000000E+00  0.14130090646E+04  0.14130090646E+04  0.25500000920E-02 0. -1.
       -2   -1    0    0    0  501  0.00000000000E+00  0.00000000000E+00 -0.93620361819E+03  0.93620361819E+03  0.25500000920E-02 0.  1.
    10030    2    1    2    0    0  0.00000000000E+00  0.00000000000E+00  0.47680544644E+03  0.23492126828E+04  0.23003166728E+04 0.  0.
        5    1    3    3  502    0  0.25457956257E+03  0.10986571701E+04  0.78072825701E+01  0.11278037838E+04  0.46999998093E+01 0. -1.
       -5    1    3    3    0  502 -0.25457956257E+03 -0.10986571701E+04  0.46899816387E+03  0.12214088991E+04  0.46999998093E+01 0.  1.
</event>
<event>
 5   0  0.8097672E-07  0.2299642E+04  0.7818609E-02  0.8478062E-01
        1   -1    0    0  501    0  0.00000000000E+00  0.00000000000E+00  0.17888337051E+04  0.17888337051E+04  0.50400001928E-02 0. -1.
       -1   -1    0    0    0  501  0.00000000000E+00  0.00000000000E+00 -0.73907826349E+03  0.73907826351E+03  0.50400001928E-02 0.  1.
    10030    2    1    2    0    0  0.00000000000E+00  0.00000000000E+00  0.10497554416E+04  0.25279119686E+04  0.22996418056E+04 0.  0.
        3    1    3    3  502    0 -0.15116174028E+03  0.10558205737E+04  0.52730170361E+02  0.10678892437E+04  0.10100000352E+00 0.  1.
       -3    1    3    3    0  502  0.15116174028E+03 -0.10558205737E+04  0.99702527126E+03  0.14600227250E+04  0.10100000352E+00 0. -1.
</event>
<event>
 5   0  0.8108242E-07  0.2302295E+04  0.7818609E-02  0.8477017E-01
        1   -1    0    0  501    0  0.00000000000E+00  0.00000000000E+00  0.71483165977E+03  0.71483165979E+03  0.50400001928E-02 0.  1.
       -1   -1    0    0    0  501  0.00000000000E+00  0.00000000000E+00 -0.18537800195E+04  0.18537800195E+04  0.50400001928E-02 0. -1.
    10030    2    1    2    0    0  0.00000000000E+00  0.00000000000E+00 -0.11389483597E+04  0.25686116793E+04  0.23022950707E+04 0.  0.
        4    1    3    3  502    0  0.11723116204E+03  0.10993790674E+04 -0.92711971296E+03  0.14428894810E+04  0.12699999809E+01 0. -1.
       -4    1    3    3    0  502 -0.11723116204E+03 -0.10993790674E+04 -0.21182864675E+03  0.11257221983E+04  0.12699999809E+01 0.  1.
</event>
<event>
 5   0  0.8108242E-07  0.2301775E+04  0.7818609E-02  0.8477221E-01
       -1   -1    0    0    0  501  0.00000000000E+00  0.00000000000E+00  0.99528975489E+03  0.99528975490E+03  0.50400001928E-02 0. -1.
        1   -1    0    0  501    0  0.00000000000E+00  0.00000000000E+00 -0.13308108503E+04  0.13308108503E+04  0.50400001928E-02 0.  1.
    10030    2    1    2    0    0  0.00000000000E+00  0.00000000000E+00 -0.33552109538E+03  0.23261006052E+04  0.23017753192E+04 0.  0.
        4    1    3    3  502    0 -0.10752865968E+04 -0.36527710665E+03  0.20953835834E+02  0.11358297875E+04  0.12699999809E+01 0. -1.
       -4    1    3    3    0  502  0.10752865968E+04  0.36527710665E+03 -0.35647493121E+03  0.11902708177E+04  0.12699999809E+01 0.  1.
</event>
<event>
 5   0  0.1888779E-06  0.2299782E+04  0.7818609E-02  0.8478007E-01
        2   -1    0    0  501    0  0.00000000000E+00  0.00000000000E+00  0.21685289276E+04  0.21685289276E+04  0.25500000920E-02 0. -1.
       -2   -1    0    0    0  501  0.00000000000E+00  0.00000000000E+00 -0.60974472675E+03  0.60974472676E+03  0.25500000920E-02 0.  1.
    10030    2    1    2    0    0  0.00000000000E+00  0.00000000000E+00  0.15587842008E+04  0.27782736543E+04  0.22997817970E+04 0.  0.
        4    1    3    3  502    0  0.61671746654E+03 -0.84688043828E+03  0.20674052315E+03  0.10678436998E+04  0.12699999809E+01 0. -1.
       -4    1    3    3    0  502 -0.61671746654E+03  0.84688043828E+03  0.13520436777E+04  0.17104299546E+04  0.12699999809E+01 0.  1.
</event>
<event>
 5   0  0.6319125E-07  0.2300147E+04  0.7818609E-02  0.8477863E-01
       -3   -1    0    0    0  501  0.00000000000E+00  0.00000000000E+00  0.11092040383E+04  0.11092040429E+04  0.10100000352E+00 0. -1.
        3   -1    0    0  501    0  0.00000000000E+00  0.00000000000E+00 -0.11924491616E+04  0.11924491659E+04  0.10100000352E+00 0.  1.
    10030    2    1    2    0    0  0.00000000000E+00  0.00000000000E+00 -0.83245123300E+02  0.23016532089E+04  0.23001473308E+04 0.  0.
        2    1    3    3  502    0 -0.10858150619E+04  0.16538014201E+03 -0.38290962286E+03  0.11631701162E+04  0.25500000920E-02 0.  1.
       -2    1    3    3    0  502  0.10858150619E+04 -0.16538014201E+03  0.29966449956E+03  0.11384830927E+04  0.25500000920E-02 0. -1.
</event>
<event>
 5   0  0.8097672E-07  0.2300318E+04  0.7818609E-02  0.8477796E-01
       -1   -1    0    0    0  501  0.00000000000E+00  0.00000000000E+00  0.55418608445E+03  0.55418608448E+03  0.50400001928E-02 0.  1.
        1   -1    0    0  501    0  0.00000000000E+00  0.00000000000E+00 -0.23870417347E+04  0.23870417347E+04  0.50400001928E-02 0. -1.
    10030    2    1    2    0    0  0.00000000000E+00  0.00000000000E+00 -0.18328556502E+04  0.29412278192E+04  0.23003176410E+04 0.  0.
        3    1    3    3  502    0 -0.30003077801E+03  0.52833980052E+03  0.33224204342E+03  0.69249274233E+03  0.10100000352E+00 0.  1.
       -3    1    3    3    0  502  0.30003077801E+03 -0.52833980052E+03 -0.21650976937E+04  0.22487350768E+04  0.10100000352E+00 0. -1.
</event>
<event>
 5   0  0.1689444E-06  0.2301253E+04  0.7818609E-02  0.8477427E-01
       -2   -1    0    0    0  501  0.00000000000E+00  0.00000000000E+00  0.11589921028E+04  0.11589921028E+04  0.25500000920E-02 0. -1.
        2   -1    0    0  501    0  0.00000000000E+00  0.00000000000E+00 -0.11423209003E+04  0.11423209003E+04  0.25500000920E-02 0.  1.
    10030    2    1    2    0    0  0.00000000000E+00  0.00000000000E+00  0.16671202480E+02  0.23013130031E+04  0.23012526174E+04 0.  0.
        2    1    3    3  502    0  0.10687170327E+04 -0.11113598412E+02  0.43456421137E+03  0.11537441926E+04  0.25500000920E-02 0. -1.
       -2    1    3    3    0  502 -0.10687170327E+04  0.11113598412E+02 -0.41789300889E+03  0.11475688105E+04  0.25500000920E-02 0.  1.
</event>
<event>
 5   0  0.1825521E-06  0.2306537E+04  0.7818609E-02  0.8475348E-01
        2   -1    0    0  501    0  0.00000000000E+00  0.00000000000E+00  0.11769784625E+04  0.11769784625E+04  0.25500000920E-02 0.  1.
       -2   -1    0    0    0  501  0.00000000000E+00  0.00000000000E+00 -0.11300365552E+04  0.11300365552E+04  0.25500000920E-02 0. -1.
    10030    2    1    2    0    0  0.00000000000E+00  0.00000000000E+00  0.46941907361E+02  0.23070150177E+04  0.23065373939E+04 0.  0.
        5    1    3    3  502    0  0.96505609153E+02 -0.11369695015E+04  0.19081853227E+03  0.11569126079E+04  0.46999998093E+01 0. -1.
       -5    1    3    3    0  502 -0.96505609153E+02  0.11369695015E+04 -0.14387662491E+03  0.11501024099E+04  0.46999998093E+01 0.  1.
</event>
<event>
 5   0  0.1828646E-06  0.2300497E+04  0.7818609E-02  0.8477725E-01
       -2   -1    0    0    0  501  0.00000000000E+00  0.00000000000E+00  0.14673740213E+04  0.14673740213E+04  0.25500000920E-02 0. -1.
        2   -1    0    0  501    0  0.00000000000E+00  0.00000000000E+00 -0.90165961659E+03  0.90165961659E+03  0.25500000920E-02 0.  1.
    10030    2    1    2    0    0  0.00000000000E+00  0.00000000000E+00  0.56571440467E+03  0.23690336378E+04  0.23004972483E+04 0.  0.
        3    1    3    3  502    0  0.13626520596E+03  0.67035198674E+03 -0.66942586400E+03  0.95711597524E+03  0.10100000352E+00 0.  1.
       -3    1    3    3    0  502 -0.13626520596E+03 -0.67035198674E+03  0.12351402687E+04  0.14119176626E+04  0.10100000352E+00 0. -1.
</event>
<event>
 5   0  0.7607231E-07  0.2285663E+04  0.7818609E-02  0.8483596E-01
       -1   -1    0    0    0  501  0.00000000000E+00  0.00000000000E+00  0.76779130707E+03  0.76779130709E+03  0.50400001928E-02 0.  1.
        1   -1    0    0  501    0  0.00000000000E+00  0.00000000000E+00 -0.17010660692E+04  0.17010660692E+04  0.50400001928E-02 0. -1.
    10030    2    1    2    0    0  0.00000000000E+00  0.00000000000E+00 -0.93327476215E+03  0.24688573763E+04  0.22856629154E+04 0.  0.
        2    1    3    3  502    0 -0.31869034609E+03 -0.92005481006E+03 -0.11129236653E+04  0.14787371217E+04  0.25500000920E-02 0. -1.
       -2    1    3    3    0  502  0.31869034609E+03  0.92005481006E+03  0.17964890318E+03  0.99012025463E+03  0.25500000920E-02 0.  1.
</event>
<event>
 5   0  0.1828646E-06  0.2299705E+04  0.7818609E-02  0.8478037E-01
        2   -1    0    0  501    0  0.00000000000E+00  0.00000000000E+00  0.24744693822E+04  0.24744693822E+04  0.25500000920E-02 0. -1.
       -2   -1    0    0    0  501  0.00000000000E+00  0.00000000000E+00 -0.53432085635E+03  0.53432085635E+03  0.25500000920E-02 0.  1.
    10030    2    1    2    0    0  0.00000000000E+00  0.00000000000E+00  0.19401485259E+04  0.30087902386E+04  0.22997048500E+04 0.  0.
        3    1    3    3  502    0 -0.15782689430E+03 -0.57368719639E+03 -0.31724896367E+03  0.67429462627E+03  0.10100000352E+00 0.  1.
       -3    1    3    3    0  502  0.15782689430E+03  0.57368719639E+03  0.22573974896E+04  0.23344956123E+04  0.10100000352E+00 0. -1.
</event>
<event>
 5   0  0.7932912E-07  0.2300780E+04  0.7818609E-02  0.8477614E-01
       -1   -1    0    0    0  501  0.00000000000E+00  0.00000000000E+00  0.76606971672E+03  0.76606971674E+03  0.50400001928E-02 0. -1.
        1   -1    0    0  501    0  0.00000000000E+00  0.00000000000E+00 -0.17275149252E+04  0.17275149252E+04  0.50400001928E-02 0.  1.
    10030    2    1    2    0    0  0.00000000000E+00  0.00000000000E+00 -0.96144520852E+03  0.24935846420E+04  0.23007797543E+04 0.  0.
        5    1    3    3  502    0 -0.43376909958E+03  0.88927818993E+03 -0.11167602378E+04  0.14920277643E+04  0.46999998093E+01 0.  1.
       -5    1    3    3    0  502  0.43376909958E+03 -0.88927818993E+03  0.15531502929E+03  0.10015568776E+04  0.46999998093E+01 0. -1.
</event>
<event>
 5   0  0.8097672E-07  0.2298475E+04  0.7818609E-02  0.8478523E-01
       -1   -1    0    0    0  501  0.00000000000E+00  0.00000000000E+00  0.15742620875E+04  0.15742620875E+04  0.50400001928E-02 0.  1.
        1   -1    0    0  501    0  0.00000000000E+00  0.00000000000E+00 -0.83896238613E+03  0.83896238615E+03  0.50400001928E-02 0. -1.
    10030    2    1    2    0    0  0.00000000000E+00  0.00000000000E+00  0.73529970134E+03  0.24132244736E+04  0.22984748659E+04 0.  0.
        3    1    3    3  502    0  0.11437186516E+04 -0.98734717499E+02  0.42424620726E+03  0.12238569169E+04  0.10100000352E+00 0.  1.
       -3    1    3    3    0  502 -0.11437186516E+04  0.98734717499E+02  0.31105349407E+03  0.11893675567E+04  0.10100000352E+00 0. -1.
</event>
<event>
 5   0  0.8108242E-07  0.2299761E+04  0.7818609E-02  0.8478015E-01
        1   -1    0    0  501    0  0.00000000000E+00  0.00000000000E+00  0.10450378210E+04  0.10450378210E+04  0.50400001928E-02 0. -1.
       -1   -1    0    0    0  501  0.00000000000E+00  0.00000000000E+00 -0.12652414202E+04  0.12652414203E+04  0.50400001928E-02 0.  1.
    10030    2    1    2    0    0  0.00000000000E+00  0.00000000000E+00 -0.22020359925E+03  0.23102792413E+04  0.22997609762E+04 0.  0.
        4    1    3    3  502    0  0.40701142732E+03 -0.10753823440E+04 -0.99187660148E+02  0.11540993426E+04  0.12699999809E+01 0. -1.
       -4    1    3    3    0  502 -0.40701142732E+03  0.10753823440E+04 -0.12101593910E+03  0.11561798987E+04  0.12699999809E+01 0.  1.
</event>
<event>
 5   0  0.1888779E-06  0.2299763E+04  0.7818609E-02  0.8478015E-01
        2   -1    0    0  501    0  0.00000000000E+00  0.00000000000E+00  0.12440506752E+04  0.12440506752E+04  0.25500000920E-02 0. -1.
       -2   -1    0    0    0  501  0.00000000000E+00  0.00000000000E+00 -0.10628401992E+04  0.10628401992E+04  0.25500000920E-02 0.  1.
    10030    2    1    2    0    0  0.00000000000E+00  0.00000000000E+00  0.18121047594E+03  0.23068908744E+04  0.22997626551E+04 0.  0.
        4    1    3    3  502    0  0.42756951261E+02  0.11274828442E+04  0.31305765026E+03  0.11709194790E+04  0.12699999809E+01 0. -1.
       -4    1    3    3    0  502 -0.42756951261E+02 -0.11274828442E+04 -0.13184717432E+03  0.11359713954E+04  0.12699999809E+01 0.  1.
</event>
<event>
 5   0  0.8108242E-07  0.2299100E+04  0.7818609E-02  0.8478276E-01
       -1   -1    0    0    0  501  0.00000000000E+00  0.00000000000E+00  0.88083296206E+03  0.88083296208E+03  0.50400001928E-02 0.  1.
        1   -1    0    0  501    0  0.00000000000E+00  0.00000000000E+00 -0.15002444217E+04  0.15002444217E+04  0.50400001928E-02 0. -1.
    10030    2    1    2    0    0  0.00000000000E+00  0.00000000000E+00 -0.61941145966E+03  0.23810773838E+04  0.22990995958E+04 0.  0.
        4    1    3    3  502    0  0.98630031082E+03  0.47822253139E+03  0.49023357296E+02  0.10972192101E+04  0.12699999809E+01 0.  1.
       -4    1    3    3    0  502 -0.98630031082E+03 -0.47822253139E+03 -0.66843481696E+03  0.12838581737E+04  0.12699999809E+01 0. -1.
</event>
<event>
 5   0  0.1825521E-06  0.2299380E+04  0.7818609E-02  0.8478165E-01
       -2   -1    0    0    0  501  0.00000000000E+00  0.00000000000E+00  0.93457704417E+03  0.93457704417E+03  0.25500000920E-02 0.  1.
        2   -1    0    0  501    0  0.00000000000E+00  0.00000000000E+00 -0.14143161832E+04  0.14143161832E+04  0.25500000920E-02 0. -1.
    10030    2    1    2    0    0  0.00000000000E+00  0.00000000000E+00 -0.47973913906E+03  0.23488932274E+04  0.22993802974E+04 0.  0.
        5    1    3    3  502    0 -0.79653471290E+03  0.79342657467E+03 -0.48540345343E+03  0.12245945782E+04  0.46999998093E+01 0.  1.
       -5    1    3    3    0  502  0.79653471290E+03 -0.79342657467E+03  0.56643143650E+01  0.11242986492E+04  0.46999998093E+01 0. -1.
</event>
<event>
 5   0  0.8097672E-07  0.2300001E+04  0.7818609E-02  0.8477921E-01
       -1   -1    0    0    0  501  0.00000000000E+00  0.00000000000E+00  0.78893607544E+03  0.78893607546E+03  0.50400001928E-02 0. -1.
        1   -1    0    0  501    0  0.00000000000E+00  0.00000000000E+00 -0.16763098607E+04  0.16763098607E+04  0.50400001928E-02 0.  1.
    10030    2    1    2    0    0  0.00000000000E+00  0.00000000000E+00 -0.88737378527E+03  0.24652459362E+04  0.23000011502E+04 0.  0.
        3    1    3    3  502    0  0.71657856579E+03  0.48162354006E+03 -0.12579052539E+04  0.15257036781E+04  0.10100000352E+00 0.  1.
       -3    1    3    3    0  502 -0.71657856579E+03 -0.48162354006E+03  0.37053146864E+03  0.93954225810E+03  0.10100000352E+00 0. -1.
</event>
<event>
 5   0  0.1689444E-06  0.2300154E+04  0.7818609E-02  0.8477860E-01
       -2   -1    0    0    0  501  0.00000000000E+00  0.00000000000E+00  0.10921692080E+04  0.10921692080E+04  0.25500000920E-02 0. -1.
        2   -1    0    0  501    0  0.00000000000E+00  0.00000000000E+00 -0.12110552412E+04  0.12110552412E+04  0.25500000920E-02 0.  1.
    10030    2    1    2    0    0  0.00000000000E+00  0.00000000000E+00 -0.11888603326E+03  0.23032244492E+04  0.23001541197E+04 0.  0.
        2    1    3    3  502    0 -0.98506643333E+03 -0.49501874159E+03  0.26852710210E+03  0.11346833202E+04  0.25500000920E-02 0. -1.
       -2    1    3    3    0  502  0.98506643333E+03  0.49501874159E+03 -0.38741313537E+03  0.11685411290E+04  0.25500000920E-02 0.  1.
</event>
<event>
 5   0  0.1888779E-06  0.2305936E+04  0.7818609E-02  0.8475584E-01
        2   -1    0    0  501    0  0.00000000000E+00  0.00000000000E+00  0.79643542404E+03  0.79643542404E+03  0.25500000920E-02 0.  1.
       -2   -1    0    0    0  501  0.00000000000E+00  0.00000000000E+00 -0.16691063024E+04  0.16691063024E+04  0.25500000920E-02 0. -1.
    10030    2    1    2    0    0  0.00000000000E+00  0.00000000000E+00 -0.87267087838E+03  0.24655417265E+04  0.23059361533E+04 0.  0.
        4    1    3    3  502    0 -0.26939882175E+03  0.90945910211E+03 -0.11371748872E+04  0.14808308211E+04  0.12699999809E+01 0. -1.
       -4    1    3    3    0  502  0.26939882175E+03 -0.90945910211E+03  0.26450400887E+03  0.98471090538E+03  0.12699999809E+01 0.  1.
</event>
<event>
 5   0  0.1689444E-06  0.2292549E+04  0.7818609E-02  0.8480865E-01
       -2   -1    0    0    0  501  0.00000000000E+00  0.00000000000E+00  0.15716741492E+04  0.15716741492E+04  0.25500000920E-02 0.  1.
        2   -1    0    0  501    0  0.00000000000E+00  0.00000000000E+00 -0.83601665656E+03  0.83601665656E+03  0.25500000920E-02 0. -1.
    10030    2    1    2    0    0  0.00000000000E+00  0.00000000000E+00  0.73565749262E+03  0.24076908057E+04  0.22925494694E+04 0.  0.
        2    1    3    3  502    0 -0.42282038961E+03 -0.17608318373E+03  0.14713956612E+04  0.15410345750E+04  0.25500000920E-02 0.  1.
       -2    1    3    3    0  502  0.42282038961E+03  0.17608318373E+03 -0.73573816863E+03  0.86665623072E+03  0.25500000920E-02 0. -1.
</event>
<event>
 5   0  0.8108242E-07  0.2303819E+04  0.7818609E-02  0.8476417E-01
       -1   -1    0    0    0  501  0.00000000000E+00  0.00000000000E+00  0.55284325661E+03  0.55284325663E+03  0.50400001928E-02 0.  1.
        1   -1    0    0  501    0  0.00000000000E+00  0.00000000000E+00 -0.24001293672E+04  0.24001293672E+04  0.50400001928E-02 0. -1.
    10030    2    1    2    0    0  0.00000000000E+00  0.00000000000E+00 -0.18472861106E+04  0.29529726238E+04  0.23038188606E+04 0.  0.
        4    1    3    3  502    0 -0.38749890537E+03 -0.33370556850E+03  0.39936698483E+03  0.64885314947E+03  0.12699999809E+01 0.  1.
       -4    1    3    3    0  502  0.38749890537E+03  0.33370556850E+03 -0.22466530954E+04  0.23041194743E+04  0.12699999809E+01 0. -1.
</event>
<event>
 5   0  0.1825521E-06  0.2295721E+04  0.7818609E-02  0.8479610E-01
       -2   -1    0    0    0  501  0.00000000000E+00  0.00000000000E+00  0.16868448538E+04  0.16868448538E+04  0.25500000920E-02 0. -1.
        2   -1    0    0  501    0  0.00000000000E+00  0.00000000000E+00 -0.78109344331E+03  0.78109344331E+03  0.25500000920E-02 0.  1.
    10030    2    1    2    0    0  0.00000000000E+00  0.00000000000E+00  0.90575141047E+03  0.24679382971E+04  0.22957207628E+04 0.  0.
        5    1    3    3  502    0 -0.32020572068E+03  0.72585024706E+03 -0.43891603230E+03  0.90667505652E+03  0.46999998093E+01 0.  1.
       -5    1    3    3    0  502  0.32020572068E+03 -0.72585024706E+03  0.13446674428E+04  0.15612632406E+04  0.46999998093E+01 0. -1.
</event>
<event>
 5   0  0.7607231E-07  0.2310587E+04  0.7818609E-02  0.8473758E-01
       -1   -1    0    0    0  501  0.00000000000E+00  0.00000000000E+00  0.59235882103E+03  0.59235882105E+03  0.50400001928E-02 0.  1.
        1   -1    0    0  501    0  0.00000000000E+00  0.00000000000E+00 -0.22532007018E+04  0.22532007018E+04  0.50400001928E-02 0. -1.
    10030    2    1    2    0    0  0.00000000000E+00  0.00000000000E+00 -0.16608418807E+04  0.28455595228E+04  0.23105872079E+04 0.  0.
        2    1    3    3  502    0  0.88347838184E+02  0.11460232276E+04 -0.97366409115E+03  0.15063851902E+04  0.25500000920E-02 0. -1.
       -2    1    3    3    0  502 -0.88347838184E+02 -0.11460232276E+04 -0.68717778959E+03  0.13391743327E+04  0.25500000920E-02 0.  1.
</event>
<event>
 5   0  0.7761069E-07  0.2299272E+04  0.7818609E-02  0.8478208E-01
        1   -1    0    0  501    0  0.00000000000E+00  0.00000000000E+00  0.21491012462E+04  0.21491012462E+04  0.50400001928E-02 0.  1.
       -1   -1    0    0    0  501  0.00000000000E+00  0.00000000000E+00 -0.61498407256E+03  0.61498407258E+03  0.50400001928E-02 0. -1.
    10030    2    1    2    0    0  0.00000000000E+00  0.00000000000E+00  0.15341171736E+04  0.27640853188E+04  0.22992720907E+04 0.  0.
        1    1    3    3  502    0 -0.96408494102E+03  0.41892735360E+03  0.13266791630E+04  0.16926421661E+04  0.50400001928E-02 0.  1.
       -1    1    3    3    0  502  0.96408494102E+03 -0.41892735360E+03  0.20743801069E+03  0.10714431527E+04  0.50400001928E-02 0. -1.
</event>
<event>
 5   0  0.7932912E-07  0.2294725E+04  0.7818609E-02  0.8480004E-01
       -1   -1    0    0    0  501  0.00000000000E+00  0.00000000000E+00  0.97875232621E+03  0.97875232623E+03  0.50400001928E-02 0.  1.
        1   -1    0    0  501    0  0.00000000000E+00  0.00000000000E+00 -0.13450191696E+04  0.13450191696E+04  0.50400001928E-02 0. -1.
    10030    2    1    2    0    0  0.00000000000E+00  0.00000000000E+00 -0.36626684340E+03  0.23237714959E+04  0.22947249431E+04 0.  0.
        5    1    3    3  502    0 -0.69211871433E+03  0.49691166949E+03 -0.96127988063E+03  0.12845351770E+04  0.46999998093E+01 0. -1.
       -5    1    3    3    0  502  0.69211871433E+03 -0.49691166949E+03  0.59501303723E+03  0.10392363189E+04  0.46999998093E+01 0.  1.
</event>
<event>
 5   0  0.8108242E-07  0.2299559E+04  0.7818609E-02  0.8478095E-01
       -1   -1    0    0    0  501  0.00000000000E+00  0.00000000000E+00  0.10984966125E+04  0.10984966125E+04  0.50400001928E-02 0. -1.
        1   -1    0    0  501    0  0.00000000000E+00  0.00000000000E+00 -0.12034563211E+04  0.12034563211E+04  0.50400001928E-02 0.  1.
    10030    2    1    2    0    0  0.00000000000E+00  0.00000000000E+00 -0.10495970859E+03  0.23019529336E+04  0.22995588203E+04 0.  0.
        4    1    3    3  502    0 -0.73408476193E+03 -0.13385866500E+03 -0.92814339746E+03  0.11909031695E+04  0.12699999809E+01 0.  1.
       -4    1    3    3    0  502  0.73408476193E+03  0.13385866500E+03  0.82318368887E+03  0.11110497641E+04  0.12699999809E+01 0. -1.
</event>
<event>
 5   0  0.1744876E-06  0.2299446E+04  0.7818609E-02  0.8478140E-01
       -2   -1    0    0    0  501  0.00000000000E+00  0.00000000000E+00  0.46833175823E+03  0.46833175824E+03  0.25500000920E-02 0.  1.
        2   -1    0    0  501    0  0.00000000000E+00  0.00000000000E+00 -0.28224919510E+04  0.28224919510E+04  0.25500000920E-02 0. -1.
    10030    2    1    2    0    0  0.00000000000E+00  0.00000000000E+00 -0.23541601928E+04  0.32908237092E+04  0.22994456880E+04 0.  0.
        1    1    3    3  502    0 -0.72744976937E+02 -0.14867878482E+03  0.45119089450E+03  0.48059383687E+03  0.50400001928E-02 0.  1.
       -1    1    3    3    0  502  0.72744976937E+02  0.14867878482E+03 -0.28053510873E+04  0.28102298724E+04  0.50400001928E-02 0. -1.
</event>
<event>
 5   0  0.7761069E-07  0.2296517E+04  0.7818609E-02  0.8479296E-01
        1   -1    0    0  501    0  0.00000000000E+00  0.00000000000E+00  0.91948550245E+03  0.91948550246E+03  0.50400001928E-02 0.  1.
       -1   -1    0    0    0  501  0.00000000000E+00  0.00000000000E+00 -0.14339510268E+04  0.14339510268E+04  0.50400001928E-02 0. -1.
    10030    2    1    2    0    0  0.00000000000E+00  0.00000000000E+00 -0.51446552433E+03  0.23534365292E+04  0.22965166495E+04 0.  0.
        1    1    3    3  502    0 -0.77670450059E+03  0.10182010479E+03  0.60313536613E+03  0.98864022014E+03  0.50400001928E-02 0.  1.
       -1    1    3    3    0  502  0.77670450059E+03 -0.10182010479E+03 -0.11176008905E+04  0.13647963091E+04  0.50400001928E-02 0. -1.
</event>
<event>
 5   0  0.1828646E-06  0.2300115E+04  0.7818609E-02  0.8477876E-01
       -2   -1    0    0    0  501  0.00000000000E+00  0.00000000000E+00  0.44426155630E+03  0.44426155631E+03  0.25500000920E-02 0. -1.
        2   -1    0    0  501    0  0.00000000000E+00  0.00000000000E+00 -0.29771476579E+04  0.29771476579E+04  0.25500000920E-02 0.  1.
    10030    2    1    2    0    0  0.00000000000E+00  0.00000000000E+00 -0.25328861016E+04  0.34214092142E+04  0.23001149987E+04 0.  0.
        3    1    3    3  502    0 -0.41929857017E+03 -0.85996998069E+03 -0.22157311977E+04  0.24134673003E+04  0.10100000352E+00 0.  1.
       -3    1    3    3    0  502  0.41929857017E+03  0.85996998069E+03 -0.31715490385E+03  0.10079419139E+04  0.10100000352E+00 0. -1.
</event>
<event>
 5   0  0.1744876E-06  0.2299201E+04  0.7818609E-02  0.8478236E-01
       -2   -1    0    0    0  501  0.00000000000E+00  0.00000000000E+00  0.66208646847E+03  0.66208646847E+03  0.25500000920E-02 0. -1.
        2   -1    0    0  501    0  0.00000000000E+00  0.00000000000E+00 -0.19960859936E+04  0.19960859936E+04  0.25500000920E-02 0.  1.
    10030    2    1    2    0    0  0.00000000000E+00  0.00000000000E+00 -0.13339995252E+04  0.26581724621E+04  0.22992011885E+04 0.  0.
        1    1    3    3  502    0  0.18347801217E+03 -0.39835067624E+03  0.56156532103E+03  0.71253284276E+03  0.50400001928E-02 0. -1.
       -1    1    3    3    0  502 -0.18347801217E+03  0.39835067624E+03 -0.18955648462E+04  0.19456396193E+04  0.50400001928E-02 0.  1.
</event>
<event>
 5   0  0.1744876E-06  0.2300809E+04  0.7818609E-02  0.8477602E-01
       -2   -1    0    0    0  501  0.00000000000E+00  0.00000000000E+00  0.12982764643E+04  0.12982764643E+04  0.25500000920E-02 0. -1.
        2   -1    0    0  501    0  0.00000000000E+00  0.00000000000E+00 -0.10193745912E+04  0.10193745912E+04  0.25500000920E-02 0.  1.
    10030    2    1    2    0    0  0.00000000000E+00  0.00000000000E+00  0.27890187308E+03  0.23176510555E+04  0.23008085884E+04 0.  0.
        1    1    3    3  502    0  0.30082885309E+03  0.82144832346E+03  0.89201738078E+03  0.12493879920E+04  0.50400001928E-02 0. -1.
       -1    1    3    3    0  502 -0.30082885309E+03 -0.82144832346E+03 -0.61311550771E+03  0.10682630635E+04  0.50400001928E-02 0.  1.
</event>
<event>
 5   0  0.1825521E-06  0.2300542E+04  0.7818609E-02  0.8477708E-01
        2   -1    0    0  501    0  0.00000000000E+00  0.00000000000E+00  0.24261547318E+04  0.24261547319E+04  0.25500000920E-02 0. -1.
       -2   -1    0    0    0  501  0.00000000000E+00  0.00000000000E+00 -0.54535810262E+03  0.54535810262E+03  0.25500000920E-02 0.  1.
    10030    2    1    2    0    0  0.00000000000E+00  0.00000000000E+00  0.18807966292E+04  0.29715128345E+04  0.23005417981E+04 0.  0.
        5    1    3    3  502    0  0.38087244895E+02  0.16430951951E+03  0.24100828985E+04  0.24159821862E+04  0.46999998093E+01 0. -1.
       -5    1    3    3    0  502 -0.38087244895E+02 -0.16430951951E+03 -0.52928626922E+03  0.55553064831E+03  0.46999998093E+01 0.  1.
</event>
<event>
 5   0  0.7932912E-07  0.2301741E+04  0.7818609E-02  0.8477235E-01
       -1   -1    0    0    0  501  0.00000000000E+00  0.00000000000E+00  0.13883622704E+04  0.13883622704E+04  0.50400001928E-02 0.  1.
        1   -1    0    0  501    0  0.00000000000E+00  0.00000000000E+00 -0.95400364573E+03  0.95400364574E+03  0.50400001928E-02 0. -1.
    10030    2    1    2    0    0  0.00000000000E+00  0.00000000000E+00  0.43435862466E+03  0.23423659161E+04  0.23017407913E+04 0.  0.
        5    1    3    3  502    0 -0.25293522373E+03 -0.77546912978E+03  0.10433905654E+04  0.13243921476E+04  0.46999998093E+01 0.  1.
       -5    1    3    3    0  502  0.25293522373E+03  0.77546912978E+03 -0.60903194073E+03  0.10179737686E+04  0.46999998093E+01 0. -1.
</event>
<event>
 5   0  0.1828646E-06  0.2298882E+04  0.7818609E-02  0.8478362E-01
        2   -1    0    0  501    0  0.00000000000E+00  0.00000000000E+00  0.12318076381E+04  0.12318076381E+04  0.25500000920E-02 0.  1.
       -2   -1    0    0    0  501  0.00000000000E+00  0.00000000000E+00 -0.10725817782E+04  0.10725817782E+04  0.25500000920E-02 0. -1.
    10030    2    1    2    0    0  0.00000000000E+00  0.00000000000E+00  0.15922585990E+03  0.23043894163E+04  0.22988818385E+04 0.  0.
        3    1    3    3  502    0  0.23309146099E+02  0.11435406919E+04  0.19384113365E+03  0.11600875078E+04  0.10100000352E+00 0. -1.
       -3    1    3    3    0  502 -0.23309146099E+02 -0.11435406919E+04 -0.34615273752E+02  0.11443019085E+04  0.10100000352E+00 0.  1.
</event>
<event>
 5   0  0.7607231E-07  0.2300542E+04  0.7818609E-02  0.8477707E-01
       -1   -1    0    0    0  501  0.00000000000E+00  0.00000000000E+00  0.10315998936E+04  0.10315998936E+04  0.50400001928E-02 0. -1.
        1   -1    0    0  501    0  0.00000000000E+00  0.00000000000E+00 -0.12825935749E+04  0.12825935749E+04  0.50400001928E-02 0.  1.
    10030    2    1    2    0    0  0.00000000000E+00  0.00000000000E+00 -0.25099368127E+03  0.23141934686E+04  0.23005420191E+04 0.  0.
        2    1    3    3  502    0 -0.10243708147E+04  0.21614037795E+03  0.35385068406E+03  0.11051074769E+04  0.25500000920E-02 0. -1.
       -2    1    3    3    0  502  0.10243708147E+04 -0.21614037795E+03 -0.60484436533E+03  0.12090859916E+04  0.25500000920E-02 0.  1.
</event>
<event>
 5   0  0.7761069E-07  0.2300637E+04  0.7818609E-02  0.8477670E-01
       -1   -1    0    0    0  501  0.00000000000E+00  0.00000000000E+00  0.99236698598E+03  0.99236698599E+03  0.50400001928E-02 0.  1.
        1   -1    0    0  501    0  0.00000000000E+00  0.00000000000E+00 -0.13334106210E+04  0.13334106210E+04  0.50400001928E-02 0. -1.
    10030    2    1    2    0    0  0.00000000000E+00  0.00000000000E+00 -0.34104363506E+03  0.23257776070E+04  0.23006370240E+04 0.  0.
        1    1    3    3  502    0  0.33999250591E+02 -0.11165917181E+04 -0.44792829795E+03  0.12035666887E+04  0.50400001928E-02 0. -1.
       -1    1    3    3    0  502 -0.33999250591E+02  0.11165917181E+04  0.10688466290E+03  0.11222109183E+04  0.50400001928E-02 0.  1.
</event>
<event>
 5   0  0.8097672E-07  0.2295209E+04  0.7818609E-02  0.8479812E-01
       -1   -1    0    0    0  501  0.00000000000E+00  0.00000000000E+00  0.91748513616E+03  0.91748513617E+03  0.50400001928E-02 0.  1.
        1   -1    0    0  501    0  0.00000000000E+00  0.00000000000E+00 -0.14354418435E+04  0.14354418435E+04  0.50400001928E-02 0. -1.
    10030    2    1    2    0    0  0.00000000000E+00  0.00000000000E+00 -0.51795670735E+03  0.23529269797E+04  0.22952094068E+04 0.  0.
        3    1    3    3  502    0 -0.10826899002E+04  0.43398152079E+02  0.12854310243E+03  0.10911572567E+04  0.10100000352E+00 0.  1.
       -3    1    3    3    0  502  0.10826899002E+04 -0.43398152079E+02 -0.64649980978E+03  0.12617697230E+04  0.10100000352E+00 0. -1.
</event>
<event>
 5   0  0.8097672E-07  0.2298812E+04  0.7818609E-02  0.8478389E-01
       -1   -1    0    0    0  501  0.00000000000E+00  0.00000000000E+00  0.10323452684E+04  0.10323452684E+04  0.50400001928E-02 0.  1.
        1   -1    0    0  501    0  0.00000000000E+00  0.00000000000E+00 -0.12797411168E+04  0.12797411168E+04  0.50400001928E-02 0. -1.
    10030    2    1    2    0    0  0.00000000000E+00  0.00000000000E+00 -0.24739584842E+03  0.23120863852E+04  0.22988124645E+04 0.  0.
        3    1    3    3  502    0 -0.18753600021E+03 -0.99491329306E+03  0.42360637230E+03  0.10974810162E+04  0.10100000352E+00 0.  1.
       -3    1    3    3    0  502  0.18753600021E+03  0.99491329306E+03 -0.67100222072E+03  0.12146053690E+04  0.10100000352E+00 0. -1.
</event>
<event>
 5   0  0.1689444E-06  0.2298485E+04  0.7818609E-02  0.8478519E-01
        2   -1    0    0  501    0  0.00000000000E+00  0.00000000000E+00  0.97580516469E+03  0.97580516469E+03  0.25500000920E-02 0.  1.
       -2   -1    0    0    0  501  0.00000000000E+00  0.00000000000E+00 -0.13535065614E+04  0.13535065614E+04  0.25500000920E-02 0. -1.
    10030    2    1    2    0    0  0.00000000000E+00  0.00000000000E+00 -0.37770139675E+03  0.23293117261E+04  0.22984853213E+04 0.  0.
        2    1    3    3  502    0  0.10139602678E+04 -0.40847790511E+03 -0.54827491145E+03  0.12229370393E+04  0.25500000920E-02 0. -1.
       -2    1    3    3    0  502 -0.10139602678E+04  0.40847790511E+03  0.17057351469E+03  0.11063746868E+04  0.25500000920E-02 0.  1.
</event>
<event>
 5   0  0.7932912E-07  0.2298691E+04  0.7818609E-02  0.8478438E-01
        1   -1    0    0  501    0  0.00000000000E+00  0.00000000000E+00  0.16571827305E+04  0.16571827305E+04  0.50400001928E-02 0. -1.
       -1   -1    0    0    0  501  0.00000000000E+00  0.00000000000E+00 -0.79713284850E+03  0.79713284851E+03  0.50400001928E-02 0.  1.
    10030    2    1    2    0    0  0.00000000000E+00  0.00000000000E+00  0.86004988196E+03  0.24543155790E+04  0.22986907495E+04 0.  0.
        5    1    3    3  502    0 -0.96464358426E+03  0.32392687129E+03  0.10005281781E+04  0.14270755368E+04  0.46999998093E+01 0.  1.
       -5    1    3    3    0  502  0.96464358426E+03 -0.32392687129E+03 -0.14047829610E+03  0.10272400422E+04  0.46999998093E+01 0. -1.
</event>
<event>
 5   0  0.1825521E-06  0.2299539E+04  0.7818609E-02  0.8478103E-01
       -2   -1    0    0    0  501  0.00000000000E+00  0.00000000000E+00  0.14471140884E+04  0.14471140884E+04  0.25500000920E-02 0.  1.
        2   -1    0    0  501    0  0.00000000000E+00  0.00000000000E+00 -0.91352125315E+03  0.91352125316E+03  0.25500000920E-02 0. -1.
    10030    2    1    2    0    0  0.00000000000E+00  0.00000000000E+00  0.53359283525E+03  0.23606353416E+04  0.22995386281E+04 0.  0.
        5    1    3    3  502    0 -0.11142378341E+02 -0.12102559213E+03  0.14404913641E+04  0.14456171023E+04  0.46999998093E+01 0.  1.
       -5    1    3    3    0  502  0.11142378341E+02  0.12102559213E+03 -0.90689852883E+03  0.91501823924E+03  0.46999998093E+01 0. -1.
</event>
<event>
 5   0  0.7607231E-07  0.2299649E+04  0.7818609E-02  0.8478059E-01
       -1   -1    0    0    0  501  0.00000000000E+00  0.00000000000E+00  0.10217387120E+04  0.10217387121E+04  0.50400001928E-02 0.  1.
        1   -1    0    0  501    0  0.00000000000E+00  0.00000000000E+00 -0.12939674665E+04  0.12939674665E+04  0.50400001928E-02 0. -1.
    10030    2    1    2    0    0  0.00000000000E+00  0.00000000000E+00 -0.27222875448E+03  0.23157061786E+04  0.22996492365E+04 0.  0.
        2    1    3    3  502    0 -0.33233253922E+03  0.45984324189E+03  0.87096661046E+03  0.10394631115E+04  0.25500000920E-02 0.  1.
       -2    1    3    3    0  502  0.33233253922E+03 -0.45984324189E+03 -0.11431953649E+04  0.12762430670E+04  0.25500000920E-02 0. -1.
</event>
<event>
 5   0  0.1825521E-06  0.2300564E+04  0.7818609E-02  0.8477699E-01
       -2   -1    0    0    0  501  0.00000000000E+00  0.00000000000E+00  0.15080406517E+04  0.15080406517E+04  0.25500000920E-02 0.  1.
        2   -1    0    0  501    0  0.00000000000E+00  0.00000000000E+00 -0.87739595232E+03  0.87739595232E+03  0.25500000920E-02 0. -1.
    10030    2    1    2    0    0  0.00000000000E+00  0.00000000000E+00  0.63064469934E+03  0.23854366040E+04  0.23005640732E+04 0.  0.
        5    1    3    3  502    0 -0.86021527191E+03  0.33613465914E+03  0.10263081615E+04  0.13806836551E+04  0.46999998093E+01 0.  1.
       -5    1    3    3    0  502  0.86021527191E+03 -0.33613465914E+03 -0.39566346211E+03  0.10047529489E+04  0.46999998093E+01 0. -1.
</event>
<event>
 5   0  0.7761069E-07  0.2298780E+04  0.7818609E-02  0.8478402E-01
       -1   -1    0    0    0  501  0.00000000000E+00  0.00000000000E+00  0.61530521450E+03  0.61530521452E+03  0.50400001928E-02 0.  1.
        1   -1    0    0  501    0  0.00000000000E+00  0.00000000000E+00 -0.21470605615E+04  0.21470605615E+04  0.50400001928E-02 0. -1.
    10030    2    1    2    0    0  0.00000000000E+00  0.00000000000E+00 -0.15317553470E+04  0.27623657760E+04  0.22987801629E+04 0.  0.
        1    1    3    3  502    0 -0.54719537554E+03 -0.53121076690E+03 -0.17992334410E+04  0.19541874611E+04  0.50400001928E-02 0. -1.
       -1    1    3    3    0  502  0.54719537554E+03  0.53121076690E+03  0.26747809401E+03  0.80817831491E+03  0.50400001928E-02 0.  1.
</event>
<event>
 5   0  0.7607231E-07  0.2299274E+04  0.7818609E-02  0.8478207E-01
       -1   -1    0    0    0  501  0.00000000000E+00  0.00000000000E+00  0.87039404372E+03  0.87039404373E+03  0.50400001928E-02 0. -1.
        1   -1    0    0  501    0  0.00000000000E+00  0.00000000000E+00 -0.15184681935E+04  0.15184681935E+04  0.50400001928E-02 0.  1.
    10030    2    1    2    0    0  0.00000000000E+00  0.00000000000E+00 -0.64807414974E+03  0.23888622372E+04  0.22992743822E+04 0.  0.
        2    1    3    3  502    0 -0.68539932987E+03  0.24922451806E+03 -0.12473598050E+04  0.14449192313E+04  0.25500000920E-02 0.  1.
       -2    1    3    3    0  502  0.68539932987E+03 -0.24922451806E+03  0.59928565527E+03  0.94394300591E+03  0.25500000920E-02 0. -1.
</event>
<event>
 5   0  0.1744876E-06  0.2299153E+04  0.7818609E-02  0.8478255E-01
       -2   -1    0    0    0  501  0.00000000000E+00  0.00000000000E+00  0.76748662593E+03  0.76748662593E+03  0.25500000920E-02 0. -1.
        2   -1    0    0  501    0  0.00000000000E+00  0.00000000000E+00 -0.17218887146E+04  0.17218887146E+04  0.25500000920E-02 0.  1.
    10030    2    1    2    0    0  0.00000000000E+00  0.00000000000E+00 -0.95440208867E+03  0.24893753405E+04  0.22991533744E+04 0.  0.
        1    1    3    3  502    0 -0.52850074905E+03 -0.92092362515E+03 -0.16634773326E+00  0.10617972466E+04  0.50400001928E-02 0. -1.
       -1    1    3    3    0  502  0.52850074905E+03  0.92092362515E+03 -0.95423574094E+03  0.14275780940E+04  0.50400001928E-02 0.  1.
</event>
<event>
 5   0  0.1744876E-06  0.2296758E+04  0.7818609E-02  0.8479200E-01
        2   -1    0    0  501    0  0.00000000000E+00  0.00000000000E+00  0.14860521417E+04  0.14860521417E+04  0.25500000920E-02 0. -1.
       -2   -1    0    0    0  501  0.00000000000E+00  0.00000000000E+00 -0.88743475276E+03  0.88743475276E+03  0.25500000920E-02 0.  1.
    10030    2    1    2    0    0  0.00000000000E+00  0.00000000000E+00  0.59861738890E+03  0.23734868944E+04  0.22967579889E+04 0.  0.
        1    1    3    3  502    0  0.12045928344E+03 -0.33285190406E+03 -0.82964983729E+03  0.90200869261E+03  0.50400001928E-02 0.  1.
       -1    1    3    3    0  502 -0.12045928344E+03  0.33285190406E+03  0.14282672262E+04  0.14714782018E+04  0.50400001928E-02 0. -1.
</event>
<event>
 5   0  0.6319125E-07  0.2299646E+04  0.7818609E-02  0.8478061E-01
       -3   -1    0    0    0  501  0.00000000000E+00  0.00000000000E+00  0.17279317905E+04  0.17279317935E+04  0.10100000352E+00 0.  1.
        3   -1    0    0  501    0  0.00000000000E+00  0.00000000000E+00 -0.76513046565E+03  0.76513047231E+03  0.10100000352E+00 0. -1.
    10030    2    1    2    0    0  0.00000000000E+00  0.00000000000E+00  0.96280132486E+03  0.24930622658E+04  0.22996462923E+04 0.  0.
        4    1    3    3  502    0  0.19102876821E+03  0.11332040908E+02  0.17105460810E+04  0.17212175672E+04  0.12699999809E+01 0.  1.
       -4    1    3    3    0  502 -0.19102876821E+03 -0.11332040908E+02 -0.74774475617E+03  0.77184469857E+03  0.12699999809E+01 0. -1.
</event>
<event>
 5   0  0.8108242E-07  0.2300172E+04  0.7818609E-02  0.8477853E-01
       -1   -1    0    0    0  501  0.00000000000E+00  0.00000000000E+00  0.68799288632E+03  0.68799288634E+03  0.50400001928E-02 0.  1.
        1   -1    0    0  501    0  0.00000000000E+00  0.00000000000E+00 -0.19225450146E+04  0.19225450146E+04  0.50400001928E-02 0. -1.
    10030    2    1    2    0    0  0.00000000000E+00  0.00000000000E+00 -0.12345521283E+04  0.26105379009E+04  0.23001715533E+04 0.  0.
        4    1    3    3  502    0  0.13059348208E+03 -0.71631259600E+03  0.39309203825E+03  0.82745474571E+03  0.12699999809E+01 0.  1.
       -4    1    3    3    0  502 -0.13059348208E+03  0.71631259600E+03 -0.16276441665E+04  0.17830831552E+04  0.12699999809E+01 0. -1.
</event>
<event>
 5   0  0.1825521E-06  0.2299461E+04  0.7818609E-02  0.8478134E-01
       -2   -1    0    0    0  501  0.00000000000E+00  0.00000000000E+00  0.87441141989E+03  0.87441141990E+03  0.25500000920E-02 0.  1.
        2   -1    0    0  501    0  0.00000000000E+00  0.00000000000E+00 -0.15117371403E+04  0.15117371403E+04  0.25500000920E-02 0. -1.
    10030    2    1    2    0    0  0.00000000000E+00  0.00000000000E+00 -0.63732572042E+03  0.23861485602E+04  0.22994609972E+04 0.  0.
        5    1    3    3  502    0 -0.56634712012E+03 -0.74659103147E+03 -0.10098911125E+04  0.13776971285E+04  0.46999998093E+01 0. -1.
       -5    1    3    3    0  502  0.56634712012E+03  0.74659103147E+03  0.37256539210E+03  0.10084514317E+04  0.46999998093E+01 0.  1.
</event>
<event>
 5   0  0.7932912E-07  0.2299073E+04  0.7818609E-02  0.8478287E-01
        1   -1    0    0  501    0  0.00000000000E+00  0.00000000000E+00  0.24194087040E+04  0.24194087040E+04  0.50400001928E-02 0.  1.
       -1   -1    0    0    0  501  0.00000000000E+00  0.00000000000E+00 -0.54618083217E+03  0.54618083219E+03  0.50400001928E-02 0. -1.
    10030    2    1    2    0    0  0.00000000000E+00  0.00000000000E+00  0.18732278719E+04  0.29655895362E+04  0.22990734302E+04 0.  0.
        5    1    3    3  502    0 -0.65035150124E+02 -0.47006494012E+03 -0.41392604455E+03  0.62972015931E+03  0.46999998093E+01 0. -1.
       -5    1    3    3    0  502  0.65035150124E+02  0.47006494012E+03  0.22871539164E+04  0.23358693769E+04  0.46999998093E+01 0.  1.
</event>
<event>
 5   0  0.7607231E-07  0.2296834E+04  0.7818609E-02  0.8479170E-01
       -1   -1    0    0    0  501  0.00000000000E+00  0.00000000000E+00  0.75476029447E+03  0.75476029448E+03  0.50400001928E-02 0.  1.
        1   -1    0    0  501    0  0.00000000000E+00  0.00000000000E+00 -0.17473912051E+04  0.17473912051E+04  0.50400001928E-02 0. -1.
    10030    2    1    2    0    0  0.00000000000E+00  0.00000000000E+00 -0.99263091059E+03  0.25021514996E+04  0.22968339082E+04 0.  0.
        2    1    3    3  502    0  0.58771234153E+03 -0.24526771466E+03 -0.15374110511E+04  0.16640897777E+04  0.25500000920E-02 0. -1.
       -2    1    3    3    0  502 -0.58771234153E+03  0.24526771466E+03  0.54478014046E+03  0.83806172188E+03  0.25500000920E-02 0.  1.
</event>
<event>
 5   0  0.1825521E-06  0.2300145E+04  0.7818609E-02  0.8477864E-01
        2   -1    0    0  501    0  0.00000000000E+00  0.00000000000E+00  0.16765507738E+04  0.16765507738E+04  0.25500000920E-02 0. -1.
       -2   -1    0    0    0  501  0.00000000000E+00  0.00000000000E+00 -0.78892118640E+03  0.78892118641E+03  0.25500000920E-02 0.  1.
    10030    2    1    2    0    0  0.00000000000E+00  0.00000000000E+00  0.88762958735E+03  0.24654719602E+04  0.23001447133E+04 0.  0.
        5    1    3    3  502    0 -0.45127949265E+03 -0.57926947096E+03  0.13925548417E+04  0.15743053635E+04  0.46999998093E+01 0. -1.
       -5    1    3    3    0  502  0.45127949265E+03  0.57926947096E+03 -0.50492525436E+03  0.89116659664E+03  0.46999998093E+01 0.  1.
</event>
<event>
 5   0  0.1744876E-06  0.2300753E+04  0.7818609E-02  0.8477624E-01
       -2   -1    0    0    0  501  0.00000000000E+00  0.00000000000E+00  0.11142291689E+04  0.11142291689E+04  0.25500000920E-02 0. -1.
        2   -1    0    0  501    0  0.00000000000E+00  0.00000000000E+00 -0.11876963816E+04  0.11876963816E+04  0.25500000920E-02 0.  1.
    10030    2    1    2    0    0  0.00000000000E+00  0.00000000000E+00 -0.73467212774E+02  0.23019255505E+04  0.23007528787E+04 0.  0.
        1    1    3    3  502    0  0.55054251002E+03 -0.14818457512E+03 -0.10363976231E+04  0.11828675990E+04  0.50400001928E-02 0.  1.
       -1    1    3    3    0  502 -0.55054251002E+03  0.14818457512E+03  0.96293041032E+03  0.11190579515E+04  0.50400001928E-02 0. -1.
</event>
<event>
 5   0  0.7607231E-07  0.2298638E+04  0.7818609E-02  0.8478458E-01
        1   -1    0    0  501    0  0.00000000000E+00  0.00000000000E+00  0.13989634213E+04  0.13989634213E+04  0.50400001928E-02 0. -1.
       -1   -1    0    0    0  501  0.00000000000E+00  0.00000000000E+00 -0.94422331102E+03  0.94422331103E+03  0.50400001928E-02 0.  1.
    10030    2    1    2    0    0  0.00000000000E+00  0.00000000000E+00  0.45474011030E+03  0.23431867324E+04  0.22986377476E+04 0.  0.
        2    1    3    3  502    0 -0.56614826482E+03 -0.11826770700E+03 -0.78506671261E+03  0.97511068681E+03  0.25500000920E-02 0.  1.
       -2    1    3    3    0  502  0.56614826482E+03  0.11826770700E+03  0.12398068229E+04  0.13680760455E+04  0.25500000920E-02 0. -1.
</event>
<event>
 5   0  0.7932912E-07  0.2300125E+04  0.7818609E-02  0.8477872E-01
       -1   -1    0    0    0  501  0.00000000000E+00  0.00000000000E+00  0.87281104192E+03  0.87281104194E+03  0.50400001928E-02 0.  1.
        1   -1    0    0  501    0  0.00000000000E+00  0.00000000000E+00 -0.15153838642E+04  0.15153838642E+04  0.50400001928E-02 0. -1.
    10030    2    1    2    0    0  0.00000000000E+00  0.00000000000E+00 -0.64257282227E+03  0.23881949061E+04  0.23001250135E+04 0.  0.
        5    1    3    3  502    0 -0.24019252400E+03  0.77090479948E+03 -0.11715653878E+04  0.14228753306E+04  0.46999998093E+01 0. -1.
       -5    1    3    3    0  502  0.24019252400E+03 -0.77090479948E+03  0.52899256558E+03  0.96531957552E+03  0.46999998093E+01 0.  1.
</event>
<event>
 5   0  0.8097672E-07  0.2300960E+04  0.7818609E-02  0.8477543E-01
       -1   -1    0    0    0  501  0.00000000000E+00  0.00000000000E+00  0.79861347155E+03  0.79861347157E+03  0.50400001928E-02 0.  1.
        1   -1    0    0  501    0  0.00000000000E+00  0.00000000000E+00 -0.16573782579E+04  0.16573782579E+04  0.50400001928E-02 0. -1.
    10030    2    1    2    0    0  0.00000000000E+00  0.00000000000E+00 -0.85876478631E+03  0.24559917294E+04  0.23009603249E+04 0.  0.
        3    1    3    3  502    0 -0.22020279267E+03 -0.64788064066E+02  0.77392478144E+03  0.80724614627E+03  0.10100000352E+00 0.  1.
       -3    1    3    3    0  502  0.22020279267E+03  0.64788064066E+02 -0.16326895678E+04  0.16487455832E+04  0.10100000352E+00 0. -1.
</event>
<event>
 5   0  0.8097672E-07  0.2299805E+04  0.7818609E-02  0.8477998E-01
       -1   -1    0    0    0  501  0.00000000000E+00  0.00000000000E+00  0.83959878946E+03  0.83959878947E+03  0.50400001928E-02 0. -1.
        1   -1    0    0  501    0  0.00000000000E+00  0.00000000000E+00 -0.15748904267E+04  0.15748904268E+04  0.50400001928E-02 0.  1.
    10030    2    1    2    0    0  0.00000000000E+00  0.00000000000E+00 -0.73529163729E+03  0.24144892162E+04  0.22998052925E+04 0.  0.
        3    1    3    3  502    0  0.52678046213E+03  0.80897630507E+03  0.28827796063E+03  0.10074941738E+04  0.10100000352E+00 0. -1.
       -3    1    3    3    0  502 -0.52678046213E+03 -0.80897630507E+03 -0.10235695979E+04  0.14069950424E+04  0.10100000352E+00 0.  1.
</event>
<event>
 5   0  0.7932912E-07  0.2299692E+04  0.7818609E-02  0.8478042E-01
       -1   -1    0    0    0  501  0.00000000000E+00  0.00000000000E+00  0.78138179097E+03  0.78138179098E+03  0.50400001928E-02 0. -1.
        1   -1    0    0  501    0  0.00000000000E+00  0.00000000000E+00 -0.16920615769E+04  0.16920615769E+04  0.50400001928E-02 0.  1.
    10030    2    1    2    0    0  0.00000000000E+00  0.00000000000E+00 -0.91067978589E+03  0.24734433678E+04  0.22996922450E+04 0.  0.
        5    1    3    3  502    0 -0.11267753575E+04  0.44683489656E+02 -0.69705184505E+03  0.13257159143E+04  0.46999998093E+01 0.  1.
       -5    1    3    3    0  502  0.11267753575E+04 -0.44683489656E+02 -0.21362794084E+03  0.11477274536E+04  0.46999998093E+01 0. -1.
</event>
<event>
 5   0  0.8108242E-07  0.2288903E+04  0.7818609E-02  0.8482309E-01
       -1   -1    0    0    0  501  0.00000000000E+00  0.00000000000E+00  0.82836870938E+03  0.82836870939E+03  0.50400001928E-02 0. -1.
        1   -1    0    0  501    0  0.00000000000E+00  0.00000000000E+00 -0.15811434904E+04  0.15811434904E+04  0.50400001928E-02 0.  1.
    10030    2    1    2    0    0  0.00000000000E+00  0.00000000000E+00 -0.75277478102E+03  0.24095121998E+04  0.22889034864E+04 0.  0.
        4    1    3    3  502    0  0.57021696167E+03 -0.73741031544E+03 -0.10753364205E+04  0.14231202995E+04  0.12699999809E+01 0.  1.
       -4    1    3    3    0  502 -0.57021696167E+03  0.73741031544E+03  0.32256163952E+03  0.98639190026E+03  0.12699999809E+01 0. -1.
</event>
<event>
 5   0  0.7932912E-07  0.2300398E+04  0.7818609E-02  0.8477764E-01
       -1   -1    0    0    0  501  0.00000000000E+00  0.00000000000E+00  0.60573063854E+03  0.60573063856E+03  0.50400001928E-02 0. -1.
        1   -1    0    0  501    0  0.00000000000E+00  0.00000000000E+00 -0.21840700629E+04  0.21840700629E+04  0.50400001928E-02 0.  1.
    10030    2    1    2    0    0  0.00000000000E+00  0.00000000000E+00 -0.15783394243E+04  0.27898007014E+04  0.23003983601E+04 0.  0.
        5    1    3    3  502    0  0.46689966826E+03 -0.85121205334E+03 -0.41209865332E+02  0.97173947279E+03  0.46999998093E+01 0.  1.
       -5    1    3    3    0  502 -0.46689966826E+03  0.85121205334E+03 -0.15371295590E+04  0.18180612286E+04  0.46999998093E+01 0. -1.
</event>
<event>
 5   0  0.1888779E-06  0.2300002E+04  0.7818609E-02  0.8477920E-01
        2   -1    0    0  501    0  0.00000000000E+00  0.00000000000E+00  0.17561729851E+04  0.17561729851E+04  0.25500000920E-02 0. -1.
       -2   -1    0    0    0  501  0.00000000000E+00  0.00000000000E+00 -0.75305940702E+03  0.75305940702E+03  0.25500000920E-02 0.  1.
    10030    2    1    2    0    0  0.00000000000E+00  0.00000000000E+00  0.10031135781E+04  0.25092323921E+04  0.23000022494E+04 0.  0.
        4    1    3    3  502    0  0.26631799271E+03  0.34418747627E+03 -0.65975488386E+03  0.79035967238E+03  0.12699999809E+01 0.  1.
       -4    1    3    3    0  502 -0.26631799271E+03 -0.34418747627E+03  0.16628684620E+04  0.17188727198E+04  0.12699999809E+01 0. -1.
</event>
<event>
 5   0  0.8097672E-07  0.2300104E+04  0.7818609E-02  0.8477880E-01
        1   -1    0    0  501    0  0.00000000000E+00  0.00000000000E+00  0.13632170369E+04  0.13632170369E+04  0.50400001928E-02 0.  1.
       -1   -1    0    0    0  501  0.00000000000E+00  0.00000000000E+00 -0.97021898674E+03  0.97021898676E+03  0.50400001928E-02 0. -1.
    10030    2    1    2    0    0  0.00000000000E+00  0.00000000000E+00  0.39299805012E+03  0.23334360236E+04  0.23001035214E+04 0.  0.
        3    1    3    3  502    0 -0.48769549632E+03  0.89494747932E+03  0.73698720092E+03  0.12577472053E+04  0.10100000352E+00 0.  1.
       -3    1    3    3    0  502  0.48769549632E+03 -0.89494747932E+03 -0.34398915080E+03  0.10756888184E+04  0.10100000352E+00 0. -1.
</event>
<event>
 5   0  0.1828646E-06  0.2300186E+04  0.7818609E-02  0.8477848E-01
       -2   -1    0    0    0  501  0.00000000000E+00  0.00000000000E+00  0.83840121121E+03  0.83840121121E+03  0.25500000920E-02 0. -1.
        2   -1    0    0  501    0  0.00000000000E+00  0.00000000000E+00 -0.15776626751E+04  0.15776626751E+04  0.25500000920E-02 0.  1.
    10030    2    1    2    0    0  0.00000000000E+00  0.00000000000E+00 -0.73926146386E+03  0.24160638863E+04  0.23001863382E+04 0.  0.
        3    1    3    3  502    0  0.26663072650E+03 -0.24337696065E+03  0.77734586457E+03  0.85708278051E+03  0.10100000352E+00 0. -1.
       -3    1    3    3    0  502 -0.26663072650E+03  0.24337696065E+03 -0.15166073284E+04  0.15589811058E+04  0.10100000352E+00 0.  1.
</event>
<event>
 5   0  0.1828646E-06  0.2299097E+04  0.7818609E-02  0.8478277E-01
       -2   -1    0    0    0  501  0.00000000000E+00  0.00000000000E+00  0.11425603851E+04  0.11425603851E+04  0.25500000920E-02 0.  1.
        2   -1    0    0  501    0  0.00000000000E+00  0.00000000000E+00 -0.11565793215E+04  0.11565793215E+04  0.25500000920E-02 0. -1.
    10030    2    1    2    0    0  0.00000000000E+00  0.00000000000E+00 -0.14018936361E+02  0.22991397066E+04  0.22990969662E+04 0.  0.
        3    1    3    3  502    0  0.24506209164E+03  0.12380869793E+02 -0.11300855494E+04  0.11564177765E+04  0.10100000352E+00 0. -1.
       -3    1    3    3    0  502 -0.24506209164E+03 -0.12380869793E+02  0.11160666130E+04  0.11427219301E+04  0.10100000352E+00 0.  1.
</event>
<event>
 5   0  0.6319125E-07  0.2300338E+04  0.7818609E-02  0.8477788E-01
       -4   -1    0    0    0  501  0.00000000000E+00  0.00000000000E+00  0.14586152902E+04  0.14586158431E+04  0.12699999809E+01 0.  1.
        4   -1    0    0  501    0  0.00000000000E+00  0.00000000000E+00 -0.90694741469E+03  0.90694830388E+03  0.12699999809E+01 0. -1.
    10030    2    1    2    0    0  0.00000000000E+00  0.00000000000E+00  0.55166787551E+03  0.23655641470E+04  0.23003382987E+04 0.  0.
        4    1    3    3  502    0 -0.90153988011E+03  0.36661247119E+03 -0.35449694710E+03  0.10357840305E+04  0.12699999809E+01 0. -1.
       -4    1    3    3    0  502  0.90153988011E+03 -0.36661247119E+03  0.90616482261E+03  0.13297801165E+04  0.12699999809E+01 0.  1.
</event>
<event>
 5   0  0.1825521E-06  0.2300652E+04  0.7818609E-02  0.8477664E-01
       -2   -1    0    0    0  501  0.00000000000E+00  0.00000000000E+00  0.13045356425E+04  0.13045356425E+04  0.25500000920E-02 0.  1.
        2   -1    0    0  501    0  0.00000000000E+00  0.00000000000E+00 -0.10143453600E+04  0.10143453600E+04  0.25500000920E-02 0. -1.
    10030    2    1    2    0    0  0.00000000000E+00  0.00000000000E+00  0.29019028249E+03  0.23188810025E+04  0.23006517998E+04 0.  0.
        5    1    3    3  502    0  0.93195278273E+03 -0.57832122908E+03 -0.20440318845E+03  0.11157034493E+04  0.46999998093E+01 0. -1.
       -5    1    3    3    0  502 -0.93195278273E+03  0.57832122908E+03  0.49459347093E+03  0.12031775533E+04  0.46999998093E+01 0.  1.
</event>
<event>
 5   0  0.7932912E-07  0.2299622E+04  0.7818609E-02  0.8478070E-01
        1   -1    0    0  501    0  0.00000000000E+00  0.00000000000E+00  0.14475046920E+04  0.14475046920E+04  0.50400001928E-02 0.  1.
       -1   -1    0    0    0  501  0.00000000000E+00  0.00000000000E+00 -0.91334086642E+03  0.91334086644E+03  0.50400001928E-02 0. -1.
    10030    2    1    2    0    0  0.00000000000E+00  0.00000000000E+00  0.53416382558E+03  0.23608455585E+04  0.22996218729E+04 0.  0.
        5    1    3    3  502    0  0.92827537798E+03  0.39811892901E+03  0.83111708982E+03  0.13080411179E+04  0.46999998093E+01 0.  1.
       -5    1    3    3    0  502 -0.92827537798E+03 -0.39811892901E+03 -0.29695326424E+03  0.10528044406E+04  0.46999998093E+01 0. -1.
</event>
<event>
 5   0  0.7607231E-07  0.2299667E+04  0.7818609E-02  0.8478052E-01
        1   -1    0    0  501    0  0.00000000000E+00  0.00000000000E+00  0.15149827078E+04  0.15149827078E+04  0.50400001928E-02 0. -1.
       -1   -1    0    0    0  501  0.00000000000E+00  0.00000000000E+00 -0.87269436562E+03  0.87269436563E+03  0.50400001928E-02 0.  1.
    10030    2    1    2    0    0  0.00000000000E+00  0.00000000000E+00  0.64228834217E+03  0.23876770734E+04  0.22996668221E+04 0.  0.
        2    1    3    3  502    0 -0.75926939295E+03  0.61396371684E+03 -0.30927985982E+03  0.10242536250E+04  0.25500000920E-02 0.  1.
       -2    1    3    3    0  502  0.75926939295E+03 -0.61396371684E+03  0.95156820199E+03  0.13634234484E+04  0.25500000920E-02 0. -1.
</event>
<event>
 5   0  0.1825521E-06  0.2300231E+04  0.7818609E-02  0.8477830E-01
       -2   -1    0    0    0  501  0.00000000000E+00  0.00000000000E+00  0.84473543037E+03  0.84473543037E+03  0.25500000920E-02 0.  1.
        2   -1    0    0  501    0  0.00000000000E+00  0.00000000000E+00 -0.15658931128E+04  0.15658931128E+04  0.25500000920E-02 0. -1.
    10030    2    1    2    0    0  0.00000000000E+00  0.00000000000E+00 -0.72115768243E+03  0.24106285432E+04  0.23002307646E+04 0.  0.
        5    1    3    3  502    0  0.53967545678E+03  0.50473343683E+02 -0.14236325554E+04  0.15233347957E+04  0.46999998093E+01 0. -1.
       -5    1    3    3    0  502 -0.53967545678E+03 -0.50473343683E+02  0.70247487298E+03  0.88729374744E+03  0.46999998093E+01 0.  1.
</event>
<event>
 5   0  0.1744876E-06  0.2300230E+04  0.7818609E-02  0.8477831E-01
       -2   -1    0    0    0  501  0.00000000000E+00  0.00000000000E+00  0.14687407481E+04  0.14687407481E+04  0.25500000920E-02 0. -1.
        2   -1    0    0  501    0  0.00000000000E+00  0.00000000000E+00 -0.90061104999E+03  0.90061104999E+03  0.25500000920E-02 0.  1.
    10030    2    1    2    0    0  0.00000000000E+00  0.00000000000E+00  0.56812969812E+03  0.23693517981E+04  0.23002296819E+04 0.  0.
        1    1    3    3  502    0  0.10129478337E+04  0.43274556981E+03  0.62481081488E+03  0.12663809050E+04  0.50400001928E-02 0. -1.
       -1    1    3    3    0  502 -0.10129478337E+04 -0.43274556981E+03 -0.56681116758E+02  0.11029708931E+04  0.50400001928E-02 0.  1.
</event>
<event>
 5   0  0.7607231E-07  0.2299999E+04  0.7818609E-02  0.8477922E-01
        1   -1    0    0  501    0  0.00000000000E+00  0.00000000000E+00  0.18148129769E+04  0.18148129769E+04  0.50400001928E-02 0.  1.
       -1   -1    0    0    0  501  0.00000000000E+00  0.00000000000E+00 -0.72872456694E+03  0.72872456695E+03  0.50400001928E-02 0. -1.
    10030    2    1    2    0    0  0.00000000000E+00  0.00000000000E+00  0.10860884100E+04  0.25435375439E+04  0.22999989571E+04 0.  0.
        2    1    3    3  502    0  0.50895959433E+03 -0.10311673367E+04  0.52937159384E+03  0.12659305784E+04  0.25500000920E-02 0. -1.
       -2    1    3    3    0  502 -0.50895959433E+03  0.10311673367E+04  0.55671681612E+03  0.12776069655E+04  0.25500000920E-02 0.  1.
</event>
<event>
 5   0  0.1744876E-06  0.2300154E+04  0.7818609E-02  0.8477860E-01
        2   -1    0    0  501    0  0.00000000000E+00  0.00000000000E+00  0.10709516001E+04  0.10709516001E+04  0.25500000920E-02 0. -1.
       -2   -1    0    0    0  501  0.00000000000E+00  0.00000000000E+00 -0.12350482419E+04  0.12350482419E+04  0.25500000920E-02 0.  1.
    10030    2    1    2    0    0  0.00000000000E+00  0.00000000000E+00 -0.16409664182E+03  0.23059998419E+04  0.23001538129E+04 0.  0.
        1    1    3    3  502    0 -0.45566972882E+03  0.10045486224E+04  0.24423861999E+03  0.11297811027E+04  0.50400001928E-02 0. -1.
       -1    1    3    3    0  502  0.45566972882E+03 -0.10045486224E+04 -0.40833526180E+03  0.11762187392E+04  0.50400001928E-02 0.  1.
</event>
<event>
 5   0  0.8108242E-07  0.2300100E+04  0.7818609E-02  0.8477882E-01
       -1   -1    0    0    0  501  0.00000000000E+00  0.00000000000E+00  0.10956258252E+04  0.10956258253E+04  0.50400001928E-02 0. -1.
        1   -1    0    0  501    0  0.00000000000E+00  0.00000000000E+00 -0.12071779063E+04  0.12071779063E+04  0.50400001928E-02 0.  1.
    10030    2    1    2    0    0  0.00000000000E+00  0.00000000000E+00 -0.11155208102E+03  0.23028037315E+04  0.23001002498E+04 0.  0.
        4    1    3    3  502    0  0.38509711772E+03 -0.10007199527E+04 -0.47204528558E+03  0.11715667196E+04  0.12699999809E+01 0.  1.
       -4    1    3    3    0  502 -0.38509711772E+03  0.10007199527E+04  0.36049320456E+03  0.11312370120E+04  0.12699999809E+01 0. -1.
</event>
<event>
 5   0  0.1828646E-06  0.2300729E+04  0.7818609E-02  0.8477634E-01
        2   -1    0    0  501    0  0.00000000000E+00  0.00000000000E+00  0.20831574488E+04  0.20831574488E+04  0.25500000920E-02 0. -1.
       -2   -1    0    0    0  501  0.00000000000E+00  0.00000000000E+00 -0.63525632777E+03  0.63525632777E+03  0.25500000920E-02 0.  1.
    10030    2    1    2    0    0  0.00000000000E+00  0.00000000000E+00  0.14479011210E+04  0.27184137766E+04  0.23007294070E+04 0.  0.
        3    1    3    3  502    0 -0.10082650398E+04 -0.55102615112E+03  0.78984993066E+03  0.13943066854E+04  0.10100000352E+00 0. -1.
       -3    1    3    3    0  502  0.10082650398E+04  0.55102615112E+03  0.65805119038E+03  0.13241070912E+04  0.10100000352E+00 0.  1.
</event>
<event>
 5   0  0.8108242E-07  0.2299495E+04  0.7818609E-02  0.8478120E-01
       -1   -1    0    0    0  501  0.00000000000E+00  0.00000000000E+00  0.75430652137E+03  0.75430652138E+03  0.50400001928E-02 0.  1.
        1   -1    0    0  501    0  0.00000000000E+00  0.00000000000E+00 -0.17524967335E+04  0.17524967335E+04  0.50400001928E-02 0. -1.
    10030    2    1    2    0    0  0.00000000000E+00  0.00000000000E+00 -0.99819021214E+03  0.25068032549E+04  0.22994953488E+04 0.  0.
        4    1    3    3  502    0 -0.11108536162E+04 -0.25439833033E+03 -0.66515608644E+03  0.13195258615E+04  0.12699999809E+01 0.  1.
       -4    1    3    3    0  502  0.11108536162E+04  0.25439833033E+03 -0.33303412570E+03  0.11872773934E+04  0.12699999809E+01 0. -1.
</event>
<event>
 5   0  0.1828646E-06  0.2302542E+04  0.7818609E-02  0.8476920E-01
        2   -1    0    0  501    0  0.00000000000E+00  0.00000000000E+00  0.17114298594E+04  0.17114298594E+04  0.25500000920E-02 0. -1.
       -2   -1    0    0    0  501  0.00000000000E+00  0.00000000000E+00 -0.77445461020E+03  0.77445461021E+03  0.25500000920E-02 0.  1.
    10030    2    1    2    0    0  0.00000000000E+00  0.00000000000E+00  0.93697524921E+03  0.24858844696E+04  0.23025418517E+04 0.  0.
        3    1    3    3  502    0  0.28848996119E+02 -0.35142189657E+03  0.16516983825E+04  0.16889159750E+04  0.10100000352E+00 0. -1.
       -3    1    3    3    0  502 -0.28848996119E+02  0.35142189657E+03 -0.71472313324E+03  0.79696849458E+03  0.10100000352E+00 0.  1.
</event>
<event>
 5   0  0.1888779E-06  0.2300582E+04  0.7818609E-02  0.8477692E-01
       -2   -1    0    0    0  501  0.00000000000E+00  0.00000000000E+00  0.11851008822E+04  0.11851008822E+04  0.25500000920E-02 0.  1.
        2   -1    0    0  501    0  0.00000000000E+00  0.00000000000E+00 -0.11165032911E+04  0.11165032911E+04  0.25500000920E-02 0. -1.
    10030    2    1    2    0    0  0.00000000000E+00  0.00000000000E+00  0.68597591070E+02  0.23016041733E+04  0.23005816962E+04 0.  0.
        4    1    3    3  502    0  0.25762220797E+03  0.37154808095E+03 -0.10238812014E+04  0.11192638232E+04  0.12699999809E+01 0. -1.
       -4    1    3    3    0  502 -0.25762220797E+03 -0.37154808095E+03  0.10924787925E+04  0.11823403501E+04  0.12699999809E+01 0.  1.
</event>
<event>
 5   0  0.1689444E-06  0.2300324E+04  0.7818609E-02  0.8477793E-01
        2   -1    0    0  501    0  0.00000000000E+00  0.00000000000E+00  0.12622036824E+04  0.12622036824E+04  0.25500000920E-02 0.  1.
       -2   -1    0    0    0  501  0.00000000000E+00  0.00000000000E+00 -0.10480657594E+04  0.10480657594E+04  0.25500000920E-02 0. -1.
    10030    2    1    2    0    0  0.00000000000E+00  0.00000000000E+00  0.21413792295E+03  0.23102694418E+04  0.23003238563E+04 0.  0.
        2    1    3    3  502    0 -0.31116458597E+03  0.10935911095E+04 -0.67196505484E+02  0.11389821266E+04  0.25500000920E-02 0. -1.
       -2    1    3    3    0  502  0.31116458597E+03 -0.10935911095E+04  0.28133442844E+03  0.11712873153E+04  0.25500000920E-02 0.  1.
</event>
<event>
 5   0  0.1689444E-06  0.2302291E+04  0.7818609E-02  0.8477019E-01
        2   -1    0    0  501    0  0.00000000000E+00  0.00000000000E+00  0.11872262500E+04  0.11872262500E+04  0.25500000920E-02 0.  1.
       -2   -1    0    0    0  501  0.00000000000E+00  0.00000000000E+00 -0.11161608448E+04  0.11161608448E+04  0.25500000920E-02 0. -1.
    10030    2    1    2    0    0  0.00000000000E+00  0.00000000000E+00  0.71065405131E+02  0.23033870948E+04  0.23022905587E+04 0.  0.
        2    1    3    3  502    0 -0.49348619516E+02  0.22928604875E+03 -0.10920036553E+04  0.11169061561E+04  0.25500000920E-02 0. -1.
       -2    1    3    3    0  502  0.49348619516E+02 -0.22928604875E+03  0.11630690604E+04  0.11864809386E+04  0.25500000920E-02 0.  1.
</event>
<event>
 5   0  0.7607231E-07  0.2301019E+04  0.7818609E-02  0.8477520E-01
       -1   -1    0    0    0  501  0.00000000000E+00  0.00000000000E+00  0.10331559664E+04  0.10331559664E+04  0.50400001928E-02 0.  1.
        1   -1    0    0  501    0  0.00000000000E+00  0.00000000000E+00 -0.12811926562E+04  0.12811926562E+04  0.50400001928E-02 0. -1.
    10030    2    1    2    0    0  0.00000000000E+00  0.00000000000E+00 -0.24803668977E+03  0.23143486226E+04  0.23010187630E+04 0.  0.
        2    1    3    3  502    0  0.16438034537E+03  0.27570013128E+03  0.98720788821E+03  0.10380803798E+04  0.25500000920E-02 0.  1.
       -2    1    3    3    0  502 -0.16438034537E+03 -0.27570013128E+03 -0.12352445780E+04  0.12762682429E+04  0.25500000920E-02 0. -1.
</event>
<event>
 5   0  0.1689444E-06  0.2300068E+04  0.7818609E-02  0.8477894E-01
       -2   -1    0    0    0  501  0.00000000000E+00  0.00000000000E+00  0.16314892868E+04  0.16314892868E+04  0.25500000920E-02 0. -1.
        2   -1    0    0  501    0  0.00000000000E+00  0.00000000000E+00 -0.81065669080E+03  0.81065669081E+03  0.25500000920E-02 0.  1.
    10030    2    1    2    0    0  0.00000000000E+00  0.00000000000E+00  0.82083259603E+03  0.24421459776E+04  0.23000675698E+04 0.  0.
        2    1    3    3  502    0  0.97809399052E+03 -0.51515929020E+03  0.73781581152E+02  0.11079262928E+04  0.25500000920E-02 0. -1.
       -2    1    3    3    0  502 -0.97809399052E+03  0.51515929020E+03  0.74705101488E+03  0.13342196848E+04  0.25500000920E-02 0.  1.
</event>
<event>
 5   0  0.1825521E-06  0.2300038E+04  0.7818609E-02  0.8477906E-01
        2   -1    0    0  501    0  0.00000000000E+00  0.00000000000E+00  0.99061537364E+03  0.99061537364E+03  0.25500000920E-02 0. -1.
       -2   -1    0    0    0  501  0.00000000000E+00  0.00000000000E+00 -0.13350725743E+04  0.13350725743E+04  0.25500000920E-02 0.  1.
    10030    2    1    2    0    0  0.00000000000E+00  0.00000000000E+00 -0.34445720063E+03  0.23256879479E+04  0.23000377536E+04 0.  0.
        5    1    3    3  502    0  0.37954665299E+03 -0.69565593735E+02 -0.12676504339E+04  0.13250866939E+04  0.46999998093E+01 0.  1.
       -5    1    3    3    0  502 -0.37954665299E+03  0.69565593735E+02  0.92319323329E+03  0.10006012541E+04  0.46999998093E+01 0. -1.
</event>
<event>
 5   0  0.1825521E-06  0.2300412E+04  0.7818609E-02  0.8477759E-01
       -2   -1    0    0    0  501  0.00000000000E+00  0.00000000000E+00  0.89181539074E+03  0.89181539075E+03  0.25500000920E-02 0. -1.
        2   -1    0    0  501    0  0.00000000000E+00  0.00000000000E+00 -0.14834615097E+04  0.14834615097E+04  0.25500000920E-02 0.  1.
    10030    2    1    2    0    0  0.00000000000E+00  0.00000000000E+00 -0.59164611899E+03  0.23752769005E+04  0.23004119683E+04 0.  0.
        5    1    3    3  502    0 -0.31684178171E+03 -0.35115833607E+03  0.78674953044E+03  0.91798573261E+03  0.46999998093E+01 0. -1.
       -5    1    3    3    0  502  0.31684178171E+03  0.35115833607E+03 -0.13783956494E+04  0.14572911679E+04  0.46999998093E+01 0.  1.
</event>
<event>
 5   0  0.1828646E-06  0.2302077E+04  0.7818609E-02  0.8477103E-01
       -2   -1    0    0    0  501  0.00000000000E+00  0.00000000000E+00  0.11273143208E+04  0.11273143208E+04  0.25500000920E-02 0. -1.
        2   -1    0    0  501    0  0.00000000000E+00  0.00000000000E+00 -0.11752620782E+04  0.11752620783E+04  0.25500000920E-02 0.  1.
    10030    2    1    2    0    0  0.00000000000E+00  0.00000000000E+00 -0.47947757491E+02  0.23025763990E+04  0.23020771242E+04 0.  0.
        3    1    3    3  502    0  0.33758085563E+03 -0.10554460410E+04  0.28748180780E+03  0.11448025942E+04  0.10100000352E+00 0.  1.
       -3    1    3    3    0  502 -0.33758085563E+03  0.10554460410E+04 -0.33542956529E+03  0.11577738048E+04  0.10100000352E+00 0. -1.
</event>
<event>
 5   0  0.7932912E-07  0.2300105E+04  0.7818609E-02  0.8477880E-01
       -1   -1    0    0    0  501  0.00000000000E+00  0.00000000000E+00  0.89783169274E+03  0.89783169275E+03  0.50400001928E-02 0.  1.
        1   -1    0    0  501    0  0.00000000000E+00  0.00000000000E+00 -0.14731275424E+04  0.14731275424E+04  0.50400001928E-02 0. -1.
    10030    2    1    2    0    0  0.00000000000E+00  0.00000000000E+00 -0.57529584967E+03  0.23709592352E+04  0.23001048629E+04 0.  0.
        5    1    3    3  502    0 -0.10274954811E+04 -0.34106644488E+03  0.11227940962E+03  0.10884401863E+04  0.46999998093E+01 0.  1.
       -5    1    3    3    0  502  0.10274954811E+04  0.34106644488E+03 -0.68757525929E+03  0.12825190488E+04  0.46999998093E+01 0. -1.
</event>
<event>
 5   0  0.7761069E-07  0.2300275E+04  0.7818609E-02  0.8477813E-01
       -1   -1    0    0    0  501  0.00000000000E+00  0.00000000000E+00  0.70347547023E+03  0.70347547025E+03  0.50400001928E-02 0.  1.
        1   -1    0    0  501    0  0.00000000000E+00  0.00000000000E+00 -0.18804021041E+04  0.18804021041E+04  0.50400001928E-02 0. -1.
    10030    2    1    2    0    0  0.00000000000E+00  0.00000000000E+00 -0.11769266338E+04  0.25838775743E+04  0.23002754221E+04 0.  0.
        1    1    3    3  502    0  0.13336229920E+02 -0.84802036712E+02 -0.18767984666E+04  0.18787606885E+04  0.50400001928E-02 0. -1.
       -1    1    3    3    0  502 -0.13336229920E+02  0.84802036712E+02  0.69987183272E+03  0.70511688586E+03  0.50400001928E-02 0.  1.
</event>
<event>
 5   0  0.1828646E-06  0.2300065E+04  0.7818609E-02  0.8477895E-01
       -2   -1    0    0    0  501  0.00000000000E+00  0.00000000000E+00  0.85095739020E+03  0.85095739020E+03  0.25500000920E-02 0.  1.
        2   -1    0    0  501    0  0.00000000000E+00  0.00000000000E+00 -0.15542201317E+04  0.15542201317E+04  0.25500000920E-02 0. -1.
    10030    2    1    2    0    0  0.00000000000E+00  0.00000000000E+00 -0.70326274146E+03  0.24051775219E+04  0.23000653095E+04 0.  0.
        3    1    3    3  502    0 -0.54622841946E+02 -0.75067848333E+03  0.55763034780E+03  0.93672485565E+03  0.10100000352E+00 0.  1.
       -3    1    3    3    0  502  0.54622841946E+02  0.75067848333E+03 -0.12608930893E+04  0.14684526662E+04  0.10100000352E+00 0. -1.
</event>
<event>
 5   0  0.7607231E-07  0.2303418E+04  0.7818609E-02  0.8476575E-01
       -1   -1    0    0    0  501  0.00000000000E+00  0.00000000000E+00  0.82553654072E+03  0.82553654073E+03  0.50400001928E-02 0.  1.
        1   -1    0    0  501    0  0.00000000000E+00  0.00000000000E+00 -0.16067527158E+04  0.16067527158E+04  0.50400001928E-02 0. -1.
    10030    2    1    2    0    0  0.00000000000E+00  0.00000000000E+00 -0.78121617509E+03  0.24322892565E+04  0.23034175295E+04 0.  0.
        2    1    3    3  502    0 -0.24905616616E+02  0.11493198483E+04 -0.46434831594E+03  0.12398289245E+04  0.25500000920E-02 0. -1.
       -2    1    3    3    0  502  0.24905616616E+02 -0.11493198483E+04 -0.31686785915E+03  0.11924603321E+04  0.25500000920E-02 0.  1.
</event>
<event>
 5   0  0.1888779E-06  0.2300091E+04  0.7818609E-02  0.8477885E-01
       -2   -1    0    0    0  501  0.00000000000E+00  0.00000000000E+00  0.15279485619E+04  0.15279485619E+04  0.25500000920E-02 0.  1.
        2   -1    0    0  501    0  0.00000000000E+00  0.00000000000E+00 -0.86560811569E+03  0.86560811569E+03  0.25500000920E-02 0. -1.
    10030    2    1    2    0    0  0.00000000000E+00  0.00000000000E+00  0.66234044622E+03  0.23935566776E+04  0.23000910204E+04 0.  0.
        4    1    3    3  502    0  0.93683921125E+02 -0.91921831229E+03 -0.38139098295E+03  0.99959975866E+03  0.12699999809E+01 0. -1.
       -4    1    3    3    0  502 -0.93683921125E+02  0.91921831229E+03  0.10437314292E+04  0.13939569189E+04  0.12699999809E+01 0.  1.
</event>
<event>
 5   0  0.8108242E-07  0.2299143E+04  0.7818609E-02  0.8478259E-01
        1   -1    0    0  501    0  0.00000000000E+00  0.00000000000E+00  0.21209241683E+04  0.21209241683E+04  0.50400001928E-02 0. -1.
       -1   -1    0    0    0  501  0.00000000000E+00  0.00000000000E+00 -0.62308431922E+03  0.62308431924E+03  0.50400001928E-02 0.  1.
    10030    2    1    2    0    0  0.00000000000E+00  0.00000000000E+00  0.14978398490E+04  0.27440084875E+04  0.22991429634E+04 0.  0.
        4    1    3    3  502    0 -0.86186569578E+03 -0.49506296061E+02  0.16549128412E+04  0.18665480105E+04  0.12699999809E+01 0. -1.
       -4    1    3    3    0  502  0.86186569578E+03  0.49506296061E+02 -0.15707299212E+03  0.87746047698E+03  0.12699999809E+01 0.  1.
</event>
<event>
 5   0  0.1888779E-06  0.2301199E+04  0.7818609E-02  0.8477448E-01
        2   -1    0    0  501    0  0.00000000000E+00  0.00000000000E+00  0.12988219113E+04  0.12988219113E+04  0.25500000920E-02 0.  1.
       -2   -1    0    0    0  501  0.00000000000E+00  0.00000000000E+00 -0.10192923646E+04  0.10192923646E+04  0.25500000920E-02 0. -1.
    10030    2    1    2    0    0  0.00000000000E+00  0.00000000000E+00  0.27952954667E+03  0.23181142759E+04  0.23011990415E+04 0.  0.
        4    1    3    3  502    0 -0.34110639288E+03 -0.69576144806E+03 -0.71704012386E+03  0.10557394167E+04  0.12699999809E+01 0. -1.
       -4    1    3    3    0  502  0.34110639288E+03  0.69576144806E+03  0.99656967053E+03  0.12623748591E+04  0.12699999809E+01 0.  1.
</event>
<event>
 5   0  0.1744876E-06  0.2302518E+04  0.7818609E-02  0.8476929E-01
        2   -1    0    0  501    0  0.00000000000E+00  0.00000000000E+00  0.18954193441E+04  0.18954193441E+04  0.25500000920E-02 0.  1.
       -2   -1    0    0    0  501  0.00000000000E+00  0.00000000000E+00 -0.69926353474E+03  0.69926353475E+03  0.25500000920E-02 0. -1.
    10030    2    1    2    0    0  0.00000000000E+00  0.00000000000E+00  0.11961558094E+04  0.25946828788E+04  0.23025182999E+04 0.  0.
        1    1    3    3  502    0 -0.39745004909E+03  0.59605637411E+03  0.16136219292E+04  0.17655099753E+04  0.50400001928E-02 0.  1.
       -1    1    3    3    0  502  0.39745004909E+03 -0.59605637411E+03 -0.41746611984E+03  0.82917290349E+03  0.50400001928E-02 0. -1.
</event>
<event>
 5   0  0.1689444E-06  0.2299453E+04  0.7818609E-02  0.8478137E-01
        2   -1    0    0  501    0  0.00000000000E+00  0.00000000000E+00  0.20620735576E+04  0.20620735576E+04  0.25500000920E-02 0. -1.
       -2   -1    0    0    0  501  0.00000000000E+00  0.00000000000E+00 -0.64103990011E+03  0.64103990012E+03  0.25500000920E-02 0.  1.
    10030    2    1    2    0    0  0.00000000000E+00  0.00000000000E+00  0.14210336575E+04  0.27031134577E+04  0.22994533502E+04 0.  0.
        2    1    3    3  502    0  0.23018074856E+03 -0.92749298433E+03  0.14619887776E+04  0.17466074542E+04  0.25500000920E-02 0.  1.
       -2    1    3    3    0  502 -0.23018074856E+03  0.92749298433E+03 -0.40955120136E+02  0.95650600357E+03  0.25500000920E-02 0. -1.
</event>
<event>
 5   0  0.8097672E-07  0.2299991E+04  0.7818609E-02  0.8477925E-01
        1   -1    0    0  501    0  0.00000000000E+00  0.00000000000E+00  0.12001181732E+04  0.12001181732E+04  0.50400001928E-02 0.  1.
       -1   -1    0    0    0  501  0.00000000000E+00  0.00000000000E+00 -0.11019664505E+04  0.11019664505E+04  0.50400001928E-02 0. -1.
    10030    2    1    2    0    0  0.00000000000E+00  0.00000000000E+00  0.98151722706E+02  0.23020846237E+04  0.22999912726E+04 0.  0.
        3    1    3    3  502    0 -0.12950426102E+03  0.15336324804E+03  0.11824484291E+04  0.11993648057E+04  0.10100000352E+00 0.  1.
       -3    1    3    3    0  502  0.12950426102E+03 -0.15336324804E+03 -0.10842967063E+04  0.11027198180E+04  0.10100000352E+00 0. -1.
</event>
<event>
 5   0  0.6319125E-07  0.2301344E+04  0.7818609E-02  0.8477392E-01
       -3   -1    0    0    0  501  0.00000000000E+00  0.00000000000E+00  0.97048363282E+03  0.97048363807E+03  0.10100000352E+00 0.  1.
        3   -1    0    0  501    0  0.00000000000E+00  0.00000000000E+00 -0.13643151322E+04  0.13643151359E+04  0.10100000352E+00 0. -1.
    10030    2    1    2    0    0  0.00000000000E+00  0.00000000000E+00 -0.39383149934E+03  0.23347987740E+04  0.23013435348E+04 0.  0.
        5    1    3    3  502    0 -0.69893159071E+03  0.17064391062E+02  0.73027743510E+03  0.10110013769E+04  0.46999998093E+01 0. -1.
       -5    1    3    3    0  502  0.69893159071E+03 -0.17064391062E+02 -0.11241089344E+04  0.13237973970E+04  0.46999998093E+01 0.  1.
</event>
<event>
 5   0  0.7761069E-07  0.2298204E+04  0.7818609E-02  0.8478630E-01
        1   -1    0    0  501    0  0.00000000000E+00  0.00000000000E+00  0.11322280578E+04  0.11322280579E+04  0.50400001928E-02 0.  1.
       -1   -1    0    0    0  501  0.00000000000E+00  0.00000000000E+00 -0.11662275526E+04  0.11662275526E+04  0.50400001928E-02 0. -1.
    10030    2    1    2    0    0  0.00000000000E+00  0.00000000000E+00 -0.33999494742E+02  0.22984556104E+04  0.22982041310E+04 0.  0.
        1    1    3    3  502    0 -0.96762723907E+03 -0.61967321345E+03 -0.28756526346E+02  0.11494017153E+04  0.50400001928E-02 0. -1.
       -1    1    3    3    0  502  0.96762723907E+03  0.61967321345E+03 -0.52429683963E+01  0.11490538952E+04  0.50400001928E-02 0.  1.
</event>
<event>
 5   0  0.7607231E-07  0.2299480E+04  0.7818609E-02  0.8478126E-01
        1   -1    0    0  501    0  0.00000000000E+00  0.00000000000E+00  0.14477814425E+04  0.14477814425E+04  0.50400001928E-02 0. -1.
       -1   -1    0    0    0  501  0.00000000000E+00  0.00000000000E+00 -0.91305365909E+03  0.91305365911E+03  0.50400001928E-02 0.  1.
    10030    2    1    2    0    0  0.00000000000E+00  0.00000000000E+00  0.53472778338E+03  0.23608351016E+04  0.22994800661E+04 0.  0.
        2    1    3    3  502    0 -0.41954708323E+03 -0.15570180441E+03 -0.81996923794E+03  0.93413722660E+03  0.25500000920E-02 0.  1.
       -2    1    3    3    0  502  0.41954708323E+03  0.15570180441E+03  0.13546970213E+04  0.14266978750E+04  0.25500000920E-02 0. -1.
</event>
<event>
 5   0  0.1689444E-06  0.2299871E+04  0.7818609E-02  0.8477972E-01
       -2   -1    0    0    0  501  0.00000000000E+00  0.00000000000E+00  0.70399136954E+03  0.70399136955E+03  0.25500000920E-02 0.  1.
        2   -1    0    0  501    0  0.00000000000E+00  0.00000000000E+00 -0.18783627423E+04  0.18783627423E+04  0.25500000920E-02 0. -1.
    10030    2    1    2    0    0  0.00000000000E+00  0.00000000000E+00 -0.11743713728E+04  0.25823541119E+04  0.22998705698E+04 0.  0.
        2    1    3    3  502    0 -0.99039470444E+03 -0.28224203248E+03 -0.11617049866E+04  0.15524499062E+04  0.25500000920E-02 0. -1.
       -2    1    3    3    0  502  0.99039470444E+03  0.28224203248E+03 -0.12666386213E+02  0.10299042057E+04  0.25500000920E-02 0.  1.
</event>
<event>
 5   0  0.1825521E-06  0.2300890E+04  0.7818609E-02  0.8477570E-01
        2   -1    0    0  501    0  0.00000000000E+00  0.00000000000E+00  0.19245766799E+04  0.19245766799E+04  0.25500000920E-02 0. -1.
       -2   -1    0    0    0  501  0.00000000000E+00  0.00000000000E+00 -0.68769605656E+03  0.68769605657E+03  0.25500000920E-02 0.  1.
    10030    2    1    2    0    0  0.00000000000E+00  0.00000000000E+00  0.12368806234E+04  0.26122727365E+04  0.23008900829E+04 0.  0.
        5    1    3    3  502    0  0.41191518509E+03 -0.10179998368E+04  0.10076187901E+04  0.14904078313E+04  0.46999998093E+01 0. -1.
       -5    1    3    3    0  502 -0.41191518509E+03  0.10179998368E+04  0.22926183331E+03  0.11218649052E+04  0.46999998093E+01 0.  1.
</event>
<event>
 5   0  0.7761069E-07  0.2299394E+04  0.7818609E-02  0.8478160E-01
       -1   -1    0    0    0  501  0.00000000000E+00  0.00000000000E+00  0.80076486451E+03  0.80076486453E+03  0.50400001928E-02 0.  1.
        1   -1    0    0  501    0  0.00000000000E+00  0.00000000000E+00 -0.16506761398E+04  0.16506761399E+04  0.50400001928E-02 0. -1.
    10030    2    1    2    0    0  0.00000000000E+00  0.00000000000E+00 -0.84991127533E+03  0.24514410044E+04  0.22993942294E+04 0.  0.
        1    1    3    3  502    0 -0.59833502057E+03  0.24369347700E+03 -0.14388464849E+04  0.15772350854E+04  0.50400001928E-02 0. -1.
       -1    1    3    3    0  502  0.59833502057E+03 -0.24369347700E+03  0.58893520958E+03  0.87420591893E+03  0.50400001928E-02 0.  1.
</event>
<event>
 5   0  0.1744876E-06  0.2300248E+04  0.7818609E-02  0.8477823E-01
        2   -1    0    0  501    0  0.00000000000E+00  0.00000000000E+00  0.22223775705E+04  0.22223775705E+04  0.25500000920E-02 0.  1.
       -2   -1    0    0    0  501  0.00000000000E+00  0.00000000000E+00 -0.59521195635E+03  0.59521195635E+03  0.25500000920E-02 0. -1.
    10030    2    1    2    0    0  0.00000000000E+00  0.00000000000E+00  0.16271656141E+04  0.28175895268E+04  0.23002484227E+04 0.  0.
        1    1    3    3  502    0 -0.10735363056E+03  0.59619779444E+03 -0.38395314583E+03  0.71721449394E+03  0.50400001928E-02 0. -1.
       -1    1    3    3    0  502  0.10735363056E+03 -0.59619779444E+03  0.20111187600E+04  0.21003750329E+04  0.50400001928E-02 0.  1.
</event>
<event>
 5   0  0.7761069E-07  0.2300491E+04  0.7818609E-02  0.8477728E-01
        1   -1    0    0  501    0  0.00000000000E+00  0.00000000000E+00  0.21209201948E+04  0.21209201948E+04  0.50400001928E-02 0.  1.
       -1   -1    0    0    0  501  0.00000000000E+00  0.00000000000E+00 -0.62381634327E+03  0.62381634329E+03  0.50400001928E-02 0. -1.
    10030    2    1    2    0    0  0.00000000000E+00  0.00000000000E+00  0.14971038516E+04  0.27447365381E+04  0.23004909740E+04 0.  0.
        1    1    3    3  502    0 -0.20728689919E+03  0.11298358675E+04  0.67728691133E+03  0.13334970965E+04  0.50400001928E-02 0.  1.
       -1    1    3    3    0  502  0.20728689919E+03 -0.11298358675E+04  0.81981694024E+03  0.14112394416E+04  0.50400001928E-02 0. -1.
</event>
<event>
 5   0  0.1825521E-06  0.2299846E+04  0.7818609E-02  0.8477982E-01
       -2   -1    0    0    0  501  0.00000000000E+00  0.00000000000E+00  0.15676592462E+04  0.15676592462E+04  0.25500000920E-02 0.  1.
        2   -1    0    0  501    0  0.00000000000E+00  0.00000000000E+00 -0.84350161527E+03  0.84350161527E+03  0.25500000920E-02 0. -1.
    10030    2    1    2    0    0  0.00000000000E+00  0.00000000000E+00  0.72415763094E+03  0.24111608615E+04  0.22998461743E+04 0.  0.
        5    1    3    3  502    0  0.35169200937E+03  0.10846541558E+04  0.51807266216E+03  0.12524309484E+04  0.46999998093E+01 0. -1.
       -5    1    3    3    0  502 -0.35169200937E+03 -0.10846541558E+04  0.20608496878E+03  0.11587299131E+04  0.46999998093E+01 0.  1.
</event>
<event>
 5   0  0.1888779E-06  0.2298784E+04  0.7818609E-02  0.8478401E-01
        2   -1    0    0  501    0  0.00000000000E+00  0.00000000000E+00  0.10548989542E+04  0.10548989542E+04  0.25500000920E-02 0. -1.
       -2   -1    0    0    0  501  0.00000000000E+00  0.00000000000E+00 -0.12523495367E+04  0.12523495367E+04  0.25500000920E-02 0.  1.
    10030    2    1    2    0    0  0.00000000000E+00  0.00000000000E+00 -0.19745058251E+03  0.23072484909E+04  0.22987842148E+04 0.  0.
        4    1    3    3  502    0  0.90896618903E+03 -0.25820156560E+03  0.55806405511E+03  0.10974172788E+04  0.12699999809E+01 0.  1.
       -4    1    3    3    0  502 -0.90896618903E+03  0.25820156560E+03 -0.75551463762E+03  0.12098312121E+04  0.12699999809E+01 0. -1.
</event>
<event>
 5   0  0.1825521E-06  0.2301521E+04  0.7818609E-02  0.8477322E-01
       -2   -1    0    0    0  501  0.00000000000E+00  0.00000000000E+00  0.13961269096E+04  0.13961269096E+04  0.25500000920E-02 0. -1.
        2   -1    0    0  501    0  0.00000000000E+00  0.00000000000E+00 -0.94851658789E+03  0.94851658789E+03  0.25500000920E-02 0.  1.
    10030    2    1    2    0    0  0.00000000000E+00  0.00000000000E+00  0.44761032173E+03  0.23446434975E+04  0.23015208299E+04 0.  0.
        5    1    3    3  502    0  0.48337118021E+03  0.94842447415E+03  0.66911165135E+03  0.12573341533E+04  0.46999998093E+01 0. -1.
       -5    1    3    3    0  502 -0.48337118021E+03 -0.94842447415E+03 -0.22150132962E+03  0.10873093442E+04  0.46999998093E+01 0.  1.
</event>
<event>
 5   0  0.1825521E-06  0.2300163E+04  0.7818609E-02  0.8477857E-01
        2   -1    0    0  501    0  0.00000000000E+00  0.00000000000E+00  0.78799003913E+03  0.78799003914E+03  0.25500000920E-02 0. -1.
       -2   -1    0    0    0  501  0.00000000000E+00  0.00000000000E+00 -0.16785590748E+04  0.16785590748E+04  0.25500000920E-02 0.  1.
    10030    2    1    2    0    0  0.00000000000E+00  0.00000000000E+00 -0.89056903570E+03  0.24665491140E+04  0.23001633256E+04 0.  0.
        5    1    3    3  502    0  0.20085903265E+03  0.98085923613E+03 -0.10521138170E+04  0.14523755596E+04  0.46999998093E+01 0.  1.
       -5    1    3    3    0  502 -0.20085903265E+03 -0.98085923613E+03  0.16154478130E+03  0.10141735544E+04  0.46999998093E+01 0. -1.
</event>
<event>
 5   0  0.6319125E-07  0.2299776E+04  0.7818609E-02  0.8478010E-01
       -4   -1    0    0    0  501  0.00000000000E+00  0.00000000000E+00  0.14370743996E+04  0.14370749607E+04  0.12699999809E+01 0. -1.
        4   -1    0    0  501    0  0.00000000000E+00  0.00000000000E+00 -0.92009181475E+03  0.92009269123E+03  0.12699999809E+01 0.  1.
    10030    2    1    2    0    0  0.00000000000E+00  0.00000000000E+00  0.51698258482E+03  0.23571676520E+04  0.22997757166E+04 0.  0.
        4    1    3    3  502    0  0.11121619811E+04  0.19250834609E+03  0.33288407916E+02  0.11291915101E+04  0.12699999809E+01 0.  1.
       -4    1    3    3    0  502 -0.11121619811E+04 -0.19250834609E+03  0.48369417690E+03  0.12279761419E+04  0.12699999809E+01 0. -1.
</event>
<event>
 5   0  0.1744876E-06  0.2299779E+04  0.7818609E-02  0.8478008E-01
        2   -1    0    0  501    0  0.00000000000E+00  0.00000000000E+00  0.17479461519E+04  0.17479461519E+04  0.25500000920E-02 0.  1.
       -2   -1    0    0    0  501  0.00000000000E+00  0.00000000000E+00 -0.75645660940E+03  0.75645660941E+03  0.25500000920E-02 0. -1.
    10030    2    1    2    0    0  0.00000000000E+00  0.00000000000E+00  0.99148954252E+03  0.25044027613E+04  0.22997786150E+04 0.  0.
        1    1    3    3  502    0 -0.47223378941E+03  0.10433131771E+04  0.60859060908E+03  0.12968768897E+04  0.50400001928E-02 0.  1.
       -1    1    3    3    0  502  0.47223378941E+03 -0.10433131771E+04  0.38289893344E+03  0.12075258717E+04  0.50400001928E-02 0. -1.
</event>
<event>
 5   0  0.7607231E-07  0.2300194E+04  0.7818609E-02  0.8477845E-01
        1   -1    0    0  501    0  0.00000000000E+00  0.00000000000E+00  0.13027683005E+04  0.13027683005E+04  0.50400001928E-02 0.  1.
       -1   -1    0    0    0  501  0.00000000000E+00  0.00000000000E+00 -0.10153172231E+04  0.10153172231E+04  0.50400001928E-02 0. -1.
    10030    2    1    2    0    0  0.00000000000E+00  0.00000000000E+00  0.28745107740E+03  0.23180855237E+04  0.23001939860E+04 0.  0.
        2    1    3    3  502    0  0.60687770314E+03  0.20987125595E+02  0.11280428004E+04  0.12811016999E+04  0.25500000920E-02 0.  1.
       -2    1    3    3    0  502 -0.60687770314E+03 -0.20987125595E+02 -0.84059172297E+03  0.10369838238E+04  0.25500000920E-02 0. -1.
</event>
<event>
 5   0  0.1888779E-06  0.2300433E+04  0.7818609E-02  0.8477750E-01
        2   -1    0    0  501    0  0.00000000000E+00  0.00000000000E+00  0.21365936830E+04  0.21365936830E+04  0.25500000920E-02 0. -1.
       -2   -1    0    0    0  501  0.00000000000E+00  0.00000000000E+00 -0.61920907277E+03  0.61920907277E+03  0.25500000920E-02 0.  1.
    10030    2    1    2    0    0  0.00000000000E+00  0.00000000000E+00  0.15173846102E+04  0.27558027557E+04  0.23004331708E+04 0.  0.
        4    1    3    3  502    0  0.76248324914E+03 -0.70830054631E+03  0.13454750805E+04  0.17009924086E+04  0.12699999809E+01 0.  1.
       -4    1    3    3    0  502 -0.76248324914E+03  0.70830054631E+03  0.17190952975E+03  0.10548103471E+04  0.12699999809E+01 0. -1.
</event>
<event>
 5   0  0.8097672E-07  0.2300089E+04  0.7818609E-02  0.8477886E-01
        1   -1    0    0  501    0  0.00000000000E+00  0.00000000000E+00  0.49006798581E+03  0.49006798583E+03  0.50400001928E-02 0.  1.
       -1   -1    0    0    0  501  0.00000000000E+00  0.00000000000E+00 -0.26988151718E+04  0.26988151718E+04  0.50400001928E-02 0. -1.
    10030    2    1    2    0    0  0.00000000000E+00  0.00000000000E+00 -0.22087471860E+04  0.31888831577E+04  0.23000894899E+04 0.  0.
        3    1    3    3  502    0 -0.17848082309E+03 -0.12945747712E+03  0.46049036024E+03  0.51055462457E+03  0.10100000352E+00 0.  1.
       -3    1    3    3    0  502  0.17848082309E+03  0.12945747712E+03 -0.26692375463E+04  0.26783285331E+04  0.10100000352E+00 0. -1.
</event>
<event>
 5   0  0.1828646E-06  0.2300696E+04  0.7818609E-02  0.8477647E-01
        2   -1    0    0  501    0  0.00000000000E+00  0.00000000000E+00  0.15183413751E+04  0.15183413751E+04  0.25500000920E-02 0. -1.
       -2   -1    0    0    0  501  0.00000000000E+00  0.00000000000E+00 -0.87154324517E+03  0.87154324517E+03  0.25500000920E-02 0.  1.
    10030    2    1    2    0    0  0.00000000000E+00  0.00000000000E+00  0.64679812992E+03  0.23898846203E+04  0.23006956942E+04 0.  0.
        3    1    3    3  502    0  0.10625643676E+04 -0.30749127876E+03  0.65140289778E+03  0.12837132340E+04  0.10100000352E+00 0.  1.
       -3    1    3    3    0  502 -0.10625643676E+04  0.30749127876E+03 -0.46047678604E+01  0.11061713863E+04  0.10100000352E+00 0. -1.
</event>
<event>
 5   0  0.8108242E-07  0.2300028E+04  0.7818609E-02  0.8477910E-01
        1   -1    0    0  501    0  0.00000000000E+00  0.00000000000E+00  0.14896524359E+04  0.14896524359E+04  0.50400001928E-02 0.  1.
       -1   -1    0    0    0  501  0.00000000000E+00  0.00000000000E+00 -0.88781226265E+03  0.88781226266E+03  0.50400001928E-02 0. -1.
    10030    2    1    2    0    0  0.00000000000E+00  0.00000000000E+00  0.60184017323E+03  0.23774646985E+04  0.23000275648E+04 0.  0.
        4    1    3    3  502    0 -0.62221469468E+03 -0.84923998216E+03  0.77928660325E+03  0.13098278118E+04  0.12699999809E+01 0. -1.
       -4    1    3    3    0  502  0.62221469468E+03  0.84923998216E+03 -0.17744643002E+03  0.10676368868E+04  0.12699999809E+01 0.  1.
</event>
<event>
 5   0  0.1744876E-06  0.2299470E+04  0.7818609E-02  0.8478130E-01
        2   -1    0    0  501    0  0.00000000000E+00  0.00000000000E+00  0.14241374665E+04  0.14241374665E+04  0.25500000920E-02 0. -1.
       -2   -1    0    0    0  501  0.00000000000E+00  0.00000000000E+00 -0.92820405412E+03  0.92820405413E+03  0.25500000920E-02 0.  1.
    10030    2    1    2    0    0  0.00000000000E+00  0.00000000000E+00  0.49593341237E+03  0.23523415206E+04  0.22994696519E+04 0.  0.
        1    1    3    3  502    0 -0.75776150296E+03 -0.21244703534E+03  0.11054240542E+04  0.13569445743E+04  0.50400001928E-02 0. -1.
       -1    1    3    3    0  502  0.75776150296E+03  0.21244703534E+03 -0.60949064182E+03  0.99539694629E+03  0.50400001928E-02 0.  1.
</event>
<event>
 5   0  0.7932912E-07  0.2300124E+04  0.7818609E-02  0.8477872E-01
       -1   -1    0    0    0  501  0.00000000000E+00  0.00000000000E+00  0.12945771768E+04  0.12945771769E+04  0.50400001928E-02 0. -1.
        1   -1    0    0  501    0  0.00000000000E+00  0.00000000000E+00 -0.10216787923E+04  0.10216787923E+04  0.50400001928E-02 0.  1.
    10030    2    1    2    0    0  0.00000000000E+00  0.00000000000E+00  0.27289838458E+03  0.23162559691E+04  0.23001235154E+04 0.  0.
        5    1    3    3  502    0 -0.47301200844E+03  0.52313529617E+03  0.10512307211E+04  0.12659064015E+04  0.46999998093E+01 0. -1.
       -5    1    3    3    0  502  0.47301200844E+03 -0.52313529617E+03 -0.77833233654E+03  0.10503495677E+04  0.46999998093E+01 0.  1.
</event>
<event>
 5   0  0.8108242E-07  0.2300186E+04  0.7818609E-02  0.8477848E-01
       -1   -1    0    0    0  501  0.00000000000E+00  0.00000000000E+00  0.10120806339E+04  0.10120806339E+04  0.50400001928E-02 0.  1.
        1   -1    0    0  501    0  0.00000000000E+00  0.00000000000E+00 -0.13069248994E+04  0.13069248994E+04  0.50400001928E-02 0. -1.
    10030    2    1    2    0    0  0.00000000000E+00  0.00000000000E+00 -0.29484426547E+03  0.23190055333E+04  0.23001855410E+04 0.  0.
        4    1    3    3  502    0  0.10332790457E+04 -0.49492746761E+03 -0.46136302391E+02  0.11466250284E+04  0.12699999809E+01 0.  1.
       -4    1    3    3    0  502 -0.10332790457E+04  0.49492746761E+03 -0.24870796308E+03  0.11723805049E+04  0.12699999809E+01 0. -1.
</event>
<event>
 5   0  0.1828646E-06  0.2296997E+04  0.7818609E-02  0.8479106E-01
       -2   -1    0    0    0  501  0.00000000000E+00  0.00000000000E+00  0.70587259285E+03  0.70587259285E+03  0.25500000920E-02 0.  1.
        2   -1    0    0  501    0  0.00000000000E+00  0.00000000000E+00 -0.18686787250E+04  0.18686787250E+04  0.25500000920E-02 0. -1.
    10030    2    1    2    0    0  0.00000000000E+00  0.00000000000E+00 -0.11628061322E+04  0.25745513179E+04  0.22969972545E+04 0.  0.
        3    1    3    3  502    0  0.19368287973E+03 -0.94077572186E+03 -0.12871518109E+04  0.16060298288E+04  0.10100000352E+00 0. -1.
       -3    1    3    3    0  502 -0.19368287973E+03  0.94077572186E+03  0.12434567868E+03  0.96852148905E+03  0.10100000352E+00 0.  1.
</event>
<event>
 5   0  0.7932912E-07  0.2299581E+04  0.7818609E-02  0.8478087E-01
       -1   -1    0    0    0  501  0.00000000000E+00  0.00000000000E+00  0.83827322346E+03  0.83827322348E+03  0.50400001928E-02 0.  1.
        1   -1    0    0  501    0  0.00000000000E+00  0.00000000000E+00 -0.15770725094E+04  0.15770725094E+04  0.50400001928E-02 0. -1.
    10030    2    1    2    0    0  0.00000000000E+00  0.00000000000E+00 -0.73879928597E+03  0.24153457329E+04  0.22995805323E+04 0.  0.
        5    1    3    3  502    0 -0.70903075312E+03 -0.88965816607E+03 -0.19433785176E+03  0.11541254490E+04  0.46999998093E+01 0.  1.
       -5    1    3    3    0  502  0.70903075312E+03  0.88965816607E+03 -0.54446143421E+03  0.12612202840E+04  0.46999998093E+01 0. -1.
</event>
<event>
 5   0  0.8097672E-07  0.2300289E+04  0.7818609E-02  0.8477807E-01
        1   -1    0    0  501    0  0.00000000000E+00  0.00000000000E+00  0.18408925115E+04  0.18408925115E+04  0.50400001928E-02 0. -1.
       -1   -1    0    0    0  501  0.00000000000E+00  0.00000000000E+00 -0.71858187091E+03  0.71858187093E+03  0.50400001928E-02 0.  1.
    10030    2    1    2    0    0  0.00000000000E+00  0.00000000000E+00  0.11223106406E+04  0.25594743824E+04  0.23002886646E+04 0.  0.
        3    1    3    3  502    0  0.10090484999E+04  0.55189430916E+03  0.57017906344E+03  0.12836940360E+04  0.10100000352E+00 0. -1.
       -3    1    3    3    0  502 -0.10090484999E+04 -0.55189430916E+03  0.55213157713E+03  0.12757803464E+04  0.10100000352E+00 0.  1.
</event>
<event>
 5   0  0.7607231E-07  0.2303962E+04  0.7818609E-02  0.8476360E-01
       -1   -1    0    0    0  501  0.00000000000E+00  0.00000000000E+00  0.70883606946E+03  0.70883606948E+03  0.50400001928E-02 0.  1.
        1   -1    0    0  501    0  0.00000000000E+00  0.00000000000E+00 -0.18721687189E+04  0.18721687189E+04  0.50400001928E-02 0. -1.
    10030    2    1    2    0    0  0.00000000000E+00  0.00000000000E+00 -0.11633326494E+04  0.25810047884E+04  0.23039624268E+04 0.  0.
        2    1    3    3  502    0 -0.86684593033E+02 -0.63996192259E+03  0.48697749164E+03  0.80883407347E+03  0.25500000920E-02 0.  1.
       -2    1    3    3    0  502  0.86684593033E+02  0.63996192259E+03 -0.16503101411E+04  0.17721707149E+04  0.25500000920E-02 0. -1.
</event>
<event>
 5   0  0.1689444E-06  0.2299976E+04  0.7818609E-02  0.8477931E-01
        2   -1    0    0  501    0  0.00000000000E+00  0.00000000000E+00  0.11340679490E+04  0.11340679490E+04  0.25500000920E-02 0.  1.
       -2   -1    0    0    0  501  0.00000000000E+00  0.00000000000E+00 -0.11661310321E+04  0.11661310321E+04  0.25500000920E-02 0. -1.
    10030    2    1    2    0    0  0.00000000000E+00  0.00000000000E+00 -0.32063083115E+02  0.23001989811E+04  0.22999755023E+04 0.  0.
        2    1    3    3  502    0  0.40297448028E+02  0.94277863766E+03  0.64131185601E+03  0.11409366067E+04  0.25500000920E-02 0.  1.
       -2    1    3    3    0  502 -0.40297448028E+02 -0.94277863766E+03 -0.67337493912E+03  0.11592623744E+04  0.25500000920E-02 0. -1.
</event>
<event>
 5   0  0.7607231E-07  0.2300274E+04  0.7818609E-02  0.8477813E-01
       -1   -1    0    0    0  501  0.00000000000E+00  0.00000000000E+00  0.10253572195E+04  0.10253572195E+04  0.50400001928E-02 0. -1.
        1   -1    0    0  501    0  0.00000000000E+00  0.00000000000E+00 -0.12901017249E+04  0.12901017249E+04  0.50400001928E-02 0.  1.
    10030    2    1    2    0    0  0.00000000000E+00  0.00000000000E+00 -0.26474450544E+03  0.23154589444E+04  0.23002739989E+04 0.  0.
        2    1    3    3  502    0 -0.91370179647E+03 -0.11898526649E+03 -0.82525235684E+03  0.12369518661E+04  0.25500000920E-02 0.  1.
       -2    1    3    3    0  502  0.91370179647E+03  0.11898526649E+03  0.56050785140E+03  0.10785070783E+04  0.25500000920E-02 0. -1.
</event>
<event>
 5   0  0.7607231E-07  0.2299236E+04  0.7818609E-02  0.8478223E-01
        1   -1    0    0  501    0  0.00000000000E+00  0.00000000000E+00  0.85364695251E+03  0.85364695252E+03  0.50400001928E-02 0.  1.
       -1   -1    0    0    0  501  0.00000000000E+00  0.00000000000E+00 -0.15482057159E+04  0.15482057159E+04  0.50400001928E-02 0. -1.
    10030    2    1    2    0    0  0.00000000000E+00  0.00000000000E+00 -0.69455876343E+03  0.24018526685E+04  0.22992356045E+04 0.  0.
        2    1    3    3  502    0 -0.44564630087E+03  0.82414335983E+03 -0.10432013453E+04  0.14021704425E+04  0.25500000920E-02 0. -1.
       -2    1    3    3    0  502  0.44564630087E+03 -0.82414335983E+03  0.34864258185E+03  0.99968222597E+03  0.25500000920E-02 0.  1.
</event>
<event>
 5   0  0.8097672E-07  0.2297038E+04  0.7818609E-02  0.8479090E-01
       -1   -1    0    0    0  501  0.00000000000E+00  0.00000000000E+00  0.10501716230E+04  0.10501716230E+04  0.50400001928E-02 0. -1.
        1   -1    0    0  501    0  0.00000000000E+00  0.00000000000E+00 -0.12560764763E+04  0.12560764763E+04  0.50400001928E-02 0.  1.
    10030    2    1    2    0    0  0.00000000000E+00  0.00000000000E+00 -0.20590485332E+03  0.23062480993E+04  0.22970379811E+04 0.  0.
        3    1    3    3  502    0  0.93951409540E+03 -0.32579155986E+03 -0.67994702251E+03  0.12046388835E+04  0.10100000352E+00 0. -1.
       -3    1    3    3    0  502 -0.93951409540E+03  0.32579155986E+03  0.47404216919E+03  0.11016092158E+04  0.10100000352E+00 0.  1.
</event>
<event>
 5   0  0.1744876E-06  0.2299742E+04  0.7818609E-02  0.8478023E-01
        2   -1    0    0  501    0  0.00000000000E+00  0.00000000000E+00  0.11270523330E+04  0.11270523330E+04  0.25500000920E-02 0. -1.
       -2   -1    0    0    0  501  0.00000000000E+00  0.00000000000E+00 -0.11731517476E+04  0.11731517476E+04  0.25500000920E-02 0.  1.
    10030    2    1    2    0    0  0.00000000000E+00  0.00000000000E+00 -0.46099414559E+02  0.23002040806E+04  0.22997420847E+04 0.  0.
        1    1    3    3  502    0 -0.68313379468E+03 -0.84249614567E+03  0.35877542974E+03  0.11424497126E+04  0.50400001928E-02 0. -1.
       -1    1    3    3    0  502  0.68313379468E+03  0.84249614567E+03 -0.40487484430E+03  0.11577543679E+04  0.50400001928E-02 0.  1.
</event>
<event>
 5   0  0.1888779E-06  0.2299053E+04  0.7818609E-02  0.8478295E-01
        2   -1    0    0  501    0  0.00000000000E+00  0.00000000000E+00  0.15407682209E+04  0.15407682209E+04  0.25500000920E-02 0.  1.
       -2   -1    0    0    0  501  0.00000000000E+00  0.00000000000E+00 -0.85763122984E+03  0.85763122985E+03  0.25500000920E-02 0. -1.
    10030    2    1    2    0    0  0.00000000000E+00  0.00000000000E+00  0.68313699105E+03  0.23983994507E+04  0.22990527999E+04 0.  0.
        4    1    3    3  502    0  0.10476183431E+04  0.45740309424E+03  0.21513934567E+03  0.11631888645E+04  0.12699999809E+01 0.  1.
       -4    1    3    3    0  502 -0.10476183431E+04 -0.45740309424E+03  0.46799764537E+03  0.12352105863E+04  0.12699999809E+01 0. -1.
</event>
<event>
 5   0  0.7761069E-07  0.2298473E+04  0.7818609E-02  0.8478524E-01
       -1   -1    0    0    0  501  0.00000000000E+00  0.00000000000E+00  0.58833681945E+03  0.58833681947E+03  0.50400001928E-02 0. -1.
        1   -1    0    0  501    0  0.00000000000E+00  0.00000000000E+00 -0.22448778813E+04  0.22448778813E+04  0.50400001928E-02 0.  1.
    10030    2    1    2    0    0  0.00000000000E+00  0.00000000000E+00 -0.16565410619E+04  0.28332147008E+04  0.22984728084E+04 0.  0.
        1    1    3    3  502    0 -0.40625198938E+03 -0.78188759223E+03 -0.17377259075E+04  0.19483532060E+04  0.50400001928E-02 0.  1.
       -1    1    3    3    0  502  0.40625198938E+03  0.78188759223E+03  0.81184845635E+02  0.88486149478E+03  0.50400001928E-02 0. -1.
</event>
<event>
 5   0  0.1744876E-06  0.2298918E+04  0.7818609E-02  0.8478348E-01
       -2   -1    0    0    0  501  0.00000000000E+00  0.00000000000E+00  0.17853727603E+04  0.17853727603E+04  0.25500000920E-02 0.  1.
        2   -1    0    0  501    0  0.00000000000E+00  0.00000000000E+00 -0.74004472183E+03  0.74004472183E+03  0.25500000920E-02 0. -1.
    10030    2    1    2    0    0  0.00000000000E+00  0.00000000000E+00  0.10453280384E+04  0.25254174821E+04  0.22989177347E+04 0.  0.
        1    1    3    3  502    0  0.54043040773E+03 -0.38880014698E+03 -0.50668633776E+03  0.83663709264E+03  0.50400001928E-02 0. -1.
       -1    1    3    3    0  502 -0.54043040773E+03  0.38880014698E+03  0.15520143762E+04  0.16887803895E+04  0.50400001928E-02 0.  1.
</event>
<event>
 5   0  0.1888779E-06  0.2299948E+04  0.7818609E-02  0.8477942E-01
        2   -1    0    0  501    0  0.00000000000E+00  0.00000000000E+00  0.99897281988E+03  0.99897281989E+03  0.25500000920E-02 0. -1.
       -2   -1    0    0    0  501  0.00000000000E+00  0.00000000000E+00 -0.13237998229E+04  0.13237998229E+04  0.25500000920E-02 0.  1.
    10030    2    1    2    0    0  0.00000000000E+00  0.00000000000E+00 -0.32482700299E+03  0.23227726428E+04  0.22999478620E+04 0.  0.
        4    1    3    3  502    0 -0.91165086826E+03 -0.37349470416E+03  0.43662797316E+03  0.10776136597E+04  0.12699999809E+01 0. -1.
       -4    1    3    3    0  502  0.91165086826E+03  0.37349470416E+03 -0.76145497614E+03  0.12451589831E+04  0.12699999809E+01 0.  1.
</event>
<event>
 5   0  0.1825521E-06  0.2300191E+04  0.7818609E-02  0.8477846E-01
       -2   -1    0    0    0  501  0.00000000000E+00  0.00000000000E+00  0.72546736541E+03  0.72546736541E+03  0.25500000920E-02 0. -1.
        2   -1    0    0  501    0  0.00000000000E+00  0.00000000000E+00 -0.18232647865E+04  0.18232647865E+04  0.25500000920E-02 0.  1.
    10030    2    1    2    0    0  0.00000000000E+00  0.00000000000E+00 -0.10977974211E+04  0.25487321520E+04  0.23001905148E+04 0.  0.
        5    1    3    3  502    0 -0.10681419772E+04 -0.13875389340E+03 -0.99559248622E+03  0.14667673350E+04  0.46999998093E+01 0.  1.
       -5    1    3    3    0  502  0.10681419772E+04  0.13875389340E+03 -0.10220493492E+03  0.10819648170E+04  0.46999998093E+01 0. -1.
</event>
<event>
 5   0  0.1744876E-06  0.2300937E+04  0.7818609E-02  0.8477552E-01
        2   -1    0    0  501    0  0.00000000000E+00  0.00000000000E+00  0.12415753623E+04  0.12415753623E+04  0.25500000920E-02 0. -1.
       -2   -1    0    0    0  501  0.00000000000E+00  0.00000000000E+00 -0.10660469365E+04  0.10660469365E+04  0.25500000920E-02 0.  1.
    10030    2    1    2    0    0  0.00000000000E+00  0.00000000000E+00  0.17552842572E+03  0.23076222988E+04  0.23009368626E+04 0.  0.
        1    1    3    3  502    0 -0.53939798060E+03  0.11996798738E+02  0.11068285103E+04  0.12313258934E+04  0.50400001928E-02 0.  1.
       -1    1    3    3    0  502  0.53939798060E+03 -0.11996798738E+02 -0.93130008456E+03  0.10762964054E+04  0.50400001928E-02 0. -1.
</event>
<event>
 5   0  0.1825521E-06  0.2300338E+04  0.7818609E-02  0.8477788E-01
       -2   -1    0    0    0  501  0.00000000000E+00  0.00000000000E+00  0.46935765049E+03  0.46935765050E+03  0.25500000920E-02 0.  1.
        2   -1    0    0  501    0  0.00000000000E+00  0.00000000000E+00 -0.28185092281E+04  0.28185092281E+04  0.25500000920E-02 0. -1.
    10030    2    1    2    0    0  0.00000000000E+00  0.00000000000E+00 -0.23491515776E+04  0.32878668786E+04  0.23003381223E+04 0.  0.
        5    1    3    3  502    0  0.66966592917E+03  0.39718320380E+03 -0.23845582578E+04  0.25084551279E+04  0.46999998093E+01 0. -1.
       -5    1    3    3    0  502 -0.66966592917E+03 -0.39718320380E+03  0.35406680178E+02  0.77941175066E+03  0.46999998093E+01 0.  1.
</event>
<event>
 5   0  0.1744876E-06  0.2287486E+04  0.7818609E-02  0.8482872E-01
       -2   -1    0    0    0  501  0.00000000000E+00  0.00000000000E+00  0.81007713823E+03  0.81007713824E+03  0.25500000920E-02 0.  1.
        2   -1    0    0  501    0  0.00000000000E+00  0.00000000000E+00 -0.16148439222E+04  0.16148439222E+04  0.25500000920E-02 0. -1.
    10030    2    1    2    0    0  0.00000000000E+00  0.00000000000E+00 -0.80476678401E+03  0.24249210605E+04  0.22874860815E+04 0.  0.
        1    1    3    3  502    0  0.33867594146E+03  0.51017323780E+03  0.62166276808E+03  0.87260685485E+03  0.50400001928E-02 0.  1.
       -1    1    3    3    0  502 -0.33867594146E+03 -0.51017323780E+03 -0.14264295521E+04  0.15523142056E+04  0.50400001928E-02 0. -1.
</event>
<event>
 5   0  0.8108242E-07  0.2300816E+04  0.7818609E-02  0.8477600E-01
        1   -1    0    0  501    0  0.00000000000E+00  0.00000000000E+00  0.18255341849E+04  0.18255341849E+04  0.50400001928E-02 0. -1.
       -1   -1    0    0    0  501  0.00000000000E+00  0.00000000000E+00 -0.72495938337E+03  0.72495938339E+03  0.50400001928E-02 0.  1.
    10030    2    1    2    0    0  0.00000000000E+00  0.00000000000E+00  0.11005748015E+04  0.25504935683E+04  0.23008156267E+04 0.  0.
        4    1    3    3  502    0 -0.11372695280E+04  0.10347631700E+03  0.70447570711E+03  0.13417812647E+04  0.12699999809E+01 0. -1.
       -4    1    3    3    0  502  0.11372695280E+04 -0.10347631700E+03  0.39609909440E+03  0.12087123036E+04  0.12699999809E+01 0.  1.
</event>
<event>
 5   0  0.8097672E-07  0.2299973E+04  0.7818609E-02  0.8477932E-01
        1   -1    0    0  501    0  0.00000000000E+00  0.00000000000E+00  0.14316955201E+04  0.14316955201E+04  0.50400001928E-02 0.  1.
       -1   -1    0    0    0  501  0.00000000000E+00  0.00000000000E+00 -0.92370785945E+03  0.92370785946E+03  0.50400001928E-02 0. -1.
    10030    2    1    2    0    0  0.00000000000E+00  0.00000000000E+00  0.50798766065E+03  0.23554033796E+04  0.22999725253E+04 0.  0.
        3    1    3    3  502    0 -0.40626873305E+03  0.67067129911E+03 -0.60747762285E+03  0.99190894107E+03  0.10100000352E+00 0. -1.
       -3    1    3    3    0  502  0.40626873305E+03 -0.67067129911E+03  0.11154652835E+04  0.13634944385E+04  0.10100000352E+00 0.  1.
</event>
<event>
 5   0  0.1744876E-06  0.2301756E+04  0.7818609E-02  0.8477229E-01
        2   -1    0    0  501    0  0.00000000000E+00  0.00000000000E+00  0.23398346163E+04  0.23398346163E+04  0.25500000920E-02 0.  1.
       -2   -1    0    0    0  501  0.00000000000E+00  0.00000000000E+00 -0.56607447071E+03  0.56607447072E+03  0.25500000920E-02 0. -1.
    10030    2    1    2    0    0  0.00000000000E+00  0.00000000000E+00  0.17737601456E+04  0.29059090870E+04  0.23017564093E+04 0.  0.
        1    1    3    3  502    0  0.27690681485E+03 -0.11059933781E+04  0.68878052209E+03  0.13320350387E+04  0.50400001928E-02 0.  1.
       -1    1    3    3    0  502 -0.27690681485E+03  0.11059933781E+04  0.10849796235E+04  0.15738740483E+04  0.50400001928E-02 0. -1.
</event>
<event>
 5   0  0.7607231E-07  0.2300927E+04  0.7818609E-02  0.8477556E-01
        1   -1    0    0  501    0  0.00000000000E+00  0.00000000000E+00  0.14643056408E+04  0.14643056408E+04  0.50400001928E-02 0.  1.
       -1   -1    0    0    0  501  0.00000000000E+00  0.00000000000E+00 -0.90388682608E+03  0.90388682609E+03  0.50400001928E-02 0. -1.
    10030    2    1    2    0    0  0.00000000000E+00  0.00000000000E+00  0.56041881470E+03  0.23681924669E+04  0.23009272723E+04 0.  0.
        2    1    3    3  502    0  0.94786606807E+03  0.62190843350E+03  0.48175642530E+03  0.12317911495E+04  0.25500000920E-02 0.  1.
       -2    1    3    3    0  502 -0.94786606807E+03 -0.62190843350E+03  0.78662389399E+02  0.11364013174E+04  0.25500000920E-02 0. -1.
</event>
<event>
 5   0  0.1689444E-06  0.2300835E+04  0.7818609E-02  0.8477592E-01
        2   -1    0    0  501    0  0.00000000000E+00  0.00000000000E+00  0.15819805790E+04  0.15819805790E+04  0.25500000920E-02 0.  1.
       -2   -1    0    0    0  501  0.00000000000E+00  0.00000000000E+00 -0.83658438609E+03  0.83658438609E+03  0.25500000920E-02 0. -1.
    10030    2    1    2    0    0  0.00000000000E+00  0.00000000000E+00  0.74539619294E+03  0.24185649651E+04  0.23008348498E+04 0.  0.
        2    1    3    3  502    0 -0.46483174623E+03  0.25056927429E+02  0.14785571894E+04  0.15501057268E+04  0.25500000920E-02 0.  1.
       -2    1    3    3    0  502  0.46483174623E+03 -0.25056927429E+02 -0.73316099645E+03  0.86845923833E+03  0.25500000920E-02 0. -1.
</event>
<event>
 5   0  0.8108242E-07  0.2301390E+04  0.7818609E-02  0.8477373E-01
        1   -1    0    0  501    0  0.00000000000E+00  0.00000000000E+00  0.25101836569E+04  0.25101836569E+04  0.50400001928E-02 0.  1.
       -1   -1    0    0    0  501  0.00000000000E+00  0.00000000000E+00 -0.52749099119E+03  0.52749099122E+03  0.50400001928E-02 0. -1.
    10030    2    1    2    0    0  0.00000000000E+00  0.00000000000E+00  0.19826926657E+04  0.30376746482E+04  0.23013902453E+04 0.  0.
        4    1    3    3  502    0  0.11305219191E+04  0.10948083459E+03  0.12348432031E+04  0.16777679255E+04  0.12699999809E+01 0. -1.
       -4    1    3    3    0  502 -0.11305219191E+04 -0.10948083459E+03  0.74784946268E+03  0.13599067227E+04  0.12699999809E+01 0.  1.
</event>
<event>
 5   0  0.1825521E-06  0.2297002E+04  0.7818609E-02  0.8479104E-01
       -2   -1    0    0    0  501  0.00000000000E+00  0.00000000000E+00  0.10243982810E+04  0.10243982810E+04  0.25500000920E-02 0. -1.
        2   -1    0    0  501    0  0.00000000000E+00  0.00000000000E+00 -0.12876384860E+04  0.12876384860E+04  0.25500000920E-02 0.  1.
    10030    2    1    2    0    0  0.00000000000E+00  0.00000000000E+00 -0.26324020499E+03  0.23120367670E+04  0.22970020911E+04 0.  0.
        5    1    3    3  502    0  0.12133377677E+03 -0.10553523943E+04 -0.57098838789E+03  0.12060432790E+04  0.46999998093E+01 0. -1.
       -5    1    3    3    0  502 -0.12133377677E+03  0.10553523943E+04  0.30774818290E+03  0.11059934881E+04  0.46999998093E+01 0.  1.
</event>
<event>
 5   0  0.8108242E-07  0.2299354E+04  0.7818609E-02  0.8478176E-01
       -1   -1    0    0    0  501  0.00000000000E+00  0.00000000000E+00  0.11165529521E+04  0.11165529521E+04  0.50400001928E-02 0. -1.
        1   -1    0    0  501    0  0.00000000000E+00  0.00000000000E+00 -0.11837840812E+04  0.11837840812E+04  0.50400001928E-02 0.  1.
    10030    2    1    2    0    0  0.00000000000E+00  0.00000000000E+00 -0.67231129154E+02  0.23003370333E+04  0.22993543533E+04 0.  0.
        4    1    3    3  502    0  0.11235947679E+04  0.21425902596E+03 -0.14935366176E+03  0.11535511527E+04  0.12699999809E+01 0.  1.
       -4    1    3    3    0  502 -0.11235947679E+04 -0.21425902596E+03  0.82122532608E+02  0.11467858806E+04  0.12699999809E+01 0. -1.
</event>
<event>
 5   0  0.1744876E-06  0.2300299E+04  0.7818609E-02  0.8477803E-01
        2   -1    0    0  501    0  0.00000000000E+00  0.00000000000E+00  0.11722202252E+04  0.11722202252E+04  0.25500000920E-02 0. -1.
       -2   -1    0    0    0  501  0.00000000000E+00  0.00000000000E+00 -0.11284944432E+04  0.11284944432E+04  0.25500000920E-02 0.  1.
    10030    2    1    2    0    0  0.00000000000E+00  0.00000000000E+00  0.43725782062E+02  0.23007146684E+04  0.23002991200E+04 0.  0.
        1    1    3    3  502    0  0.44354019578E+03 -0.23868384590E+02  0.10829722639E+04  0.11705240406E+04  0.50400001928E-02 0. -1.
       -1    1    3    3    0  502 -0.44354019578E+03  0.23868384590E+02 -0.10392464819E+04  0.11301906278E+04  0.50400001928E-02 0.  1.
</event>
<event>
 5   0  0.7607231E-07  0.2300808E+04  0.7818609E-02  0.8477603E-01
        1   -1    0    0  501    0  0.00000000000E+00  0.00000000000E+00  0.79004580186E+03  0.79004580188E+03  0.50400001928E-02 0.  1.
       -1   -1    0    0    0  501  0.00000000000E+00  0.00000000000E+00 -0.16751294237E+04  0.16751294237E+04  0.50400001928E-02 0. -1.
    10030    2    1    2    0    0  0.00000000000E+00  0.00000000000E+00 -0.88508362185E+03  0.24651752256E+04  0.23008076572E+04 0.  0.
        2    1    3    3  502    0 -0.23837177648E+03 -0.86479927688E+03 -0.12142234996E+04  0.15096481709E+04  0.25500000920E-02 0. -1.
       -2    1    3    3    0  502  0.23837177648E+03  0.86479927688E+03  0.32913987770E+03  0.95552705467E+03  0.25500000920E-02 0.  1.
</event>
<event>
 5   0  0.7607231E-07  0.2303062E+04  0.7818609E-02  0.8476715E-01
       -1   -1    0    0    0  501  0.00000000000E+00  0.00000000000E+00  0.96133844136E+03  0.96133844137E+03  0.50400001928E-02 0.  1.
        1   -1    0    0  501    0  0.00000000000E+00  0.00000000000E+00 -0.13793509703E+04  0.13793509703E+04  0.50400001928E-02 0. -1.
    10030    2    1    2    0    0  0.00000000000E+00  0.00000000000E+00 -0.41801252892E+03  0.23406894117E+04  0.23030615379E+04 0.  0.
        2    1    3    3  502    0  0.99818796002E+02  0.49815694850E+03  0.84126947273E+03  0.98278098431E+03  0.25500000920E-02 0.  1.
       -2    1    3    3    0  502 -0.99818796002E+02 -0.49815694850E+03 -0.12592820017E+04  0.13579084273E+04  0.25500000920E-02 0. -1.
</event>
<event>
 5   0  0.8097672E-07  0.2299885E+04  0.7818609E-02  0.8477966E-01
        1   -1    0    0  501    0  0.00000000000E+00  0.00000000000E+00  0.12971345731E+04  0.12971345731E+04  0.50400001928E-02 0. -1.
       -1   -1    0    0    0  501  0.00000000000E+00  0.00000000000E+00 -0.10194530732E+04  0.10194530732E+04  0.50400001928E-02 0.  1.
    10030    2    1    2    0    0  0.00000000000E+00  0.00000000000E+00  0.27768149994E+03  0.23165876463E+04  0.22998850640E+04 0.  0.
        3    1    3    3  502    0  0.95077571833E+03  0.64505706519E+03  0.90589489301E+02  0.11525101083E+04  0.10100000352E+00 0.  1.
       -3    1    3    3    0  502 -0.95077571833E+03 -0.64505706519E+03  0.18709201064E+03  0.11640775380E+04  0.10100000352E+00 0. -1.
</event>
<event>
 5   0  0.7932912E-07  0.2299503E+04  0.7818609E-02  0.8478117E-01
        1   -1    0    0  501    0  0.00000000000E+00  0.00000000000E+00  0.15220362648E+04  0.15220362648E+04  0.50400001928E-02 0.  1.
       -1   -1    0    0    0  501  0.00000000000E+00  0.00000000000E+00 -0.86852655537E+03  0.86852655538E+03  0.50400001928E-02 0. -1.
    10030    2    1    2    0    0  0.00000000000E+00  0.00000000000E+00  0.65350970941E+03  0.23905628202E+04  0.22995033501E+04 0.  0.
        5    1    3    3  502    0 -0.11253371200E+04  0.23487973784E+03  0.34633411550E+03  0.12006338053E+04  0.46999998093E+01 0. -1.
       -5    1    3    3    0  502  0.11253371200E+04 -0.23487973784E+03  0.30717559391E+03  0.11899290149E+04  0.46999998093E+01 0.  1.
</event>
<event>
 5   0  0.8108242E-07  0.2304330E+04  0.7818609E-02  0.8476216E-01
        1   -1    0    0  501    0  0.00000000000E+00  0.00000000000E+00  0.29785719415E+04  0.29785719415E+04  0.50400001928E-02 0. -1.
       -1   -1    0    0    0  501  0.00000000000E+00  0.00000000000E+00 -0.44567793812E+03  0.44567793815E+03  0.50400001928E-02 0.  1.
    10030    2    1    2    0    0  0.00000000000E+00  0.00000000000E+00  0.25328940033E+04  0.34242498796E+04  0.23043296652E+04 0.  0.
        4    1    3    3  502    0 -0.10700509065E+04 -0.37053715080E+03  0.95060334534E+03  0.14784975670E+04  0.12699999809E+01 0. -1.
       -4    1    3    3    0  502  0.10700509065E+04  0.37053715080E+03  0.15822906580E+04  0.19457523126E+04  0.12699999809E+01 0.  1.
</event>
<event>
 5   0  0.1888779E-06  0.2300488E+04  0.7818609E-02  0.8477729E-01
       -2   -1    0    0    0  501  0.00000000000E+00  0.00000000000E+00  0.14900907947E+04  0.14900907947E+04  0.25500000920E-02 0. -1.
        2   -1    0    0  501    0  0.00000000000E+00  0.00000000000E+00 -0.88790630676E+03  0.88790630676E+03  0.25500000920E-02 0.  1.
    10030    2    1    2    0    0  0.00000000000E+00  0.00000000000E+00  0.60218448793E+03  0.23779971015E+04  0.23004877868E+04 0.  0.
        4    1    3    3  502    0  0.41211661130E+02  0.71049405758E+03  0.12351747224E+04  0.14255379387E+04  0.12699999809E+01 0. -1.
       -4    1    3    3    0  502 -0.41211661130E+02 -0.71049405758E+03 -0.63299023448E+03  0.95245916276E+03  0.12699999809E+01 0.  1.
</event>
<event>
 5   0  0.1744876E-06  0.2299002E+04  0.7818609E-02  0.8478315E-01
        2   -1    0    0  501    0  0.00000000000E+00  0.00000000000E+00  0.17183102165E+04  0.17183102165E+04  0.25500000920E-02 0. -1.
       -2   -1    0    0    0  501  0.00000000000E+00  0.00000000000E+00 -0.76898389793E+03  0.76898389793E+03  0.25500000920E-02 0.  1.
    10030    2    1    2    0    0  0.00000000000E+00  0.00000000000E+00  0.94932631852E+03  0.24872941144E+04  0.22990022950E+04 0.  0.
        1    1    3    3  502    0 -0.51471796991E+03 -0.26444438958E+02  0.15862973716E+04  0.16679248329E+04  0.50400001928E-02 0. -1.
       -1    1    3    3    0  502  0.51471796991E+03  0.26444438958E+02 -0.63697105312E+03  0.81936928148E+03  0.50400001928E-02 0.  1.
</event>
<event>
 5   0  0.1825521E-06  0.2298690E+04  0.7818609E-02  0.8478438E-01
        2   -1    0    0  501    0  0.00000000000E+00  0.00000000000E+00  0.12204741168E+04  0.12204741168E+04  0.25500000920E-02 0.  1.
       -2   -1    0    0    0  501  0.00000000000E+00  0.00000000000E+00 -0.10823613962E+04  0.10823613962E+04  0.25500000920E-02 0. -1.
    10030    2    1    2    0    0  0.00000000000E+00  0.00000000000E+00  0.13811272064E+03  0.23028355130E+04  0.22986901218E+04 0.  0.
        5    1    3    3  502    0 -0.32612932207E+03  0.21007700902E+03  0.11528943178E+04  0.12164210136E+04  0.46999998093E+01 0.  1.
       -5    1    3    3    0  502  0.32612932207E+03 -0.21007700902E+03 -0.10147815971E+04  0.10864144993E+04  0.46999998093E+01 0. -1.
</event>
<event>
 5   0  0.1689444E-06  0.2299982E+04  0.7818609E-02  0.8477928E-01
       -2   -1    0    0    0  501  0.00000000000E+00  0.00000000000E+00  0.91421455163E+03  0.91421455164E+03  0.25500000920E-02 0. -1.
        2   -1    0    0  501    0  0.00000000000E+00  0.00000000000E+00 -0.14465744759E+04  0.14465744759E+04  0.25500000920E-02 0.  1.
    10030    2    1    2    0    0  0.00000000000E+00  0.00000000000E+00 -0.53235992426E+03  0.23607890275E+04  0.22999821181E+04 0.  0.
        2    1    3    3  502    0 -0.17341012056E+03 -0.65393574940E+03  0.68833916067E+03  0.96514964352E+03  0.25500000920E-02 0. -1.
       -2    1    3    3    0  502  0.17341012056E+03  0.65393574940E+03 -0.12206990849E+04  0.13956393840E+04  0.25500000920E-02 0.  1.
</event>
<event>
 5   0  0.7607231E-07  0.2301409E+04  0.7818609E-02  0.8477366E-01
       -1   -1    0    0    0  501  0.00000000000E+00  0.00000000000E+00  0.97266620335E+03  0.97266620337E+03  0.50400001928E-02 0. -1.
        1   -1    0    0  501    0  0.00000000000E+00  0.00000000000E+00 -0.13613310438E+04  0.13613310438E+04  0.50400001928E-02 0.  1.
    10030    2    1    2    0    0  0.00000000000E+00  0.00000000000E+00 -0.38866484048E+03  0.23339972472E+04  0.23014088710E+04 0.  0.
        2    1    3    3  502    0 -0.57694540053E+03 -0.31945229713E+03 -0.11506617783E+04  0.13262497101E+04  0.25500000920E-02 0.  1.
       -2    1    3    3    0  502  0.57694540053E+03  0.31945229713E+03  0.76199693785E+03  0.10077475371E+04  0.25500000920E-02 0. -1.
</event>
<event>
 5   0  0.7761069E-07  0.2300673E+04  0.7818609E-02  0.8477656E-01
        1   -1    0    0  501    0  0.00000000000E+00  0.00000000000E+00  0.19905727503E+04  0.19905727503E+04  0.50400001928E-02 0. -1.
       -1   -1    0    0    0  501  0.00000000000E+00  0.00000000000E+00 -0.66477069953E+03  0.66477069955E+03  0.50400001928E-02 0.  1.
    10030    2    1    2    0    0  0.00000000000E+00  0.00000000000E+00  0.13258020508E+04  0.26553434499E+04  0.23006733273E+04 0.  0.
        1    1    3    3  502    0 -0.62006970822E+03 -0.50417012710E+03 -0.29205713432E+03  0.85086504796E+03  0.50400001928E-02 0.  1.
       -1    1    3    3    0  502  0.62006970822E+03  0.50417012710E+03  0.16178591851E+04  0.18044784019E+04  0.50400001928E-02 0. -1.
</event>
<event>
 5   0  0.1825521E-06  0.2296878E+04  0.7818609E-02  0.8479153E-01
       -2   -1    0    0    0  501  0.00000000000E+00  0.00000000000E+00  0.68874057522E+03  0.68874057522E+03  0.25500000920E-02 0. -1.
        2   -1    0    0  501    0  0.00000000000E+00  0.00000000000E+00 -0.19149626923E+04  0.19149626923E+04  0.25500000920E-02 0.  1.
    10030    2    1    2    0    0  0.00000000000E+00  0.00000000000E+00 -0.12262221171E+04  0.26037032675E+04  0.22968783217E+04 0.  0.
        5    1    3    3  502    0  0.77808619669E+03 -0.63107013407E+03  0.23336011640E+02  0.10021149151E+04  0.46999998093E+01 0. -1.
       -5    1    3    3    0  502 -0.77808619669E+03  0.63107013407E+03 -0.12495581287E+04  0.16015883524E+04  0.46999998093E+01 0.  1.
</event>
<event>
 5   0  0.1744876E-06  0.2300489E+04  0.7818609E-02  0.8477728E-01
        2   -1    0    0  501    0  0.00000000000E+00  0.00000000000E+00  0.10024780182E+04  0.10024780182E+04  0.25500000920E-02 0. -1.
       -2   -1    0    0    0  501  0.00000000000E+00  0.00000000000E+00 -0.13197915373E+04  0.13197915373E+04  0.25500000920E-02 0.  1.
    10030    2    1    2    0    0  0.00000000000E+00  0.00000000000E+00 -0.31731351909E+03  0.23222695554E+04  0.23004886478E+04 0.  0.
        1    1    3    3  502    0  0.60664240155E+03  0.17756932542E+03 -0.11287529032E+04  0.12936881329E+04  0.50400001928E-02 0.  1.
       -1    1    3    3    0  502 -0.60664240155E+03 -0.17756932542E+03  0.81143938411E+03  0.10285814225E+04  0.50400001928E-02 0. -1.
</event>
<event>
 5   0  0.7932912E-07  0.2300552E+04  0.7818609E-02  0.8477704E-01
       -1   -1    0    0    0  501  0.00000000000E+00  0.00000000000E+00  0.10726398899E+04  0.10726398899E+04  0.50400001928E-02 0.  1.
        1   -1    0    0  501    0  0.00000000000E+00  0.00000000000E+00 -0.12335308465E+04  0.12335308465E+04  0.50400001928E-02 0. -1.
    10030    2    1    2    0    0  0.00000000000E+00  0.00000000000E+00 -0.16089095652E+03  0.23061707364E+04  0.23005515786E+04 0.  0.
        5    1    3    3  502    0 -0.82808624714E+03  0.79730880361E+03 -0.39306961880E+02  0.11502153226E+04  0.46999998093E+01 0. -1.
       -5    1    3    3    0  502  0.82808624714E+03 -0.79730880361E+03 -0.12158399464E+03  0.11559554138E+04  0.46999998093E+01 0.  1.
</event>
<event>
 5   0  0.8097672E-07  0.2299905E+04  0.7818609E-02  0.8477959E-01
        1   -1    0    0  501    0  0.00000000000E+00  0.00000000000E+00  0.10578505904E+04  0.10578505905E+04  0.50400001928E-02 0.  1.
       -1   -1    0    0    0  501  0.00000000000E+00  0.00000000000E+00 -0.12500734463E+04  0.12500734464E+04  0.50400001928E-02 0. -1.
    10030    2    1    2    0    0  0.00000000000E+00  0.00000000000E+00 -0.19222285590E+03  0.23079240368E+04  0.22999051575E+04 0.  0.
        3    1    3    3  502    0  0.17093025399E+03  0.51683215167E+03 -0.11125885345E+04  0.12386225745E+04  0.10100000352E+00 0. -1.
       -3    1    3    3    0  502 -0.17093025399E+03 -0.51683215167E+03  0.92036567862E+03  0.10693014623E+04  0.10100000352E+00 0.  1.
</event>
<event>
 5   0  0.1825521E-06  0.2305844E+04  0.7818609E-02  0.8475620E-01
        2   -1    0    0  501    0  0.00000000000E+00  0.00000000000E+00  0.16999860259E+04  0.16999860260E+04  0.25500000920E-02 0. -1.
       -2   -1    0    0    0  501  0.00000000000E+00  0.00000000000E+00 -0.78190603886E+03  0.78190603886E+03  0.25500000920E-02 0.  1.
    10030    2    1    2    0    0  0.00000000000E+00  0.00000000000E+00  0.91807998709E+03  0.24818920648E+04  0.23058441748E+04 0.  0.
        5    1    3    3  502    0  0.77504415661E+02  0.24692342312E+03 -0.75022654643E+03  0.79362464194E+03  0.46999998093E+01 0.  1.
       -5    1    3    3    0  502 -0.77504415661E+02 -0.24692342312E+03  0.16683065335E+04  0.16882674229E+04  0.46999998093E+01 0. -1.
</event>
<event>
 5   0  0.8097672E-07  0.2299475E+04  0.7818609E-02  0.8478128E-01
        1   -1    0    0  501    0  0.00000000000E+00  0.00000000000E+00  0.19309575734E+04  0.19309575734E+04  0.50400001928E-02 0.  1.
       -1   -1    0    0    0  501  0.00000000000E+00  0.00000000000E+00 -0.68458100739E+03  0.68458100741E+03  0.50400001928E-02 0. -1.
    10030    2    1    2    0    0  0.00000000000E+00  0.00000000000E+00  0.12463765660E+04  0.26155385808E+04  0.22994754888E+04 0.  0.
        3    1    3    3  502    0 -0.40250039853E+03  0.10394065689E+04  0.30242678678E+03  0.11549175546E+04  0.10100000352E+00 0.  1.
       -3    1    3    3    0  502  0.40250039853E+03 -0.10394065689E+04  0.94394977925E+03  0.14606210262E+04  0.10100000352E+00 0. -1.
</event>
<event>
 5   0  0.1828646E-06  0.2300252E+04  0.7818609E-02  0.8477822E-01
        2   -1    0    0  501    0  0.00000000000E+00  0.00000000000E+00  0.13450301703E+04  0.13450301703E+04  0.25500000920E-02 0. -1.
       -2   -1    0    0    0  501  0.00000000000E+00  0.00000000000E+00 -0.98346448166E+03  0.98346448166E+03  0.25500000920E-02 0.  1.
    10030    2    1    2    0    0  0.00000000000E+00  0.00000000000E+00  0.36156568860E+03  0.23284946519E+04  0.23002516377E+04 0.  0.
        3    1    3    3  502    0 -0.93745860749E+03 -0.50832214939E+03 -0.25528394135E+03  0.10965354300E+04  0.10100000352E+00 0.  1.
       -3    1    3    3    0  502  0.93745860749E+03  0.50832214939E+03  0.61684962995E+03  0.12319592219E+04  0.10100000352E+00 0. -1.
</event>
<event>
 5   0  0.7607231E-07  0.2303150E+04  0.7818609E-02  0.8476680E-01
       -1   -1    0    0    0  501  0.00000000000E+00  0.00000000000E+00  0.66161270629E+03  0.66161270631E+03  0.50400001928E-02 0. -1.
        1   -1    0    0  501    0  0.00000000000E+00  0.00000000000E+00 -0.20043830350E+04  0.20043830350E+04  0.50400001928E-02 0.  1.
    10030    2    1    2    0    0  0.00000000000E+00  0.00000000000E+00 -0.13427703287E+04  0.26659957413E+04  0.23031502637E+04 0.  0.
        2    1    3    3  502    0 -0.92842790998E+02 -0.95970768649E+03  0.57468786508E+02  0.96589921254E+03  0.25500000920E-02 0. -1.
       -2    1    3    3    0  502  0.92842790998E+02  0.95970768649E+03 -0.14002391152E+04  0.17000965288E+04  0.25500000920E-02 0.  1.
</event>
<event>
 5   0  0.1744876E-06  0.2301973E+04  0.7818609E-02  0.8477143E-01
        2   -1    0    0  501    0  0.00000000000E+00  0.00000000000E+00  0.23387181023E+04  0.23387181023E+04  0.25500000920E-02 0.  1.
       -2   -1    0    0    0  501  0.00000000000E+00  0.00000000000E+00 -0.56645152393E+03  0.56645152394E+03  0.25500000920E-02 0. -1.
    10030    2    1    2    0    0  0.00000000000E+00  0.00000000000E+00  0.17722665783E+04  0.29051696262E+04  0.23019734430E+04 0.  0.
        1    1    3    3  502    0 -0.59186467563E+03 -0.33131494635E+03 -0.28742096832E+03  0.73667102630E+03  0.50400001928E-02 0. -1.
       -1    1    3    3    0  502  0.59186467563E+03  0.33131494635E+03  0.20596875466E+04  0.21684985999E+04  0.50400001928E-02 0.  1.
</event>
<event>
 5   0  0.7607231E-07  0.2300056E+04  0.7818609E-02  0.8477899E-01
        1   -1    0    0  501    0  0.00000000000E+00  0.00000000000E+00  0.13000974851E+04  0.13000974851E+04  0.50400001928E-02 0.  1.
       -1   -1    0    0    0  501  0.00000000000E+00  0.00000000000E+00 -0.10172812294E+04  0.10172812294E+04  0.50400001928E-02 0. -1.
    10030    2    1    2    0    0  0.00000000000E+00  0.00000000000E+00  0.28281625569E+03  0.23173787145E+04  0.23000563193E+04 0.  0.
        2    1    3    3  502    0 -0.93147378558E+02  0.78054150530E+03 -0.70434420491E+03  0.10554725172E+04  0.25500000920E-02 0. -1.
       -2    1    3    3    0  502  0.93147378558E+02 -0.78054150530E+03  0.98716046060E+03  0.12619061972E+04  0.25500000920E-02 0.  1.
</event>
<event>
 5   0  0.1888779E-06  0.2300945E+04  0.7818609E-02  0.8477549E-01
       -2   -1    0    0    0  501  0.00000000000E+00  0.00000000000E+00  0.69600528953E+03  0.69600528954E+03  0.25500000920E-02 0.  1.
        2   -1    0    0  501    0  0.00000000000E+00  0.00000000000E+00 -0.19016911175E+04  0.19016911175E+04  0.25500000920E-02 0. -1.
    10030    2    1    2    0    0  0.00000000000E+00  0.00000000000E+00 -0.12056858280E+04  0.25976964071E+04  0.23009450901E+04 0.  0.
        4    1    3    3  502    0 -0.53773403408E+03  0.20415210282E+03 -0.17277119846E+04  0.18209410444E+04  0.12699999809E+01 0. -1.
       -4    1    3    3    0  502  0.53773403408E+03 -0.20415210282E+03  0.52202615656E+03  0.77675536273E+03  0.12699999809E+01 0.  1.
</event>
<event>
 5   0  0.8108242E-07  0.2299797E+04  0.7818609E-02  0.8478001E-01
        1   -1    0    0  501    0  0.00000000000E+00  0.00000000000E+00  0.14015812723E+04  0.14015812723E+04  0.50400001928E-02 0.  1.
       -1   -1    0    0    0  501  0.00000000000E+00  0.00000000000E+00 -0.94341070569E+03  0.94341070570E+03  0.50400001928E-02 0. -1.
    10030    2    1    2    0    0  0.00000000000E+00  0.00000000000E+00  0.45817056656E+03  0.23449919780E+04  0.22997971886E+04 0.  0.
        4    1    3    3  502    0 -0.64177108635E+03 -0.82825640019E+03 -0.25391797616E+03  0.10781255693E+04  0.12699999809E+01 0. -1.
       -4    1    3    3    0  502  0.64177108635E+03  0.82825640019E+03  0.71208854272E+03  0.12668664086E+04  0.12699999809E+01 0.  1.
</event>
<event>
 5   0  0.6319125E-07  0.2300864E+04  0.7818609E-02  0.8477580E-01
       -4   -1    0    0    0  501  0.00000000000E+00  0.00000000000E+00  0.82337078732E+03  0.82337176676E+03  0.12699999809E+01 0. -1.
        4   -1    0    0  501    0  0.00000000000E+00  0.00000000000E+00 -0.16074076817E+04  0.16074081834E+04  0.12699999809E+01 0.  1.
    10030    2    1    2    0    0  0.00000000000E+00  0.00000000000E+00 -0.78403689441E+03  0.24307799502E+04  0.23008644711E+04 0.  0.
        1    1    3    3  502    0 -0.67866995878E+03 -0.73893830715E+02 -0.13702839981E+04  0.15309250298E+04  0.50400001928E-02 0.  1.
       -1    1    3    3    0  502  0.67866995878E+03  0.73893830715E+02  0.58624710373E+03  0.89985492043E+03  0.50400001928E-02 0. -1.
</event>
<event>
 5   0  0.8097672E-07  0.2298642E+04  0.7818609E-02  0.8478457E-01
        1   -1    0    0  501    0  0.00000000000E+00  0.00000000000E+00  0.11258738788E+04  0.11258738788E+04  0.50400001928E-02 0. -1.
       -1   -1    0    0    0  501  0.00000000000E+00  0.00000000000E+00 -0.11732561557E+04  0.11732561557E+04  0.50400001928E-02 0.  1.
    10030    2    1    2    0    0  0.00000000000E+00  0.00000000000E+00 -0.47382276858E+02  0.22991300345E+04  0.22986417370E+04 0.  0.
        3    1    3    3  502    0  0.16478348356E+03  0.76599986980E+03  0.81733767798E+03  0.11322324351E+04  0.10100000352E+00 0. -1.
       -3    1    3    3    0  502 -0.16478348356E+03 -0.76599986980E+03 -0.86471995484E+03  0.11668975994E+04  0.10100000352E+00 0.  1.
</event>
<event>
 5   0  0.7607231E-07  0.2298145E+04  0.7818609E-02  0.8478653E-01
        1   -1    0    0  501    0  0.00000000000E+00  0.00000000000E+00  0.11593526628E+04  0.11593526628E+04  0.50400001928E-02 0.  1.
       -1   -1    0    0    0  501  0.00000000000E+00  0.00000000000E+00 -0.11388832375E+04  0.11388832375E+04  0.50400001928E-02 0. -1.
    10030    2    1    2    0    0  0.00000000000E+00  0.00000000000E+00  0.20469425305E+02  0.22982359002E+04  0.22981447421E+04 0.  0.
        2    1    3    3  502    0 -0.57976645303E+03 -0.98793505263E+03 -0.80446917122E+02  0.11483102868E+04  0.25500000920E-02 0.  1.
       -2    1    3    3    0  502  0.57976645303E+03  0.98793505263E+03  0.10091634243E+03  0.11499256134E+04  0.25500000920E-02 0. -1.
</event>
<event>
 5   0  0.8097672E-07  0.2300021E+04  0.7818609E-02  0.8477913E-01
        1   -1    0    0  501    0  0.00000000000E+00  0.00000000000E+00  0.23101859336E+04  0.23101859336E+04  0.50400001928E-02 0.  1.
       -1   -1    0    0    0  501  0.00000000000E+00  0.00000000000E+00 -0.57247516472E+03  0.57247516475E+03  0.50400001928E-02 0. -1.
    10030    2    1    2    0    0  0.00000000000E+00  0.00000000000E+00  0.17377107689E+04  0.28826610983E+04  0.23000209329E+04 0.  0.
        3    1    3    3  502    0 -0.92304134221E+03  0.60605401883E+03  0.12715149140E+04  0.16840596723E+04  0.10100000352E+00 0.  1.
       -3    1    3    3    0  502  0.92304134221E+03 -0.60605401883E+03  0.46619585483E+03  0.11986014260E+04  0.10100000352E+00 0. -1.
</event>
<event>
 5   0  0.7932912E-07  0.2298530E+04  0.7818609E-02  0.8478501E-01
        1   -1    0    0  501    0  0.00000000000E+00  0.00000000000E+00  0.18931248894E+04  0.18931248894E+04  0.50400001928E-02 0. -1.
       -1   -1    0    0    0  501  0.00000000000E+00  0.00000000000E+00 -0.69768757501E+03  0.69768757503E+03  0.50400001928E-02 0.  1.
    10030    2    1    2    0    0  0.00000000000E+00  0.00000000000E+00  0.11954373144E+04  0.25908124645E+04  0.22985297156E+04 0.  0.
        5    1    3    3  502    0 -0.56317448538E+03 -0.25695809030E+03 -0.49370513836E+03  0.79180794059E+03  0.46999998093E+01 0.  1.
       -5    1    3    3    0  502  0.56317448538E+03  0.25695809030E+03  0.16891424528E+04  0.17990045239E+04  0.46999998093E+01 0. -1.
</event>
<event>
 5   0  0.7932912E-07  0.2299181E+04  0.7818609E-02  0.8478244E-01
       -1   -1    0    0    0  501  0.00000000000E+00  0.00000000000E+00  0.76168526163E+03  0.76168526164E+03  0.50400001928E-02 0.  1.
        1   -1    0    0  501    0  0.00000000000E+00  0.00000000000E+00 -0.17350457621E+04  0.17350457621E+04  0.50400001928E-02 0. -1.
    10030    2    1    2    0    0  0.00000000000E+00  0.00000000000E+00 -0.97336050050E+03  0.24967310238E+04  0.22991814067E+04 0.  0.
        5    1    3    3  502    0 -0.12948483180E+03  0.40729643913E+03 -0.16455576655E+04  0.17001584724E+04  0.46999998093E+01 0. -1.
       -5    1    3    3    0  502  0.12948483180E+03 -0.40729643913E+03  0.67219716496E+03  0.79657255135E+03  0.46999998093E+01 0.  1.
</event>
<event>
 5   0  0.7932912E-07  0.2300494E+04  0.7818609E-02  0.8477726E-01
       -1   -1    0    0    0  501  0.00000000000E+00  0.00000000000E+00  0.88134591334E+03  0.88134591336E+03  0.50400001928E-02 0.  1.
        1   -1    0    0  501    0  0.00000000000E+00  0.00000000000E+00 -0.15011905269E+04  0.15011905269E+04  0.50400001928E-02 0. -1.
    10030    2    1    2    0    0  0.00000000000E+00  0.00000000000E+00 -0.61984461357E+03  0.23825364403E+04  0.23004939783E+04 0.  0.
        5    1    3    3  502    0  0.70578287823E+03  0.90615626718E+03 -0.37374296799E+03  0.12078719087E+04  0.46999998093E+01 0. -1.
       -5    1    3    3    0  502 -0.70578287823E+03 -0.90615626718E+03 -0.24610164558E+03  0.11746645316E+04  0.46999998093E+01 0.  1.
</event>
<event>
 5   0  0.1888779E-06  0.2299586E+04  0.7818609E-02  0.8478084E-01
        2   -1    0    0  501    0  0.00000000000E+00  0.00000000000E+00  0.99836617792E+03  0.99836617792E+03  0.25500000920E-02 0. -1.
       -2   -1    0    0    0  501  0.00000000000E+00  0.00000000000E+00 -0.13241873965E+04  0.13241873965E+04  0.25500000920E-02 0.  1.
    10030    2    1    2    0    0  0.00000000000E+00  0.00000000000E+00 -0.32582121860E+03  0.23225535744E+04  0.22995859713E+04 0.  0.
        4    1    3    3  502    0  0.11396657172E+04 -0.14302475788E+03 -0.21566512668E+03  0.11686774954E+04  0.12699999809E+01 0.  1.
       -4    1    3    3    0  502 -0.11396657172E+04  0.14302475788E+03 -0.11015609191E+03  0.11538760791E+04  0.12699999809E+01 0. -1.
</event>
<event>
 5   0  0.8108242E-07  0.2300913E+04  0.7818609E-02  0.8477561E-01
       -1   -1    0    0    0  501  0.00000000000E+00  0.00000000000E+00  0.54616052298E+03  0.54616052300E+03  0.50400001928E-02 0.  1.
        1   -1    0    0  501    0  0.00000000000E+00  0.00000000000E+00 -0.24233711315E+04  0.24233711315E+04  0.50400001928E-02 0. -1.
    10030    2    1    2    0    0  0.00000000000E+00  0.00000000000E+00 -0.18772106086E+04  0.29695316546E+04  0.23009125534E+04 0.  0.
        4    1    3    3  502    0 -0.31653414600E+02 -0.91607422735E+03 -0.41340670027E+02  0.91755359112E+03  0.12699999809E+01 0.  1.
       -4    1    3    3    0  502  0.31653414600E+02  0.91607422735E+03 -0.18358699385E+04  0.20519780634E+04  0.12699999809E+01 0. -1.
</event>
<event>
 5   0  0.1828646E-06  0.2300522E+04  0.7818609E-02  0.8477715E-01
        2   -1    0    0  501    0  0.00000000000E+00  0.00000000000E+00  0.23247166521E+04  0.23247166521E+04  0.25500000920E-02 0. -1.
       -2   -1    0    0    0  501  0.00000000000E+00  0.00000000000E+00 -0.56914464726E+03  0.56914464727E+03  0.25500000920E-02 0.  1.
    10030    2    1    2    0    0  0.00000000000E+00  0.00000000000E+00  0.17555720048E+04  0.28938612993E+04  0.23005217138E+04 0.  0.
        3    1    3    3  502    0  0.39347546685E+03  0.10975321657E+03 -0.47482756481E+03  0.62636246540E+03  0.10100000352E+00 0.  1.
       -3    1    3    3    0  502 -0.39347546685E+03 -0.10975321657E+03  0.22303995696E+04  0.22674988339E+04  0.10100000352E+00 0. -1.
</event>
<event>
 5   0  0.1744876E-06  0.2299669E+04  0.7818609E-02  0.8478052E-01
       -2   -1    0    0    0  501  0.00000000000E+00  0.00000000000E+00  0.48248059233E+03  0.48248059234E+03  0.25500000920E-02 0. -1.
        2   -1    0    0  501    0  0.00000000000E+00  0.00000000000E+00 -0.27402532704E+04  0.27402532704E+04  0.25500000920E-02 0.  1.
    10030    2    1    2    0    0  0.00000000000E+00  0.00000000000E+00 -0.22577726781E+04  0.32227338628E+04  0.22996686901E+04 0.  0.
        1    1    3    3  502    0  0.85688466322E+03 -0.41945238161E+03 -0.22945191034E+03  0.98124400925E+03  0.50400001928E-02 0. -1.
       -1    1    3    3    0  502 -0.85688466322E+03  0.41945238161E+03 -0.20283207678E+04  0.22414898535E+04  0.50400001928E-02 0.  1.
</event>
<event>
 5   0  0.8108242E-07  0.2300605E+04  0.7818609E-02  0.8477683E-01
        1   -1    0    0  501    0  0.00000000000E+00  0.00000000000E+00  0.11344541831E+04  0.11344541831E+04  0.50400001928E-02 0.  1.
       -1   -1    0    0    0  501  0.00000000000E+00  0.00000000000E+00 -0.11663724007E+04  0.11663724008E+04  0.50400001928E-02 0. -1.
    10030    2    1    2    0    0  0.00000000000E+00  0.00000000000E+00 -0.31918217686E+02  0.23008265838E+04  0.23006051804E+04 0.  0.
        4    1    3    3  502    0 -0.27561231805E+03  0.95235167073E+03  0.56741390703E+03  0.11423204495E+04  0.12699999809E+01 0. -1.
       -4    1    3    3    0  502  0.27561231805E+03 -0.95235167073E+03 -0.59933212472E+03  0.11585061343E+04  0.12699999809E+01 0.  1.
</event>
<event>
 5   0  0.1744876E-06  0.2301098E+04  0.7818609E-02  0.8477488E-01
        2   -1    0    0  501    0  0.00000000000E+00  0.00000000000E+00  0.27706733837E+04  0.27706733837E+04  0.25500000920E-02 0.  1.
       -2   -1    0    0    0  501  0.00000000000E+00  0.00000000000E+00 -0.47777662953E+03  0.47777662954E+03  0.25500000920E-02 0. -1.
    10030    2    1    2    0    0  0.00000000000E+00  0.00000000000E+00  0.22928967541E+04  0.32484500132E+04  0.23010979908E+04 0.  0.
        1    1    3    3  502    0 -0.25940457966E+02  0.27975863414E+03  0.27215016920E+04  0.27359658734E+04  0.50400001928E-02 0.  1.
       -1    1    3    3    0  502  0.25940457966E+02 -0.27975863414E+03 -0.42860493789E+03  0.51248413980E+03  0.50400001928E-02 0. -1.
</event>
<event>
 5   0  0.1744876E-06  0.2291208E+04  0.7818609E-02  0.8481396E-01
        2   -1    0    0  501    0  0.00000000000E+00  0.00000000000E+00  0.11093299159E+04  0.11093299159E+04  0.25500000920E-02 0. -1.
       -2   -1    0    0    0  501  0.00000000000E+00  0.00000000000E+00 -0.11830641655E+04  0.11830641655E+04  0.25500000920E-02 0.  1.
    10030    2    1    2    0    0  0.00000000000E+00  0.00000000000E+00 -0.73734249588E+02  0.22923940813E+04  0.22912079532E+04 0.  0.
        1    1    3    3  502    0 -0.73431970796E+03 -0.40832115075E+03  0.74228943681E+03  0.11211356758E+04  0.50400001928E-02 0. -1.
       -1    1    3    3    0  502  0.73431970796E+03  0.40832115075E+03 -0.81602368639E+03  0.11712584055E+04  0.50400001928E-02 0.  1.
</event>
<event>
 5   0  0.7607231E-07  0.2299226E+04  0.7818609E-02  0.8478226E-01
        1   -1    0    0  501    0  0.00000000000E+00  0.00000000000E+00  0.14195630126E+04  0.14195630126E+04  0.50400001928E-02 0.  1.
       -1   -1    0    0    0  501  0.00000000000E+00  0.00000000000E+00 -0.93099781731E+03  0.93099781732E+03  0.50400001928E-02 0. -1.
    10030    2    1    2    0    0  0.00000000000E+00  0.00000000000E+00  0.48856519529E+03  0.23505608299E+04  0.22992260144E+04 0.  0.
        2    1    3    3  502    0 -0.10355633599E+04  0.22105889767E+03  0.70188278309E+03  0.12703928329E+04  0.25500000920E-02 0.  1.
       -2    1    3    3    0  502  0.10355633599E+04 -0.22105889767E+03 -0.21331758780E+03  0.10801679971E+04  0.25500000920E-02 0. -1.
</event>
<event>
 5   0  0.1744876E-06  0.2300276E+04  0.7818609E-02  0.8477812E-01
        2   -1    0    0  501    0  0.00000000000E+00  0.00000000000E+00  0.82829660926E+03  0.82829660926E+03  0.25500000920E-02 0. -1.
       -2   -1    0    0    0  501  0.00000000000E+00  0.00000000000E+00 -0.15970338513E+04  0.15970338513E+04  0.25500000920E-02 0.  1.
    10030    2    1    2    0    0  0.00000000000E+00  0.00000000000E+00 -0.76873724204E+03  0.24253304606E+04  0.23002762651E+04 0.  0.
        1    1    3    3  502    0  0.95949163873E+03 -0.24959077733E+03 -0.99907143877E+03  0.14075025757E+04  0.50400001928E-02 0.  1.
       -1    1    3    3    0  502 -0.95949163873E+03  0.24959077733E+03  0.23033419673E+03  0.10178278848E+04  0.50400001928E-02 0. -1.
</event>
<event>
 5   0  0.8108242E-07  0.2299918E+04  0.7818609E-02  0.8477953E-01
       -1   -1    0    0    0  501  0.00000000000E+00  0.00000000000E+00  0.46595270337E+03  0.46595270340E+03  0.50400001928E-02 0.  1.
        1   -1    0    0  501    0  0.00000000000E+00  0.00000000000E+00 -0.28380695862E+04  0.28380695862E+04  0.50400001928E-02 0. -1.
    10030    2    1    2    0    0  0.00000000000E+00  0.00000000000E+00 -0.23721168829E+04  0.33040222896E+04  0.22999184300E+04 0.  0.
        4    1    3    3  502    0  0.25661751033E+03 -0.94220204169E+03 -0.31362898918E+03  0.10256519828E+04  0.12699999809E+01 0.  1.
       -4    1    3    3    0  502 -0.25661751033E+03  0.94220204169E+03 -0.20584878937E+04  0.22783703069E+04  0.12699999809E+01 0. -1.
</event>
<event>
 5   0  0.7607231E-07  0.2299803E+04  0.7818609E-02  0.8477999E-01
        1   -1    0    0  501    0  0.00000000000E+00  0.00000000000E+00  0.11707051768E+04  0.11707051768E+04  0.50400001928E-02 0. -1.
       -1   -1    0    0    0  501  0.00000000000E+00  0.00000000000E+00 -0.11294671645E+04  0.11294671645E+04  0.50400001928E-02 0.  1.
    10030    2    1    2    0    0  0.00000000000E+00  0.00000000000E+00  0.41238012332E+02  0.23001723413E+04  0.22998026493E+04 0.  0.
        2    1    3    3  502    0  0.19597291842E+03  0.11239781434E+04 -0.12272466944E+03  0.11475162727E+04  0.25500000920E-02 0.  1.
       -2    1    3    3    0  502 -0.19597291842E+03 -0.11239781434E+04  0.16396268177E+03  0.11526560686E+04  0.25500000920E-02 0. -1.
</event>
<event>
 5   0  0.8108242E-07  0.2300705E+04  0.7818609E-02  0.8477643E-01
        1   -1    0    0  501    0  0.00000000000E+00  0.00000000000E+00  0.16056988741E+04  0.16056988741E+04  0.50400001928E-02 0. -1.
       -1   -1    0    0    0  501  0.00000000000E+00  0.00000000000E+00 -0.82413385863E+03  0.82413385864E+03  0.50400001928E-02 0.  1.
    10030    2    1    2    0    0  0.00000000000E+00  0.00000000000E+00  0.78156501545E+03  0.24298327327E+04  0.23007049432E+04 0.  0.
        4    1    3    3  502    0  0.74770440541E+02  0.10544780094E+04  0.86988954575E+03  0.13690229822E+04  0.12699999809E+01 0. -1.
       -4    1    3    3    0  502 -0.74770440541E+02 -0.10544780094E+04 -0.88324530301E+02  0.10608097505E+04  0.12699999809E+01 0.  1.
</event>
<event>
 5   0  0.1744876E-06  0.2299090E+04  0.7818609E-02  0.8478280E-01
       -2   -1    0    0    0  501  0.00000000000E+00  0.00000000000E+00  0.58636034329E+03  0.58636034330E+03  0.25500000920E-02 0.  1.
        2   -1    0    0  501    0  0.00000000000E+00  0.00000000000E+00 -0.22536540158E+04  0.22536540158E+04  0.25500000920E-02 0. -1.
    10030    2    1    2    0    0  0.00000000000E+00  0.00000000000E+00 -0.16672936725E+04  0.28400143591E+04  0.22990896828E+04 0.  0.
        1    1    3    3  502    0 -0.10108808664E+04 -0.50595046944E+03 -0.10915429513E+04  0.15714108369E+04  0.50400001928E-02 0.  1.
       -1    1    3    3    0  502  0.10108808664E+04  0.50595046944E+03 -0.57575072121E+03  0.12686035222E+04  0.50400001928E-02 0. -1.
</event>
<event>
 5   0  0.7761069E-07  0.2299687E+04  0.7818609E-02  0.8478044E-01
       -1   -1    0    0    0  501  0.00000000000E+00  0.00000000000E+00  0.84805839074E+03  0.84805839075E+03  0.50400001928E-02 0. -1.
        1   -1    0    0  501    0  0.00000000000E+00  0.00000000000E+00 -0.15590205853E+04  0.15590205853E+04  0.50400001928E-02 0.  1.
    10030    2    1    2    0    0  0.00000000000E+00  0.00000000000E+00 -0.71096219454E+03  0.24070789760E+04  0.22996873602E+04 0.  0.
        1    1    3    3  502    0  0.81525642801E+03  0.68362177395E+03  0.10095465913E+03  0.10687252296E+04  0.50400001928E-02 0.  1.
       -1    1    3    3    0  502 -0.81525642801E+03 -0.68362177395E+03 -0.81191685368E+03  0.13383537464E+04  0.50400001928E-02 0. -1.
</event>
<event>
 5   0  0.7607231E-07  0.2299880E+04  0.7818609E-02  0.8477969E-01
       -1   -1    0    0    0  501  0.00000000000E+00  0.00000000000E+00  0.12726340083E+04  0.12726340083E+04  0.50400001928E-02 0.  1.
        1   -1    0    0  501    0  0.00000000000E+00  0.00000000000E+00 -0.10390745781E+04  0.10390745781E+04  0.50400001928E-02 0. -1.
    10030    2    1    2    0    0  0.00000000000E+00  0.00000000000E+00  0.23355943015E+03  0.23117085864E+04  0.22998796884E+04 0.  0.
        2    1    3    3  502    0  0.97285782854E+03  0.11087371979E+02 -0.49938734160E+03  0.10936009333E+04  0.25500000920E-02 0. -1.
       -2    1    3    3    0  502 -0.97285782854E+03 -0.11087371979E+02  0.73294677175E+03  0.12181076531E+04  0.25500000920E-02 0.  1.
</event>
<event>
 5   0  0.1689444E-06  0.2299680E+04  0.7818609E-02  0.8478047E-01
        2   -1    0    0  501    0  0.00000000000E+00  0.00000000000E+00  0.12253945646E+04  0.12253945646E+04  0.25500000920E-02 0. -1.
       -2   -1    0    0    0  501  0.00000000000E+00  0.00000000000E+00 -0.10789439313E+04  0.10789439313E+04  0.25500000920E-02 0.  1.
    10030    2    1    2    0    0  0.00000000000E+00  0.00000000000E+00  0.14645063331E+03  0.23043384958E+04  0.22996800028E+04 0.  0.
        2    1    3    3  502    0  0.16529439165E+03 -0.31303785426E+03  0.11694327893E+04  0.12218379528E+04  0.25500000920E-02 0. -1.
       -2    1    3    3    0  502 -0.16529439165E+03  0.31303785426E+03 -0.10229821560E+04  0.10825005430E+04  0.25500000920E-02 0.  1.
</event>
<event>
 5   0  0.1689444E-06  0.2300609E+04  0.7818609E-02  0.8477681E-01
        2   -1    0    0  501    0  0.00000000000E+00  0.00000000000E+00  0.20019936805E+04  0.20019936805E+04  0.25500000920E-02 0. -1.
       -2   -1    0    0    0  501  0.00000000000E+00  0.00000000000E+00 -0.66094145135E+03  0.66094145135E+03  0.25500000920E-02 0.  1.
    10030    2    1    2    0    0  0.00000000000E+00  0.00000000000E+00  0.13410522291E+04  0.26629351318E+04  0.23006091444E+04 0.  0.
        2    1    3    3  502    0  0.42391568468E+03 -0.94257383798E+03  0.12550886424E+04  0.16258528371E+04  0.25500000920E-02 0. -1.
       -2    1    3    3    0  502 -0.42391568468E+03  0.94257383798E+03  0.85963586768E+02  0.10370822947E+04  0.25500000920E-02 0.  1.
</event>
<event>
 5   0  0.1825521E-06  0.2299768E+04  0.7818609E-02  0.8478012E-01
       -2   -1    0    0    0  501  0.00000000000E+00  0.00000000000E+00  0.11257382713E+04  0.11257382713E+04  0.25500000920E-02 0.  1.
        2   -1    0    0  501    0  0.00000000000E+00  0.00000000000E+00 -0.11745480021E+04  0.11745480021E+04  0.25500000920E-02 0. -1.
    10030    2    1    2    0    0  0.00000000000E+00  0.00000000000E+00 -0.48809730840E+02  0.23002862734E+04  0.22997683687E+04 0.  0.
        5    1    3    3  502    0 -0.13703886153E+03 -0.83982028722E+02 -0.11632476412E+04  0.11743082200E+04  0.46999998093E+01 0. -1.
       -5    1    3    3    0  502  0.13703886153E+03  0.83982028722E+02  0.11144379104E+04  0.11259780534E+04  0.46999998093E+01 0.  1.
</event>
<event>
 5   0  0.1744876E-06  0.2298822E+04  0.7818609E-02  0.8478386E-01
       -2   -1    0    0    0  501  0.00000000000E+00  0.00000000000E+00  0.78970115940E+03  0.78970115941E+03  0.25500000920E-02 0.  1.
        2   -1    0    0  501    0  0.00000000000E+00  0.00000000000E+00 -0.16729688731E+04  0.16729688731E+04  0.25500000920E-02 0. -1.
    10030    2    1    2    0    0  0.00000000000E+00  0.00000000000E+00 -0.88326771369E+03  0.24626700325E+04  0.22988218363E+04 0.  0.
        1    1    3    3  502    0  0.52751926268E+03 -0.10024671427E+04 -0.65026725196E+03  0.13061640187E+04  0.50400001928E-02 0.  1.
       -1    1    3    3    0  502 -0.52751926268E+03  0.10024671427E+04 -0.23300046173E+03  0.11565060138E+04  0.50400001928E-02 0. -1.
</event>
<event>
 5   0  0.8097672E-07  0.2300908E+04  0.7818609E-02  0.8477563E-01
       -1   -1    0    0    0  501  0.00000000000E+00  0.00000000000E+00  0.16520256595E+04  0.16520256595E+04  0.50400001928E-02 0. -1.
        1   -1    0    0  501    0  0.00000000000E+00  0.00000000000E+00 -0.80116451420E+03  0.80116451421E+03  0.50400001928E-02 0.  1.
    10030    2    1    2    0    0  0.00000000000E+00  0.00000000000E+00  0.85086114534E+03  0.24531901738E+04  0.23009079382E+04 0.  0.
        3    1    3    3  502    0 -0.23169147835E+03  0.95274298493E+03 -0.21618180574E+03  0.10040591217E+04  0.10100000352E+00 0.  1.
       -3    1    3    3    0  502  0.23169147835E+03 -0.95274298493E+03  0.10670429511E+04  0.14491310521E+04  0.10100000352E+00 0. -1.
</event>
<event>
 5   0  0.1888779E-06  0.2297888E+04  0.7818609E-02  0.8478754E-01
        2   -1    0    0  501    0  0.00000000000E+00  0.00000000000E+00  0.12216546928E+04  0.12216546928E+04  0.25500000920E-02 0. -1.
       -2   -1    0    0    0  501  0.00000000000E+00  0.00000000000E+00 -0.10805605434E+04  0.10805605434E+04  0.25500000920E-02 0.  1.
    10030    2    1    2    0    0  0.00000000000E+00  0.00000000000E+00  0.14109414939E+03  0.23022152362E+04  0.22978876027E+04 0.  0.
        4    1    3    3  502    0 -0.57467143247E+03  0.99485522312E+03  0.79842235050E+02  0.11516772836E+04  0.12699999809E+01 0.  1.
       -4    1    3    3    0  502  0.57467143247E+03 -0.99485522312E+03  0.61251914341E+02  0.11505379525E+04  0.12699999809E+01 0. -1.
</event>
<event>
 5   0  0.1825521E-06  0.2300229E+04  0.7818609E-02  0.8477831E-01
       -2   -1    0    0    0  501  0.00000000000E+00  0.00000000000E+00  0.61483692263E+03  0.61483692263E+03  0.25500000920E-02 0. -1.
        2   -1    0    0  501    0  0.00000000000E+00  0.00000000000E+00 -0.21514044746E+04  0.21514044746E+04  0.25500000920E-02 0.  1.
    10030    2    1    2    0    0  0.00000000000E+00  0.00000000000E+00 -0.15365675520E+04  0.27662413972E+04  0.23002286030E+04 0.  0.
        5    1    3    3  502    0 -0.66371843854E+03  0.59010255186E+03  0.11051357920E+03  0.89497403792E+03  0.46999998093E+01 0. -1.
       -5    1    3    3    0  502  0.66371843854E+03 -0.59010255186E+03 -0.16470811312E+04  0.18712673593E+04  0.46999998093E+01 0.  1.
</event>
<event>
 5   0  0.1744876E-06  0.2299669E+04  0.7818609E-02  0.8478052E-01
       -2   -1    0    0    0  501  0.00000000000E+00  0.00000000000E+00  0.72231310228E+03  0.72231310228E+03  0.25500000920E-02 0. -1.
        2   -1    0    0  501    0  0.00000000000E+00  0.00000000000E+00 -0.18303964151E+04  0.18303964151E+04  0.25500000920E-02 0.  1.
    10030    2    1    2    0    0  0.00000000000E+00  0.00000000000E+00 -0.11080833128E+04  0.25527095174E+04  0.22996689440E+04 0.  0.
        1    1    3    3  502    0 -0.64029915564E+03  0.72062611890E+03  0.14168841990E+03  0.97435138442E+03  0.50400001928E-02 0. -1.
       -1    1    3    3    0  502  0.64029915564E+03 -0.72062611890E+03 -0.12497717327E+04  0.15783581330E+04  0.50400001928E-02 0.  1.
</event>
<event>
 5   0  0.7761069E-07  0.2299501E+04  0.7818609E-02  0.8478118E-01
        1   -1    0    0  501    0  0.00000000000E+00  0.00000000000E+00  0.21201818097E+04  0.21201818097E+04  0.50400001928E-02 0. -1.
       -1   -1    0    0    0  501  0.00000000000E+00  0.00000000000E+00 -0.62349680707E+03  0.62349680709E+03  0.50400001928E-02 0.  1.
    10030    2    1    2    0    0  0.00000000000E+00  0.00000000000E+00  0.14966850026E+04  0.27436786168E+04  0.22995013275E+04 0.  0.
        1    1    3    3  502    0 -0.10343878833E+04  0.31435107434E+02  0.13460920316E+04  0.16979134892E+04  0.50400001928E-02 0.  1.
       -1    1    3    3    0  502  0.10343878833E+04 -0.31435107434E+02  0.15059297100E+03  0.10457651276E+04  0.50400001928E-02 0. -1.
</event>
<event>
 5   0  0.6319125E-07  0.2300860E+04  0.7818609E-02  0.8477582E-01
        4   -1    0    0  501    0  0.00000000000E+00  0.00000000000E+00  0.11851157868E+04  0.11851164673E+04  0.12699999809E+01 0.  1.
       -4   -1    0    0    0  501  0.00000000000E+00  0.00000000000E+00 -0.11167583041E+04  0.11167590263E+04  0.12699999809E+01 0. -1.
    10030    2    1    2    0    0  0.00000000000E+00  0.00000000000E+00  0.68357482630E+02  0.23018754935E+04  0.23008602831E+04 0.  0.
        3    1    3    3  502    0 -0.21350279500E+03 -0.89300565385E+03  0.72762739018E+03  0.11715306955E+04  0.10100000352E+00 0.  1.
       -3    1    3    3    0  502  0.21350279500E+03  0.89300565385E+03 -0.65926990755E+03  0.11303447981E+04  0.10100000352E+00 0. -1.
</event>
<event>
 5   0  0.7607231E-07  0.2300903E+04  0.7818609E-02  0.8477565E-01
        1   -1    0    0  501    0  0.00000000000E+00  0.00000000000E+00  0.15830415301E+04  0.15830415301E+04  0.50400001928E-02 0. -1.
       -1   -1    0    0    0  501  0.00000000000E+00  0.00000000000E+00 -0.83607351737E+03  0.83607351739E+03  0.50400001928E-02 0.  1.
    10030    2    1    2    0    0  0.00000000000E+00  0.00000000000E+00  0.74696801277E+03  0.24191150475E+04  0.23009033880E+04 0.  0.
        2    1    3    3  502    0  0.58617161273E+02 -0.85807101793E+03 -0.42985083535E+03  0.96150589393E+03  0.25500000920E-02 0.  1.
       -2    1    3    3    0  502 -0.58617161273E+02  0.85807101793E+03  0.11768188481E+04  0.14576091536E+04  0.25500000920E-02 0. -1.
</event>
<event>
 5   0  0.1689444E-06  0.2293486E+04  0.7818609E-02  0.8480494E-01
       -2   -1    0    0    0  501  0.00000000000E+00  0.00000000000E+00  0.11882226943E+04  0.11882226943E+04  0.25500000920E-02 0.  1.
        2   -1    0    0  501    0  0.00000000000E+00  0.00000000000E+00 -0.11067113229E+04  0.11067113229E+04  0.25500000920E-02 0. -1.
    10030    2    1    2    0    0  0.00000000000E+00  0.00000000000E+00  0.81511371464E+02  0.22949340172E+04  0.22934860016E+04 0.  0.
        2    1    3    3  502    0 -0.29662281600E+03 -0.83634775608E+03  0.76754534774E+03  0.11732810937E+04  0.25500000920E-02 0.  1.
       -2    1    3    3    0  502  0.29662281600E+03  0.83634775608E+03 -0.68603397628E+03  0.11216529234E+04  0.25500000920E-02 0. -1.
</event>
<event>
 5   0  0.1888779E-06  0.2299390E+04  0.7818609E-02  0.8478161E-01
        2   -1    0    0  501    0  0.00000000000E+00  0.00000000000E+00  0.17513141609E+04  0.17513141609E+04  0.25500000920E-02 0. -1.
       -2   -1    0    0    0  501  0.00000000000E+00  0.00000000000E+00 -0.75474699597E+03  0.75474699597E+03  0.25500000920E-02 0.  1.
    10030    2    1    2    0    0  0.00000000000E+00  0.00000000000E+00  0.99656716489E+03  0.25060611568E+04  0.22993904426E+04 0.  0.
        4    1    3    3  502    0  0.54086141997E+03  0.10144225343E+04  0.51420238249E+03  0.12593608922E+04  0.12699999809E+01 0.  1.
       -4    1    3    3    0  502 -0.54086141997E+03 -0.10144225343E+04  0.48236478239E+03  0.12467002646E+04  0.12699999809E+01 0. -1.
</event>
<event>
 5   0  0.1825521E-06  0.2299902E+04  0.7818609E-02  0.8477960E-01
       -2   -1    0    0    0  501  0.00000000000E+00  0.00000000000E+00  0.16064117154E+04  0.16064117154E+04  0.25500000920E-02 0.  1.
        2   -1    0    0  501    0  0.00000000000E+00  0.00000000000E+00 -0.82319314251E+03  0.82319314252E+03  0.25500000920E-02 0. -1.
    10030    2    1    2    0    0  0.00000000000E+00  0.00000000000E+00  0.78321857289E+03  0.24296048579E+04  0.22999018311E+04 0.  0.
        5    1    3    3  502    0 -0.90166247674E+03  0.70221442020E+03  0.25688390121E+03  0.11713717354E+04  0.46999998093E+01 0. -1.
       -5    1    3    3    0  502  0.90166247674E+03 -0.70221442020E+03  0.52633467168E+03  0.12582331225E+04  0.46999998093E+01 0.  1.
</event>
<event>
 5   0  0.8108242E-07  0.2302005E+04  0.7818609E-02  0.8477131E-01
        1   -1    0    0  501    0  0.00000000000E+00  0.00000000000E+00  0.60304912666E+03  0.60304912668E+03  0.50400001928E-02 0.  1.
       -1   -1    0    0    0  501  0.00000000000E+00  0.00000000000E+00 -0.21968466386E+04  0.21968466386E+04  0.50400001928E-02 0. -1.
    10030    2    1    2    0    0  0.00000000000E+00  0.00000000000E+00 -0.15937975119E+04  0.27998957652E+04  0.23020047323E+04 0.  0.
        4    1    3    3  502    0  0.11131554757E+04  0.23005052805E+02 -0.44195893712E+03  0.11979038611E+04  0.12699999809E+01 0. -1.
       -4    1    3    3    0  502 -0.11131554757E+04 -0.23005052805E+02 -0.11518385748E+04  0.16019919041E+04  0.12699999809E+01 0.  1.
</event>
<event>
 5   0  0.8108242E-07  0.2303666E+04  0.7818609E-02  0.8476477E-01
        1   -1    0    0  501    0  0.00000000000E+00  0.00000000000E+00  0.21556101896E+04  0.21556101897E+04  0.50400001928E-02 0. -1.
       -1   -1    0    0    0  501  0.00000000000E+00  0.00000000000E+00 -0.61547248758E+03  0.61547248760E+03  0.50400001928E-02 0.  1.
    10030    2    1    2    0    0  0.00000000000E+00  0.00000000000E+00  0.15401377021E+04  0.27710826773E+04  0.23036655710E+04 0.  0.
        4    1    3    3  502    0  0.15303720168E+03  0.83930543093E+03 -0.16081147369E+03  0.86816814872E+03  0.12699999809E+01 0.  1.
       -4    1    3    3    0  502 -0.15303720168E+03 -0.83930543093E+03  0.17009491758E+04  0.19029145285E+04  0.12699999809E+01 0. -1.
</event>
<event>
 5   0  0.1689444E-06  0.2299199E+04  0.7818609E-02  0.8478237E-01
        2   -1    0    0  501    0  0.00000000000E+00  0.00000000000E+00  0.18385565042E+04  0.18385565042E+04  0.25500000920E-02 0. -1.
       -2   -1    0    0    0  501  0.00000000000E+00  0.00000000000E+00 -0.71881348012E+03  0.71881348013E+03  0.25500000920E-02 0.  1.
    10030    2    1    2    0    0  0.00000000000E+00  0.00000000000E+00  0.11197430241E+04  0.25573699844E+04  0.22991991643E+04 0.  0.
        2    1    3    3  502    0 -0.89003750774E+03 -0.19508535182E+03  0.13395477173E+04  0.16200657846E+04  0.25500000920E-02 0. -1.
       -2    1    3    3    0  502  0.89003750774E+03  0.19508535182E+03 -0.21980469317E+03  0.93730419973E+03  0.25500000920E-02 0.  1.
</event>
<event>
 5   0  0.1744876E-06  0.2300612E+04  0.7818609E-02  0.8477680E-01
        2   -1    0    0  501    0  0.00000000000E+00  0.00000000000E+00  0.17340603137E+04  0.17340603137E+04  0.25500000920E-02 0.  1.
       -2   -1    0    0    0  501  0.00000000000E+00  0.00000000000E+00 -0.76306657254E+03  0.76306657255E+03  0.25500000920E-02 0. -1.
    10030    2    1    2    0    0  0.00000000000E+00  0.00000000000E+00  0.97099374116E+03  0.24971268863E+04  0.23006116232E+04 0.  0.
        1    1    3    3  502    0 -0.66345823757E+03  0.31717508630E+03 -0.47460894895E+03  0.87523169665E+03  0.50400001928E-02 0. -1.
       -1    1    3    3    0  502  0.66345823757E+03 -0.31717508630E+03  0.14456026901E+04  0.16218951896E+04  0.50400001928E-02 0.  1.
</event>
<event>
 5   0  0.1744876E-06  0.2300007E+04  0.7818609E-02  0.8477918E-01
       -2   -1    0    0    0  501  0.00000000000E+00  0.00000000000E+00  0.10173874746E+04  0.10173874746E+04  0.25500000920E-02 0.  1.
        2   -1    0    0  501    0  0.00000000000E+00  0.00000000000E+00 -0.12999055962E+04  0.12999055962E+04  0.25500000920E-02 0. -1.
    10030    2    1    2    0    0  0.00000000000E+00  0.00000000000E+00 -0.28251812156E+03  0.23172930708E+04  0.23000066711E+04 0.  0.
        1    1    3    3  502    0  0.52096121488E+03  0.43575568052E+03 -0.10762554792E+04  0.12726387771E+04  0.50400001928E-02 0. -1.
       -1    1    3    3    0  502 -0.52096121488E+03 -0.43575568052E+03  0.79373735761E+03  0.10446542937E+04  0.50400001928E-02 0.  1.
</event>
<event>
 5   0  0.7607231E-07  0.2299870E+04  0.7818609E-02  0.8477973E-01
       -1   -1    0    0    0  501  0.00000000000E+00  0.00000000000E+00  0.73235979828E+03  0.73235979830E+03  0.50400001928E-02 0. -1.
        1   -1    0    0  501    0  0.00000000000E+00  0.00000000000E+00 -0.18056017328E+04  0.18056017328E+04  0.50400001928E-02 0.  1.
    10030    2    1    2    0    0  0.00000000000E+00  0.00000000000E+00 -0.10732419345E+04  0.25379615311E+04  0.22998696666E+04 0.  0.
        2    1    3    3  502    0 -0.81508573865E+03  0.77848470955E+03 -0.28510723812E+03  0.11626217535E+04  0.25500000920E-02 0.  1.
       -2    1    3    3    0  502  0.81508573865E+03 -0.77848470955E+03 -0.78813469640E+03  0.13753397777E+04  0.25500000920E-02 0. -1.
</event>
<event>
 5   0  0.1825521E-06  0.2299708E+04  0.7818609E-02  0.8478036E-01
       -2   -1    0    0    0  501  0.00000000000E+00  0.00000000000E+00  0.12116947630E+04  0.12116947630E+04  0.25500000920E-02 0. -1.
        2   -1    0    0  501    0  0.00000000000E+00  0.00000000000E+00 -0.10911692222E+04  0.10911692222E+04  0.25500000920E-02 0.  1.
    10030    2    1    2    0    0  0.00000000000E+00  0.00000000000E+00  0.12052554085E+03  0.23028639852E+04  0.22997078354E+04 0.  0.
        5    1    3    3  502    0 -0.11336095791E+04 -0.26624022934E+02 -0.13068827758E+03  0.11414381421E+04  0.46999998093E+01 0. -1.
       -5    1    3    3    0  502  0.11336095791E+04  0.26624022934E+02  0.25121381844E+03  0.11614258431E+04  0.46999998093E+01 0.  1.
</event>
<event>
 5   0  0.8108242E-07  0.2302079E+04  0.7818609E-02  0.8477102E-01
       -1   -1    0    0    0  501  0.00000000000E+00  0.00000000000E+00  0.98947067460E+03  0.98947067461E+03  0.50400001928E-02 0.  1.
        1   -1    0    0  501    0  0.00000000000E+00  0.00000000000E+00 -0.13389909613E+04  0.13389909613E+04  0.50400001928E-02 0. -1.
    10030    2    1    2    0    0  0.00000000000E+00  0.00000000000E+00 -0.34952028667E+03  0.23284616359E+04  0.23020793121E+04 0.  0.
        4    1    3    3  502    0  0.11208772190E+04  0.22658329946E+03 -0.30735384047E+03  0.11841341680E+04  0.12699999809E+01 0.  1.
       -4    1    3    3    0  502 -0.11208772190E+04 -0.22658329946E+03 -0.42166446202E+02  0.11443274679E+04  0.12699999809E+01 0. -1.
</event>
<event>
 5   0  0.7761069E-07  0.2300006E+04  0.7818609E-02  0.8477919E-01
       -1   -1    0    0    0  501  0.00000000000E+00  0.00000000000E+00  0.79171373984E+03  0.79171373986E+03  0.50400001928E-02 0.  1.
        1   -1    0    0  501    0  0.00000000000E+00  0.00000000000E+00 -0.16704358063E+04  0.16704358063E+04  0.50400001928E-02 0. -1.
    10030    2    1    2    0    0  0.00000000000E+00  0.00000000000E+00 -0.87872206646E+03  0.24621495462E+04  0.23000060690E+04 0.  0.
        1    1    3    3  502    0 -0.69991422793E+03  0.66777012879E+03  0.22633843129E+03  0.99349180010E+03  0.50400001928E-02 0.  1.
       -1    1    3    3    0  502  0.69991422793E+03 -0.66777012879E+03 -0.11050604978E+04  0.14686577461E+04  0.50400001928E-02 0. -1.
</event>
<event>
 5   0  0.7761069E-07  0.2299503E+04  0.7818609E-02  0.8478117E-01
       -1   -1    0    0    0  501  0.00000000000E+00  0.00000000000E+00  0.12609776516E+04  0.12609776516E+04  0.50400001928E-02 0. -1.
        1   -1    0    0  501    0  0.00000000000E+00  0.00000000000E+00 -0.10483365798E+04  0.10483365798E+04  0.50400001928E-02 0.  1.
    10030    2    1    2    0    0  0.00000000000E+00  0.00000000000E+00  0.21264107174E+03  0.23093142314E+04  0.22995034234E+04 0.  0.
        1    1    3    3  502    0  0.51025733036E+03  0.39368130242E+03 -0.84988751227E+03  0.10666097199E+04  0.50400001928E-02 0.  1.
       -1    1    3    3    0  502 -0.51025733036E+03 -0.39368130242E+03  0.10625285840E+04  0.12427045115E+04  0.50400001928E-02 0. -1.
</event>
<event>
 5   0  0.7607231E-07  0.2301531E+04  0.7818609E-02  0.8477318E-01
        1   -1    0    0  501    0  0.00000000000E+00  0.00000000000E+00  0.77500351952E+03  0.77500351954E+03  0.50400001928E-02 0.  1.
       -1   -1    0    0    0  501  0.00000000000E+00  0.00000000000E+00 -0.17087161112E+04  0.17087161113E+04  0.50400001928E-02 0. -1.
    10030    2    1    2    0    0  0.00000000000E+00  0.00000000000E+00 -0.93371259173E+03  0.24837196308E+04  0.23015307950E+04 0.  0.
        2    1    3    3  502    0 -0.38515973407E+03  0.10810826627E+04 -0.37545677053E+03  0.12074997022E+04  0.25500000920E-02 0.  1.
       -2    1    3    3    0  502  0.38515973407E+03 -0.10810826627E+04 -0.55825582120E+03  0.12762199286E+04  0.25500000920E-02 0. -1.
</event>
<event>
 5   0  0.7761069E-07  0.2299972E+04  0.7818609E-02  0.8477932E-01
       -1   -1    0    0    0  501  0.00000000000E+00  0.00000000000E+00  0.10961706890E+04  0.10961706891E+04  0.50400001928E-02 0. -1.
        1   -1    0    0  501    0  0.00000000000E+00  0.00000000000E+00 -0.12064435531E+04  0.12064435531E+04  0.50400001928E-02 0.  1.
    10030    2    1    2    0    0  0.00000000000E+00  0.00000000000E+00 -0.11027286406E+03  0.23026142422E+04  0.22999722267E+04 0.  0.
        1    1    3    3  502    0 -0.69434006829E+03  0.57408233623E+03  0.66037987097E+03  0.11170408378E+04  0.50400001928E-02 0. -1.
       -1    1    3    3    0  502  0.69434006829E+03 -0.57408233623E+03 -0.77065273504E+03  0.11855734044E+04  0.50400001928E-02 0.  1.
</event>
<event>
 5   0  0.1744876E-06  0.2296820E+04  0.7818609E-02  0.8479176E-01
       -2   -1    0    0    0  501  0.00000000000E+00  0.00000000000E+00  0.79975213349E+03  0.79975213350E+03  0.25500000920E-02 0. -1.
        2   -1    0    0  501    0  0.00000000000E+00  0.00000000000E+00 -0.16490684860E+04  0.16490684860E+04  0.25500000920E-02 0.  1.
    10030    2    1    2    0    0  0.00000000000E+00  0.00000000000E+00 -0.84931635251E+03  0.24488206195E+04  0.22968204457E+04 0.  0.
        1    1    3    3  502    0  0.81909267505E+03  0.73866184007E+03 -0.76568853045E+03  0.13426887391E+04  0.50400001928E-02 0.  1.
       -1    1    3    3    0  502 -0.81909267505E+03 -0.73866184007E+03 -0.83627822058E+02  0.11061318804E+04  0.50400001928E-02 0. -1.
</event>
<event>
 5   0  0.8097672E-07  0.2301345E+04  0.7818609E-02  0.8477391E-01
        1   -1    0    0  501    0  0.00000000000E+00  0.00000000000E+00  0.19108708816E+04  0.19108708816E+04  0.50400001928E-02 0. -1.
       -1   -1    0    0    0  501  0.00000000000E+00  0.00000000000E+00 -0.69290267003E+03  0.69290267005E+03  0.50400001928E-02 0.  1.
    10030    2    1    2    0    0  0.00000000000E+00  0.00000000000E+00  0.12179682116E+04  0.26037735517E+04  0.23013452900E+04 0.  0.
        3    1    3    3  502    0 -0.86298370180E+03  0.49943688715E+02  0.14682719681E+04  0.17038362081E+04  0.10100000352E+00 0. -1.
       -3    1    3    3    0  502  0.86298370180E+03 -0.49943688715E+02 -0.25030375649E+03  0.89993734356E+03  0.10100000352E+00 0.  1.
</event>
<event>
 5   0  0.1888779E-06  0.2300741E+04  0.7818609E-02  0.8477629E-01
        2   -1    0    0  501    0  0.00000000000E+00  0.00000000000E+00  0.11558778905E+04  0.11558778906E+04  0.25500000920E-02 0.  1.
       -2   -1    0    0    0  501  0.00000000000E+00  0.00000000000E+00 -0.11448889246E+04  0.11448889246E+04  0.25500000920E-02 0. -1.
    10030    2    1    2    0    0  0.00000000000E+00  0.00000000000E+00  0.10988965954E+02  0.23007668151E+04  0.23007405721E+04 0.  0.
        4    1    3    3  502    0  0.87152133646E+03 -0.26093077112E+03  0.70957344419E+03  0.11537462428E+04  0.12699999809E+01 0.  1.
       -4    1    3    3    0  502 -0.87152133646E+03  0.26093077112E+03 -0.69858447824E+03  0.11470205723E+04  0.12699999809E+01 0. -1.
</event>
<event>
 5   0  0.1828646E-06  0.2299611E+04  0.7818609E-02  0.8478075E-01
       -2   -1    0    0    0  501  0.00000000000E+00  0.00000000000E+00  0.14033828225E+04  0.14033828225E+04  0.25500000920E-02 0. -1.
        2   -1    0    0  501    0  0.00000000000E+00  0.00000000000E+00 -0.94204680648E+03  0.94204680648E+03  0.25500000920E-02 0.  1.
    10030    2    1    2    0    0  0.00000000000E+00  0.00000000000E+00  0.46133601601E+03  0.23454296290E+04  0.22996106681E+04 0.  0.
        3    1    3    3  502    0  0.32513386573E+03  0.10277133708E+04 -0.17748730346E+03  0.10924324035E+04  0.10100000352E+00 0.  1.
       -3    1    3    3    0  502 -0.32513386573E+03 -0.10277133708E+04  0.63882331947E+03  0.12529972254E+04  0.10100000352E+00 0. -1.
</event>
<event>
 5   0  0.1689444E-06  0.2299355E+04  0.7818609E-02  0.8478175E-01
       -2   -1    0    0    0  501  0.00000000000E+00  0.00000000000E+00  0.12411425842E+04  0.12411425842E+04  0.25500000920E-02 0.  1.
        2   -1    0    0  501    0  0.00000000000E+00  0.00000000000E+00 -0.10649529957E+04  0.10649529957E+04  0.25500000920E-02 0. -1.
    10030    2    1    2    0    0  0.00000000000E+00  0.00000000000E+00  0.17618958847E+03  0.23060955799E+04  0.22993551384E+04 0.  0.
        2    1    3    3  502    0 -0.39792724881E+03  0.35236392755E+03  0.11105203608E+04  0.12311628262E+04  0.25500000920E-02 0.  1.
       -2    1    3    3    0  502  0.39792724881E+03 -0.35236392755E+03 -0.93433077237E+03  0.10749327537E+04  0.25500000920E-02 0. -1.
</event>
<event>
 5   0  0.7932912E-07  0.2299482E+04  0.7818609E-02  0.8478125E-01
       -1   -1    0    0    0  501  0.00000000000E+00  0.00000000000E+00  0.17629721487E+04  0.17629721487E+04  0.50400001928E-02 0. -1.
        1   -1    0    0  501    0  0.00000000000E+00  0.00000000000E+00 -0.74981594318E+03  0.74981594320E+03  0.50400001928E-02 0.  1.
    10030    2    1    2    0    0  0.00000000000E+00  0.00000000000E+00  0.10131562055E+04  0.25127880919E+04  0.22994822239E+04 0.  0.
        5    1    3    3  502    0  0.94397065805E+01  0.11372497938E+04  0.32223993096E+03  0.11820688916E+04  0.46999998093E+01 0.  1.
       -5    1    3    3    0  502 -0.94397065805E+01 -0.11372497938E+04  0.69091627458E+03  0.13307192003E+04  0.46999998093E+01 0. -1.
</event>
<event>
 5   0  0.7761069E-07  0.2300403E+04  0.7818609E-02  0.8477762E-01
        1   -1    0    0  501    0  0.00000000000E+00  0.00000000000E+00  0.87262725663E+03  0.87262725665E+03  0.50400001928E-02 0. -1.
       -1   -1    0    0    0  501  0.00000000000E+00  0.00000000000E+00 -0.15160699682E+04  0.15160699682E+04  0.50400001928E-02 0.  1.
    10030    2    1    2    0    0  0.00000000000E+00  0.00000000000E+00 -0.64344271153E+03  0.23886972248E+04  0.23004034231E+04 0.  0.
        1    1    3    3  502    0  0.21233800652E+03  0.11304136753E+04 -0.32840832356E+03  0.11961498791E+04  0.50400001928E-02 0.  1.
       -1    1    3    3    0  502 -0.21233800652E+03 -0.11304136753E+04 -0.31503438798E+03  0.11925473457E+04  0.50400001928E-02 0. -1.
</event>
<event>
 5   0  0.1888779E-06  0.2310655E+04  0.7818609E-02  0.8473732E-01
       -2   -1    0    0    0  501  0.00000000000E+00  0.00000000000E+00  0.11916315616E+04  0.11916315616E+04  0.25500000920E-02 0.  1.
        2   -1    0    0  501    0  0.00000000000E+00  0.00000000000E+00 -0.11201296847E+04  0.11201296847E+04  0.25500000920E-02 0. -1.
    10030    2    1    2    0    0  0.00000000000E+00  0.00000000000E+00  0.71501876909E+02  0.23117612463E+04  0.23106552191E+04 0.  0.
        4    1    3    3  502    0 -0.67524492795E+03 -0.92398021554E+03  0.19420958122E+03  0.11607816874E+04  0.12699999809E+01 0. -1.
       -4    1    3    3    0  502  0.67524492795E+03  0.92398021554E+03 -0.12270770432E+03  0.11509795589E+04  0.12699999809E+01 0.  1.
</event>
<event>
 5   0  0.1888779E-06  0.2299621E+04  0.7818609E-02  0.8478071E-01
        2   -1    0    0  501    0  0.00000000000E+00  0.00000000000E+00  0.15074342429E+04  0.15074342429E+04  0.25500000920E-02 0.  1.
       -2   -1    0    0    0  501  0.00000000000E+00  0.00000000000E+00 -0.87702945422E+03  0.87702945422E+03  0.25500000920E-02 0. -1.
    10030    2    1    2    0    0  0.00000000000E+00  0.00000000000E+00  0.63040478870E+03  0.23844636971E+04  0.22996210395E+04 0.  0.
        4    1    3    3  502    0 -0.10891376425E+04  0.20246138742E+03  0.63454425998E+03  0.12766594880E+04  0.12699999809E+01 0.  1.
       -4    1    3    3    0  502  0.10891376425E+04 -0.20246138742E+03 -0.41394712876E+01  0.11078042091E+04  0.12699999809E+01 0. -1.
</event>
<event>
 5   0  0.1825521E-06  0.2300469E+04  0.7818609E-02  0.8477736E-01
       -2   -1    0    0    0  501  0.00000000000E+00  0.00000000000E+00  0.53146392600E+03  0.53146392600E+03  0.25500000920E-02 0. -1.
        2   -1    0    0  501    0  0.00000000000E+00  0.00000000000E+00 -0.24894253600E+04  0.24894253600E+04  0.25500000920E-02 0.  1.
    10030    2    1    2    0    0  0.00000000000E+00  0.00000000000E+00 -0.19579614340E+04  0.30208892860E+04  0.23004693220E+04 0.  0.
        5    1    3    3  502    0 -0.91944993591E+03  0.34076589817E+03 -0.18943481979E+03  0.99870777655E+03  0.46999998093E+01 0. -1.
       -5    1    3    3    0  502  0.91944993591E+03 -0.34076589817E+03 -0.17685266143E+04  0.20221815095E+04  0.46999998093E+01 0.  1.
</event>
<event>
 5   0  0.1828646E-06  0.2300429E+04  0.7818609E-02  0.8477752E-01
       -2   -1    0    0    0  501  0.00000000000E+00  0.00000000000E+00  0.15094129760E+04  0.15094129760E+04  0.25500000920E-02 0.  1.
        2   -1    0    0  501    0  0.00000000000E+00  0.00000000000E+00 -0.87649514222E+03  0.87649514222E+03  0.25500000920E-02 0. -1.
    10030    2    1    2    0    0  0.00000000000E+00  0.00000000000E+00  0.63291783380E+03  0.23859081182E+04  0.23004287784E+04 0.  0.
        3    1    3    3  502    0 -0.35462324035E+03 -0.37655534549E+03 -0.74906209560E+03  0.91029973310E+03  0.10100000352E+00 0. -1.
       -3    1    3    3    0  502  0.35462324035E+03  0.37655534549E+03  0.13819799294E+04  0.14756083851E+04  0.10100000352E+00 0.  1.
</event>
<event>
 5   0  0.1888779E-06  0.2300698E+04  0.7818609E-02  0.8477646E-01
        2   -1    0    0  501    0  0.00000000000E+00  0.00000000000E+00  0.11099659723E+04  0.11099659723E+04  0.25500000920E-02 0.  1.
       -2   -1    0    0    0  501  0.00000000000E+00  0.00000000000E+00 -0.11922007735E+04  0.11922007735E+04  0.25500000920E-02 0. -1.
    10030    2    1    2    0    0  0.00000000000E+00  0.00000000000E+00 -0.82234801113E+02  0.23021667458E+04  0.23006975384E+04 0.  0.
        4    1    3    3  502    0 -0.10925505233E+04 -0.34379135821E+03 -0.14815081342E+03  0.11549066717E+04  0.12699999809E+01 0.  1.
       -4    1    3    3    0  502  0.10925505233E+04  0.34379135821E+03  0.65916012306E+02  0.11472600741E+04  0.12699999809E+01 0. -1.
</event>
<event>
 5   0  0.7932912E-07  0.2300539E+04  0.7818609E-02  0.8477709E-01
       -1   -1    0    0    0  501  0.00000000000E+00  0.00000000000E+00  0.16703819295E+04  0.16703819295E+04  0.50400001928E-02 0.  1.
        1   -1    0    0  501    0  0.00000000000E+00  0.00000000000E+00 -0.79210600050E+03  0.79210600051E+03  0.50400001928E-02 0. -1.
    10030    2    1    2    0    0  0.00000000000E+00  0.00000000000E+00  0.87827592899E+03  0.24624879300E+04  0.23005386756E+04 0.  0.
        5    1    3    3  502    0 -0.86456783790E+03  0.30171015089E+03 -0.30599229093E+03  0.96548430002E+03  0.46999998093E+01 0. -1.
       -5    1    3    3    0  502  0.86456783790E+03 -0.30171015089E+03  0.11842682199E+04  0.14970036300E+04  0.46999998093E+01 0.  1.
</event>
<event>
 5   0  0.7607231E-07  0.2303957E+04  0.7818609E-02  0.8476363E-01
        1   -1    0    0  501    0  0.00000000000E+00  0.00000000000E+00  0.14406555848E+04  0.14406555848E+04  0.50400001928E-02 0. -1.
       -1   -1    0    0    0  501  0.00000000000E+00  0.00000000000E+00 -0.92114603613E+03  0.92114603615E+03  0.50400001928E-02 0.  1.
    10030    2    1    2    0    0  0.00000000000E+00  0.00000000000E+00  0.51950954866E+03  0.23618016209E+04  0.23039567543E+04 0.  0.
        2    1    3    3  502    0  0.10432153735E+04 -0.23302805588E+03 -0.18050893282E+03  0.10840589768E+04  0.25500000920E-02 0.  1.
       -2    1    3    3    0  502 -0.10432153735E+04  0.23302805588E+03  0.70001848148E+03  0.12777426442E+04  0.25500000920E-02 0. -1.
</event>
<event>
 5   0  0.1888779E-06  0.2301447E+04  0.7818609E-02  0.8477351E-01
        2   -1    0    0  501    0  0.00000000000E+00  0.00000000000E+00  0.98627829065E+03  0.98627829065E+03  0.25500000920E-02 0.  1.
       -2   -1    0    0    0  501  0.00000000000E+00  0.00000000000E+00 -0.13425868370E+04  0.13425868370E+04  0.25500000920E-02 0. -1.
    10030    2    1    2    0    0  0.00000000000E+00  0.00000000000E+00 -0.35630854631E+03  0.23288651276E+04  0.23014467194E+04 0.  0.
        4    1    3    3  502    0 -0.24982483496E+03  0.73012974025E+03  0.68563160899E+03  0.10322762236E+04  0.12699999809E+01 0.  1.
       -4    1    3    3    0  502  0.24982483496E+03 -0.73012974025E+03 -0.10419401553E+04  0.12965889040E+04  0.12699999809E+01 0. -1.
</event>
<event>
 5   0  0.1828646E-06  0.2299275E+04  0.7818609E-02  0.8478207E-01
       -2   -1    0    0    0  501  0.00000000000E+00  0.00000000000E+00  0.63682370519E+03  0.63682370520E+03  0.25500000920E-02 0.  1.
        2   -1    0    0  501    0  0.00000000000E+00  0.00000000000E+00 -0.20754033654E+04  0.20754033654E+04  0.25500000920E-02 0. -1.
    10030    2    1    2    0    0  0.00000000000E+00  0.00000000000E+00 -0.14385796602E+04  0.27122270706E+04  0.22992747213E+04 0.  0.
        3    1    3    3  502    0 -0.30996368161E+03 -0.21959859077E+03 -0.19992331765E+04  0.20350022922E+04  0.10100000352E+00 0. -1.
       -3    1    3    3    0  502  0.30996368161E+03  0.21959859077E+03  0.56065351628E+03  0.67722477842E+03  0.10100000352E+00 0.  1.
</event>
<event>
 5   0  0.7932912E-07  0.2299233E+04  0.7818609E-02  0.8478224E-01
       -1   -1    0    0    0  501  0.00000000000E+00  0.00000000000E+00  0.94421332652E+03  0.94421332654E+03  0.50400001928E-02 0. -1.
        1   -1    0    0  501    0  0.00000000000E+00  0.00000000000E+00 -0.13997030758E+04  0.13997030758E+04  0.50400001928E-02 0.  1.
    10030    2    1    2    0    0  0.00000000000E+00  0.00000000000E+00 -0.45548974925E+03  0.23439164023E+04  0.22992331742E+04 0.  0.
        5    1    3    3  502    0  0.77421546991E+03 -0.82138337894E+03 -0.44996267653E+03  0.12151414524E+04  0.46999998093E+01 0.  1.
       -5    1    3    3    0  502 -0.77421546991E+03  0.82138337894E+03 -0.55270727241E+01  0.11287749499E+04  0.46999998093E+01 0. -1.
</event>
<event>
 5   0  0.1689444E-06  0.2300295E+04  0.7818609E-02  0.8477805E-01
        2   -1    0    0  501    0  0.00000000000E+00  0.00000000000E+00  0.22439128836E+04  0.22439128836E+04  0.25500000920E-02 0.  1.
       -2   -1    0    0    0  501  0.00000000000E+00  0.00000000000E+00 -0.58952331148E+03  0.58952331148E+03  0.25500000920E-02 0. -1.
    10030    2    1    2    0    0  0.00000000000E+00  0.00000000000E+00  0.16543895721E+04  0.28334361950E+04  0.23002947235E+04 0.  0.
        2    1    3    3  502    0  0.79991814897E+03 -0.41868080296E+02 -0.18945806784E+03  0.82311380785E+03  0.25500000920E-02 0. -1.
       -2    1    3    3    0  502 -0.79991814897E+03  0.41868080296E+02  0.18438476399E+04  0.20103223872E+04  0.25500000920E-02 0.  1.
</event>
<event>
 5   0  0.1888779E-06  0.2295560E+04  0.7818609E-02  0.8479674E-01
        2   -1    0    0  501    0  0.00000000000E+00  0.00000000000E+00  0.11762052641E+04  0.11762052641E+04  0.25500000920E-02 0.  1.
       -2   -1    0    0    0  501  0.00000000000E+00  0.00000000000E+00 -0.11200418073E+04  0.11200418073E+04  0.25500000920E-02 0. -1.
    10030    2    1    2    0    0  0.00000000000E+00  0.00000000000E+00  0.56163456748E+02  0.22962470714E+04  0.22955601232E+04 0.  0.
        4    1    3    3  502    0 -0.62538760680E+02  0.59078882612E+03  0.10104422719E+04  0.11721508996E+04  0.12699999809E+01 0.  1.
       -4    1    3    3    0  502  0.62538760680E+02 -0.59078882612E+03 -0.95427881514E+03  0.11240961719E+04  0.12699999809E+01 0. -1.
</event>
<event>
 5   0  0.7761069E-07  0.2300117E+04  0.7818609E-02  0.8477875E-01
        1   -1    0    0  501    0  0.00000000000E+00  0.00000000000E+00  0.14472009526E+04  0.14472009526E+04  0.50400001928E-02 0. -1.
       -1   -1    0    0    0  501  0.00000000000E+00  0.00000000000E+00 -0.91392617188E+03  0.91392617189E+03  0.50400001928E-02 0.  1.
    10030    2    1    2    0    0  0.00000000000E+00  0.00000000000E+00  0.53327478070E+03  0.23611271245E+04  0.23001172375E+04 0.  0.
        1    1    3    3  502    0 -0.79826851151E+03  0.67569790858E+03  0.75769245230E+03  0.12914713053E+04  0.50400001928E-02 0. -1.
       -1    1    3    3    0  502  0.79826851151E+03 -0.67569790858E+03 -0.22441767160E+03  0.10696558192E+04  0.50400001928E-02 0.  1.
</event>
<event>
 5   0  0.1689444E-06  0.2300298E+04  0.7818609E-02  0.8477804E-01
       -2   -1    0    0    0  501  0.00000000000E+00  0.00000000000E+00  0.11341635388E+04  0.11341635388E+04  0.25500000920E-02 0.  1.
        2   -1    0    0  501    0  0.00000000000E+00  0.00000000000E+00 -0.11663594912E+04  0.11663594912E+04  0.25500000920E-02 0. -1.
    10030    2    1    2    0    0  0.00000000000E+00  0.00000000000E+00 -0.32195952392E+02  0.23005230300E+04  0.23002977268E+04 0.  0.
        2    1    3    3  502    0 -0.79310527102E+03  0.64430393029E+03  0.51187312116E+03  0.11428725291E+04  0.25500000920E-02 0. -1.
       -2    1    3    3    0  502  0.79310527102E+03 -0.64430393029E+03 -0.54406907355E+03  0.11576505009E+04  0.25500000920E-02 0.  1.
</event>
<event>
 5   0  0.7932912E-07  0.2301281E+04  0.7818609E-02  0.8477416E-01
       -1   -1    0    0    0  501  0.00000000000E+00  0.00000000000E+00  0.89835388975E+03  0.89835388976E+03  0.50400001928E-02 0.  1.
        1   -1    0    0  501    0  0.00000000000E+00  0.00000000000E+00 -0.14737769054E+04  0.14737769054E+04  0.50400001928E-02 0. -1.
    10030    2    1    2    0    0  0.00000000000E+00  0.00000000000E+00 -0.57542301565E+03  0.23721307952E+04  0.23012807005E+04 0.  0.
        5    1    3    3  502    0  0.26549881218E+03  0.10934492991E+04 -0.53559416670E+03  0.12461958876E+04  0.46999998093E+01 0. -1.
       -5    1    3    3    0  502 -0.26549881218E+03 -0.10934492991E+04 -0.39828848951E+02  0.11259349076E+04  0.46999998093E+01 0.  1.
</event>
<event>
 5   0  0.7761069E-07  0.2300259E+04  0.7818609E-02  0.8477819E-01
       -1   -1    0    0    0  501  0.00000000000E+00  0.00000000000E+00  0.92572367254E+03  0.92572367255E+03  0.50400001928E-02 0.  1.
        1   -1    0    0  501    0  0.00000000000E+00  0.00000000000E+00 -0.14289334142E+04  0.14289334142E+04  0.50400001928E-02 0. -1.
    10030    2    1    2    0    0  0.00000000000E+00  0.00000000000E+00 -0.50320974166E+03  0.23546570868E+04  0.23002586707E+04 0.  0.
        1    1    3    3  502    0  0.21927891893E+03  0.11043087712E+04 -0.11066168217E+02  0.11259234284E+04  0.50400001928E-02 0.  1.
       -1    1    3    3    0  502 -0.21927891893E+03 -0.11043087712E+04 -0.49214357345E+03  0.12287336584E+04  0.50400001928E-02 0. -1.
</event>
<event>
 5   0  0.1825521E-06  0.2300238E+04  0.7818609E-02  0.8477827E-01
        2   -1    0    0  501    0  0.00000000000E+00  0.00000000000E+00  0.18485926336E+04  0.18485926336E+04  0.25500000920E-02 0.  1.
       -2   -1    0    0    0  501  0.00000000000E+00  0.00000000000E+00 -0.71555718324E+03  0.71555718324E+03  0.25500000920E-02 0. -1.
    10030    2    1    2    0    0  0.00000000000E+00  0.00000000000E+00  0.11330354504E+04  0.25641498168E+04  0.23002380206E+04 0.  0.
        5    1    3    3  502    0  0.61526671027E+03  0.21329562207E+03  0.16232837334E+04  0.17490341096E+04  0.46999998093E+01 0.  1.
       -5    1    3    3    0  502 -0.61526671027E+03 -0.21329562207E+03 -0.49024828309E+03  0.81511570727E+03  0.46999998093E+01 0. -1.
</event>
<event>
 5   0  0.7932912E-07  0.2300651E+04  0.7818609E-02  0.8477664E-01
       -1   -1    0    0    0  501  0.00000000000E+00  0.00000000000E+00  0.97036345878E+03  0.97036345879E+03  0.50400001928E-02 0. -1.
        1   -1    0    0  501    0  0.00000000000E+00  0.00000000000E+00 -0.13636634611E+04  0.13636634611E+04  0.50400001928E-02 0.  1.
    10030    2    1    2    0    0  0.00000000000E+00  0.00000000000E+00 -0.39330000235E+03  0.23340269199E+04  0.23006513797E+04 0.  0.
        5    1    3    3  502    0  0.45948181133E+03  0.33963027150E+03  0.81620954164E+03  0.99633948137E+03  0.46999998093E+01 0. -1.
       -5    1    3    3    0  502 -0.45948181133E+03 -0.33963027150E+03 -0.12095095440E+04  0.13376874386E+04  0.46999998093E+01 0.  1.
</event>
<event>
 5   0  0.1828646E-06  0.2300490E+04  0.7818609E-02  0.8477728E-01
       -2   -1    0    0    0  501  0.00000000000E+00  0.00000000000E+00  0.11100616093E+04  0.11100616093E+04  0.25500000920E-02 0. -1.
        2   -1    0    0  501    0  0.00000000000E+00  0.00000000000E+00 -0.11918831936E+04  0.11918831936E+04  0.25500000920E-02 0.  1.
    10030    2    1    2    0    0  0.00000000000E+00  0.00000000000E+00 -0.81821584325E+02  0.23019448029E+04  0.23004901877E+04 0.  0.
        3    1    3    3  502    0 -0.97590789548E+02 -0.11696822617E+03  0.10999233655E+04  0.11104219686E+04  0.10100000352E+00 0. -1.
       -3    1    3    3    0  502  0.97590789548E+02  0.11696822617E+03 -0.11817449498E+04  0.11915228343E+04  0.10100000352E+00 0.  1.
</event>
<event>
 5   0  0.7761069E-07  0.2298609E+04  0.7818609E-02  0.8478470E-01
        1   -1    0    0  501    0  0.00000000000E+00  0.00000000000E+00  0.22200840239E+04  0.22200840239E+04  0.50400001928E-02 0. -1.
       -1   -1    0    0    0  501  0.00000000000E+00  0.00000000000E+00 -0.59497772986E+03  0.59497772988E+03  0.50400001928E-02 0.  1.
    10030    2    1    2    0    0  0.00000000000E+00  0.00000000000E+00  0.16251062940E+04  0.28150617538E+04  0.22986087555E+04 0.  0.
        1    1    3    3  502    0  0.76642358497E+03  0.49108861228E+03  0.16718631753E+04  0.19036017477E+04  0.50400001928E-02 0. -1.
       -1    1    3    3    0  502 -0.76642358497E+03 -0.49108861228E+03 -0.46756881318E+02  0.91146000608E+03  0.50400001928E-02 0.  1.
</event>
<event>
 5   0  0.8097672E-07  0.2298258E+04  0.7818609E-02  0.8478608E-01
        1   -1    0    0  501    0  0.00000000000E+00  0.00000000000E+00  0.14154216544E+04  0.14154216544E+04  0.50400001928E-02 0. -1.
       -1   -1    0    0    0  501  0.00000000000E+00  0.00000000000E+00 -0.93293578108E+03  0.93293578110E+03  0.50400001928E-02 0.  1.
    10030    2    1    2    0    0  0.00000000000E+00  0.00000000000E+00  0.48248587335E+03  0.23483574355E+04  0.22982580419E+04 0.  0.
        3    1    3    3  502    0  0.81987604033E+02 -0.13161283587E+03 -0.92219681689E+03  0.93514217372E+03  0.10100000352E+00 0.  1.
       -3    1    3    3    0  502 -0.81987604033E+02  0.13161283587E+03  0.14046826902E+04  0.14132152618E+04  0.10100000352E+00 0. -1.
</event>
<event>
 5   0  0.1828646E-06  0.2297083E+04  0.7818609E-02  0.8479072E-01
        2   -1    0    0  501    0  0.00000000000E+00  0.00000000000E+00  0.73867253280E+03  0.73867253281E+03  0.25500000920E-02 0. -1.
       -2   -1    0    0    0  501  0.00000000000E+00  0.00000000000E+00 -0.17858352341E+04  0.17858352341E+04  0.25500000920E-02 0.  1.
    10030    2    1    2    0    0  0.00000000000E+00  0.00000000000E+00 -0.10471627013E+04  0.25245077669E+04  0.22970828766E+04 0.  0.
        3    1    3    3  502    0  0.27974114631E+03  0.10259714573E+04 -0.46715478374E+02  0.10644505091E+04  0.10100000352E+00 0. -1.
       -3    1    3    3    0  502 -0.27974114631E+03 -0.10259714573E+04 -0.10004472229E+04  0.14600572578E+04  0.10100000352E+00 0.  1.
</event>
<event>
 5   0  0.1825521E-06  0.2300195E+04  0.7818609E-02  0.8477844E-01
       -2   -1    0    0    0  501  0.00000000000E+00  0.00000000000E+00  0.44945839914E+03  0.44945839914E+03  0.25500000920E-02 0.  1.
        2   -1    0    0  501    0  0.00000000000E+00  0.00000000000E+00 -0.29429301687E+04  0.29429301687E+04  0.25500000920E-02 0. -1.
    10030    2    1    2    0    0  0.00000000000E+00  0.00000000000E+00 -0.24934717696E+04  0.33923885679E+04  0.23001953677E+04 0.  0.
        5    1    3    3  502    0  0.83355803642E+03  0.20311431173E+03 -0.11714202488E+03  0.86592076295E+03  0.46999998093E+01 0.  1.
       -5    1    3    3    0  502 -0.83355803642E+03 -0.20311431173E+03 -0.23763297447E+04  0.25264678049E+04  0.46999998093E+01 0. -1.
</event>
<event>
 5   0  0.1825521E-06  0.2300213E+04  0.7818609E-02  0.8477837E-01
        2   -1    0    0  501    0  0.00000000000E+00  0.00000000000E+00  0.15728693083E+04  0.15728693083E+04  0.25500000920E-02 0.  1.
       -2   -1    0    0    0  501  0.00000000000E+00  0.00000000000E+00 -0.84097604512E+03  0.84097604512E+03  0.25500000920E-02 0. -1.
    10030    2    1    2    0    0  0.00000000000E+00  0.00000000000E+00  0.73189326318E+03  0.24138453534E+04  0.23002133904E+04 0.  0.
        5    1    3    3  502    0 -0.56480643574E+03 -0.99193583681E+03  0.21835632988E+03  0.11621723586E+04  0.46999998093E+01 0. -1.
       -5    1    3    3    0  502  0.56480643574E+03  0.99193583681E+03  0.51353693331E+03  0.12516729949E+04  0.46999998093E+01 0.  1.
</event>
<event>
 5   0  0.8108242E-07  0.2300058E+04  0.7818609E-02  0.8477898E-01
       -1   -1    0    0    0  501  0.00000000000E+00  0.00000000000E+00  0.46639861352E+03  0.46639861355E+03  0.50400001928E-02 0.  1.
        1   -1    0    0  501    0  0.00000000000E+00  0.00000000000E+00 -0.28357007380E+04  0.28357007380E+04  0.50400001928E-02 0. -1.
    10030    2    1    2    0    0  0.00000000000E+00  0.00000000000E+00 -0.23693021245E+04  0.33020993516E+04  0.23000581668E+04 0.  0.
        4    1    3    3  502    0 -0.92530596286E+03  0.68209197603E+03 -0.12327979185E+04  0.16855957135E+04  0.12699999809E+01 0. -1.
       -4    1    3    3    0  502  0.92530596286E+03 -0.68209197603E+03 -0.11365042060E+04  0.16165036381E+04  0.12699999809E+01 0.  1.
</event>
<event>
 5   0  0.7932912E-07  0.2300865E+04  0.7818609E-02  0.8477580E-01
       -1   -1    0    0    0  501  0.00000000000E+00  0.00000000000E+00  0.66417455924E+03  0.66417455926E+03  0.50400001928E-02 0.  1.
        1   -1    0    0  501    0  0.00000000000E+00  0.00000000000E+00 -0.19926913552E+04  0.19926913552E+04  0.50400001928E-02 0. -1.
    10030    2    1    2    0    0  0.00000000000E+00  0.00000000000E+00 -0.13285167959E+04  0.26568659144E+04  0.23008649700E+04 0.  0.
        5    1    3    3  502    0 -0.87854254968E+03  0.34066616537E+03 -0.14263613593E+04  0.17095084864E+04  0.46999998093E+01 0. -1.
       -5    1    3    3    0  502  0.87854254968E+03 -0.34066616537E+03  0.97844563365E+02  0.94735742801E+03  0.46999998093E+01 0.  1.
</event>
<event>
 5   0  0.8108242E-07  0.2299819E+04  0.7818609E-02  0.8477992E-01
       -1   -1    0    0    0  501  0.00000000000E+00  0.00000000000E+00  0.10867394568E+04  0.10867394568E+04  0.50400001928E-02 0. -1.
        1   -1    0    0  501    0  0.00000000000E+00  0.00000000000E+00 -0.12167519386E+04  0.12167519386E+04  0.50400001928E-02 0.  1.
    10030    2    1    2    0    0  0.00000000000E+00  0.00000000000E+00 -0.13001248182E+03  0.23034913954E+04  0.22998194197E+04 0.  0.
        4    1    3    3  502    0  0.12439122007E+03  0.11375612659E+04  0.48187112896E+02  0.11453568964E+04  0.12699999809E+01 0.  1.
       -4    1    3    3    0  502 -0.12439122007E+03 -0.11375612659E+04 -0.17819959472E+03  0.11581344990E+04  0.12699999809E+01 0. -1.
</event>
<event>
 5   0  0.7761069E-07  0.2300248E+04  0.7818609E-02  0.8477823E-01
        1   -1    0    0  501    0  0.00000000000E+00  0.00000000000E+00  0.23507183979E+04  0.23507183979E+04  0.50400001928E-02 0.  1.
       -1   -1    0    0    0  501  0.00000000000E+00  0.00000000000E+00 -0.56271511620E+03  0.56271511622E+03  0.50400001928E-02 0. -1.
    10030    2    1    2    0    0  0.00000000000E+00  0.00000000000E+00  0.17880032817E+04  0.29134335141E+04  0.23002476184E+04 0.  0.
        1    1    3    3  502    0  0.60209229655E+02  0.10126479621E+04  0.15804142503E+04  0.18779750396E+04  0.50400001928E-02 0.  1.
       -1    1    3    3    0  502 -0.60209229655E+02 -0.10126479621E+04  0.20758903138E+03  0.10354584746E+04  0.50400001928E-02 0. -1.
</event>
<event>
 5   0  0.8108242E-07  0.2299986E+04  0.7818609E-02  0.8477927E-01
        1   -1    0    0  501    0  0.00000000000E+00  0.00000000000E+00  0.14879172759E+04  0.14879172759E+04  0.50400001928E-02 0.  1.
       -1   -1    0    0    0  501  0.00000000000E+00  0.00000000000E+00 -0.88881521054E+03  0.88881521056E+03  0.50400001928E-02 0. -1.
    10030    2    1    2    0    0  0.00000000000E+00  0.00000000000E+00  0.59910206538E+03  0.23767324865E+04  0.22999856581E+04 0.  0.
        4    1    3    3  502    0  0.89939838732E+02  0.38728552239E+03 -0.81553086586E+03  0.90728796780E+03  0.12699999809E+01 0. -1.
       -4    1    3    3    0  502 -0.89939838732E+02 -0.38728552239E+03  0.14146329312E+04  0.14694445187E+04  0.12699999809E+01 0.  1.
</event>
<event>
 5   0  0.1828646E-06  0.2299361E+04  0.7818609E-02  0.8478173E-01
        2   -1    0    0  501    0  0.00000000000E+00  0.00000000000E+00  0.17623069002E+04  0.17623069002E+04  0.25500000920E-02 0. -1.
       -2   -1    0    0    0  501  0.00000000000E+00  0.00000000000E+00 -0.75002008089E+03  0.75002008089E+03  0.25500000920E-02 0.  1.
    10030    2    1    2    0    0  0.00000000000E+00  0.00000000000E+00  0.10122868193E+04  0.25123269811E+04  0.22993612712E+04 0.  0.
        3    1    3    3  502    0  0.20568595793E+03  0.52831509517E+03  0.15989497400E+04  0.16964857307E+04  0.10100000352E+00 0. -1.
       -3    1    3    3    0  502 -0.20568595793E+03 -0.52831509517E+03 -0.58666292074E+03  0.81584125039E+03  0.10100000352E+00 0.  1.
</event>
<event>
 5   0  0.1825521E-06  0.2300509E+04  0.7818609E-02  0.8477720E-01
        2   -1    0    0  501    0  0.00000000000E+00  0.00000000000E+00  0.17544434453E+04  0.17544434453E+04  0.25500000920E-02 0.  1.
       -2   -1    0    0    0  501  0.00000000000E+00  0.00000000000E+00 -0.75413413928E+03  0.75413413928E+03  0.25500000920E-02 0. -1.
    10030    2    1    2    0    0  0.00000000000E+00  0.00000000000E+00  0.10003093060E+04  0.25085775846E+04  0.23005092458E+04 0.  0.
        5    1    3    3  502    0 -0.31716392654E+03  0.63741115170E+03  0.14852900179E+04  0.16471170147E+04  0.46999998093E+01 0.  1.
       -5    1    3    3    0  502  0.31716392654E+03 -0.63741115170E+03 -0.48498071192E+03  0.86146056992E+03  0.46999998093E+01 0. -1.
</event>
<event>
 5   0  0.1825521E-06  0.2299443E+04  0.7818609E-02  0.8478141E-01
       -2   -1    0    0    0  501  0.00000000000E+00  0.00000000000E+00  0.13318740597E+04  0.13318740597E+04  0.25500000920E-02 0.  1.
        2   -1    0    0  501    0  0.00000000000E+00  0.00000000000E+00 -0.99248103031E+03  0.99248103031E+03  0.25500000920E-02 0. -1.
    10030    2    1    2    0    0  0.00000000000E+00  0.00000000000E+00  0.33939302936E+03  0.23243550900E+04  0.22994431839E+04 0.  0.
        5    1    3    3  502    0 -0.71581176854E+03 -0.71465814381E+02  0.10762650699E+04  0.12945510578E+04  0.46999998093E+01 0.  1.
       -5    1    3    3    0  502  0.71581176854E+03  0.71465814381E+02 -0.73687204051E+03  0.10298040322E+04  0.46999998093E+01 0. -1.
</event>
<event>
 5   0  0.7761069E-07  0.2299793E+04  0.7818609E-02  0.8478003E-01
        1   -1    0    0  501    0  0.00000000000E+00  0.00000000000E+00  0.82089088826E+03  0.82089088828E+03  0.50400001928E-02 0.  1.
       -1   -1    0    0    0  501  0.00000000000E+00  0.00000000000E+00 -0.16107651471E+04  0.16107651471E+04  0.50400001928E-02 0. -1.
    10030    2    1    2    0    0  0.00000000000E+00  0.00000000000E+00 -0.78987425881E+03  0.24316560354E+04  0.22997934102E+04 0.  0.
        1    1    3    3  502    0 -0.21572187929E+03  0.10583936687E+04 -0.81192122389E+03  0.13512768631E+04  0.50400001928E-02 0.  1.
       -1    1    3    3    0  502  0.21572187929E+03 -0.10583936687E+04  0.22046965076E+02  0.10803791722E+04  0.50400001928E-02 0. -1.
</event>
<event>
 5   0  0.1744876E-06  0.2298787E+04  0.7818609E-02  0.8478399E-01
       -2   -1    0    0    0  501  0.00000000000E+00  0.00000000000E+00  0.10320246955E+04  0.10320246956E+04  0.25500000920E-02 0.  1.
        2   -1    0    0  501    0  0.00000000000E+00  0.00000000000E+00 -0.12801104437E+04  0.12801104437E+04  0.25500000920E-02 0. -1.
    10030    2    1    2    0    0  0.00000000000E+00  0.00000000000E+00 -0.24808574816E+03  0.23121351393E+04  0.22987871506E+04 0.  0.
        1    1    3    3  502    0 -0.27018828931E+03 -0.20127363489E+03 -0.12293289812E+04  0.12746617323E+04  0.50400001928E-02 0. -1.
       -1    1    3    3    0  502  0.27018828931E+03  0.20127363489E+03  0.98124323302E+03  0.10374734070E+04  0.50400001928E-02 0.  1.
</event>
<event>
 5   0  0.1744876E-06  0.2299156E+04  0.7818609E-02  0.8478254E-01
       -2   -1    0    0    0  501  0.00000000000E+00  0.00000000000E+00  0.70540643579E+03  0.70540643579E+03  0.25500000920E-02 0.  1.
        2   -1    0    0  501    0  0.00000000000E+00  0.00000000000E+00 -0.18734301949E+04  0.18734301949E+04  0.25500000920E-02 0. -1.
    10030    2    1    2    0    0  0.00000000000E+00  0.00000000000E+00 -0.11680237591E+04  0.25788366307E+04  0.22991561204E+04 0.  0.
        1    1    3    3  502    0 -0.14312257430E+03 -0.11320730396E+04 -0.42755839047E+03  0.12185563653E+04  0.50400001928E-02 0.  1.
       -1    1    3    3    0  502  0.14312257430E+03  0.11320730396E+04 -0.74046536867E+03  0.13602802654E+04  0.50400001928E-02 0. -1.
</event>
<event>
 5   0  0.8097672E-07  0.2285901E+04  0.7818609E-02  0.8483501E-01
       -1   -1    0    0    0  501  0.00000000000E+00  0.00000000000E+00  0.90138536773E+03  0.90138536775E+03  0.50400001928E-02 0.  1.
        1   -1    0    0  501    0  0.00000000000E+00  0.00000000000E+00 -0.14492529955E+04  0.14492529955E+04  0.50400001928E-02 0. -1.
    10030    2    1    2    0    0  0.00000000000E+00  0.00000000000E+00 -0.54786762779E+03  0.23506383633E+04  0.22859006491E+04 0.  0.
        3    1    3    3  502    0 -0.78829884492E+02  0.89577525319E+03  0.45153002629E+03  0.10062339836E+04  0.10100000352E+00 0.  1.
       -3    1    3    3    0  502  0.78829884492E+02 -0.89577525319E+03 -0.99939765408E+03  0.13444043797E+04  0.10100000352E+00 0. -1.
</event>
<event>
 5   0  0.1888779E-06  0.2302449E+04  0.7818609E-02  0.8476956E-01
       -2   -1    0    0    0  501  0.00000000000E+00  0.00000000000E+00  0.86889821899E+03  0.86889821900E+03  0.25500000920E-02 0.  1.
        2   -1    0    0  501    0  0.00000000000E+00  0.00000000000E+00 -0.15252858947E+04  0.15252858947E+04  0.25500000920E-02 0. -1.
    10030    2    1    2    0    0  0.00000000000E+00  0.00000000000E+00 -0.65638767566E+03  0.23941841136E+04  0.23024493022E+04 0.  0.
        4    1    3    3  502    0  0.53843281799E+03  0.17509740464E+03  0.71411388061E+03  0.91133377419E+03  0.12699999809E+01 0.  1.
       -4    1    3    3    0  502 -0.53843281799E+03 -0.17509740464E+03 -0.13705015563E+04  0.14828503395E+04  0.12699999809E+01 0. -1.
</event>
<event>
 5   0  0.7607231E-07  0.2299592E+04  0.7818609E-02  0.8478082E-01
        1   -1    0    0  501    0  0.00000000000E+00  0.00000000000E+00  0.98565690313E+03  0.98565690315E+03  0.50400001928E-02 0. -1.
       -1   -1    0    0    0  501  0.00000000000E+00  0.00000000000E+00 -0.13412683432E+04  0.13412683432E+04  0.50400001928E-02 0.  1.
    10030    2    1    2    0    0  0.00000000000E+00  0.00000000000E+00 -0.35561144005E+03  0.23269252463E+04  0.22995916172E+04 0.  0.
        2    1    3    3  502    0  0.55463391870E+03 -0.44432659219E+03 -0.10924219176E+04  0.13032384856E+04  0.25500000920E-02 0.  1.
       -2    1    3    3    0  502 -0.55463391870E+03  0.44432659219E+03  0.73681047754E+03  0.10236867607E+04  0.25500000920E-02 0. -1.
</event>
<event>
 5   0  0.1689444E-06  0.2300336E+04  0.7818609E-02  0.8477789E-01
        2   -1    0    0  501    0  0.00000000000E+00  0.00000000000E+00  0.10370356191E+04  0.10370356191E+04  0.25500000920E-02 0.  1.
       -2   -1    0    0    0  501  0.00000000000E+00  0.00000000000E+00 -0.12756423113E+04  0.12756423113E+04  0.25500000920E-02 0. -1.
    10030    2    1    2    0    0  0.00000000000E+00  0.00000000000E+00 -0.23860669220E+03  0.23126779304E+04  0.23003360746E+04 0.  0.
        2    1    3    3  502    0  0.12158729028E+03  0.11413124643E+04 -0.44683137705E+02  0.11486401495E+04  0.25500000920E-02 0.  1.
       -2    1    3    3    0  502 -0.12158729028E+03 -0.11413124643E+04 -0.19392355450E+03  0.11640377809E+04  0.25500000920E-02 0. -1.
</event>
<event>
 5   0  0.7761069E-07  0.2298074E+04  0.7818609E-02  0.8478681E-01
       -1   -1    0    0    0  501  0.00000000000E+00  0.00000000000E+00  0.88692096783E+03  0.88692096784E+03  0.50400001928E-02 0.  1.
        1   -1    0    0  501    0  0.00000000000E+00  0.00000000000E+00 -0.14886175097E+04  0.14886175097E+04  0.50400001928E-02 0. -1.
    10030    2    1    2    0    0  0.00000000000E+00  0.00000000000E+00 -0.60169654189E+03  0.23755384776E+04  0.22980740480E+04 0.  0.
        1    1    3    3  502    0 -0.76015870789E+03 -0.20682201151E+03  0.56381002973E+03  0.96876124782E+03  0.50400001928E-02 0.  1.
       -1    1    3    3    0  502  0.76015870789E+03  0.20682201151E+03 -0.11655065716E+04  0.14067772298E+04  0.50400001928E-02 0. -1.
</event>
<event>
 5   0  0.1689444E-06  0.2299809E+04  0.7818609E-02  0.8477997E-01
        2   -1    0    0  501    0  0.00000000000E+00  0.00000000000E+00  0.22300549728E+04  0.22300549728E+04  0.25500000920E-02 0.  1.
       -2   -1    0    0    0  501  0.00000000000E+00  0.00000000000E+00 -0.59293603588E+03  0.59293603588E+03  0.25500000920E-02 0. -1.
    10030    2    1    2    0    0  0.00000000000E+00  0.00000000000E+00  0.16371189369E+04  0.28229910087E+04  0.22998086489E+04 0.  0.
        2    1    3    3  502    0 -0.42343432625E+02  0.11432549119E+04  0.67617494146E+03  0.13289233655E+04  0.25500000920E-02 0. -1.
       -2    1    3    3    0  502  0.42343432625E+02 -0.11432549119E+04  0.96094399545E+03  0.14940676432E+04  0.25500000920E-02 0.  1.
</event>
<event>
 5   0  0.1825521E-06  0.2300193E+04  0.7818609E-02  0.8477845E-01
       -2   -1    0    0    0  501  0.00000000000E+00  0.00000000000E+00  0.75757447423E+03  0.75757447424E+03  0.25500000920E-02 0. -1.
        2   -1    0    0  501    0  0.00000000000E+00  0.00000000000E+00 -0.17459955812E+04  0.17459955813E+04  0.25500000920E-02 0.  1.
    10030    2    1    2    0    0  0.00000000000E+00  0.00000000000E+00 -0.98842110702E+03  0.25035700555E+04  0.23001927610E+04 0.  0.
        5    1    3    3  502    0  0.53177130498E+03 -0.74875260388E+03  0.25930805260E+03  0.95429237593E+03  0.46999998093E+01 0. -1.
       -5    1    3    3    0  502 -0.53177130498E+03  0.74875260388E+03 -0.12477291596E+04  0.15492776796E+04  0.46999998093E+01 0.  1.
</event>
<event>
 5   0  0.1825521E-06  0.2300197E+04  0.7818609E-02  0.8477843E-01
       -2   -1    0    0    0  501  0.00000000000E+00  0.00000000000E+00  0.85700627728E+03  0.85700627728E+03  0.25500000920E-02 0.  1.
        2   -1    0    0  501    0  0.00000000000E+00  0.00000000000E+00 -0.15434272518E+04  0.15434272518E+04  0.25500000920E-02 0. -1.
    10030    2    1    2    0    0  0.00000000000E+00  0.00000000000E+00 -0.68642097454E+03  0.24004335291E+04  0.23001972466E+04 0.  0.
        5    1    3    3  502    0  0.43381711325E+03  0.90144366423E+03  0.24888216407E+03  0.10309036760E+04  0.46999998093E+01 0.  1.
       -5    1    3    3    0  502 -0.43381711325E+03 -0.90144366423E+03 -0.93530313862E+03  0.13695298531E+04  0.46999998093E+01 0. -1.
</event>
<event>
 5   0  0.1825521E-06  0.2304664E+04  0.7818609E-02  0.8476085E-01
        2   -1    0    0  501    0  0.00000000000E+00  0.00000000000E+00  0.13561533724E+04  0.13561533724E+04  0.25500000920E-02 0. -1.
       -2   -1    0    0    0  501  0.00000000000E+00  0.00000000000E+00 -0.97914344200E+03  0.97914344200E+03  0.25500000920E-02 0.  1.
    10030    2    1    2    0    0  0.00000000000E+00  0.00000000000E+00  0.37700993038E+03  0.23352968144E+04  0.23046636899E+04 0.  0.
        5    1    3    3  502    0 -0.62491954422E+03 -0.88277133858E+02 -0.78843093605E+03  0.10099320373E+04  0.46999998093E+01 0.  1.
       -5    1    3    3    0  502  0.62491954422E+03  0.88277133858E+02  0.11654408664E+04  0.13253647771E+04  0.46999998093E+01 0. -1.
</event>
<event>
 5   0  0.7761069E-07  0.2299486E+04  0.7818609E-02  0.8478124E-01
        1   -1    0    0  501    0  0.00000000000E+00  0.00000000000E+00  0.16797403844E+04  0.16797403844E+04  0.50400001928E-02 0. -1.
       -1   -1    0    0    0  501  0.00000000000E+00  0.00000000000E+00 -0.78697249368E+03  0.78697249370E+03  0.50400001928E-02 0.  1.
    10030    2    1    2    0    0  0.00000000000E+00  0.00000000000E+00  0.89276789072E+03  0.24667128781E+04  0.22994864462E+04 0.  0.
        1    1    3    3  502    0 -0.36150130260E+03  0.24916970478E+03 -0.69350301808E+03  0.82080154098E+03  0.50400001928E-02 0.  1.
       -1    1    3    3    0  502  0.36150130260E+03 -0.24916970478E+03  0.15862709088E+04  0.16459113371E+04  0.50400001928E-02 0. -1.
</event>
<event>
 5   0  0.7761069E-07  0.2302133E+04  0.7818609E-02  0.8477081E-01
        1   -1    0    0  501    0  0.00000000000E+00  0.00000000000E+00  0.84944202646E+03  0.84944202647E+03  0.50400001928E-02 0.  1.
       -1   -1    0    0    0  501  0.00000000000E+00  0.00000000000E+00 -0.15597930793E+04  0.15597930793E+04  0.50400001928E-02 0. -1.
    10030    2    1    2    0    0  0.00000000000E+00  0.00000000000E+00 -0.71035105287E+03  0.24092351058E+04  0.23021327452E+04 0.  0.
        1    1    3    3  502    0  0.82831113333E+03 -0.34681329787E+03  0.39844827697E+03  0.98241530252E+03  0.50400001928E-02 0.  1.
       -1    1    3    3    0  502 -0.82831113333E+03  0.34681329787E+03 -0.11087993298E+04  0.14268198033E+04  0.50400001928E-02 0. -1.
</event>
<event>
 5   0  0.8097672E-07  0.2297197E+04  0.7818609E-02  0.8479027E-01
        1   -1    0    0  501    0  0.00000000000E+00  0.00000000000E+00  0.14886832685E+04  0.14886832685E+04  0.50400001928E-02 0. -1.
       -1   -1    0    0    0  501  0.00000000000E+00  0.00000000000E+00 -0.88620487135E+03  0.88620487136E+03  0.50400001928E-02 0.  1.
    10030    2    1    2    0    0  0.00000000000E+00  0.00000000000E+00  0.60247839715E+03  0.23748881399E+04  0.22971968696E+04 0.  0.
        3    1    3    3  502    0 -0.10575587700E+04 -0.73209546484E+02  0.75833283736E+03  0.13034028127E+04  0.10100000352E+00 0. -1.
       -3    1    3    3    0  502  0.10575587700E+04  0.73209546484E+02 -0.15585444021E+03  0.10714853272E+04  0.10100000352E+00 0.  1.
</event>
<event>
 5   0  0.1744876E-06  0.2299852E+04  0.7818609E-02  0.8477980E-01
        2   -1    0    0  501    0  0.00000000000E+00  0.00000000000E+00  0.11761380042E+04  0.11761380042E+04  0.25500000920E-02 0.  1.
       -2   -1    0    0    0  501  0.00000000000E+00  0.00000000000E+00 -0.11242976990E+04  0.11242976990E+04  0.25500000920E-02 0. -1.
    10030    2    1    2    0    0  0.00000000000E+00  0.00000000000E+00  0.51840305164E+02  0.23004357032E+04  0.22998515186E+04 0.  0.
        1    1    3    3  502    0 -0.12186711331E+03  0.55099406027E+03  0.10281143758E+04  0.11728022926E+04  0.50400001928E-02 0.  1.
       -1    1    3    3    0  502  0.12186711331E+03 -0.55099406027E+03 -0.97627407064E+03  0.11276334106E+04  0.50400001928E-02 0. -1.
</event>
<event>
 5   0  0.7932912E-07  0.2299670E+04  0.7818609E-02  0.8478051E-01
       -1   -1    0    0    0  501  0.00000000000E+00  0.00000000000E+00  0.13859522462E+04  0.13859522462E+04  0.50400001928E-02 0.  1.
        1   -1    0    0  501    0  0.00000000000E+00  0.00000000000E+00 -0.95394352516E+03  0.95394352517E+03  0.50400001928E-02 0. -1.
    10030    2    1    2    0    0  0.00000000000E+00  0.00000000000E+00  0.43200872102E+03  0.23398957714E+04  0.22996696906E+04 0.  0.
        5    1    3    3  502    0 -0.73643683565E+03 -0.48772126837E+03 -0.53300173226E+03  0.10316608867E+04  0.46999998093E+01 0. -1.
       -5    1    3    3    0  502  0.73643683565E+03  0.48772126837E+03  0.96501045329E+03  0.13082348847E+04  0.46999998093E+01 0.  1.
</event>
<event>
 5   0  0.1744876E-06  0.2298742E+04  0.7818609E-02  0.8478417E-01
        2   -1    0    0  501    0  0.00000000000E+00  0.00000000000E+00  0.12623271419E+04  0.12623271419E+04  0.25500000920E-02 0. -1.
       -2   -1    0    0    0  501  0.00000000000E+00  0.00000000000E+00 -0.10465228998E+04  0.10465228998E+04  0.25500000920E-02 0.  1.
    10030    2    1    2    0    0  0.00000000000E+00  0.00000000000E+00  0.21580424208E+03  0.23088500416E+04  0.22987424919E+04 0.  0.
        1    1    3    3  502    0 -0.34308135883E+02 -0.19794359463E+03  0.12445562988E+04  0.12606661317E+04  0.50400001928E-02 0. -1.
       -1    1    3    3    0  502  0.34308135883E+02  0.19794359463E+03 -0.10287520567E+04  0.10481839099E+04  0.50400001928E-02 0.  1.
</event>
<event>
 5   0  0.1828646E-06  0.2300015E+04  0.7818609E-02  0.8477915E-01
        2   -1    0    0  501    0  0.00000000000E+00  0.00000000000E+00  0.99666844130E+03  0.99666844130E+03  0.25500000920E-02 0.  1.
       -2   -1    0    0    0  501  0.00000000000E+00  0.00000000000E+00 -0.13269380522E+04  0.13269380522E+04  0.25500000920E-02 0. -1.
    10030    2    1    2    0    0  0.00000000000E+00  0.00000000000E+00 -0.33026961092E+03  0.23236064935E+04  0.23000150262E+04 0.  0.
        3    1    3    3  502    0  0.24954256707E+03 -0.10732931470E+04  0.16731131415E+03  0.11145504736E+04  0.10100000352E+00 0.  1.
       -3    1    3    3    0  502 -0.24954256707E+03  0.10732931470E+04 -0.49758092507E+03  0.12090560199E+04  0.10100000352E+00 0. -1.
</event>
<event>
 5   0  0.1689444E-06  0.2299567E+04  0.7818609E-02  0.8478092E-01
       -2   -1    0    0    0  501  0.00000000000E+00  0.00000000000E+00  0.18351686068E+04  0.18351686068E+04  0.25500000920E-02 0.  1.
        2   -1    0    0  501    0  0.00000000000E+00  0.00000000000E+00 -0.72037063389E+03  0.72037063389E+03  0.25500000920E-02 0. -1.
    10030    2    1    2    0    0  0.00000000000E+00  0.00000000000E+00  0.11147979729E+04  0.25555392407E+04  0.22995665440E+04 0.  0.
        2    1    3    3  502    0  0.96634354100E+03 -0.14408607396E+03  0.12310244919E+04  0.15716239803E+04  0.25500000920E-02 0.  1.
       -2    1    3    3    0  502 -0.96634354100E+03  0.14408607396E+03 -0.11622651894E+03  0.98391526040E+03  0.25500000920E-02 0. -1.
</event>
<event>
 5   0  0.7607231E-07  0.2302816E+04  0.7818609E-02  0.8476812E-01
       -1   -1    0    0    0  501  0.00000000000E+00  0.00000000000E+00  0.11438938012E+04  0.11438938012E+04  0.50400001928E-02 0. -1.
        1   -1    0    0  501    0  0.00000000000E+00  0.00000000000E+00 -0.11589718168E+04  0.11589718168E+04  0.50400001928E-02 0.  1.
    10030    2    1    2    0    0  0.00000000000E+00  0.00000000000E+00 -0.15078015603E+02  0.23028656181E+04  0.23028162559E+04 0.  0.
        2    1    3    3  502    0 -0.12307003865E+03 -0.17430250310E+03  0.11239502608E+04  0.11440243816E+04  0.25500000920E-02 0. -1.
       -2    1    3    3    0  502  0.12307003865E+03  0.17430250310E+03 -0.11390282764E+04  0.11588412365E+04  0.25500000920E-02 0.  1.
</event>
<event>
 5   0  0.1825521E-06  0.2304810E+04  0.7818609E-02  0.8476027E-01
        2   -1    0    0  501    0  0.00000000000E+00  0.00000000000E+00  0.10057352861E+04  0.10057352861E+04  0.25500000920E-02 0.  1.
       -2   -1    0    0    0  501  0.00000000000E+00  0.00000000000E+00 -0.13204643968E+04  0.13204643968E+04  0.25500000920E-02 0. -1.
    10030    2    1    2    0    0  0.00000000000E+00  0.00000000000E+00 -0.31472911073E+03  0.23261996829E+04  0.23048103071E+04 0.  0.
        5    1    3    3  502    0 -0.48722802562E+03  0.10312879831E+04 -0.32341952595E+03  0.11855666716E+04  0.46999998093E+01 0. -1.
       -5    1    3    3    0  502  0.48722802562E+03 -0.10312879831E+04  0.86904152254E+01  0.11406330113E+04  0.46999998093E+01 0.  1.
</event>
<event>
 5   0  0.6319125E-07  0.2300489E+04  0.7818609E-02  0.8477728E-01
       -3   -1    0    0    0  501  0.00000000000E+00  0.00000000000E+00  0.19072958231E+04  0.19072958258E+04  0.10100000352E+00 0. -1.
        3   -1    0    0  501    0  0.00000000000E+00  0.00000000000E+00 -0.69368473813E+03  0.69368474549E+03  0.10100000352E+00 0.  1.
    10030    2    1    2    0    0  0.00000000000E+00  0.00000000000E+00  0.12136110850E+04  0.26009805713E+04  0.23004886582E+04 0.  0.
        4    1    3    3  502    0  0.54997569215E+03 -0.34954543991E+03 -0.46484483816E+03  0.80046087536E+03  0.12699999809E+01 0.  1.
       -4    1    3    3    0  502 -0.54997569215E+03  0.34954543991E+03  0.16784559231E+04  0.18005196959E+04  0.12699999809E+01 0. -1.
</event>
<event>
 5   0  0.1825521E-06  0.2295433E+04  0.7818609E-02  0.8479724E-01
       -2   -1    0    0    0  501  0.00000000000E+00  0.00000000000E+00  0.11088409666E+04  0.11088409666E+04  0.25500000920E-02 0. -1.
        2   -1    0    0  501    0  0.00000000000E+00  0.00000000000E+00 -0.11879554684E+04  0.11879554684E+04  0.25500000920E-02 0.  1.
    10030    2    1    2    0    0  0.00000000000E+00  0.00000000000E+00 -0.79114501769E+02  0.22967964350E+04  0.22954334578E+04 0.  0.
        5    1    3    3  502    0  0.37269657249E+03 -0.10449399695E+04 -0.33372046222E+03  0.11585308420E+04  0.46999998093E+01 0.  1.
       -5    1    3    3    0  502 -0.37269657249E+03  0.10449399695E+04  0.25460596045E+03  0.11382655930E+04  0.46999998093E+01 0. -1.
</event>
<event>
 5   0  0.1744876E-06  0.2309170E+04  0.7818609E-02  0.8474314E-01
       -2   -1    0    0    0  501  0.00000000000E+00  0.00000000000E+00  0.63139500527E+03  0.63139500527E+03  0.25500000920E-02 0. -1.
        2   -1    0    0  501    0  0.00000000000E+00  0.00000000000E+00 -0.21113027549E+04  0.21113027549E+04  0.25500000920E-02 0.  1.
    10030    2    1    2    0    0  0.00000000000E+00  0.00000000000E+00 -0.14799077496E+04  0.27426977601E+04  0.23091695598E+04 0.  0.
        1    1    3    3  502    0  0.49606310080E+03 -0.46190326246E+03 -0.18501164713E+04  0.19703715845E+04  0.50400001928E-02 0.  1.
       -1    1    3    3    0  502 -0.49606310080E+03  0.46190326246E+03  0.37020872170E+03  0.77232617558E+03  0.50400001928E-02 0. -1.
</event>
<event>
 5   0  0.1689444E-06  0.2303349E+04  0.7818609E-02  0.8476602E-01
        2   -1    0    0  501    0  0.00000000000E+00  0.00000000000E+00  0.10616772852E+04  0.10616772852E+04  0.25500000920E-02 0.  1.
       -2   -1    0    0    0  501  0.00000000000E+00  0.00000000000E+00 -0.12493010089E+04  0.12493010089E+04  0.25500000920E-02 0. -1.
    10030    2    1    2    0    0  0.00000000000E+00  0.00000000000E+00 -0.18762372364E+03  0.23109782941E+04  0.23033493036E+04 0.  0.
        2    1    3    3  502    0 -0.65132973601E+03  0.72749166577E+03  0.51884962589E+03  0.11057483814E+04  0.25500000920E-02 0.  1.
       -2    1    3    3    0  502  0.65132973601E+03 -0.72749166577E+03 -0.70647334953E+03  0.12052299127E+04  0.25500000920E-02 0. -1.
</event>
<event>
 5   0  0.7607231E-07  0.2286509E+04  0.7818609E-02  0.8483259E-01
       -1   -1    0    0    0  501  0.00000000000E+00  0.00000000000E+00  0.17072665074E+04  0.17072665074E+04  0.50400001928E-02 0. -1.
        1   -1    0    0  501    0  0.00000000000E+00  0.00000000000E+00 -0.76556932418E+03  0.76556932420E+03  0.50400001928E-02 0.  1.
    10030    2    1    2    0    0  0.00000000000E+00  0.00000000000E+00  0.94169718320E+03  0.24728358316E+04  0.22865090127E+04 0.  0.
        2    1    3    3  502    0 -0.37883299607E+03 -0.96903129567E+03  0.98326790073E+03  0.14315557466E+04  0.25500000920E-02 0. -1.
       -2    1    3    3    0  502  0.37883299607E+03  0.96903129567E+03 -0.41570717526E+02  0.10412800850E+04  0.25500000920E-02 0.  1.
</event>
<event>
 5   0  0.7607231E-07  0.2283478E+04  0.7818609E-02  0.8484464E-01
       -1   -1    0    0    0  501  0.00000000000E+00  0.00000000000E+00  0.14127695458E+04  0.14127695458E+04  0.50400001928E-02 0. -1.
        1   -1    0    0  501    0  0.00000000000E+00  0.00000000000E+00 -0.92270416669E+03  0.92270416671E+03  0.50400001928E-02 0.  1.
    10030    2    1    2    0    0  0.00000000000E+00  0.00000000000E+00  0.49006537911E+03  0.23354737125E+04  0.22834783524E+04 0.  0.
        2    1    3    3  502    0 -0.74714880941E+03  0.46770465893E+03 -0.49715564225E+03  0.10119993696E+04  0.25500000920E-02 0.  1.
       -2    1    3    3    0  502  0.74714880941E+03 -0.46770465893E+03  0.98722102137E+03  0.13234743429E+04  0.25500000920E-02 0. -1.
</event>
<event>
 5   0  0.1825521E-06  0.2301987E+04  0.7818609E-02  0.8477138E-01
        2   -1    0    0  501    0  0.00000000000E+00  0.00000000000E+00  0.22711210288E+04  0.22711210288E+04  0.25500000920E-02 0.  1.
       -2   -1    0    0    0  501  0.00000000000E+00  0.00000000000E+00 -0.58331831123E+03  0.58331831124E+03  0.25500000920E-02 0. -1.
    10030    2    1    2    0    0  0.00000000000E+00  0.00000000000E+00  0.16878027175E+04  0.28544393400E+04  0.23019873876E+04 0.  0.
        5    1    3    3  502    0 -0.28722202533E+02 -0.49464789036E+03 -0.44429332065E+03  0.66552246027E+03  0.46999998093E+01 0. -1.
       -5    1    3    3    0  502  0.28722202533E+02  0.49464789036E+03  0.21320960382E+04  0.21889168797E+04  0.46999998093E+01 0.  1.
</event>
<event>
 5   0  0.1828646E-06  0.2299462E+04  0.7818609E-02  0.8478133E-01
        2   -1    0    0  501    0  0.00000000000E+00  0.00000000000E+00  0.10599860383E+04  0.10599860383E+04  0.25500000920E-02 0.  1.
       -2   -1    0    0    0  501  0.00000000000E+00  0.00000000000E+00 -0.12470748596E+04  0.12470748596E+04  0.25500000920E-02 0. -1.
    10030    2    1    2    0    0  0.00000000000E+00  0.00000000000E+00 -0.18708882123E+03  0.23070608979E+04  0.22994624936E+04 0.  0.
        3    1    3    3  502    0  0.20853167331E+03 -0.96995512195E+02  0.10366718318E+04  0.10618766808E+04  0.10100000352E+00 0.  1.
       -3    1    3    3    0  502 -0.20853167331E+03  0.96995512195E+02 -0.12237606531E+04  0.12451842170E+04  0.10100000352E+00 0. -1.
</event>
<event>
 5   0  0.7607231E-07  0.2300858E+04  0.7818609E-02  0.8477583E-01
        1   -1    0    0  501    0  0.00000000000E+00  0.00000000000E+00  0.20966420111E+04  0.20966420111E+04  0.50400001928E-02 0. -1.
       -1   -1    0    0    0  501  0.00000000000E+00  0.00000000000E+00 -0.63124150441E+03  0.63124150443E+03  0.50400001928E-02 0.  1.
    10030    2    1    2    0    0  0.00000000000E+00  0.00000000000E+00  0.14654005067E+04  0.27278835156E+04  0.23008584983E+04 0.  0.
        2    1    3    3  502    0 -0.89162202167E+03 -0.34242029885E+03  0.14930033103E+04  0.17723713987E+04  0.25500000920E-02 0. -1.
       -2    1    3    3    0  502  0.89162202167E+03  0.34242029885E+03 -0.27602803566E+02  0.95551211681E+03  0.25500000920E-02 0.  1.
</event>
<event>
 5   0  0.1689444E-06  0.2299032E+04  0.7818609E-02  0.8478303E-01
        2   -1    0    0  501    0  0.00000000000E+00  0.00000000000E+00  0.25071432146E+04  0.25071432146E+04  0.25500000920E-02 0. -1.
       -2   -1    0    0    0  501  0.00000000000E+00  0.00000000000E+00 -0.52704884951E+03  0.52704884952E+03  0.25500000920E-02 0.  1.
    10030    2    1    2    0    0  0.00000000000E+00  0.00000000000E+00  0.19800943651E+04  0.30341920641E+04  0.22990319239E+04 0.  0.
        2    1    3    3  502    0  0.27787845363E+03  0.10403922906E+04  0.15208413098E+04  0.18634888899E+04  0.25500000920E-02 0. -1.
       -2    1    3    3    0  502 -0.27787845363E+03 -0.10403922906E+04  0.45925305528E+03  0.11707031742E+04  0.25500000920E-02 0.  1.
</event>
<event>
 5   0  0.7607231E-07  0.2300838E+04  0.7818609E-02  0.8477591E-01
        1   -1    0    0  501    0  0.00000000000E+00  0.00000000000E+00  0.15052925625E+04  0.15052925625E+04  0.50400001928E-02 0. -1.
       -1   -1    0    0    0  501  0.00000000000E+00  0.00000000000E+00 -0.87920696479E+03  0.87920696480E+03  0.50400001928E-02 0.  1.
    10030    2    1    2    0    0  0.00000000000E+00  0.00000000000E+00  0.62608559768E+03  0.23844995273E+04  0.23008378517E+04 0.  0.
        2    1    3    3  502    0 -0.19798065006E+03  0.29101808072E+03 -0.82203357226E+03  0.89421868412E+03  0.25500000920E-02 0.  1.
       -2    1    3    3    0  502  0.19798065006E+03 -0.29101808072E+03  0.14481191699E+04  0.14902808432E+04  0.25500000920E-02 0. -1.
</event>
<event>
 5   0  0.8097672E-07  0.2300492E+04  0.7818609E-02  0.8477727E-01
       -1   -1    0    0    0  501  0.00000000000E+00  0.00000000000E+00  0.11596574880E+04  0.11596574880E+04  0.50400001928E-02 0. -1.
        1   -1    0    0  501    0  0.00000000000E+00  0.00000000000E+00 -0.11409110716E+04  0.11409110716E+04  0.50400001928E-02 0.  1.
    10030    2    1    2    0    0  0.00000000000E+00  0.00000000000E+00  0.18746416377E+02  0.23005685596E+04  0.23004921798E+04 0.  0.
        3    1    3    3  502    0  0.69563213580E+03  0.37982760995E+03  0.84300329354E+03  0.11570771991E+04  0.10100000352E+00 0. -1.
       -3    1    3    3    0  502 -0.69563213580E+03 -0.37982760995E+03 -0.82425687717E+03  0.11434913604E+04  0.10100000352E+00 0.  1.
</event>
<event>
 5   0  0.1744876E-06  0.2300306E+04  0.7818609E-02  0.8477800E-01
        2   -1    0    0  501    0  0.00000000000E+00  0.00000000000E+00  0.14013581443E+04  0.14013581443E+04  0.25500000920E-02 0.  1.
       -2   -1    0    0    0  501  0.00000000000E+00  0.00000000000E+00 -0.94397847123E+03  0.94397847124E+03  0.25500000920E-02 0. -1.
    10030    2    1    2    0    0  0.00000000000E+00  0.00000000000E+00  0.45737967307E+03  0.23453366155E+04  0.23003059959E+04 0.  0.
        1    1    3    3  502    0  0.76770116212E+03 -0.66383626782E+02 -0.64188714948E+03  0.10028913066E+04  0.50400001928E-02 0. -1.
       -1    1    3    3    0  502 -0.76770116212E+03  0.66383626782E+02  0.10992668225E+04  0.13424453089E+04  0.50400001928E-02 0.  1.
</event>
<event>
 5   0  0.7607231E-07  0.2299296E+04  0.7818609E-02  0.8478199E-01
        1   -1    0    0  501    0  0.00000000000E+00  0.00000000000E+00  0.23941055629E+04  0.23941055630E+04  0.50400001928E-02 0. -1.
       -1   -1    0    0    0  501  0.00000000000E+00  0.00000000000E+00 -0.55206031342E+03  0.55206031345E+03  0.50400001928E-02 0.  1.
    10030    2    1    2    0    0  0.00000000000E+00  0.00000000000E+00  0.18420452495E+04  0.29461658764E+04  0.22992961249E+04 0.  0.
        2    1    3    3  502    0 -0.83491430280E+03 -0.70515858923E+03  0.46374595001E+03  0.11871776763E+04  0.25500000920E-02 0.  1.
       -2    1    3    3    0  502  0.83491430280E+03  0.70515858923E+03  0.13782992995E+04  0.17589882001E+04  0.25500000920E-02 0. -1.
</event>
<event>
 5   0  0.1744876E-06  0.2299611E+04  0.7818609E-02  0.8478075E-01
        2   -1    0    0  501    0  0.00000000000E+00  0.00000000000E+00  0.66666186141E+03  0.66666186142E+03  0.25500000920E-02 0.  1.
       -2   -1    0    0    0  501  0.00000000000E+00  0.00000000000E+00 -0.19830929428E+04  0.19830929428E+04  0.25500000920E-02 0. -1.
    10030    2    1    2    0    0  0.00000000000E+00  0.00000000000E+00 -0.13164310814E+04  0.26497548042E+04  0.22996107780E+04 0.  0.
        1    1    3    3  502    0 -0.96060130699E+03 -0.42535768125E+03 -0.11976445950E+03  0.10573682205E+04  0.50400001928E-02 0.  1.
       -1    1    3    3    0  502  0.96060130699E+03  0.42535768125E+03 -0.11966666219E+04  0.15923865837E+04  0.50400001928E-02 0. -1.
</event>
<event>
 5   0  0.1828646E-06  0.2299844E+04  0.7818609E-02  0.8477983E-01
        2   -1    0    0  501    0  0.00000000000E+00  0.00000000000E+00  0.16989101403E+04  0.16989101403E+04  0.25500000920E-02 0.  1.
       -2   -1    0    0    0  501  0.00000000000E+00  0.00000000000E+00 -0.77833450246E+03  0.77833450247E+03  0.25500000920E-02 0. -1.
    10030    2    1    2    0    0  0.00000000000E+00  0.00000000000E+00  0.92057563783E+03  0.24772446428E+04  0.22998438023E+04 0.  0.
        3    1    3    3  502    0  0.84961963542E+03 -0.66498540350E+03  0.31780877124E+02  0.10793836881E+04  0.10100000352E+00 0. -1.
       -3    1    3    3    0  502 -0.84961963542E+03  0.66498540350E+03  0.88879476070E+03  0.13978609547E+04  0.10100000352E+00 0.  1.
</event>
<event>
 5   0  0.7761069E-07  0.2300177E+04  0.7818609E-02  0.8477851E-01
       -1   -1    0    0    0  501  0.00000000000E+00  0.00000000000E+00  0.12488594959E+04  0.12488594959E+04  0.50400001928E-02 0. -1.
        1   -1    0    0  501    0  0.00000000000E+00  0.00000000000E+00 -0.10591288639E+04  0.10591288639E+04  0.50400001928E-02 0.  1.
    10030    2    1    2    0    0  0.00000000000E+00  0.00000000000E+00  0.18973063202E+03  0.23079883598E+04  0.23001766359E+04 0.  0.
        1    1    3    3  502    0 -0.59701267304E+03 -0.94198209802E+03  0.37679773145E+03  0.11771707332E+04  0.50400001928E-02 0. -1.
       -1    1    3    3    0  502  0.59701267304E+03  0.94198209802E+03 -0.18706709943E+03  0.11308176265E+04  0.50400001928E-02 0.  1.
</event>
<event>
 5   0  0.7761069E-07  0.2299500E+04  0.7818609E-02  0.8478118E-01
       -1   -1    0    0    0  501  0.00000000000E+00  0.00000000000E+00  0.14015285292E+04  0.14015285292E+04  0.50400001928E-02 0.  1.
        1   -1    0    0  501    0  0.00000000000E+00  0.00000000000E+00 -0.94320241346E+03  0.94320241347E+03  0.50400001928E-02 0. -1.
    10030    2    1    2    0    0  0.00000000000E+00  0.00000000000E+00  0.45832611574E+03  0.23447309427E+04  0.22995000250E+04 0.  0.
        1    1    3    3  502    0 -0.28484755362E+03 -0.10218245806E+04 -0.22302517590E+03  0.10839759367E+04  0.50400001928E-02 0. -1.
       -1    1    3    3    0  502  0.28484755362E+03  0.10218245806E+04  0.68135129163E+03  0.12607550059E+04  0.50400001928E-02 0.  1.
</event>
<event>
 5   0  0.1744876E-06  0.2304744E+04  0.7818609E-02  0.8476053E-01
        2   -1    0    0  501    0  0.00000000000E+00  0.00000000000E+00  0.16374933168E+04  0.16374933168E+04  0.25500000920E-02 0.  1.
       -2   -1    0    0    0  501  0.00000000000E+00  0.00000000000E+00 -0.81097168923E+03  0.81097168923E+03  0.25500000920E-02 0. -1.
    10030    2    1    2    0    0  0.00000000000E+00  0.00000000000E+00  0.82652162757E+03  0.24484650060E+04  0.23047435616E+04 0.  0.
        1    1    3    3  502    0 -0.20309248147E+03 -0.42765283220E+02 -0.79095262757E+03  0.81772946906E+03  0.50400001928E-02 0. -1.
       -1    1    3    3    0  502  0.20309248147E+03  0.42765283220E+02  0.16174742551E+04  0.16307355370E+04  0.50400001928E-02 0.  1.
</event>
<event>
 5   0  0.7607231E-07  0.2301428E+04  0.7818609E-02  0.8477358E-01
       -1   -1    0    0    0  501  0.00000000000E+00  0.00000000000E+00  0.73916030585E+03  0.73916030587E+03  0.50400001928E-02 0.  1.
        1   -1    0    0  501    0  0.00000000000E+00  0.00000000000E+00 -0.17914141628E+04  0.17914141628E+04  0.50400001928E-02 0. -1.
    10030    2    1    2    0    0  0.00000000000E+00  0.00000000000E+00 -0.10522538570E+04  0.25305744687E+04  0.23014275922E+04 0.  0.
        2    1    3    3  502    0 -0.86388052850E+02 -0.26496906765E+02 -0.17875070968E+04  0.17897895415E+04  0.25500000920E-02 0. -1.
       -2    1    3    3    0  502  0.86388052850E+02  0.26496906765E+02  0.73525323981E+03  0.74078492722E+03  0.25500000920E-02 0.  1.
</event>
<event>
 5   0  0.7761069E-07  0.2298681E+04  0.7818609E-02  0.8478441E-01
        1   -1    0    0  501    0  0.00000000000E+00  0.00000000000E+00  0.15328195362E+04  0.15328195362E+04  0.50400001928E-02 0.  1.
       -1   -1    0    0    0  501  0.00000000000E+00  0.00000000000E+00 -0.86179989057E+03  0.86179989058E+03  0.50400001928E-02 0. -1.
    10030    2    1    2    0    0  0.00000000000E+00  0.00000000000E+00  0.67101964567E+03  0.23946194268E+04  0.22986811076E+04 0.  0.
        1    1    3    3  502    0 -0.11287945858E+04 -0.20268130656E+03  0.41434372201E+03  0.12194005286E+04  0.50400001928E-02 0. -1.
       -1    1    3    3    0  502  0.11287945858E+04  0.20268130656E+03  0.25667592366E+03  0.11752188983E+04  0.50400001928E-02 0.  1.
</event>
<event>
 5   0  0.1828646E-06  0.2300606E+04  0.7818609E-02  0.8477682E-01
        2   -1    0    0  501    0  0.00000000000E+00  0.00000000000E+00  0.90658317448E+03  0.90658317449E+03  0.25500000920E-02 0.  1.
       -2   -1    0    0    0  501  0.00000000000E+00  0.00000000000E+00 -0.14595423207E+04  0.14595423207E+04  0.25500000920E-02 0. -1.
    10030    2    1    2    0    0  0.00000000000E+00  0.00000000000E+00 -0.55295914626E+03  0.23661254952E+04  0.23006055815E+04 0.  0.
        3    1    3    3  502    0  0.69288105067E+03  0.34358615556E+03  0.59927587947E+03  0.97840032021E+03  0.10100000352E+00 0.  1.
       -3    1    3    3    0  502 -0.69288105067E+03 -0.34358615556E+03 -0.11522350257E+04  0.13877251750E+04  0.10100000352E+00 0. -1.
</event>
<event>
 5   0  0.8108242E-07  0.2300918E+04  0.7818609E-02  0.8477559E-01
        1   -1    0    0  501    0  0.00000000000E+00  0.00000000000E+00  0.16074404941E+04  0.16074404942E+04  0.50400001928E-02 0.  1.
       -1   -1    0    0    0  501  0.00000000000E+00  0.00000000000E+00 -0.82339316982E+03  0.82339316983E+03  0.50400001928E-02 0. -1.
    10030    2    1    2    0    0  0.00000000000E+00  0.00000000000E+00  0.78404732433E+03  0.24308336640E+04  0.23009176637E+04 0.  0.
        4    1    3    3  502    0  0.52464535633E+03  0.43307350326E+02 -0.68868429480E+03  0.86684251587E+03  0.12699999809E+01 0. -1.
       -4    1    3    3    0  502 -0.52464535633E+03 -0.43307350326E+02  0.14727316191E+04  0.15639911481E+04  0.12699999809E+01 0.  1.
</event>
<event>
 5   0  0.8108242E-07  0.2300842E+04  0.7818609E-02  0.8477589E-01
        1   -1    0    0  501    0  0.00000000000E+00  0.00000000000E+00  0.10591705381E+04  0.10591705381E+04  0.50400001928E-02 0. -1.
       -1   -1    0    0    0  501  0.00000000000E+00  0.00000000000E+00 -0.12495324485E+04  0.12495324485E+04  0.50400001928E-02 0.  1.
    10030    2    1    2    0    0  0.00000000000E+00  0.00000000000E+00 -0.19036191041E+03  0.23087029866E+04  0.23008415467E+04 0.  0.
        4    1    3    3  502    0  0.77143090025E+03 -0.53857343978E+03 -0.75948480853E+03  0.12091260361E+04  0.12699999809E+01 0.  1.
       -4    1    3    3    0  502 -0.77143090025E+03  0.53857343978E+03  0.56912289811E+03  0.10995769505E+04  0.12699999809E+01 0. -1.
</event>
<event>
 5   0  0.8108242E-07  0.2306384E+04  0.7818609E-02  0.8475408E-01
        1   -1    0    0  501    0  0.00000000000E+00  0.00000000000E+00  0.10220551605E+04  0.10220551605E+04  0.50400001928E-02 0. -1.
       -1   -1    0    0    0  501  0.00000000000E+00  0.00000000000E+00 -0.13011549515E+04  0.13011549515E+04  0.50400001928E-02 0.  1.
    10030    2    1    2    0    0  0.00000000000E+00  0.00000000000E+00 -0.27909979101E+03  0.23232101121E+04  0.23063842983E+04 0.  0.
        4    1    3    3  502    0 -0.10173093706E+04  0.53030109375E+03 -0.21593444365E+02  0.11474343098E+04  0.12699999809E+01 0. -1.
       -4    1    3    3    0  502  0.10173093706E+04 -0.53030109375E+03 -0.25750634665E+03  0.11757758022E+04  0.12699999809E+01 0.  1.
</event>
<event>
 5   0  0.1689444E-06  0.2299923E+04  0.7818609E-02  0.8477952E-01
        2   -1    0    0  501    0  0.00000000000E+00  0.00000000000E+00  0.16656477689E+04  0.16656477689E+04  0.25500000920E-02 0.  1.
       -2   -1    0    0    0  501  0.00000000000E+00  0.00000000000E+00 -0.79393211614E+03  0.79393211615E+03  0.25500000920E-02 0. -1.
    10030    2    1    2    0    0  0.00000000000E+00  0.00000000000E+00  0.87171565271E+03  0.24595798850E+04  0.22999228316E+04 0.  0.
        2    1    3    3  502    0  0.99395306231E+02 -0.48622340898E+03  0.15452312116E+04  0.16229701561E+04  0.25500000920E-02 0.  1.
       -2    1    3    3    0  502 -0.99395306231E+02  0.48622340898E+03 -0.67351555891E+03  0.83660972887E+03  0.25500000920E-02 0. -1.
</event>
<event>
 5   0  0.1888779E-06  0.2299552E+04  0.7818609E-02  0.8478098E-01
        2   -1    0    0  501    0  0.00000000000E+00  0.00000000000E+00  0.29274132322E+04  0.29274132322E+04  0.25500000920E-02 0. -1.
       -2   -1    0    0    0  501  0.00000000000E+00  0.00000000000E+00 -0.45158823323E+03  0.45158823324E+03  0.25500000920E-02 0.  1.
    10030    2    1    2    0    0  0.00000000000E+00  0.00000000000E+00  0.24758249990E+04  0.33790014654E+04  0.22995524517E+04 0.  0.
        4    1    3    3  502    0 -0.21119694721E+02  0.38113468717E+03 -0.35576088962E+03  0.52180179642E+03  0.12699999809E+01 0.  1.
       -4    1    3    3    0  502  0.21119694721E+02 -0.38113468717E+03  0.28315858886E+04  0.28571996690E+04  0.12699999809E+01 0. -1.
</event>
<event>
 5   0  0.1828646E-06  0.2300949E+04  0.7818609E-02  0.8477547E-01
        2   -1    0    0  501    0  0.00000000000E+00  0.00000000000E+00  0.12599168032E+04  0.12599168032E+04  0.25500000920E-02 0. -1.
       -2   -1    0    0    0  501  0.00000000000E+00  0.00000000000E+00 -0.10505390075E+04  0.10505390075E+04  0.25500000920E-02 0.  1.
    10030    2    1    2    0    0  0.00000000000E+00  0.00000000000E+00  0.20937779565E+03  0.23104558107E+04  0.23009491502E+04 0.  0.
        3    1    3    3  502    0 -0.91632514564E+03 -0.12905829353E+03 -0.58171709227E+03  0.10930245200E+04  0.10100000352E+00 0.  1.
       -3    1    3    3    0  502  0.91632514564E+03  0.12905829353E+03  0.79109488792E+03  0.12174312907E+04  0.10100000352E+00 0. -1.
</event>
<event>
 5   0  0.8097672E-07  0.2299440E+04  0.7818609E-02  0.8478142E-01
        1   -1    0    0  501    0  0.00000000000E+00  0.00000000000E+00  0.18070342093E+04  0.18070342093E+04  0.50400001928E-02 0. -1.
       -1   -1    0    0    0  501  0.00000000000E+00  0.00000000000E+00 -0.73150567607E+03  0.73150567609E+03  0.50400001928E-02 0.  1.
    10030    2    1    2    0    0  0.00000000000E+00  0.00000000000E+00  0.10755285332E+04  0.25385398854E+04  0.22994397413E+04 0.  0.
        3    1    3    3  502    0 -0.76587754085E+02  0.19609682646E+03  0.17855745275E+04  0.17979421717E+04  0.10100000352E+00 0. -1.
       -3    1    3    3    0  502  0.76587754085E+02 -0.19609682646E+03 -0.71004599423E+03  0.74059771371E+03  0.10100000352E+00 0.  1.
</event>
<event>
 5   0  0.1828646E-06  0.2300175E+04  0.7818609E-02  0.8477852E-01
        2   -1    0    0  501    0  0.00000000000E+00  0.00000000000E+00  0.93012686371E+03  0.93012686371E+03  0.25500000920E-02 0.  1.
       -2   -1    0    0    0  501  0.00000000000E+00  0.00000000000E+00 -0.14220659913E+04  0.14220659913E+04  0.25500000920E-02 0. -1.
    10030    2    1    2    0    0  0.00000000000E+00  0.00000000000E+00 -0.49193912755E+03  0.23521928550E+04  0.23001754546E+04 0.  0.
        3    1    3    3  502    0  0.11200582329E+04 -0.26081234341E+03 -0.23351855691E+03  0.11734924159E+04  0.10100000352E+00 0. -1.
       -3    1    3    3    0  502 -0.11200582329E+04  0.26081234341E+03 -0.25842057064E+03  0.11787004391E+04  0.10100000352E+00 0.  1.
</event>
<event>
 5   0  0.1689444E-06  0.2299772E+04  0.7818609E-02  0.8478011E-01
        2   -1    0    0  501    0  0.00000000000E+00  0.00000000000E+00  0.99519456375E+03  0.99519456375E+03  0.25500000920E-02 0.  1.
       -2   -1    0    0    0  501  0.00000000000E+00  0.00000000000E+00 -0.13286226026E+04  0.13286226026E+04  0.25500000920E-02 0. -1.
    10030    2    1    2    0    0  0.00000000000E+00  0.00000000000E+00 -0.33342803884E+03  0.23238171663E+04  0.22997721551E+04 0.  0.
        2    1    3    3  502    0  0.13454711370E+03  0.88685124094E+03 -0.89370134464E+03  0.12662188368E+04  0.25500000920E-02 0. -1.
       -2    1    3    3    0  502 -0.13454711370E+03 -0.88685124094E+03  0.56027330580E+03  0.10575983295E+04  0.25500000920E-02 0.  1.
</event>
<event>
 5   0  0.8097672E-07  0.2311970E+04  0.7818609E-02  0.8473217E-01
       -1   -1    0    0    0  501  0.00000000000E+00  0.00000000000E+00  0.11489479066E+04  0.11489479066E+04  0.50400001928E-02 0.  1.
        1   -1    0    0  501    0  0.00000000000E+00  0.00000000000E+00 -0.11630647403E+04  0.11630647404E+04  0.50400001928E-02 0. -1.
    10030    2    1    2    0    0  0.00000000000E+00  0.00000000000E+00 -0.14116833738E+02  0.23120126470E+04  0.23119695488E+04 0.  0.
        3    1    3    3  502    0 -0.52035869546E+03 -0.21328391978E+03  0.10029295118E+04  0.11498394750E+04  0.10100000352E+00 0.  1.
       -3    1    3    3    0  502  0.52035869546E+03  0.21328391978E+03 -0.10170463456E+04  0.11621731720E+04  0.10100000352E+00 0. -1.
</event>
<event>
 5   0  0.1825521E-06  0.2298457E+04  0.7818609E-02  0.8478530E-01
       -2   -1    0    0    0  501  0.00000000000E+00  0.00000000000E+00  0.15815184258E+04  0.15815184258E+04  0.25500000920E-02 0. -1.
        2   -1    0    0  501    0  0.00000000000E+00  0.00000000000E+00 -0.83510004623E+03  0.83510004624E+03  0.25500000920E-02 0.  1.
    10030    2    1    2    0    0  0.00000000000E+00  0.00000000000E+00  0.74641837954E+03  0.24166184720E+04  0.22984569698E+04 0.  0.
        5    1    3    3  502    0 -0.21505485422E+03  0.66226677605E+03  0.13344628428E+04  0.15052106304E+04  0.46999998093E+01 0. -1.
       -5    1    3    3    0  502  0.21505485422E+03 -0.66226677605E+03 -0.58804446328E+03  0.91140784162E+03  0.46999998093E+01 0.  1.
</event>
<event>
 5   0  0.7932912E-07  0.2300597E+04  0.7818609E-02  0.8477686E-01
        1   -1    0    0  501    0  0.00000000000E+00  0.00000000000E+00  0.12635787507E+04  0.12635787507E+04  0.50400001928E-02 0.  1.
       -1   -1    0    0    0  501  0.00000000000E+00  0.00000000000E+00 -0.10471738930E+04  0.10471738930E+04  0.50400001928E-02 0. -1.
    10030    2    1    2    0    0  0.00000000000E+00  0.00000000000E+00  0.21640485770E+03  0.23107526438E+04  0.23005970352E+04 0.  0.
        5    1    3    3  502    0  0.10787236310E+04  0.12386891319E+03  0.48958426594E+03  0.11910932050E+04  0.46999998093E+01 0.  1.
       -5    1    3    3    0  502 -0.10787236310E+04 -0.12386891319E+03 -0.27317940824E+03  0.11196594387E+04  0.46999998093E+01 0. -1.
</event>
<event>
 5   0  0.1825521E-06  0.2298196E+04  0.7818609E-02  0.8478633E-01
       -2   -1    0    0    0  501  0.00000000000E+00  0.00000000000E+00  0.45821770972E+03  0.45821770973E+03  0.25500000920E-02 0.  1.
        2   -1    0    0  501    0  0.00000000000E+00  0.00000000000E+00 -0.28816579397E+04  0.28816579397E+04  0.25500000920E-02 0. -1.
    10030    2    1    2    0    0  0.00000000000E+00  0.00000000000E+00 -0.24234402300E+04  0.33398756495E+04  0.22981964245E+04 0.  0.
        5    1    3    3  502    0 -0.91562047392E+03 -0.48806633000E+03 -0.49410564095E+03  0.11492310774E+04  0.46999998093E+01 0.  1.
       -5    1    3    3    0  502  0.91562047392E+03  0.48806633000E+03 -0.19293345891E+04  0.21906445721E+04  0.46999998093E+01 0. -1.
</event>
<event>
 5   0  0.1744876E-06  0.2300574E+04  0.7818609E-02  0.8477695E-01
        2   -1    0    0  501    0  0.00000000000E+00  0.00000000000E+00  0.14595559975E+04  0.14595559975E+04  0.25500000920E-02 0. -1.
       -2   -1    0    0    0  501  0.00000000000E+00  0.00000000000E+00 -0.90654979327E+03  0.90654979328E+03  0.25500000920E-02 0.  1.
    10030    2    1    2    0    0  0.00000000000E+00  0.00000000000E+00  0.55300620426E+03  0.23661057908E+04  0.23005740048E+04 0.  0.
        1    1    3    3  502    0 -0.10117405445E+04  0.22695942702E+03 -0.23570996011E+03  0.10633384674E+04  0.50400001928E-02 0.  1.
       -1    1    3    3    0  502  0.10117405445E+04 -0.22695942702E+03  0.78871616437E+03  0.13027673234E+04  0.50400001928E-02 0. -1.
</event>
<event>
 5   0  0.1888779E-06  0.2300131E+04  0.7818609E-02  0.8477870E-01
       -2   -1    0    0    0  501  0.00000000000E+00  0.00000000000E+00  0.90771732710E+03  0.90771732710E+03  0.25500000920E-02 0. -1.
        2   -1    0    0  501    0  0.00000000000E+00  0.00000000000E+00 -0.14571170965E+04  0.14571170965E+04  0.25500000920E-02 0.  1.
    10030    2    1    2    0    0  0.00000000000E+00  0.00000000000E+00 -0.54939976936E+03  0.23648344236E+04  0.23001308102E+04 0.  0.
        4    1    3    3  502    0  0.73605166841E+03 -0.88367178876E+03 -0.27569369109E+03  0.11826480935E+04  0.12699999809E+01 0.  1.
       -4    1    3    3    0  502 -0.73605166841E+03  0.88367178876E+03 -0.27370607827E+03  0.11821863301E+04  0.12699999809E+01 0. -1.
</event>
<event>
 5   0  0.8097672E-07  0.2300422E+04  0.7818609E-02  0.8477755E-01
       -1   -1    0    0    0  501  0.00000000000E+00  0.00000000000E+00  0.89787764915E+03  0.89787764916E+03  0.50400001928E-02 0. -1.
        1   -1    0    0  501    0  0.00000000000E+00  0.00000000000E+00 -0.14734577530E+04  0.14734577530E+04  0.50400001928E-02 0.  1.
    10030    2    1    2    0    0  0.00000000000E+00  0.00000000000E+00 -0.57558010386E+03  0.23713354022E+04  0.23004215122E+04 0.  0.
        3    1    3    3  502    0 -0.66621651982E+03 -0.42748804292E+03  0.57243714120E+03  0.97686988332E+03  0.10100000352E+00 0. -1.
       -3    1    3    3    0  502  0.66621651982E+03  0.42748804292E+03 -0.11480172451E+04  0.13944655189E+04  0.10100000352E+00 0.  1.
</event>
<event>
 5   0  0.8108242E-07  0.2300551E+04  0.7818609E-02  0.8477704E-01
        1   -1    0    0  501    0  0.00000000000E+00  0.00000000000E+00  0.98558438971E+03  0.98558438972E+03  0.50400001928E-02 0.  1.
       -1   -1    0    0    0  501  0.00000000000E+00  0.00000000000E+00 -0.13424866479E+04  0.13424866479E+04  0.50400001928E-02 0. -1.
    10030    2    1    2    0    0  0.00000000000E+00  0.00000000000E+00 -0.35690225822E+03  0.23280710377E+04  0.23005511371E+04 0.  0.
        4    1    3    3  502    0  0.57154806393E+03  0.85734561704E+03  0.33896112588E+03  0.10847142270E+04  0.12699999809E+01 0.  1.
       -4    1    3    3    0  502 -0.57154806393E+03 -0.85734561704E+03 -0.69586338410E+03  0.12433568107E+04  0.12699999809E+01 0. -1.
</event>
<event>
 5   0  0.1744876E-06  0.2300365E+04  0.7818609E-02  0.8477777E-01
       -2   -1    0    0    0  501  0.00000000000E+00  0.00000000000E+00  0.77784978124E+03  0.77784978124E+03  0.25500000920E-02 0. -1.
        2   -1    0    0  501    0  0.00000000000E+00  0.00000000000E+00 -0.17007390561E+04  0.17007390561E+04  0.25500000920E-02 0.  1.
    10030    2    1    2    0    0  0.00000000000E+00  0.00000000000E+00 -0.92288927490E+03  0.24785888374E+04  0.23003647561E+04 0.  0.
        1    1    3    3  502    0 -0.72055631759E+03  0.43836704831E+03  0.38116152550E+03  0.92555452806E+03  0.50400001928E-02 0. -1.
       -1    1    3    3    0  502  0.72055631759E+03 -0.43836704831E+03 -0.13040508004E+04  0.15530343093E+04  0.50400001928E-02 0.  1.
</event>
<event>
 5   0  0.7761069E-07  0.2298056E+04  0.7818609E-02  0.8478688E-01
        1   -1    0    0  501    0  0.00000000000E+00  0.00000000000E+00  0.24644952167E+04  0.24644952167E+04  0.50400001928E-02 0. -1.
       -1   -1    0    0    0  501  0.00000000000E+00  0.00000000000E+00 -0.53571432277E+03  0.53571432280E+03  0.50400001928E-02 0.  1.
    10030    2    1    2    0    0  0.00000000000E+00  0.00000000000E+00  0.19287808939E+04  0.30002095395E+04  0.22980560359E+04 0.  0.
        1    1    3    3  502    0  0.50292121949E+03 -0.10049841422E+03  0.23067748065E+04  0.23630995942E+04  0.50400001928E-02 0. -1.
       -1    1    3    3    0  502 -0.50292121949E+03  0.10049841422E+03 -0.37799391264E+03  0.63710994522E+03  0.50400001928E-02 0.  1.
</event>
<event>
 5   0  0.1888779E-06  0.2300436E+04  0.7818609E-02  0.8477749E-01
       -2   -1    0    0    0  501  0.00000000000E+00  0.00000000000E+00  0.14256048814E+04  0.14256048814E+04  0.25500000920E-02 0. -1.
        2   -1    0    0  501    0  0.00000000000E+00  0.00000000000E+00 -0.92802837903E+03  0.92802837903E+03  0.25500000920E-02 0.  1.
    10030    2    1    2    0    0  0.00000000000E+00  0.00000000000E+00  0.49757650238E+03  0.23536332604E+04  0.23004362953E+04 0.  0.
        4    1    3    3  502    0  0.47932710715E+01 -0.11488156471E+04  0.30666318829E+03  0.11890518451E+04  0.12699999809E+01 0. -1.
       -4    1    3    3    0  502 -0.47932710715E+01  0.11488156471E+04  0.19091331409E+03  0.11645814153E+04  0.12699999809E+01 0.  1.
</event>
<event>
 5   0  0.1828646E-06  0.2300764E+04  0.7818609E-02  0.8477620E-01
       -2   -1    0    0    0  501  0.00000000000E+00  0.00000000000E+00  0.13411183943E+04  0.13411183943E+04  0.25500000920E-02 0. -1.
        2   -1    0    0  501    0  0.00000000000E+00  0.00000000000E+00 -0.98677285397E+03  0.98677285397E+03  0.25500000920E-02 0.  1.
    10030    2    1    2    0    0  0.00000000000E+00  0.00000000000E+00  0.35434554030E+03  0.23278912483E+04  0.23007644168E+04 0.  0.
        3    1    3    3  502    0 -0.56133793938E+03 -0.94884717375E+03  0.50963170672E+03  0.12145516572E+04  0.10100000352E+00 0. -1.
       -3    1    3    3    0  502  0.56133793938E+03  0.94884717375E+03 -0.15528616642E+03  0.11133395910E+04  0.10100000352E+00 0.  1.
</event>
<event>
 5   0  0.1825521E-06  0.2299743E+04  0.7818609E-02  0.8478022E-01
       -2   -1    0    0    0  501  0.00000000000E+00  0.00000000000E+00  0.81378525637E+03  0.81378525637E+03  0.25500000920E-02 0. -1.
        2   -1    0    0  501    0  0.00000000000E+00  0.00000000000E+00 -0.16247591090E+04  0.16247591090E+04  0.25500000920E-02 0.  1.
    10030    2    1    2    0    0  0.00000000000E+00  0.00000000000E+00 -0.81097385261E+03  0.24385443654E+04  0.22997434710E+04 0.  0.
        5    1    3    3  502    0  0.12445400872E+03 -0.32825383403E+03  0.75556229736E+03  0.83314815911E+03  0.46999998093E+01 0. -1.
       -5    1    3    3    0  502 -0.12445400872E+03  0.32825383403E+03 -0.15665361500E+04  0.16053962062E+04  0.46999998093E+01 0.  1.
</event>
<event>
 5   0  0.8108242E-07  0.2299376E+04  0.7818609E-02  0.8478167E-01
        1   -1    0    0  501    0  0.00000000000E+00  0.00000000000E+00  0.12038242022E+04  0.12038242022E+04  0.50400001928E-02 0. -1.
       -1   -1    0    0    0  501  0.00000000000E+00  0.00000000000E+00 -0.10979862845E+04  0.10979862845E+04  0.50400001928E-02 0.  1.
    10030    2    1    2    0    0  0.00000000000E+00  0.00000000000E+00  0.10583791773E+03  0.23018104867E+04  0.22993759701E+04 0.  0.
        4    1    3    3  502    0  0.11308056264E+04 -0.37729808492E+02  0.25718388415E+03  0.11602974042E+04  0.12699999809E+01 0. -1.
       -4    1    3    3    0  502 -0.11308056264E+04  0.37729808492E+02 -0.15134596642E+03  0.11415130825E+04  0.12699999809E+01 0.  1.
</event>
<event>
 5   0  0.8108242E-07  0.2299621E+04  0.7818609E-02  0.8478071E-01
        1   -1    0    0  501    0  0.00000000000E+00  0.00000000000E+00  0.58672660810E+03  0.58672660812E+03  0.50400001928E-02 0. -1.
       -1   -1    0    0    0  501  0.00000000000E+00  0.00000000000E+00 -0.22532877049E+04  0.22532877049E+04  0.50400001928E-02 0.  1.
    10030    2    1    2    0    0  0.00000000000E+00  0.00000000000E+00 -0.16665610968E+04  0.28400143131E+04  0.22996207098E+04 0.  0.
        4    1    3    3  502    0 -0.14376026920E+03 -0.92862257008E+03 -0.16516020316E+04  0.19002099296E+04  0.12699999809E+01 0.  1.
       -4    1    3    3    0  502  0.14376026920E+03  0.92862257008E+03 -0.14959065189E+02  0.93980438348E+03  0.12699999809E+01 0. -1.
</event>
<event>
 5   0  0.7761069E-07  0.2300257E+04  0.7818609E-02  0.8477820E-01
       -1   -1    0    0    0  501  0.00000000000E+00  0.00000000000E+00  0.11388696842E+04  0.11388696842E+04  0.50400001928E-02 0. -1.
        1   -1    0    0  501    0  0.00000000000E+00  0.00000000000E+00 -0.11614987232E+04  0.11614987232E+04  0.50400001928E-02 0.  1.
    10030    2    1    2    0    0  0.00000000000E+00  0.00000000000E+00 -0.22629038977E+02  0.23003684074E+04  0.23002571022E+04 0.  0.
        1    1    3    3  502    0  0.14370014802E+03 -0.10270802256E+04 -0.50858314949E+03  0.11550759033E+04  0.50400001928E-02 0.  1.
       -1    1    3    3    0  502 -0.14370014802E+03  0.10270802256E+04  0.48595411051E+03  0.11452925041E+04  0.50400001928E-02 0. -1.
</event>
<event>
 5   0  0.1825521E-06  0.2299699E+04  0.7818609E-02  0.8478040E-01
       -2   -1    0    0    0  501  0.00000000000E+00  0.00000000000E+00  0.88937908852E+03  0.88937908852E+03  0.25500000920E-02 0. -1.
        2   -1    0    0  501    0  0.00000000000E+00  0.00000000000E+00 -0.14866026396E+04  0.14866026396E+04  0.25500000920E-02 0.  1.
    10030    2    1    2    0    0  0.00000000000E+00  0.00000000000E+00 -0.59722355108E+03  0.23759817281E+04  0.22996985025E+04 0.  0.
        5    1    3    3  502    0 -0.43622832302E+03  0.10587269506E+04 -0.19058089368E+03  0.11608363678E+04  0.46999998093E+01 0.  1.
       -5    1    3    3    0  502  0.43622832302E+03 -0.10587269506E+04 -0.40664265740E+03  0.12151453603E+04  0.46999998093E+01 0. -1.
</event>
<event>
 5   0  0.1888779E-06  0.2299909E+04  0.7818609E-02  0.8477957E-01
       -2   -1    0    0    0  501  0.00000000000E+00  0.00000000000E+00  0.12060333851E+04  0.12060333851E+04  0.25500000920E-02 0. -1.
        2   -1    0    0  501    0  0.00000000000E+00  0.00000000000E+00 -0.10964830686E+04  0.10964830686E+04  0.25500000920E-02 0.  1.
    10030    2    1    2    0    0  0.00000000000E+00  0.00000000000E+00  0.10955031652E+03  0.23025164537E+04  0.22999088564E+04 0.  0.
        4    1    3    3  502    0  0.11320834015E+04  0.10334773662E+03 -0.11891503638E+03  0.11429943051E+04  0.12699999809E+01 0. -1.
       -4    1    3    3    0  502 -0.11320834015E+04 -0.10334773662E+03  0.22846535290E+03  0.11595221486E+04  0.12699999809E+01 0.  1.
</event>
<event>
 5   0  0.1744876E-06  0.2300153E+04  0.7818609E-02  0.8477861E-01
       -2   -1    0    0    0  501  0.00000000000E+00  0.00000000000E+00  0.10368793330E+04  0.10368793330E+04  0.25500000920E-02 0. -1.
        2   -1    0    0  501    0  0.00000000000E+00  0.00000000000E+00 -0.12756311864E+04  0.12756311864E+04  0.25500000920E-02 0.  1.
    10030    2    1    2    0    0  0.00000000000E+00  0.00000000000E+00 -0.23875185337E+03  0.23125105193E+04  0.23001527025E+04 0.  0.
        1    1    3    3  502    0 -0.29412155578E+03  0.80500690107E+03  0.65164196817E+03  0.10766526158E+04  0.50400001928E-02 0. -1.
       -1    1    3    3    0  502  0.29412155578E+03 -0.80500690107E+03 -0.89039382155E+03  0.12358579036E+04  0.50400001928E-02 0.  1.
</event>
<event>
 5   0  0.1744876E-06  0.2298614E+04  0.7818609E-02  0.8478468E-01
        2   -1    0    0  501    0  0.00000000000E+00  0.00000000000E+00  0.18150457233E+04  0.18150457233E+04  0.25500000920E-02 0.  1.
       -2   -1    0    0    0  501  0.00000000000E+00  0.00000000000E+00 -0.72775360977E+03  0.72775360977E+03  0.25500000920E-02 0. -1.
    10030    2    1    2    0    0  0.00000000000E+00  0.00000000000E+00  0.10872921135E+04  0.25427993331E+04  0.22986135622E+04 0.  0.
        1    1    3    3  502    0 -0.75770801767E+03  0.73662124908E+03  0.10435034277E+04  0.14851369325E+04  0.50400001928E-02 0.  1.
       -1    1    3    3    0  502  0.75770801767E+03 -0.73662124908E+03  0.43788685894E+02  0.10576624006E+04  0.50400001928E-02 0. -1.
</event>
<event>
 5   0  0.7607231E-07  0.2300319E+04  0.7818609E-02  0.8477796E-01
       -1   -1    0    0    0  501  0.00000000000E+00  0.00000000000E+00  0.97581170532E+03  0.97581170534E+03  0.50400001928E-02 0.  1.
        1   -1    0    0  501    0  0.00000000000E+00  0.00000000000E+00 -0.13556573635E+04  0.13556573635E+04  0.50400001928E-02 0. -1.
    10030    2    1    2    0    0  0.00000000000E+00  0.00000000000E+00 -0.37984565815E+03  0.23314690688E+04  0.23003185203E+04 0.  0.
        2    1    3    3  502    0 -0.53538527698E+03  0.10126694883E+04 -0.29490852613E+03  0.11828389265E+04  0.25500000920E-02 0.  1.
       -2    1    3    3    0  502  0.53538527698E+03 -0.10126694883E+04 -0.84937132011E+02  0.11486301423E+04  0.25500000920E-02 0. -1.
</event>
<event>
 5   0  0.7932912E-07  0.2299756E+04  0.7818609E-02  0.8478017E-01
       -1   -1    0    0    0  501  0.00000000000E+00  0.00000000000E+00  0.10101691161E+04  0.10101691161E+04  0.50400001928E-02 0.  1.
        1   -1    0    0  501    0  0.00000000000E+00  0.00000000000E+00 -0.13089092005E+04  0.13089092005E+04  0.50400001928E-02 0. -1.
    10030    2    1    2    0    0  0.00000000000E+00  0.00000000000E+00 -0.29874008436E+03  0.23190783166E+04  0.22997562046E+04 0.  0.
        5    1    3    3  502    0 -0.48371801074E+03  0.15543251642E+02 -0.12011929997E+04  0.12950333660E+04  0.46999998093E+01 0. -1.
       -5    1    3    3    0  502  0.48371801074E+03 -0.15543251642E+02  0.90245291531E+03  0.10240449506E+04  0.46999998093E+01 0.  1.
</event>
<event>
 5   0  0.1825521E-06  0.2300419E+04  0.7818609E-02  0.8477756E-01
       -2   -1    0    0    0  501  0.00000000000E+00  0.00000000000E+00  0.79310053093E+03  0.79310053093E+03  0.25500000920E-02 0.  1.
        2   -1    0    0  501    0  0.00000000000E+00  0.00000000000E+00 -0.16681135543E+04  0.16681135543E+04  0.25500000920E-02 0. -1.
    10030    2    1    2    0    0  0.00000000000E+00  0.00000000000E+00 -0.87501302333E+03  0.24612140852E+04  0.23004188710E+04 0.  0.
        5    1    3    3  502    0  0.30315101171E+03  0.12606966047E+03 -0.16169039943E+04  0.16499074859E+04  0.46999998093E+01 0. -1.
       -5    1    3    3    0  502 -0.30315101171E+03 -0.12606966047E+03  0.74189097100E+03  0.81130659928E+03  0.46999998093E+01 0.  1.
</event>
<event>
 5   0  0.8108242E-07  0.2301622E+04  0.7818609E-02  0.8477282E-01
        1   -1    0    0  501    0  0.00000000000E+00  0.00000000000E+00  0.22817241571E+04  0.22817241572E+04  0.50400001928E-02 0. -1.
       -1   -1    0    0    0  501  0.00000000000E+00  0.00000000000E+00 -0.58042345922E+03  0.58042345925E+03  0.50400001928E-02 0.  1.
    10030    2    1    2    0    0  0.00000000000E+00  0.00000000000E+00  0.17013006979E+04  0.28621476164E+04  0.23016222351E+04 0.  0.
        4    1    3    3  502    0  0.45899741949E+03  0.26587792002E+03  0.21206367781E+04  0.21859715591E+04  0.12699999809E+01 0. -1.
       -4    1    3    3    0  502 -0.45899741949E+03 -0.26587792002E+03 -0.41933608020E+03  0.67617605733E+03  0.12699999809E+01 0.  1.
</event>
<event>
 5   0  0.1689444E-06  0.2300542E+04  0.7818609E-02  0.8477708E-01
       -2   -1    0    0    0  501  0.00000000000E+00  0.00000000000E+00  0.71604327298E+03  0.71604327299E+03  0.25500000920E-02 0.  1.
        2   -1    0    0  501    0  0.00000000000E+00  0.00000000000E+00 -0.18478252439E+04  0.18478252439E+04  0.25500000920E-02 0. -1.
    10030    2    1    2    0    0  0.00000000000E+00  0.00000000000E+00 -0.11317819709E+04  0.25638685169E+04  0.23005415324E+04 0.  0.
        2    1    3    3  502    0  0.45107562793E+03  0.60831713769E+03  0.39900740584E+03  0.85599408412E+03  0.25500000920E-02 0.  1.
       -2    1    3    3    0  502 -0.45107562793E+03 -0.60831713769E+03 -0.15307893767E+04  0.17078744327E+04  0.25500000920E-02 0. -1.
</event>
<event>
 5   0  0.7761069E-07  0.2299956E+04  0.7818609E-02  0.8477939E-01
       -1   -1    0    0    0  501  0.00000000000E+00  0.00000000000E+00  0.71930092242E+03  0.71930092244E+03  0.50400001928E-02 0. -1.
        1   -1    0    0  501    0  0.00000000000E+00  0.00000000000E+00 -0.18385198318E+04  0.18385198318E+04  0.50400001928E-02 0.  1.
    10030    2    1    2    0    0  0.00000000000E+00  0.00000000000E+00 -0.11192189093E+04  0.25578207542E+04  0.22999556612E+04 0.  0.
        1    1    3    3  502    0 -0.99069995108E+03  0.52843453239E+03 -0.28332142857E+03  0.11580157512E+04  0.50400001928E-02 0.  1.
       -1    1    3    3    0  502  0.99069995108E+03 -0.52843453239E+03 -0.83589748078E+03  0.13998050030E+04  0.50400001928E-02 0. -1.
</event>
<event>
 5   0  0.1828646E-06  0.2300355E+04  0.7818609E-02  0.8477781E-01
       -2   -1    0    0    0  501  0.00000000000E+00  0.00000000000E+00  0.82258397569E+03  0.82258397569E+03  0.25500000920E-02 0. -1.
        2   -1    0    0  501    0  0.00000000000E+00  0.00000000000E+00 -0.16082347060E+04  0.16082347060E+04  0.25500000920E-02 0.  1.
    10030    2    1    2    0    0  0.00000000000E+00  0.00000000000E+00 -0.78565073028E+03  0.24308186817E+04  0.23003548407E+04 0.  0.
        3    1    3    3  502    0 -0.26966963879E+03 -0.99069688598E+03  0.15494238294E+03  0.10383685214E+04  0.10100000352E+00 0. -1.
       -3    1    3    3    0  502  0.26966963879E+03  0.99069688598E+03 -0.94059311322E+03  0.13924501603E+04  0.10100000352E+00 0.  1.
</event>
<event>
 5   0  0.1825521E-06  0.2299698E+04  0.7818609E-02  0.8478040E-01
       -2   -1    0    0    0  501  0.00000000000E+00  0.00000000000E+00  0.86295911593E+03  0.86295911593E+03  0.25500000920E-02 0. -1.
        2   -1    0    0  501    0  0.00000000000E+00  0.00000000000E+00 -0.15321153095E+04  0.15321153095E+04  0.25500000920E-02 0.  1.
    10030    2    1    2    0    0  0.00000000000E+00  0.00000000000E+00 -0.66915619356E+03  0.23950744254E+04  0.22996981306E+04 0.  0.
        5    1    3    3  502    0  0.59868112168E+03 -0.72710684683E+03 -0.10214985574E+04  0.13894548733E+04  0.46999998093E+01 0.  1.
       -5    1    3    3    0  502 -0.59868112168E+03  0.72710684683E+03  0.35234236388E+03  0.10056195521E+04  0.46999998093E+01 0. -1.
</event>
<event>
 5   0  0.7761069E-07  0.2310393E+04  0.7818609E-02  0.8473835E-01
       -1   -1    0    0    0  501  0.00000000000E+00  0.00000000000E+00  0.10087153083E+04  0.10087153083E+04  0.50400001928E-02 0. -1.
        1   -1    0    0  501    0  0.00000000000E+00  0.00000000000E+00 -0.13229487648E+04  0.13229487648E+04  0.50400001928E-02 0.  1.
    10030    2    1    2    0    0  0.00000000000E+00  0.00000000000E+00 -0.31423345642E+03  0.23316640731E+04  0.23103927555E+04 0.  0.
        1    1    3    3  502    0  0.28965778063E+03  0.35062773734E+03  0.91456264082E+03  0.10214040650E+04  0.50400001928E-02 0. -1.
       -1    1    3    3    0  502 -0.28965778063E+03 -0.35062773734E+03 -0.12287960972E+04  0.13102600081E+04  0.50400001928E-02 0.  1.
</event>
<event>
 5   0  0.8108242E-07  0.2300499E+04  0.7818609E-02  0.8477725E-01
        1   -1    0    0  501    0  0.00000000000E+00  0.00000000000E+00  0.94309805366E+03  0.94309805367E+03  0.50400001928E-02 0.  1.
       -1   -1    0    0    0  501  0.00000000000E+00  0.00000000000E+00 -0.14029013401E+04  0.14029013401E+04  0.50400001928E-02 0. -1.
    10030    2    1    2    0    0  0.00000000000E+00  0.00000000000E+00 -0.45980328646E+03  0.23459993938E+04  0.23004986619E+04 0.  0.
        4    1    3    3  502    0  0.63036032991E+03  0.87371399621E+03  0.18098388505E+03  0.10924683392E+04  0.12699999809E+01 0.  1.
       -4    1    3    3    0  502 -0.63036032991E+03 -0.87371399621E+03 -0.64078717151E+03  0.12535310546E+04  0.12699999809E+01 0. -1.
</event>
<event>
 5   0  0.7932912E-07  0.2298475E+04  0.7818609E-02  0.8478523E-01
        1   -1    0    0  501    0  0.00000000000E+00  0.00000000000E+00  0.12652272811E+04  0.12652272811E+04  0.50400001928E-02 0. -1.
       -1   -1    0    0    0  501  0.00000000000E+00  0.00000000000E+00 -0.10438807306E+04  0.10438807306E+04  0.50400001928E-02 0.  1.
    10030    2    1    2    0    0  0.00000000000E+00  0.00000000000E+00  0.22134655045E+03  0.23091080117E+04  0.22984746060E+04 0.  0.
        5    1    3    3  502    0 -0.44299752048E+03  0.96371482672E+03 -0.33378867520E+03  0.11119487578E+04  0.46999998093E+01 0.  1.
       -5    1    3    3    0  502  0.44299752048E+03 -0.96371482672E+03  0.55513522565E+03  0.11971592539E+04  0.46999998093E+01 0. -1.
</event>
<event>
 5   0  0.7932912E-07  0.2300292E+04  0.7818609E-02  0.8477806E-01
       -1   -1    0    0    0  501  0.00000000000E+00  0.00000000000E+00  0.13923649799E+04  0.13923649799E+04  0.50400001928E-02 0. -1.
        1   -1    0    0  501    0  0.00000000000E+00  0.00000000000E+00 -0.95006382535E+03  0.95006382537E+03  0.50400001928E-02 0.  1.
    10030    2    1    2    0    0  0.00000000000E+00  0.00000000000E+00  0.44230115450E+03  0.23424288052E+04  0.23002918068E+04 0.  0.
        5    1    3    3  502    0 -0.31615887541E+03 -0.62915552635E+03  0.11472158065E+04  0.13460755208E+04  0.46999998093E+01 0. -1.
       -5    1    3    3    0  502  0.31615887541E+03  0.62915552635E+03 -0.70491465203E+03  0.99635328447E+03  0.46999998093E+01 0.  1.
</event>
<event>
 5   0  0.1825521E-06  0.2299560E+04  0.7818609E-02  0.8478095E-01
        2   -1    0    0  501    0  0.00000000000E+00  0.00000000000E+00  0.21257529256E+04  0.21257529256E+04  0.25500000920E-02 0. -1.
       -2   -1    0    0    0  501  0.00000000000E+00  0.00000000000E+00 -0.62189447629E+03  0.62189447629E+03  0.25500000920E-02 0.  1.
    10030    2    1    2    0    0  0.00000000000E+00  0.00000000000E+00  0.15038584493E+04  0.27476474019E+04  0.22995599600E+04 0.  0.
        5    1    3    3  502    0  0.24928290127E+03  0.10859300212E+04  0.41273699776E+03  0.11881750271E+04  0.46999998093E+01 0.  1.
       -5    1    3    3    0  502 -0.24928290127E+03 -0.10859300212E+04  0.10911214515E+04  0.15594723748E+04  0.46999998093E+01 0. -1.
</event>
<event>
 5   0  0.1825521E-06  0.2300741E+04  0.7818609E-02  0.8477629E-01
        2   -1    0    0  501    0  0.00000000000E+00  0.00000000000E+00  0.22035759222E+04  0.22035759222E+04  0.25500000920E-02 0.  1.
       -2   -1    0    0    0  501  0.00000000000E+00  0.00000000000E+00 -0.60054775721E+03  0.60054775722E+03  0.25500000920E-02 0. -1.
    10030    2    1    2    0    0  0.00000000000E+00  0.00000000000E+00  0.16030281649E+04  0.28041236794E+04  0.23007412526E+04 0.  0.
        5    1    3    3  502    0 -0.60492345583E+02  0.95027928822E+02  0.21968257840E+04  0.21997170832E+04  0.46999998093E+01 0.  1.
       -5    1    3    3    0  502  0.60492345583E+02 -0.95027928822E+02 -0.59379761901E+03  0.60440659615E+03  0.46999998093E+01 0. -1.
</event>
<event>
 5   0  0.1828646E-06  0.2300047E+04  0.7818609E-02  0.8477903E-01
       -2   -1    0    0    0  501  0.00000000000E+00  0.00000000000E+00  0.15202656995E+04  0.15202656995E+04  0.25500000920E-02 0. -1.
        2   -1    0    0  501    0  0.00000000000E+00  0.00000000000E+00 -0.86994895478E+03  0.86994895478E+03  0.25500000920E-02 0.  1.
    10030    2    1    2    0    0  0.00000000000E+00  0.00000000000E+00  0.65031674476E+03  0.23902146543E+04  0.23000465702E+04 0.  0.
        3    1    3    3  502    0  0.80431272472E+03 -0.10247469790E+03  0.11726876190E+04  0.14256985252E+04  0.10100000352E+00 0. -1.
       -3    1    3    3    0  502 -0.80431272472E+03  0.10247469790E+03 -0.52237087423E+03  0.96451612910E+03  0.10100000352E+00 0.  1.
</event>
<event>
 5   0  0.1825521E-06  0.2300202E+04  0.7818609E-02  0.8477841E-01
        2   -1    0    0  501    0  0.00000000000E+00  0.00000000000E+00  0.22105474257E+04  0.22105474257E+04  0.25500000920E-02 0. -1.
       -2   -1    0    0    0  501  0.00000000000E+00  0.00000000000E+00 -0.59837315968E+03  0.59837315968E+03  0.25500000920E-02 0.  1.
    10030    2    1    2    0    0  0.00000000000E+00  0.00000000000E+00  0.16121742660E+04  0.28089205854E+04  0.23002019457E+04 0.  0.
        5    1    3    3  502    0  0.93658889598E+00  0.42175496257E+03 -0.50051806197E+03  0.65453689430E+03  0.46999998093E+01 0.  1.
       -5    1    3    3    0  502 -0.93658889598E+00 -0.42175496257E+03  0.21126923280E+04  0.21543836911E+04  0.46999998093E+01 0. -1.
</event>
<event>
 5   0  0.7607231E-07  0.2302506E+04  0.7818609E-02  0.8476934E-01
       -1   -1    0    0    0  501  0.00000000000E+00  0.00000000000E+00  0.97432297078E+03  0.97432297079E+03  0.50400001928E-02 0. -1.
        1   -1    0    0  501    0  0.00000000000E+00  0.00000000000E+00 -0.13603117132E+04  0.13603117133E+04  0.50400001928E-02 0.  1.
    10030    2    1    2    0    0  0.00000000000E+00  0.00000000000E+00 -0.38598874247E+03  0.23346346840E+04  0.23025055480E+04 0.  0.
        2    1    3    3  502    0  0.61260273741E+03  0.80344269038E+03 -0.75258369897E+03  0.12598351061E+04  0.25500000920E-02 0. -1.
       -2    1    3    3    0  502 -0.61260273741E+03 -0.80344269038E+03  0.36659495650E+03  0.10747995779E+04  0.25500000920E-02 0.  1.
</event>
<event>
 5   0  0.1828646E-06  0.2300511E+04  0.7818609E-02  0.8477720E-01
        2   -1    0    0  501    0  0.00000000000E+00  0.00000000000E+00  0.16209892146E+04  0.16209892146E+04  0.25500000920E-02 0. -1.
       -2   -1    0    0    0  501  0.00000000000E+00  0.00000000000E+00 -0.81622224376E+03  0.81622224376E+03  0.25500000920E-02 0.  1.
    10030    2    1    2    0    0  0.00000000000E+00  0.00000000000E+00  0.80476697084E+03  0.24372114584E+04  0.23005107727E+04 0.  0.
        3    1    3    3  502    0  0.58832900780E+03  0.94998602144E+03  0.11325061630E+03  0.11231340858E+04  0.10100000352E+00 0.  1.
       -3    1    3    3    0  502 -0.58832900780E+03 -0.94998602144E+03  0.69151635454E+03  0.13140773726E+04  0.10100000352E+00 0. -1.
</event>
<event>
 5   0  0.1689444E-06  0.2299711E+04  0.7818609E-02  0.8478035E-01
        2   -1    0    0  501    0  0.00000000000E+00  0.00000000000E+00  0.79745368663E+03  0.79745368663E+03  0.25500000920E-02 0. -1.
       -2   -1    0    0    0  501  0.00000000000E+00  0.00000000000E+00 -0.16579872748E+04  0.16579872748E+04  0.25500000920E-02 0.  1.
    10030    2    1    2    0    0  0.00000000000E+00  0.00000000000E+00 -0.86053358821E+03  0.24554409615E+04  0.22997113425E+04 0.  0.
        2    1    3    3  502    0 -0.19562199568E+02  0.23538463281E+03  0.77127283182E+03  0.80662902633E+03  0.25500000920E-02 0. -1.
       -2    1    3    3    0  502  0.19562199568E+02 -0.23538463281E+03 -0.16318064200E+04  0.16488119351E+04  0.25500000920E-02 0.  1.
</event>
<event>
 5   0  0.1828646E-06  0.2300017E+04  0.7818609E-02  0.8477914E-01
       -2   -1    0    0    0  501  0.00000000000E+00  0.00000000000E+00  0.15277026055E+04  0.15277026055E+04  0.25500000920E-02 0. -1.
        2   -1    0    0  501    0  0.00000000000E+00  0.00000000000E+00 -0.86569209434E+03  0.86569209434E+03  0.25500000920E-02 0.  1.
    10030    2    1    2    0    0  0.00000000000E+00  0.00000000000E+00  0.66201051112E+03  0.23933946998E+04  0.23000174504E+04 0.  0.
        3    1    3    3  502    0 -0.22123641548E+03 -0.48657679327E+03  0.13905867377E+04  0.14897764975E+04  0.10100000352E+00 0. -1.
       -3    1    3    3    0  502  0.22123641548E+03  0.48657679327E+03 -0.72857622661E+03  0.90361820226E+03  0.10100000352E+00 0.  1.
</event>
<event>
 5   0  0.7607231E-07  0.2299941E+04  0.7818609E-02  0.8477944E-01
        1   -1    0    0  501    0  0.00000000000E+00  0.00000000000E+00  0.19593348605E+04  0.19593348605E+04  0.50400001928E-02 0. -1.
       -1   -1    0    0    0  501  0.00000000000E+00  0.00000000000E+00 -0.67493920479E+03  0.67493920481E+03  0.50400001928E-02 0.  1.
    10030    2    1    2    0    0  0.00000000000E+00  0.00000000000E+00  0.12843956557E+04  0.26342740653E+04  0.22999407929E+04 0.  0.
        2    1    3    3  502    0 -0.46708762177E+03 -0.90804763475E+03  0.12479552315E+04  0.16124867792E+04  0.25500000920E-02 0. -1.
       -2    1    3    3    0  502  0.46708762177E+03  0.90804763475E+03  0.36440424162E+02  0.10217872860E+04  0.25500000920E-02 0.  1.
</event>
<event>
 5   0  0.1689444E-06  0.2299666E+04  0.7818609E-02  0.8478053E-01
       -2   -1    0    0    0  501  0.00000000000E+00  0.00000000000E+00  0.61414059279E+03  0.61414059279E+03  0.25500000920E-02 0. -1.
        2   -1    0    0  501    0  0.00000000000E+00  0.00000000000E+00 -0.21527910180E+04  0.21527910180E+04  0.25500000920E-02 0.  1.
    10030    2    1    2    0    0  0.00000000000E+00  0.00000000000E+00 -0.15386504252E+04  0.27669316107E+04  0.22996663688E+04 0.  0.
        2    1    3    3  502    0  0.66574319020E+03 -0.83714662381E+03 -0.12770762055E+04  0.16658187476E+04  0.25500000920E-02 0.  1.
       -2    1    3    3    0  502 -0.66574319020E+03  0.83714662381E+03 -0.26157421966E+03  0.11011128632E+04  0.25500000920E-02 0. -1.
</event>
<event>
 5   0  0.8108242E-07  0.2300433E+04  0.7818609E-02  0.8477750E-01
        1   -1    0    0  501    0  0.00000000000E+00  0.00000000000E+00  0.21452873971E+04  0.21452873971E+04  0.50400001928E-02 0.  1.
       -1   -1    0    0    0  501  0.00000000000E+00  0.00000000000E+00 -0.61669965993E+03  0.61669965996E+03  0.50400001928E-02 0. -1.
    10030    2    1    2    0    0  0.00000000000E+00  0.00000000000E+00  0.15285877372E+04  0.27619870571E+04  0.23004330099E+04 0.  0.
        4    1    3    3  502    0  0.91437472972E+02  0.31458325443E+03 -0.55950018728E+03  0.64835600398E+03  0.12699999809E+01 0. -1.
       -4    1    3    3    0  502 -0.91437472972E+02 -0.31458325443E+03  0.20880879244E+04  0.21136310531E+04  0.12699999809E+01 0.  1.
</event>
<event>
 5   0  0.8108242E-07  0.2301007E+04  0.7818609E-02  0.8477524E-01
        1   -1    0    0  501    0  0.00000000000E+00  0.00000000000E+00  0.20129172871E+04  0.20129172871E+04  0.50400001928E-02 0.  1.
       -1   -1    0    0    0  501  0.00000000000E+00  0.00000000000E+00 -0.65758186656E+03  0.65758186658E+03  0.50400001928E-02 0. -1.
    10030    2    1    2    0    0  0.00000000000E+00  0.00000000000E+00  0.13553354206E+04  0.26704991537E+04  0.23010066553E+04 0.  0.
        4    1    3    3  502    0 -0.72919451217E+03 -0.70250560873E+03  0.13116640251E+04  0.16570162626E+04  0.12699999809E+01 0.  1.
       -4    1    3    3    0  502  0.72919451217E+03  0.70250560873E+03  0.43671395465E+02  0.10134828911E+04  0.12699999809E+01 0. -1.
</event>
<event>
 5   0  0.1888779E-06  0.2300181E+04  0.7818609E-02  0.8477850E-01
       -2   -1    0    0    0  501  0.00000000000E+00  0.00000000000E+00  0.94957602929E+03  0.94957602930E+03  0.25500000920E-02 0. -1.
        2   -1    0    0  501    0  0.00000000000E+00  0.00000000000E+00 -0.13929461440E+04  0.13929461440E+04  0.25500000920E-02 0.  1.
    10030    2    1    2    0    0  0.00000000000E+00  0.00000000000E+00 -0.44337011467E+03  0.23425221733E+04  0.23001810958E+04 0.  0.
        4    1    3    3  502    0 -0.92863381574E+03  0.67784046263E+03 -0.19150513266E+03  0.11655489201E+04  0.12699999809E+01 0.  1.
       -4    1    3    3    0  502  0.92863381574E+03 -0.67784046263E+03 -0.25186498202E+03  0.11769732531E+04  0.12699999809E+01 0. -1.
</event>
<event>
 5   0  0.8097672E-07  0.2300042E+04  0.7818609E-02  0.8477905E-01
        1   -1    0    0  501    0  0.00000000000E+00  0.00000000000E+00  0.13844064187E+04  0.13844064188E+04  0.50400001928E-02 0. -1.
       -1   -1    0    0    0  501  0.00000000000E+00  0.00000000000E+00 -0.95531776917E+03  0.95531776918E+03  0.50400001928E-02 0.  1.
    10030    2    1    2    0    0  0.00000000000E+00  0.00000000000E+00  0.42908864957E+03  0.23397241879E+04  0.23000417836E+04 0.  0.
        3    1    3    3  502    0 -0.35147513808E+03  0.99143717754E+03  0.68739252982E+03  0.12565790663E+04  0.10100000352E+00 0. -1.
       -3    1    3    3    0  502  0.35147513808E+03 -0.99143717754E+03 -0.25830388024E+03  0.10831451216E+04  0.10100000352E+00 0.  1.
</event>
<event>
 5   0  0.6319125E-07  0.2299923E+04  0.7818609E-02  0.8477951E-01
       -4   -1    0    0    0  501  0.00000000000E+00  0.00000000000E+00  0.20482340032E+04  0.20482343969E+04  0.12699999809E+01 0. -1.
        4   -1    0    0  501    0  0.00000000000E+00  0.00000000000E+00 -0.64563411775E+03  0.64563536683E+03  0.12699999809E+01 0.  1.
    10030    2    1    2    0    0  0.00000000000E+00  0.00000000000E+00  0.14025998854E+04  0.26938697637E+04  0.22999234477E+04 0.  0.
        5    1    3    3  502    0 -0.10549309600E+04  0.33533016350E+03  0.10662158671E+04  0.15369333148E+04  0.46999998093E+01 0.  1.
       -5    1    3    3    0  502  0.10549309600E+04 -0.33533016350E+03  0.33638401835E+03  0.11569364489E+04  0.46999998093E+01 0. -1.
</event>
<event>
 5   0  0.1744876E-06  0.2300497E+04  0.7818609E-02  0.8477725E-01
        2   -1    0    0  501    0  0.00000000000E+00  0.00000000000E+00  0.65702701329E+03  0.65702701330E+03  0.25500000920E-02 0. -1.
       -2   -1    0    0    0  501  0.00000000000E+00  0.00000000000E+00 -0.20137239977E+04  0.20137239977E+04  0.25500000920E-02 0.  1.
    10030    2    1    2    0    0  0.00000000000E+00  0.00000000000E+00 -0.13566969844E+04  0.26707510110E+04  0.23004965237E+04 0.  0.
        1    1    3    3  502    0  0.76460750080E+03 -0.34212187886E+03  0.23681168528E+03  0.87048939372E+03  0.50400001928E-02 0. -1.
       -1    1    3    3    0  502 -0.76460750080E+03  0.34212187886E+03 -0.15935086697E+04  0.18002616173E+04  0.50400001928E-02 0.  1.
</event>
<event>
 5   0  0.1828646E-06  0.2298990E+04  0.7818609E-02  0.8478319E-01
        2   -1    0    0  501    0  0.00000000000E+00  0.00000000000E+00  0.74244733208E+03  0.74244733208E+03  0.25500000920E-02 0.  1.
       -2   -1    0    0    0  501  0.00000000000E+00  0.00000000000E+00 -0.17797071614E+04  0.17797071614E+04  0.25500000920E-02 0. -1.
    10030    2    1    2    0    0  0.00000000000E+00  0.00000000000E+00 -0.10372598293E+04  0.25221544935E+04  0.22989900686E+04 0.  0.
        3    1    3    3  502    0  0.13721683030E+03  0.11297630016E+04 -0.34123686551E+03  0.11881226818E+04  0.10100000352E+00 0. -1.
       -3    1    3    3    0  502 -0.13721683030E+03 -0.11297630016E+04 -0.69602296383E+03  0.13340318117E+04  0.10100000352E+00 0.  1.
</event>
<event>
 5   0  0.1689444E-06  0.2318125E+04  0.7818609E-02  0.8470809E-01
       -2   -1    0    0    0  501  0.00000000000E+00  0.00000000000E+00  0.96095215251E+03  0.96095215251E+03  0.25500000920E-02 0.  1.
        2   -1    0    0  501    0  0.00000000000E+00  0.00000000000E+00 -0.13980152253E+04  0.13980152253E+04  0.25500000920E-02 0. -1.
    10030    2    1    2    0    0  0.00000000000E+00  0.00000000000E+00 -0.43706307279E+03  0.23589673778E+04  0.23181248802E+04 0.  0.
        2    1    3    3  502    0  0.87316143588E+02  0.85313739174E+03  0.57492286744E+03  0.10324746106E+04  0.25500000920E-02 0.  1.
       -2    1    3    3    0  502 -0.87316143588E+02 -0.85313739174E+03 -0.10119859402E+04  0.13264927672E+04  0.25500000920E-02 0. -1.
</event>
<event>
 5   0  0.7761069E-07  0.2300078E+04  0.7818609E-02  0.8477890E-01
        1   -1    0    0  501    0  0.00000000000E+00  0.00000000000E+00  0.89412933754E+03  0.89412933755E+03  0.50400001928E-02 0. -1.
       -1   -1    0    0    0  501  0.00000000000E+00  0.00000000000E+00 -0.14791930998E+04  0.14791930998E+04  0.50400001928E-02 0.  1.
    10030    2    1    2    0    0  0.00000000000E+00  0.00000000000E+00 -0.58506376225E+03  0.23733224373E+04  0.23000782129E+04 0.  0.
        1    1    3    3  502    0 -0.62448411531E+03  0.20042271758E+03 -0.12673053954E+04  0.14269592290E+04  0.50400001928E-02 0.  1.
       -1    1    3    3    0  502  0.62448411531E+03 -0.20042271758E+03  0.68224163318E+03  0.94636320832E+03  0.50400001928E-02 0. -1.
</event>
<event>
 5   0  0.1888779E-06  0.2300771E+04  0.7818609E-02  0.8477617E-01
       -2   -1    0    0    0  501  0.00000000000E+00  0.00000000000E+00  0.59575969192E+03  0.59575969192E+03  0.25500000920E-02 0.  1.
        2   -1    0    0  501    0  0.00000000000E+00  0.00000000000E+00 -0.22213432148E+04  0.22213432148E+04  0.25500000920E-02 0. -1.
    10030    2    1    2    0    0  0.00000000000E+00  0.00000000000E+00 -0.16255835229E+04  0.28171029067E+04  0.23007709571E+04 0.  0.
        4    1    3    3  502    0  0.34108497106E+03  0.40989145828E+03  0.43529405987E+03  0.68835492045E+03  0.12699999809E+01 0.  1.
       -4    1    3    3    0  502 -0.34108497106E+03 -0.40989145828E+03 -0.20608775827E+04  0.21287479863E+04  0.12699999809E+01 0. -1.
</event>
<event>
 5   0  0.8097672E-07  0.2299847E+04  0.7818609E-02  0.8477981E-01
        1   -1    0    0  501    0  0.00000000000E+00  0.00000000000E+00  0.18481259470E+04  0.18481259470E+04  0.50400001928E-02 0. -1.
       -1   -1    0    0    0  501  0.00000000000E+00  0.00000000000E+00 -0.71549463414E+03  0.71549463415E+03  0.50400001928E-02 0.  1.
    10030    2    1    2    0    0  0.00000000000E+00  0.00000000000E+00  0.11326313128E+04  0.25636205811E+04  0.22998471239E+04 0.  0.
        3    1    3    3  502    0 -0.80160503185E+03 -0.10388075112E+03 -0.34539203614E+03  0.87900938924E+03  0.10100000352E+00 0.  1.
       -3    1    3    3    0  502  0.80160503185E+03  0.10388075112E+03  0.14780233490E+04  0.16846111919E+04  0.10100000352E+00 0. -1.
</event>
<event>
 5   0  0.1828646E-06  0.2299584E+04  0.7818609E-02  0.8478085E-01
       -2   -1    0    0    0  501  0.00000000000E+00  0.00000000000E+00  0.55691840420E+03  0.55691840420E+03  0.25500000920E-02 0.  1.
        2   -1    0    0  501    0  0.00000000000E+00  0.00000000000E+00 -0.23738154836E+04  0.23738154836E+04  0.25500000920E-02 0. -1.
    10030    2    1    2    0    0  0.00000000000E+00  0.00000000000E+00 -0.18168970795E+04  0.29307338879E+04  0.22995839024E+04 0.  0.
        3    1    3    3  502    0  0.33322355845E+03  0.51350490197E+03 -0.21488722127E+04  0.22343627774E+04  0.10100000352E+00 0. -1.
       -3    1    3    3    0  502 -0.33322355845E+03 -0.51350490197E+03  0.33197513322E+03  0.69637111049E+03  0.10100000352E+00 0.  1.
</event>
<event>
 5   0  0.1828646E-06  0.2300376E+04  0.7818609E-02  0.8477773E-01
        2   -1    0    0  501    0  0.00000000000E+00  0.00000000000E+00  0.13564836083E+04  0.13564836083E+04  0.25500000920E-02 0.  1.
       -2   -1    0    0    0  501  0.00000000000E+00  0.00000000000E+00 -0.97526598868E+03  0.97526598868E+03  0.25500000920E-02 0. -1.
    10030    2    1    2    0    0  0.00000000000E+00  0.00000000000E+00  0.38121761957E+03  0.23317495969E+04  0.23003759061E+04 0.  0.
        3    1    3    3  502    0  0.28111364600E+03  0.87996678031E+03 -0.50398574745E+03  0.10523155707E+04  0.10100000352E+00 0. -1.
       -3    1    3    3    0  502 -0.28111364600E+03 -0.87996678031E+03  0.88520336702E+03  0.12794340263E+04  0.10100000352E+00 0.  1.
</event>
<event>
 5   0  0.8108242E-07  0.2298932E+04  0.7818609E-02  0.8478342E-01
        1   -1    0    0  501    0  0.00000000000E+00  0.00000000000E+00  0.69914412666E+03  0.69914412668E+03  0.50400001928E-02 0. -1.
       -1   -1    0    0    0  501  0.00000000000E+00  0.00000000000E+00 -0.18898415745E+04  0.18898415745E+04  0.50400001928E-02 0.  1.
    10030    2    1    2    0    0  0.00000000000E+00  0.00000000000E+00 -0.11906974479E+04  0.25889857012E+04  0.22989316103E+04 0.  0.
        4    1    3    3  502    0  0.35005163220E+03 -0.10548867617E+04 -0.92550608146E+03  0.14463351427E+04  0.12699999809E+01 0.  1.
       -4    1    3    3    0  502 -0.35005163220E+03  0.10548867617E+04 -0.26519136642E+03  0.11426505585E+04  0.12699999809E+01 0. -1.
</event>
<event>
 5   0  0.7761069E-07  0.2300355E+04  0.7818609E-02  0.8477781E-01
       -1   -1    0    0    0  501  0.00000000000E+00  0.00000000000E+00  0.51112865326E+03  0.51112865329E+03  0.50400001928E-02 0. -1.
        1   -1    0    0  501    0  0.00000000000E+00  0.00000000000E+00 -0.25882091503E+04  0.25882091503E+04  0.50400001928E-02 0.  1.
    10030    2    1    2    0    0  0.00000000000E+00  0.00000000000E+00 -0.20770804971E+04  0.30993378036E+04  0.23003546313E+04 0.  0.
        1    1    3    3  502    0  0.83673474046E+03  0.77029172754E+03 -0.12696908195E+04  0.17045788772E+04  0.50400001928E-02 0.  1.
       -1    1    3    3    0  502 -0.83673474046E+03 -0.77029172754E+03 -0.80738967759E+03  0.13947589265E+04  0.50400001928E-02 0. -1.
</event>
<event>
 5   0  0.1744876E-06  0.2300015E+04  0.7818609E-02  0.8477915E-01
       -2   -1    0    0    0  501  0.00000000000E+00  0.00000000000E+00  0.77567341876E+03  0.77567341876E+03  0.25500000920E-02 0.  1.
        2   -1    0    0  501    0  0.00000000000E+00  0.00000000000E+00 -0.17049919250E+04  0.17049919250E+04  0.25500000920E-02 0. -1.
    10030    2    1    2    0    0  0.00000000000E+00  0.00000000000E+00 -0.92931850622E+03  0.24806653437E+04  0.23000147090E+04 0.  0.
        1    1    3    3  502    0  0.18816200878E+03  0.72615014652E+03 -0.14047988338E+04  0.15925321787E+04  0.50400001928E-02 0. -1.
       -1    1    3    3    0  502 -0.18816200878E+03 -0.72615014652E+03  0.47548032758E+03  0.88813316500E+03  0.50400001928E-02 0.  1.
</event>
<event>
 5   0  0.8108242E-07  0.2298407E+04  0.7818609E-02  0.8478549E-01
       -1   -1    0    0    0  501  0.00000000000E+00  0.00000000000E+00  0.13004403217E+04  0.13004403217E+04  0.50400001928E-02 0.  1.
        1   -1    0    0  501    0  0.00000000000E+00  0.00000000000E+00 -0.10155551455E+04  0.10155551455E+04  0.50400001928E-02 0. -1.
    10030    2    1    2    0    0  0.00000000000E+00  0.00000000000E+00  0.28488517623E+03  0.23159954672E+04  0.22984071529E+04 0.  0.
        4    1    3    3  502    0  0.10003861385E+04  0.47437716526E+03  0.45279482398E+03  0.11961734350E+04  0.12699999809E+01 0. -1.
       -4    1    3    3    0  502 -0.10003861385E+04 -0.47437716526E+03 -0.16790964775E+03  0.11198220322E+04  0.12699999809E+01 0.  1.
</event>
<event>
 5   0  0.1825521E-06  0.2300076E+04  0.7818609E-02  0.8477891E-01
       -2   -1    0    0    0  501  0.00000000000E+00  0.00000000000E+00  0.57499052817E+03  0.57499052817E+03  0.25500000920E-02 0. -1.
        2   -1    0    0  501    0  0.00000000000E+00  0.00000000000E+00 -0.23001900205E+04  0.23001900205E+04  0.25500000920E-02 0.  1.
    10030    2    1    2    0    0  0.00000000000E+00  0.00000000000E+00 -0.17251994924E+04  0.28751805487E+04  0.23000760638E+04 0.  0.
        5    1    3    3  502    0  0.30657605025E+03 -0.17452259594E+03 -0.22308728415E+04  0.22585975153E+04  0.46999998093E+01 0.  1.
       -5    1    3    3    0  502 -0.30657605025E+03  0.17452259594E+03  0.50567334914E+03  0.61658303343E+03  0.46999998093E+01 0. -1.
</event>
<event>
 5   0  0.7607231E-07  0.2301202E+04  0.7818609E-02  0.8477447E-01
        1   -1    0    0  501    0  0.00000000000E+00  0.00000000000E+00  0.25932188186E+04  0.25932188186E+04  0.50400001928E-02 0. -1.
       -1   -1    0    0    0  501  0.00000000000E+00  0.00000000000E+00 -0.51051714137E+03  0.51051714139E+03  0.50400001928E-02 0.  1.
    10030    2    1    2    0    0  0.00000000000E+00  0.00000000000E+00  0.20827016773E+04  0.31037359600E+04  0.23012019975E+04 0.  0.
        2    1    3    3  502    0 -0.76095306032E+03  0.67522223819E+03  0.17663038031E+04  0.20383335733E+04  0.25500000920E-02 0. -1.
       -2    1    3    3    0  502  0.76095306032E+03 -0.67522223819E+03  0.31639787413E+03  0.10654023868E+04  0.25500000920E-02 0.  1.
</event>
<event>
 5   0  0.7932912E-07  0.2300845E+04  0.7818609E-02  0.8477588E-01
        1   -1    0    0  501    0  0.00000000000E+00  0.00000000000E+00  0.98904035372E+03  0.98904035373E+03  0.50400001928E-02 0. -1.
       -1   -1    0    0    0  501  0.00000000000E+00  0.00000000000E+00 -0.13381368714E+04  0.13381368714E+04  0.50400001928E-02 0.  1.
    10030    2    1    2    0    0  0.00000000000E+00  0.00000000000E+00 -0.34909651767E+03  0.23271772251E+04  0.23008445099E+04 0.  0.
        5    1    3    3  502    0 -0.97279627770E+03 -0.51805886031E+03  0.15897049921E+03  0.11135579420E+04  0.46999998093E+01 0. -1.
       -5    1    3    3    0  502  0.97279627770E+03  0.51805886031E+03 -0.50806701688E+03  0.12136192831E+04  0.46999998093E+01 0.  1.
</event>
<event>
 5   0  0.7761069E-07  0.2299767E+04  0.7818609E-02  0.8478013E-01
       -1   -1    0    0    0  501  0.00000000000E+00  0.00000000000E+00  0.69534299600E+03  0.69534299601E+03  0.50400001928E-02 0. -1.
        1   -1    0    0  501    0  0.00000000000E+00  0.00000000000E+00 -0.19015531455E+04  0.19015531455E+04  0.50400001928E-02 0.  1.
    10030    2    1    2    0    0  0.00000000000E+00  0.00000000000E+00 -0.12062101495E+04  0.25968961415E+04  0.22997666501E+04 0.  0.
        1    1    3    3  502    0 -0.10580975852E+03  0.61653862181E+03 -0.16926021689E+04  0.18044992877E+04  0.50400001928E-02 0.  1.
       -1    1    3    3    0  502  0.10580975852E+03 -0.61653862181E+03  0.48639201947E+03  0.79239685373E+03  0.50400001928E-02 0. -1.
</event>
<event>
 5   0  0.1825521E-06  0.2299855E+04  0.7818609E-02  0.8477978E-01
        2   -1    0    0  501    0  0.00000000000E+00  0.00000000000E+00  0.18753455767E+04  0.18753455767E+04  0.25500000920E-02 0.  1.
       -2   -1    0    0    0  501  0.00000000000E+00  0.00000000000E+00 -0.70511436336E+03  0.70511436336E+03  0.25500000920E-02 0. -1.
    10030    2    1    2    0    0  0.00000000000E+00  0.00000000000E+00  0.11702312133E+04  0.25804599400E+04  0.22998548670E+04 0.  0.
        5    1    3    3  502    0 -0.82050233853E+02 -0.97570012710E+03  0.12616680725E+04  0.15970445811E+04  0.46999998093E+01 0.  1.
       -5    1    3    3    0  502  0.82050233853E+02  0.97570012710E+03 -0.91436859208E+02  0.98341535890E+03  0.46999998093E+01 0. -1.
</event>
<event>
 5   0  0.7607231E-07  0.2299710E+04  0.7818609E-02  0.8478036E-01
       -1   -1    0    0    0  501  0.00000000000E+00  0.00000000000E+00  0.58926653131E+03  0.58926653133E+03  0.50400001928E-02 0.  1.
        1   -1    0    0  501    0  0.00000000000E+00  0.00000000000E+00 -0.22437487413E+04  0.22437487413E+04  0.50400001928E-02 0. -1.
    10030    2    1    2    0    0  0.00000000000E+00  0.00000000000E+00 -0.16544822100E+04  0.28330152726E+04  0.22997095799E+04 0.  0.
        2    1    3    3  502    0 -0.17838100808E+03 -0.62292539692E+03 -0.19974242968E+04  0.20998951535E+04  0.25500000920E-02 0. -1.
       -2    1    3    3    0  502  0.17838100808E+03  0.62292539692E+03  0.34294208682E+03  0.73312011915E+03  0.25500000920E-02 0.  1.
</event>
<event>
 5   0  0.8097672E-07  0.2299857E+04  0.7818609E-02  0.8477978E-01
       -1   -1    0    0    0  501  0.00000000000E+00  0.00000000000E+00  0.72296975855E+03  0.72296975857E+03  0.50400001928E-02 0.  1.
        1   -1    0    0  501    0  0.00000000000E+00  0.00000000000E+00 -0.18290322837E+04  0.18290322837E+04  0.50400001928E-02 0. -1.
    10030    2    1    2    0    0  0.00000000000E+00  0.00000000000E+00 -0.11060625251E+04  0.25520020423E+04  0.22998565421E+04 0.  0.
        3    1    3    3  502    0 -0.93603325870E+03 -0.38535439311E+03 -0.11584476697E+04  0.15383943848E+04  0.10100000352E+00 0. -1.
       -3    1    3    3    0  502  0.93603325870E+03  0.38535439311E+03  0.52385144517E+02  0.10136076575E+04  0.10100000352E+00 0.  1.
</event>
<event>
 5   0  0.1828646E-06  0.2300212E+04  0.7818609E-02  0.8477838E-01
        2   -1    0    0  501    0  0.00000000000E+00  0.00000000000E+00  0.11136692753E+04  0.11136692753E+04  0.25500000920E-02 0. -1.
       -2   -1    0    0    0  501  0.00000000000E+00  0.00000000000E+00 -0.11877344190E+04  0.11877344190E+04  0.25500000920E-02 0.  1.
    10030    2    1    2    0    0  0.00000000000E+00  0.00000000000E+00 -0.74065143696E+02  0.23014036943E+04  0.23002115813E+04 0.  0.
        3    1    3    3  502    0  0.42665712248E+03 -0.73518404185E+03  0.73810208683E+03  0.11257560021E+04  0.10100000352E+00 0. -1.
       -3    1    3    3    0  502 -0.42665712248E+03  0.73518404185E+03 -0.81216723053E+03  0.11756476922E+04  0.10100000352E+00 0.  1.
</event>
<event>
 5   0  0.1825521E-06  0.2302222E+04  0.7818609E-02  0.8477046E-01
        2   -1    0    0  501    0  0.00000000000E+00  0.00000000000E+00  0.87526222578E+03  0.87526222579E+03  0.25500000920E-02 0. -1.
       -2   -1    0    0    0  501  0.00000000000E+00  0.00000000000E+00 -0.15138960219E+04  0.15138960219E+04  0.25500000920E-02 0.  1.
    10030    2    1    2    0    0  0.00000000000E+00  0.00000000000E+00 -0.63863379612E+03  0.23891582477E+04  0.23022215373E+04 0.  0.
        5    1    3    3  502    0 -0.67151275223E+03  0.60826966329E+03 -0.10561371593E+04  0.13915348177E+04  0.46999998093E+01 0.  1.
       -5    1    3    3    0  502  0.67151275223E+03 -0.60826966329E+03  0.41750336320E+03  0.99762342995E+03  0.46999998093E+01 0. -1.
</event>
<event>
 5   0  0.1744876E-06  0.2297979E+04  0.7818609E-02  0.8478718E-01
       -2   -1    0    0    0  501  0.00000000000E+00  0.00000000000E+00  0.80834312890E+03  0.80834312891E+03  0.25500000920E-02 0. -1.
        2   -1    0    0  501    0  0.00000000000E+00  0.00000000000E+00 -0.16331892428E+04  0.16331892428E+04  0.25500000920E-02 0.  1.
    10030    2    1    2    0    0  0.00000000000E+00  0.00000000000E+00 -0.82484611393E+03  0.24415323717E+04  0.22979793756E+04 0.  0.
        1    1    3    3  502    0 -0.79543853730E+03 -0.36968256710E+03 -0.12009367508E+04  0.14871572703E+04  0.50400001928E-02 0. -1.
       -1    1    3    3    0  502  0.79543853730E+03  0.36968256710E+03  0.37609063692E+03  0.95437510144E+03  0.50400001928E-02 0.  1.
</event>
<event>
 5   0  0.8108242E-07  0.2299983E+04  0.7818609E-02  0.8477928E-01
       -1   -1    0    0    0  501  0.00000000000E+00  0.00000000000E+00  0.82027694762E+03  0.82027694763E+03  0.50400001928E-02 0.  1.
        1   -1    0    0  501    0  0.00000000000E+00  0.00000000000E+00 -0.16122362823E+04  0.16122362823E+04  0.50400001928E-02 0. -1.
    10030    2    1    2    0    0  0.00000000000E+00  0.00000000000E+00 -0.79195933472E+03  0.24325132300E+04  0.22999828317E+04 0.  0.
        4    1    3    3  502    0 -0.66382222037E+03 -0.61186053055E+03 -0.11493790750E+04  0.14615427192E+04  0.12699999809E+01 0. -1.
       -4    1    3    3    0  502  0.66382222037E+03  0.61186053055E+03  0.35741974031E+03  0.97097051076E+03  0.12699999809E+01 0.  1.
</event>
<event>
 5   0  0.8097672E-07  0.2301354E+04  0.7818609E-02  0.8477387E-01
        1   -1    0    0  501    0  0.00000000000E+00  0.00000000000E+00  0.15289050226E+04  0.15289050226E+04  0.50400001928E-02 0.  1.
       -1   -1    0    0    0  501  0.00000000000E+00  0.00000000000E+00 -0.86601725677E+03  0.86601725678E+03  0.50400001928E-02 0. -1.
    10030    2    1    2    0    0  0.00000000000E+00  0.00000000000E+00  0.66288776587E+03  0.23949222794E+04  0.23013544999E+04 0.  0.
        3    1    3    3  502    0  0.88458525772E+03  0.13601844220E+03  0.10840819134E+04  0.14057829491E+04  0.10100000352E+00 0.  1.
       -3    1    3    3    0  502 -0.88458525772E+03 -0.13601844220E+03 -0.42119414750E+03  0.98913933036E+03  0.10100000352E+00 0. -1.
</event>
<event>
 5   0  0.7761069E-07  0.2299013E+04  0.7818609E-02  0.8478310E-01
        1   -1    0    0  501    0  0.00000000000E+00  0.00000000000E+00  0.73240697572E+03  0.73240697573E+03  0.50400001928E-02 0.  1.
       -1   -1    0    0    0  501  0.00000000000E+00  0.00000000000E+00 -0.18041411463E+04  0.18041411464E+04  0.50400001928E-02 0. -1.
    10030    2    1    2    0    0  0.00000000000E+00  0.00000000000E+00 -0.10717341706E+04  0.25365481221E+04  0.22990133195E+04 0.  0.
        1    1    3    3  502    0 -0.40725866928E+03 -0.99246011331E+03 -0.80249410193E+02  0.10757679434E+04  0.50400001928E-02 0.  1.
       -1    1    3    3    0  502  0.40725866928E+03  0.99246011331E+03 -0.99148476044E+03  0.14607801787E+04  0.50400001928E-02 0. -1.
</event>
<event>
 5   0  0.1689444E-06  0.2300319E+04  0.7818609E-02  0.8477795E-01
        2   -1    0    0  501    0  0.00000000000E+00  0.00000000000E+00  0.15130000188E+04  0.15130000188E+04  0.25500000920E-02 0. -1.
       -2   -1    0    0    0  501  0.00000000000E+00  0.00000000000E+00 -0.87433364375E+03  0.87433364376E+03  0.25500000920E-02 0.  1.
    10030    2    1    2    0    0  0.00000000000E+00  0.00000000000E+00  0.63866637503E+03  0.23873336625E+04  0.23003189513E+04 0.  0.
        2    1    3    3  502    0 -0.96817039026E+03 -0.43746156904E+03  0.77661391915E+03  0.13159998892E+04  0.25500000920E-02 0. -1.
       -2    1    3    3    0  502  0.96817039026E+03  0.43746156904E+03 -0.13794754412E+03  0.10713337733E+04  0.25500000920E-02 0.  1.
</event>
<event>
 5   0  0.7761069E-07  0.2299934E+04  0.7818609E-02  0.8477947E-01
       -1   -1    0    0    0  501  0.00000000000E+00  0.00000000000E+00  0.92635214148E+03  0.92635214149E+03  0.50400001928E-02 0. -1.
        1   -1    0    0  501    0  0.00000000000E+00  0.00000000000E+00 -0.14275603930E+04  0.14275603930E+04  0.50400001928E-02 0.  1.
    10030    2    1    2    0    0  0.00000000000E+00  0.00000000000E+00 -0.50120825150E+03  0.23539125345E+04  0.22999335879E+04 0.  0.
        1    1    3    3  502    0 -0.19271935785E+03  0.90529027389E+03 -0.94906687660E+03  0.13256768713E+04  0.50400001928E-02 0.  1.
       -1    1    3    3    0  502  0.19271935785E+03 -0.90529027389E+03  0.44785862510E+03  0.10282356632E+04  0.50400001928E-02 0. -1.
</event>
<event>
 5   0  0.6319125E-07  0.2301101E+04  0.7818609E-02  0.8477487E-01
        4   -1    0    0  501    0  0.00000000000E+00  0.00000000000E+00  0.10923875427E+04  0.10923882810E+04  0.12699999809E+01 0.  1.
       -4   -1    0    0    0  501  0.00000000000E+00  0.00000000000E+00 -0.12118092545E+04  0.12118099200E+04  0.12699999809E+01 0. -1.
    10030    2    1    2    0    0  0.00000000000E+00  0.00000000000E+00 -0.11942171180E+03  0.23041982010E+04  0.23011014329E+04 0.  0.
        4    1    3    3  502    0  0.70089208336E+03  0.29053446333E+03  0.80638398379E+03  0.11072112396E+04  0.12699999809E+01 0.  1.
       -4    1    3    3    0  502 -0.70089208336E+03 -0.29053446333E+03 -0.92580569559E+03  0.11969869614E+04  0.12699999809E+01 0. -1.
</event>
<event>
 5   0  0.8108242E-07  0.2298647E+04  0.7818609E-02  0.8478455E-01
        1   -1    0    0  501    0  0.00000000000E+00  0.00000000000E+00  0.16723356653E+04  0.16723356653E+04  0.50400001928E-02 0.  1.
       -1   -1    0    0    0  501  0.00000000000E+00  0.00000000000E+00 -0.78987982058E+03  0.78987982060E+03  0.50400001928E-02 0. -1.
    10030    2    1    2    0    0  0.00000000000E+00  0.00000000000E+00  0.88245584470E+03  0.24622154859E+04  0.22986467282E+04 0.  0.
        4    1    3    3  502    0  0.60837372189E+03  0.83466310079E+03  0.98124651687E+03  0.14246499279E+04  0.12699999809E+01 0.  1.
       -4    1    3    3    0  502 -0.60837372189E+03 -0.83466310079E+03 -0.98790672169E+02  0.10375655580E+04  0.12699999809E+01 0. -1.
</event>
<event>
 5   0  0.1744876E-06  0.2298795E+04  0.7818609E-02  0.8478396E-01
       -2   -1    0    0    0  501  0.00000000000E+00  0.00000000000E+00  0.83826110512E+03  0.83826110512E+03  0.25500000920E-02 0. -1.
        2   -1    0    0  501    0  0.00000000000E+00  0.00000000000E+00 -0.15760184990E+04  0.15760184990E+04  0.25500000920E-02 0.  1.
    10030    2    1    2    0    0  0.00000000000E+00  0.00000000000E+00 -0.73775739391E+03  0.24142796042E+04  0.22987953443E+04 0.  0.
        1    1    3    3  502    0 -0.76799420535E+03  0.20989087070E+02 -0.12667294794E+04  0.14815057256E+04  0.50400001928E-02 0.  1.
       -1    1    3    3    0  502  0.76799420535E+03 -0.20989087070E+02  0.52897208544E+03  0.93277387851E+03  0.50400001928E-02 0. -1.
</event>
<event>
 5   0  0.1828646E-06  0.2300001E+04  0.7818609E-02  0.8477921E-01
        2   -1    0    0  501    0  0.00000000000E+00  0.00000000000E+00  0.15380875486E+04  0.15380875486E+04  0.25500000920E-02 0.  1.
       -2   -1    0    0    0  501  0.00000000000E+00  0.00000000000E+00 -0.85983463367E+03  0.85983463368E+03  0.25500000920E-02 0. -1.
    10030    2    1    2    0    0  0.00000000000E+00  0.00000000000E+00  0.67825291495E+03  0.23979221823E+04  0.23000008208E+04 0.  0.
        3    1    3    3  502    0  0.78017269481E+03  0.55484608905E+03  0.10034168616E+04  0.13868558053E+04  0.10100000352E+00 0.  1.
       -3    1    3    3    0  502 -0.78017269481E+03 -0.55484608905E+03 -0.32516394670E+03  0.10110663770E+04  0.10100000352E+00 0. -1.
</event>
<event>
 5   0  0.7607231E-07  0.2299158E+04  0.7818609E-02  0.8478253E-01
       -1   -1    0    0    0  501  0.00000000000E+00  0.00000000000E+00  0.10874106597E+04  0.10874106597E+04  0.50400001928E-02 0.  1.
        1   -1    0    0  501    0  0.00000000000E+00  0.00000000000E+00 -0.12153015811E+04  0.12153015811E+04  0.50400001928E-02 0. -1.
    10030    2    1    2    0    0  0.00000000000E+00  0.00000000000E+00 -0.12789092143E+03  0.23027122409E+04  0.22991580147E+04 0.  0.
        2    1    3    3  502    0  0.75056454836E+03  0.25794931020E+03  0.76899329310E+03  0.11050953229E+04  0.25500000920E-02 0.  1.
       -2    1    3    3    0  502 -0.75056454836E+03 -0.25794931020E+03 -0.89688421453E+03  0.11976169180E+04  0.25500000920E-02 0. -1.
</event>
<event>
 5   0  0.6319125E-07  0.2301836E+04  0.7818609E-02  0.8477198E-01
        3   -1    0    0  501    0  0.00000000000E+00  0.00000000000E+00  0.96024587624E+03  0.96024588155E+03  0.10100000352E+00 0.  1.
       -3   -1    0    0    0  501  0.00000000000E+00  0.00000000000E+00 -0.13794505928E+04  0.13794505965E+04  0.10100000352E+00 0. -1.
    10030    2    1    2    0    0  0.00000000000E+00  0.00000000000E+00 -0.41920471655E+03  0.23396964780E+04  0.23018355751E+04 0.  0.
        3    1    3    3  502    0  0.99843059125E+03  0.47925678290E+03  0.10869531039E+03  0.11128186691E+04  0.10100000352E+00 0.  1.
       -3    1    3    3    0  502 -0.99843059125E+03 -0.47925678290E+03 -0.52790002694E+03  0.12268778090E+04  0.10100000352E+00 0. -1.
</event>
<event>
 5   0  0.7932912E-07  0.2291520E+04  0.7818609E-02  0.8481272E-01
        1   -1    0    0  501    0  0.00000000000E+00  0.00000000000E+00  0.12630031171E+04  0.12630031171E+04  0.50400001928E-02 0. -1.
       -1   -1    0    0    0  501  0.00000000000E+00  0.00000000000E+00 -0.10394006799E+04  0.10394006799E+04  0.50400001928E-02 0.  1.
    10030    2    1    2    0    0  0.00000000000E+00  0.00000000000E+00  0.22360243720E+03  0.23024037970E+04  0.22915202802E+04 0.  0.
        5    1    3    3  502    0  0.76288333242E+03 -0.32708000448E+03  0.90534463171E+03  0.12282684154E+04  0.46999998093E+01 0. -1.
       -5    1    3    3    0  502 -0.76288333242E+03  0.32708000448E+03 -0.68174219450E+03  0.10741353816E+04  0.46999998093E+01 0.  1.
</event>
<event>
 5   0  0.1825521E-06  0.2299316E+04  0.7818609E-02  0.8478191E-01
       -2   -1    0    0    0  501  0.00000000000E+00  0.00000000000E+00  0.74075129290E+03  0.74075129290E+03  0.25500000920E-02 0. -1.
        2   -1    0    0  501    0  0.00000000000E+00  0.00000000000E+00 -0.17842871088E+04  0.17842871088E+04  0.25500000920E-02 0.  1.
    10030    2    1    2    0    0  0.00000000000E+00  0.00000000000E+00 -0.10435358159E+04  0.25250384017E+04  0.22993155353E+04 0.  0.
        5    1    3    3  502    0 -0.70858404111E+03  0.49241362258E+03 -0.13560359872E+04  0.16073015298E+04  0.46999998093E+01 0.  1.
       -5    1    3    3    0  502  0.70858404111E+03 -0.49241362258E+03  0.31250017131E+03  0.91773687192E+03  0.46999998093E+01 0. -1.
</event>
<event>
 5   0  0.1744876E-06  0.2299773E+04  0.7818609E-02  0.8478010E-01
       -2   -1    0    0    0  501  0.00000000000E+00  0.00000000000E+00  0.48011008148E+03  0.48011008148E+03  0.25500000920E-02 0. -1.
        2   -1    0    0  501    0  0.00000000000E+00  0.00000000000E+00 -0.27540339746E+04  0.27540339746E+04  0.25500000920E-02 0.  1.
    10030    2    1    2    0    0  0.00000000000E+00  0.00000000000E+00 -0.22739238931E+04  0.32341440561E+04  0.22997734462E+04 0.  0.
        1    1    3    3  502    0 -0.77833215076E+03 -0.43300824660E+03 -0.21597331574E+04  0.23361815832E+04  0.50400001928E-02 0.  1.
       -1    1    3    3    0  502  0.77833215076E+03  0.43300824660E+03 -0.11419073572E+03  0.89796247287E+03  0.50400001928E-02 0. -1.
</event>
<event>
 5   0  0.7932912E-07  0.2300661E+04  0.7818609E-02  0.8477661E-01
        1   -1    0    0  501    0  0.00000000000E+00  0.00000000000E+00  0.25929349952E+04  0.25929349952E+04  0.50400001928E-02 0.  1.
       -1   -1    0    0    0  501  0.00000000000E+00  0.00000000000E+00 -0.51033283915E+03  0.51033283917E+03  0.50400001928E-02 0. -1.
    10030    2    1    2    0    0  0.00000000000E+00  0.00000000000E+00  0.20826021560E+04  0.31032678344E+04  0.23006606685E+04 0.  0.
        5    1    3    3  502    0 -0.96639670953E+03 -0.25943793612E+03  0.18067204439E+04  0.20653066347E+04  0.46999998093E+01 0. -1.
       -5    1    3    3    0  502  0.96639670953E+03  0.25943793612E+03  0.27588171209E+03  0.10379611996E+04  0.46999998093E+01 0.  1.
</event>
<event>
 5   0  0.8108242E-07  0.2298717E+04  0.7818609E-02  0.8478427E-01
       -1   -1    0    0    0  501  0.00000000000E+00  0.00000000000E+00  0.62741309508E+03  0.62741309510E+03  0.50400001928E-02 0. -1.
        1   -1    0    0  501    0  0.00000000000E+00  0.00000000000E+00 -0.21055102103E+04  0.21055102103E+04  0.50400001928E-02 0.  1.
    10030    2    1    2    0    0  0.00000000000E+00  0.00000000000E+00 -0.14780971152E+04  0.27329233054E+04  0.22987167531E+04 0.  0.
        4    1    3    3  502    0 -0.42934667002E+03 -0.58773832132E+03  0.31849518957E+03  0.79449084078E+03  0.12699999809E+01 0. -1.
       -4    1    3    3    0  502  0.42934667002E+03  0.58773832132E+03 -0.17965923048E+04  0.19384324646E+04  0.12699999809E+01 0.  1.
</event>
<event>
 5   0  0.1888779E-06  0.2300513E+04  0.7818609E-02  0.8477719E-01
       -2   -1    0    0    0  501  0.00000000000E+00  0.00000000000E+00  0.45169159373E+03  0.45169159374E+03  0.25500000920E-02 0.  1.
        2   -1    0    0  501    0  0.00000000000E+00  0.00000000000E+00 -0.29291887944E+04  0.29291887944E+04  0.25500000920E-02 0. -1.
    10030    2    1    2    0    0  0.00000000000E+00  0.00000000000E+00 -0.24774972007E+04  0.33808803881E+04  0.23005129471E+04 0.  0.
        4    1    3    3  502    0  0.40703941333E+03  0.14782484762E+02 -0.28196588793E+04  0.28489256597E+04  0.12699999809E+01 0. -1.
       -4    1    3    3    0  502 -0.40703941333E+03 -0.14782484762E+02  0.34216167866E+03  0.53195472843E+03  0.12699999809E+01 0.  1.
</event>
<event>
 5   0  0.1744876E-06  0.2299895E+04  0.7818609E-02  0.8477962E-01
        2   -1    0    0  501    0  0.00000000000E+00  0.00000000000E+00  0.22473640048E+04  0.22473640048E+04  0.25500000920E-02 0.  1.
       -2   -1    0    0    0  501  0.00000000000E+00  0.00000000000E+00 -0.58841354889E+03  0.58841354890E+03  0.25500000920E-02 0. -1.
    10030    2    1    2    0    0  0.00000000000E+00  0.00000000000E+00  0.16589504560E+04  0.28357775537E+04  0.22998951539E+04 0.  0.
        1    1    3    3  502    0 -0.44674263386E+03  0.32208781099E+03  0.20741731850E+04  0.21460461179E+04  0.50400001928E-02 0.  1.
       -1    1    3    3    0  502  0.44674263386E+03 -0.32208781099E+03 -0.41522272900E+03  0.68973143585E+03  0.50400001928E-02 0. -1.
</event>
<event>
 5   0  0.1825521E-06  0.2299866E+04  0.7818609E-02  0.8477974E-01
       -2   -1    0    0    0  501  0.00000000000E+00  0.00000000000E+00  0.93436592738E+03  0.93436592739E+03  0.25500000920E-02 0. -1.
        2   -1    0    0  501    0  0.00000000000E+00  0.00000000000E+00 -0.14152334454E+04  0.14152334454E+04  0.25500000920E-02 0.  1.
    10030    2    1    2    0    0  0.00000000000E+00  0.00000000000E+00 -0.48086751801E+03  0.23495993728E+04  0.22998660054E+04 0.  0.
        5    1    3    3  502    0  0.64663792171E+03  0.63094320165E+03 -0.96722022760E+03  0.13235433443E+04  0.46999998093E+01 0.  1.
       -5    1    3    3    0  502 -0.64663792171E+03 -0.63094320165E+03  0.48635270959E+03  0.10260560285E+04  0.46999998093E+01 0. -1.
</event>
<event>
 5   0  0.1825521E-06  0.2284329E+04  0.7818609E-02  0.8484126E-01
        2   -1    0    0  501    0  0.00000000000E+00  0.00000000000E+00  0.78310109269E+03  0.78310109269E+03  0.25500000920E-02 0. -1.
       -2   -1    0    0    0  501  0.00000000000E+00  0.00000000000E+00 -0.16658643648E+04  0.16658643648E+04  0.25500000920E-02 0.  1.
    10030    2    1    2    0    0  0.00000000000E+00  0.00000000000E+00 -0.88276327209E+03  0.24489654575E+04  0.22843294021E+04 0.  0.
        5    1    3    3  502    0  0.29093615872E+03 -0.30309062922E+03  0.69724271983E+03  0.81404992373E+03  0.46999998093E+01 0. -1.
       -5    1    3    3    0  502 -0.29093615872E+03  0.30309062922E+03 -0.15800059919E+04  0.16349155337E+04  0.46999998093E+01 0.  1.
</event>
<event>
 5   0  0.1825521E-06  0.2300156E+04  0.7818609E-02  0.8477860E-01
        2   -1    0    0  501    0  0.00000000000E+00  0.00000000000E+00  0.22813983235E+04  0.22813983235E+04  0.25500000920E-02 0. -1.
       -2   -1    0    0    0  501  0.00000000000E+00  0.00000000000E+00 -0.57976689673E+03  0.57976689674E+03  0.25500000920E-02 0.  1.
    10030    2    1    2    0    0  0.00000000000E+00  0.00000000000E+00  0.17016314268E+04  0.28611652203E+04  0.23001558436E+04 0.  0.
        5    1    3    3  502    0  0.63223461589E+03  0.92573808617E+03  0.11702476483E+04  0.16205595521E+04  0.46999998093E+01 0. -1.
       -5    1    3    3    0  502 -0.63223461589E+03 -0.92573808617E+03  0.53138377851E+03  0.12406056681E+04  0.46999998093E+01 0.  1.
</event>
<event>
 5   0  0.7932912E-07  0.2300829E+04  0.7818609E-02  0.8477594E-01
       -1   -1    0    0    0  501  0.00000000000E+00  0.00000000000E+00  0.81443093003E+03  0.81443093005E+03  0.50400001928E-02 0.  1.
        1   -1    0    0  501    0  0.00000000000E+00  0.00000000000E+00 -0.16250033924E+04  0.16250033924E+04  0.50400001928E-02 0. -1.
    10030    2    1    2    0    0  0.00000000000E+00  0.00000000000E+00 -0.81057246236E+03  0.24394343225E+04  0.23008285675E+04 0.  0.
        5    1    3    3  502    0  0.31133533166E+03 -0.28191909162E+03  0.73022362389E+03  0.84241123797E+03  0.46999998093E+01 0.  1.
       -5    1    3    3    0  502 -0.31133533166E+03  0.28191909162E+03 -0.15407960863E+04  0.15970230845E+04  0.46999998093E+01 0. -1.
</event>
<event>
 5   0  0.1744876E-06  0.2301212E+04  0.7818609E-02  0.8477443E-01
        2   -1    0    0  501    0  0.00000000000E+00  0.00000000000E+00  0.91418370714E+03  0.91418370714E+03  0.25500000920E-02 0. -1.
       -2   -1    0    0    0  501  0.00000000000E+00  0.00000000000E+00 -0.14481711301E+04  0.14481711301E+04  0.25500000920E-02 0.  1.
    10030    2    1    2    0    0  0.00000000000E+00  0.00000000000E+00 -0.53398742298E+03  0.23623548373E+04  0.23012122478E+04 0.  0.
        1    1    3    3  502    0 -0.49011651891E+03  0.34569870295E+03 -0.12750060778E+04  0.14090288478E+04  0.50400001928E-02 0.  1.
       -1    1    3    3    0  502  0.49011651891E+03 -0.34569870295E+03  0.74101865486E+03  0.95332598948E+03  0.50400001928E-02 0. -1.
</event>
<event>
 5   0  0.7607231E-07  0.2299807E+04  0.7818609E-02  0.8477997E-01
        1   -1    0    0  501    0  0.00000000000E+00  0.00000000000E+00  0.11136522782E+04  0.11136522782E+04  0.50400001928E-02 0. -1.
       -1   -1    0    0    0  501  0.00000000000E+00  0.00000000000E+00 -0.11873351732E+04  0.11873351732E+04  0.50400001928E-02 0.  1.
    10030    2    1    2    0    0  0.00000000000E+00  0.00000000000E+00 -0.73682895000E+02  0.23009874514E+04  0.22998074011E+04 0.  0.
        2    1    3    3  502    0 -0.76607703327E+03 -0.78257009501E+03 -0.38771862163E+03  0.11617296175E+04  0.25500000920E-02 0.  1.
       -2    1    3    3    0  502  0.76607703327E+03  0.78257009501E+03  0.31403572663E+03  0.11392578339E+04  0.25500000920E-02 0. -1.
</event>
<event>
 5   0  0.7607231E-07  0.2299982E+04  0.7818609E-02  0.8477928E-01
       -1   -1    0    0    0  501  0.00000000000E+00  0.00000000000E+00  0.11542154301E+04  0.11542154301E+04  0.50400001928E-02 0.  1.
        1   -1    0    0  501    0  0.00000000000E+00  0.00000000000E+00 -0.11457820074E+04  0.11457820074E+04  0.50400001928E-02 0. -1.
    10030    2    1    2    0    0  0.00000000000E+00  0.00000000000E+00  0.84334227603E+01  0.22999974375E+04  0.22999819760E+04 0.  0.
        2    1    3    3  502    0  0.15659005053E+03  0.46548447754E+03  0.10440713010E+04  0.11538115636E+04  0.25500000920E-02 0.  1.
       -2    1    3    3    0  502 -0.15659005053E+03 -0.46548447754E+03 -0.10356378782E+04  0.11461858739E+04  0.25500000920E-02 0. -1.
</event>
<event>
 5   0  0.8097672E-07  0.2299454E+04  0.7818609E-02  0.8478136E-01
        1   -1    0    0  501    0  0.00000000000E+00  0.00000000000E+00  0.24670640552E+04  0.24670640552E+04  0.50400001928E-02 0.  1.
       -1   -1    0    0    0  501  0.00000000000E+00  0.00000000000E+00 -0.53580780465E+03  0.53580780467E+03  0.50400001928E-02 0. -1.
    10030    2    1    2    0    0  0.00000000000E+00  0.00000000000E+00  0.19312562505E+04  0.30028718599E+04  0.22994540007E+04 0.  0.
        3    1    3    3  502    0 -0.88220729013E+03 -0.99528626141E+02  0.19196341553E+04  0.21149919505E+04  0.10100000352E+00 0.  1.
       -3    1    3    3    0  502  0.88220729013E+03  0.99528626141E+02  0.11622095229E+02  0.88787990938E+03  0.10100000352E+00 0. -1.
</event>
<event>
 5   0  0.1744876E-06  0.2300260E+04  0.7818609E-02  0.8477819E-01
        2   -1    0    0  501    0  0.00000000000E+00  0.00000000000E+00  0.12952829405E+04  0.12952829405E+04  0.25500000920E-02 0. -1.
       -2   -1    0    0    0  501  0.00000000000E+00  0.00000000000E+00 -0.10212432138E+04  0.10212432138E+04  0.25500000920E-02 0.  1.
    10030    2    1    2    0    0  0.00000000000E+00  0.00000000000E+00  0.27403972666E+03  0.23165261543E+04  0.23002599096E+04 0.  0.
        1    1    3    3  502    0 -0.93817025865E+03  0.33359473680E+03  0.71672053676E+03  0.12268403362E+04  0.50400001928E-02 0. -1.
       -1    1    3    3    0  502  0.93817025865E+03 -0.33359473680E+03 -0.44268081009E+03  0.10896858182E+04  0.50400001928E-02 0.  1.
</event>
<event>
 5   0  0.8108242E-07  0.2300408E+04  0.7818609E-02  0.8477760E-01
        1   -1    0    0  501    0  0.00000000000E+00  0.00000000000E+00  0.23082044851E+04  0.23082044851E+04  0.50400001928E-02 0.  1.
       -1   -1    0    0    0  501  0.00000000000E+00  0.00000000000E+00 -0.57315945611E+03  0.57315945614E+03  0.50400001928E-02 0. -1.
    10030    2    1    2    0    0  0.00000000000E+00  0.00000000000E+00  0.17350450290E+04  0.28813639413E+04  0.23004079876E+04 0.  0.
        4    1    3    3  502    0  0.10037529558E+04 -0.47870321828E+03  0.12354613386E+04  0.16622403856E+04  0.12699999809E+01 0.  1.
       -4    1    3    3    0  502 -0.10037529558E+04  0.47870321828E+03  0.49958369040E+03  0.12191235557E+04  0.12699999809E+01 0. -1.
</event>
<event>
 5   0  0.8108242E-07  0.2300233E+04  0.7818609E-02  0.8477829E-01
       -1   -1    0    0    0  501  0.00000000000E+00  0.00000000000E+00  0.69436230124E+03  0.69436230126E+03  0.50400001928E-02 0.  1.
        1   -1    0    0  501    0  0.00000000000E+00  0.00000000000E+00 -0.19050118903E+04  0.19050118903E+04  0.50400001928E-02 0. -1.
    10030    2    1    2    0    0  0.00000000000E+00  0.00000000000E+00 -0.12106495891E+04  0.25993741916E+04  0.23002334143E+04 0.  0.
        4    1    3    3  502    0 -0.54085644771E+03  0.74236858088E+03  0.17688560585E+03  0.93537529226E+03  0.12699999809E+01 0.  1.
       -4    1    3    3    0  502  0.54085644771E+03 -0.74236858088E+03 -0.13875351949E+04  0.16639988993E+04  0.12699999809E+01 0. -1.
</event>
<event>
 5   0  0.7932912E-07  0.2298597E+04  0.7818609E-02  0.8478474E-01
        1   -1    0    0  501    0  0.00000000000E+00  0.00000000000E+00  0.21598334546E+04  0.21598334546E+04  0.50400001928E-02 0. -1.
       -1   -1    0    0    0  501  0.00000000000E+00  0.00000000000E+00 -0.61156901994E+03  0.61156901996E+03  0.50400001928E-02 0.  1.
    10030    2    1    2    0    0  0.00000000000E+00  0.00000000000E+00  0.15482644346E+04  0.27714024746E+04  0.22985971627E+04 0.  0.
        5    1    3    3  502    0  0.37393542460E+03 -0.10867504751E+04  0.77016218779E+03  0.13834833510E+04  0.46999998093E+01 0.  1.
       -5    1    3    3    0  502 -0.37393542460E+03  0.10867504751E+04  0.77810224685E+03  0.13879191236E+04  0.46999998093E+01 0. -1.
</event>
<event>
 5   0  0.1689444E-06  0.2300322E+04  0.7818609E-02  0.8477794E-01
       -2   -1    0    0    0  501  0.00000000000E+00  0.00000000000E+00  0.15698101913E+04  0.15698101913E+04  0.25500000920E-02 0.  1.
        2   -1    0    0  501    0  0.00000000000E+00  0.00000000000E+00 -0.84269456836E+03  0.84269456836E+03  0.25500000920E-02 0. -1.
    10030    2    1    2    0    0  0.00000000000E+00  0.00000000000E+00  0.72711562297E+03  0.24125047597E+04  0.23003221701E+04 0.  0.
        2    1    3    3  502    0  0.10944679071E+04 -0.21515169102E+03  0.65781210363E+03  0.12949389999E+04  0.25500000920E-02 0.  1.
       -2    1    3    3    0  502 -0.10944679071E+04  0.21515169102E+03  0.69303519346E+02  0.11175657598E+04  0.25500000920E-02 0. -1.
</event>
<event>
 5   0  0.1888779E-06  0.2298872E+04  0.7818609E-02  0.8478366E-01
        2   -1    0    0  501    0  0.00000000000E+00  0.00000000000E+00  0.97274165285E+03  0.97274165285E+03  0.25500000920E-02 0. -1.
       -2   -1    0    0    0  501  0.00000000000E+00  0.00000000000E+00 -0.13582264409E+04  0.13582264409E+04  0.25500000920E-02 0.  1.
    10030    2    1    2    0    0  0.00000000000E+00  0.00000000000E+00 -0.38548478807E+03  0.23309680938E+04  0.22988722740E+04 0.  0.
        4    1    3    3  502    0  0.91694308088E+03 -0.33504680598E+03 -0.80797633330E+03  0.12672286076E+04  0.12699999809E+01 0.  1.
       -4    1    3    3    0  502 -0.91694308088E+03  0.33504680598E+03  0.42249154524E+03  0.10637394862E+04  0.12699999809E+01 0. -1.
</event>
<event>
 5   0  0.1825521E-06  0.2300902E+04  0.7818609E-02  0.8477566E-01
       -2   -1    0    0    0  501  0.00000000000E+00  0.00000000000E+00  0.97283961270E+03  0.97283961270E+03  0.25500000920E-02 0. -1.
        2   -1    0    0  501    0  0.00000000000E+00  0.00000000000E+00 -0.13604887322E+04  0.13604887322E+04  0.25500000920E-02 0.  1.
    10030    2    1    2    0    0  0.00000000000E+00  0.00000000000E+00 -0.38764911947E+03  0.23333283449E+04  0.23009018504E+04 0.  0.
        5    1    3    3  502    0  0.11145739694E+03  0.10768997223E+04 -0.58838293376E+03  0.12322144010E+04  0.46999998093E+01 0.  1.
       -5    1    3    3    0  502 -0.11145739694E+03 -0.10768997223E+04  0.20073381429E+03  0.11011139439E+04  0.46999998093E+01 0. -1.
</event>
<event>
 5   0  0.1828646E-06  0.2297288E+04  0.7818609E-02  0.8478991E-01
       -2   -1    0    0    0  501  0.00000000000E+00  0.00000000000E+00  0.24004713147E+04  0.24004713147E+04  0.25500000920E-02 0. -1.
        2   -1    0    0  501    0  0.00000000000E+00  0.00000000000E+00 -0.54963496543E+03  0.54963496544E+03  0.25500000920E-02 0.  1.
    10030    2    1    2    0    0  0.00000000000E+00  0.00000000000E+00  0.18508363492E+04  0.29501062801E+04  0.22972879385E+04 0.  0.
        3    1    3    3  502    0 -0.74436265527E+03 -0.57387018260E+03  0.77496733582E+02  0.94308456829E+03  0.10100000352E+00 0.  1.
       -3    1    3    3    0  502  0.74436265527E+03  0.57387018260E+03  0.17733396156E+04  0.20070217118E+04  0.10100000352E+00 0. -1.
</event>
<event>
 5   0  0.1825521E-06  0.2295039E+04  0.7818609E-02  0.8479880E-01
       -2   -1    0    0    0  501  0.00000000000E+00  0.00000000000E+00  0.61085731283E+03  0.61085731283E+03  0.25500000920E-02 0. -1.
        2   -1    0    0  501    0  0.00000000000E+00  0.00000000000E+00 -0.21556612532E+04  0.21556612532E+04  0.25500000920E-02 0.  1.
    10030    2    1    2    0    0  0.00000000000E+00  0.00000000000E+00 -0.15448039404E+04  0.27665185660E+04  0.22950393814E+04 0.  0.
        5    1    3    3  502    0  0.72440097797E+03  0.19631454050E+03  0.27395585484E+03  0.79898064814E+03  0.46999998093E+01 0. -1.
       -5    1    3    3    0  502 -0.72440097797E+03 -0.19631454050E+03 -0.18187597952E+04  0.19675379179E+04  0.46999998093E+01 0.  1.
</event>
<event>
 5   0  0.1689444E-06  0.2283722E+04  0.7818609E-02  0.8484367E-01
        2   -1    0    0  501    0  0.00000000000E+00  0.00000000000E+00  0.10457209488E+04  0.10457209488E+04  0.25500000920E-02 0.  1.
       -2   -1    0    0    0  501  0.00000000000E+00  0.00000000000E+00 -0.12468395358E+04  0.12468395358E+04  0.25500000920E-02 0. -1.
    10030    2    1    2    0    0  0.00000000000E+00  0.00000000000E+00 -0.20111858700E+03  0.22925604845E+04  0.22837217188E+04 0.  0.
        2    1    3    3  502    0  0.25282031342E+03 -0.45200077899E+02  0.10163496842E+04  0.10482975906E+04  0.25500000920E-02 0.  1.
       -2    1    3    3    0  502 -0.25282031342E+03  0.45200077899E+02 -0.12174682712E+04  0.12442628939E+04  0.25500000920E-02 0. -1.
</event>
<event>
 5   0  0.7761069E-07  0.2309701E+04  0.7818609E-02  0.8474106E-01
        1   -1    0    0  501    0  0.00000000000E+00  0.00000000000E+00  0.11432201659E+04  0.11432201660E+04  0.50400001928E-02 0. -1.
       -1   -1    0    0    0  501  0.00000000000E+00  0.00000000000E+00 -0.11665989846E+04  0.11665989847E+04  0.50400001928E-02 0.  1.
    10030    2    1    2    0    0  0.00000000000E+00  0.00000000000E+00 -0.23378818705E+02  0.23098191506E+04  0.23097008333E+04 0.  0.
        1    1    3    3  502    0  0.86198748115E+03  0.70696156229E+03  0.28975996603E+03  0.11518584575E+04  0.50400001928E-02 0. -1.
       -1    1    3    3    0  502 -0.86198748115E+03 -0.70696156229E+03 -0.31313878474E+03  0.11579606931E+04  0.50400001928E-02 0.  1.
</event>
<event>
 5   0  0.8108242E-07  0.2299345E+04  0.7818609E-02  0.8478179E-01
        1   -1    0    0  501    0  0.00000000000E+00  0.00000000000E+00  0.13120870784E+04  0.13120870784E+04  0.50400001928E-02 0.  1.
       -1   -1    0    0    0  501  0.00000000000E+00  0.00000000000E+00 -0.10073624829E+04  0.10073624829E+04  0.50400001928E-02 0. -1.
    10030    2    1    2    0    0  0.00000000000E+00  0.00000000000E+00  0.30472459545E+03  0.23194495613E+04  0.22993453826E+04 0.  0.
        4    1    3    3  502    0  0.35043366510E+03 -0.10870686029E+04  0.19975403020E+02  0.11423320580E+04  0.12699999809E+01 0. -1.
       -4    1    3    3    0  502 -0.35043366510E+03  0.10870686029E+04  0.28474919243E+03  0.11771175033E+04  0.12699999809E+01 0.  1.
</event>
<event>
 5   0  0.1888779E-06  0.2303228E+04  0.7818609E-02  0.8476650E-01
       -2   -1    0    0    0  501  0.00000000000E+00  0.00000000000E+00  0.10127093628E+04  0.10127093628E+04  0.25500000920E-02 0.  1.
        2   -1    0    0  501    0  0.00000000000E+00  0.00000000000E+00 -0.13095707213E+04  0.13095707213E+04  0.25500000920E-02 0. -1.
    10030    2    1    2    0    0  0.00000000000E+00  0.00000000000E+00 -0.29686135846E+03  0.23222800841E+04  0.23032277619E+04 0.  0.
        4    1    3    3  502    0 -0.10087222027E+04 -0.18400172924E+03  0.38015374540E+03  0.10935701174E+04  0.12699999809E+01 0. -1.
       -4    1    3    3    0  502  0.10087222027E+04  0.18400172924E+03 -0.67701510386E+03  0.12287099667E+04  0.12699999809E+01 0.  1.
</event>
<event>
 5   0  0.1888779E-06  0.2298422E+04  0.7818609E-02  0.8478544E-01
        2   -1    0    0  501    0  0.00000000000E+00  0.00000000000E+00  0.18233250251E+04  0.18233250251E+04  0.25500000920E-02 0.  1.
       -2   -1    0    0    0  501  0.00000000000E+00  0.00000000000E+00 -0.72432804802E+03  0.72432804802E+03  0.25500000920E-02 0. -1.
    10030    2    1    2    0    0  0.00000000000E+00  0.00000000000E+00  0.10989969771E+04  0.25476530732E+04  0.22984215944E+04 0.  0.
        4    1    3    3  502    0 -0.95383159795E+03 -0.58527633031E+03  0.25973047499E+03  0.11488275034E+04  0.12699999809E+01 0. -1.
       -4    1    3    3    0  502  0.95383159795E+03  0.58527633031E+03  0.83926650213E+03  0.13988255697E+04  0.12699999809E+01 0.  1.
</event>
<event>
 5   0  0.7607231E-07  0.2299668E+04  0.7818609E-02  0.8478052E-01
       -1   -1    0    0    0  501  0.00000000000E+00  0.00000000000E+00  0.87648567210E+03  0.87648567211E+03  0.50400001928E-02 0. -1.
        1   -1    0    0  501    0  0.00000000000E+00  0.00000000000E+00 -0.15084317328E+04  0.15084317328E+04  0.50400001928E-02 0.  1.
    10030    2    1    2    0    0  0.00000000000E+00  0.00000000000E+00 -0.63194606066E+03  0.23849174049E+04  0.22996684988E+04 0.  0.
        2    1    3    3  502    0 -0.73366691576E+03 -0.11366129556E+03  0.59460330515E+03  0.95117775620E+03  0.25500000920E-02 0. -1.
       -2    1    3    3    0  502  0.73366691576E+03  0.11366129556E+03 -0.12265493658E+04  0.14337396487E+04  0.25500000920E-02 0.  1.
</event>
<event>
 5   0  0.7607231E-07  0.2303577E+04  0.7818609E-02  0.8476512E-01
       -1   -1    0    0    0  501  0.00000000000E+00  0.00000000000E+00  0.66948639541E+03  0.66948639543E+03  0.50400001928E-02 0. -1.
        1   -1    0    0  501    0  0.00000000000E+00  0.00000000000E+00 -0.19815441695E+04  0.19815441695E+04  0.50400001928E-02 0.  1.
    10030    2    1    2    0    0  0.00000000000E+00  0.00000000000E+00 -0.13120577741E+04  0.26510305650E+04  0.23035770996E+04 0.  0.
        2    1    3    3  502    0  0.26901218434E+03 -0.76608815531E+02  0.62980673427E+03  0.68912479891E+03  0.25500000920E-02 0. -1.
       -2    1    3    3    0  502 -0.26901218434E+03  0.76608815531E+02 -0.19418645084E+04  0.19619057661E+04  0.25500000920E-02 0.  1.
</event>
<event>
 5   0  0.1689444E-06  0.2299865E+04  0.7818609E-02  0.8477974E-01
       -2   -1    0    0    0  501  0.00000000000E+00  0.00000000000E+00  0.81858020720E+03  0.81858020720E+03  0.25500000920E-02 0.  1.
        2   -1    0    0  501    0  0.00000000000E+00  0.00000000000E+00 -0.16154120194E+04  0.16154120194E+04  0.25500000920E-02 0. -1.
    10030    2    1    2    0    0  0.00000000000E+00  0.00000000000E+00 -0.79683181216E+03  0.24339922266E+04  0.22998646095E+04 0.  0.
        2    1    3    3  502    0  0.97150912391E+03  0.51993931467E+03 -0.50330945183E+02  0.11030412834E+04  0.25500000920E-02 0.  1.
       -2    1    3    3    0  502 -0.97150912391E+03 -0.51993931467E+03 -0.74650086698E+03  0.13309509432E+04  0.25500000920E-02 0. -1.
</event>
<event>
 5   0  0.1828646E-06  0.2300533E+04  0.7818609E-02  0.8477711E-01
        2   -1    0    0  501    0  0.00000000000E+00  0.00000000000E+00  0.12717890545E+04  0.12717890545E+04  0.25500000920E-02 0. -1.
       -2   -1    0    0    0  501  0.00000000000E+00  0.00000000000E+00 -0.10403553736E+04  0.10403553736E+04  0.25500000920E-02 0.  1.
    10030    2    1    2    0    0  0.00000000000E+00  0.00000000000E+00  0.23143368083E+03  0.23121444281E+04  0.23005326139E+04 0.  0.
        3    1    3    3  502    0  0.47005018270E+02  0.34408824752E+03  0.12178403275E+04  0.12663890663E+04  0.10100000352E+00 0. -1.
       -3    1    3    3    0  502 -0.47005018270E+02 -0.34408824752E+03 -0.98640664668E+03  0.10457553618E+04  0.10100000352E+00 0.  1.
</event>
<event>
 5   0  0.1689444E-06  0.2300313E+04  0.7818609E-02  0.8477798E-01
        2   -1    0    0  501    0  0.00000000000E+00  0.00000000000E+00  0.21043949040E+04  0.21043949040E+04  0.25500000920E-02 0.  1.
       -2   -1    0    0    0  501  0.00000000000E+00  0.00000000000E+00 -0.62861748899E+03  0.62861748899E+03  0.25500000920E-02 0. -1.
    10030    2    1    2    0    0  0.00000000000E+00  0.00000000000E+00  0.14757774150E+04  0.27330123930E+04  0.23003125357E+04 0.  0.
        2    1    3    3  502    0  0.63715343086E+03  0.14356232059E+03 -0.38691767504E+03  0.75913103059E+03  0.25500000920E-02 0. -1.
       -2    1    3    3    0  502 -0.63715343086E+03 -0.14356232059E+03  0.18626950901E+04  0.19738813624E+04  0.25500000920E-02 0.  1.
</event>
<event>
 5   0  0.1744876E-06  0.2300134E+04  0.7818609E-02  0.8477868E-01
       -2   -1    0    0    0  501  0.00000000000E+00  0.00000000000E+00  0.66919622208E+03  0.66919622208E+03  0.25500000920E-02 0. -1.
        2   -1    0    0  501    0  0.00000000000E+00  0.00000000000E+00 -0.19764823524E+04  0.19764823524E+04  0.25500000920E-02 0.  1.
    10030    2    1    2    0    0  0.00000000000E+00  0.00000000000E+00 -0.13072861303E+04  0.26456785745E+04  0.23001343641E+04 0.  0.
        1    1    3    3  502    0 -0.11238405839E+03 -0.97244447272E+03 -0.13479616848E+04  0.16659169045E+04  0.50400001928E-02 0.  1.
       -1    1    3    3    0  502  0.11238405839E+03  0.97244447272E+03  0.40675554499E+02  0.97976166993E+03  0.50400001928E-02 0. -1.
</event>
<event>
 5   0  0.8097672E-07  0.2300173E+04  0.7818609E-02  0.8477853E-01
        1   -1    0    0  501    0  0.00000000000E+00  0.00000000000E+00  0.17736651628E+04  0.17736651628E+04  0.50400001928E-02 0.  1.
       -1   -1    0    0    0  501  0.00000000000E+00  0.00000000000E+00 -0.74574330422E+03  0.74574330423E+03  0.50400001928E-02 0. -1.
    10030    2    1    2    0    0  0.00000000000E+00  0.00000000000E+00  0.10279218585E+04  0.25194084670E+04  0.23001729666E+04 0.  0.
        3    1    3    3  502    0  0.70031273374E+02  0.80992297290E+03 -0.37710083022E+03  0.89614990244E+03  0.10100000352E+00 0. -1.
       -3    1    3    3    0  502 -0.70031273374E+02 -0.80992297290E+03  0.14050226888E+04  0.16232585646E+04  0.10100000352E+00 0.  1.
</event>
<event>
 5   0  0.1825521E-06  0.2299738E+04  0.7818609E-02  0.8478024E-01
        2   -1    0    0  501    0  0.00000000000E+00  0.00000000000E+00  0.83286638997E+03  0.83286638997E+03  0.25500000920E-02 0.  1.
       -2   -1    0    0    0  501  0.00000000000E+00  0.00000000000E+00 -0.15875286670E+04  0.15875286670E+04  0.25500000920E-02 0. -1.
    10030    2    1    2    0    0  0.00000000000E+00  0.00000000000E+00 -0.75466227700E+03  0.24203950569E+04  0.22997384806E+04 0.  0.
        5    1    3    3  502    0 -0.12047915309E+02 -0.10361907249E+04  0.14715238698E+03  0.10466672277E+04  0.46999998093E+01 0.  1.
       -5    1    3    3    0  502  0.12047915309E+02  0.10361907249E+04 -0.90181466398E+03  0.13737278292E+04  0.46999998093E+01 0. -1.
</event>
<event>
 5   0  0.1888779E-06  0.2299672E+04  0.7818609E-02  0.8478050E-01
        2   -1    0    0  501    0  0.00000000000E+00  0.00000000000E+00  0.14673286463E+04  0.14673286463E+04  0.25500000920E-02 0.  1.
       -2   -1    0    0    0  501  0.00000000000E+00  0.00000000000E+00 -0.90104065082E+03  0.90104065082E+03  0.25500000920E-02 0. -1.
    10030    2    1    2    0    0  0.00000000000E+00  0.00000000000E+00  0.56628799551E+03  0.23683692972E+04  0.22996719405E+04 0.  0.
        4    1    3    3  502    0 -0.24142196547E+03 -0.67811906215E+03 -0.64029702060E+03  0.96338565245E+03  0.12699999809E+01 0. -1.
       -4    1    3    3    0  502  0.24142196547E+03  0.67811906215E+03  0.12065850161E+04  0.14049836447E+04  0.12699999809E+01 0.  1.
</event>
<event>
 5   0  0.1689444E-06  0.2297019E+04  0.7818609E-02  0.8479097E-01
        2   -1    0    0  501    0  0.00000000000E+00  0.00000000000E+00  0.17295819846E+04  0.17295819846E+04  0.25500000920E-02 0. -1.
       -2   -1    0    0    0  501  0.00000000000E+00  0.00000000000E+00 -0.76265502595E+03  0.76265502596E+03  0.25500000920E-02 0.  1.
    10030    2    1    2    0    0  0.00000000000E+00  0.00000000000E+00  0.96692695866E+03  0.24922370106E+04  0.22970192802E+04 0.  0.
        2    1    3    3  502    0  0.60552055079E+03 -0.15528565837E+03 -0.56190690098E+03  0.84054038482E+03  0.25500000920E-02 0.  1.
       -2    1    3    3    0  502 -0.60552055079E+03  0.15528565837E+03  0.15288338596E+04  0.16516966258E+04  0.25500000920E-02 0. -1.
</event>
<event>
 5   0  0.8097672E-07  0.2299813E+04  0.7818609E-02  0.8477995E-01
       -1   -1    0    0    0  501  0.00000000000E+00  0.00000000000E+00  0.70814043996E+03  0.70814043998E+03  0.50400001928E-02 0.  1.
        1   -1    0    0  501    0  0.00000000000E+00  0.00000000000E+00 -0.18672639461E+04  0.18672639461E+04  0.50400001928E-02 0. -1.
    10030    2    1    2    0    0  0.00000000000E+00  0.00000000000E+00 -0.11591235061E+04  0.25754043861E+04  0.22998131336E+04 0.  0.
        3    1    3    3  502    0 -0.27924560770E+03  0.99789996843E+03 -0.11377984593E+04  0.15389502268E+04  0.10100000352E+00 0.  1.
       -3    1    3    3    0  502  0.27924560770E+03 -0.99789996843E+03 -0.21325046798E+02  0.10364541593E+04  0.10100000352E+00 0. -1.
</event>
<event>
 5   0  0.7932912E-07  0.2300178E+04  0.7818609E-02  0.8477851E-01
       -1   -1    0    0    0  501  0.00000000000E+00  0.00000000000E+00  0.14732619149E+04  0.14732619149E+04  0.50400001928E-02 0. -1.
        1   -1    0    0  501    0  0.00000000000E+00  0.00000000000E+00 -0.89780658009E+03  0.89780658010E+03  0.50400001928E-02 0.  1.
    10030    2    1    2    0    0  0.00000000000E+00  0.00000000000E+00  0.57545533481E+03  0.23710684950E+04  0.23001775944E+04 0.  0.
        5    1    3    3  502    0 -0.84097646691E+03  0.59653200095E+03  0.81293038654E+03  0.13130002854E+04  0.46999998093E+01 0. -1.
       -5    1    3    3    0  502  0.84097646691E+03 -0.59653200095E+03 -0.23747505173E+03  0.10580682096E+04  0.46999998093E+01 0.  1.
</event>
<event>
 5   0  0.1744876E-06  0.2300378E+04  0.7818609E-02  0.8477772E-01
       -2   -1    0    0    0  501  0.00000000000E+00  0.00000000000E+00  0.60367927087E+03  0.60367927087E+03  0.25500000920E-02 0.  1.
        2   -1    0    0  501    0  0.00000000000E+00  0.00000000000E+00 -0.21914526488E+04  0.21914526488E+04  0.25500000920E-02 0. -1.
    10030    2    1    2    0    0  0.00000000000E+00  0.00000000000E+00 -0.15877733779E+04  0.27951319197E+04  0.23003778274E+04 0.  0.
        1    1    3    3  502    0  0.11202663111E+04  0.41610031304E+02 -0.11065331848E+04  0.15751646554E+04  0.50400001928E-02 0.  1.
       -1    1    3    3    0  502 -0.11202663111E+04 -0.41610031304E+02 -0.48124019312E+03  0.12199672643E+04  0.50400001928E-02 0. -1.
</event>
<event>
 5   0  0.1825521E-06  0.2299519E+04  0.7818609E-02  0.8478111E-01
       -2   -1    0    0    0  501  0.00000000000E+00  0.00000000000E+00  0.90327257846E+03  0.90327257847E+03  0.25500000920E-02 0.  1.
        2   -1    0    0  501    0  0.00000000000E+00  0.00000000000E+00 -0.14635082074E+04  0.14635082074E+04  0.25500000920E-02 0. -1.
    10030    2    1    2    0    0  0.00000000000E+00  0.00000000000E+00 -0.56023562894E+03  0.23667807859E+04  0.22995189341E+04 0.  0.
        5    1    3    3  502    0 -0.89009986879E+02 -0.20580943423E+03  0.88053918174E+03  0.90865375229E+03  0.46999998093E+01 0.  1.
       -5    1    3    3    0  502  0.89009986879E+02  0.20580943423E+03 -0.14407748107E+04  0.14581270336E+04  0.46999998093E+01 0. -1.
</event>
<event>
 5   0  0.1825521E-06  0.2299310E+04  0.7818609E-02  0.8478193E-01
       -2   -1    0    0    0  501  0.00000000000E+00  0.00000000000E+00  0.12236656856E+04  0.12236656856E+04  0.25500000920E-02 0.  1.
        2   -1    0    0  501    0  0.00000000000E+00  0.00000000000E+00 -0.10801209710E+04  0.10801209710E+04  0.25500000920E-02 0. -1.
    10030    2    1    2    0    0  0.00000000000E+00  0.00000000000E+00  0.14354471458E+03  0.23037866566E+04  0.22993103040E+04 0.  0.
        5    1    3    3  502    0 -0.96252149031E+02  0.16739460151E+03 -0.10637474872E+04  0.10811411727E+04  0.46999998093E+01 0. -1.
       -5    1    3    3    0  502  0.96252149031E+02 -0.16739460151E+03  0.12072922018E+04  0.12226454839E+04  0.46999998093E+01 0.  1.
</event>
<event>
 5   0  0.8108242E-07  0.2299989E+04  0.7818609E-02  0.8477926E-01
        1   -1    0    0  501    0  0.00000000000E+00  0.00000000000E+00  0.92683200495E+03  0.92683200496E+03  0.50400001928E-02 0.  1.
       -1   -1    0    0    0  501  0.00000000000E+00  0.00000000000E+00 -0.14268894900E+04  0.14268894900E+04  0.50400001928E-02 0. -1.
    10030    2    1    2    0    0  0.00000000000E+00  0.00000000000E+00 -0.50005748504E+03  0.23537214950E+04  0.22999885625E+04 0.  0.
        4    1    3    3  502    0  0.72572310884E+03  0.88788856384E+03 -0.33844807966E+03  0.11956457870E+04  0.12699999809E+01 0. -1.
       -4    1    3    3    0  502 -0.72572310884E+03 -0.88788856384E+03 -0.16160940538E+03  0.11580757079E+04  0.12699999809E+01 0.  1.
</event>
<event>
 5   0  0.8108242E-07  0.2299749E+04  0.7818609E-02  0.8478020E-01
       -1   -1    0    0    0  501  0.00000000000E+00  0.00000000000E+00  0.60660066445E+03  0.60660066447E+03  0.50400001928E-02 0. -1.
        1   -1    0    0  501    0  0.00000000000E+00  0.00000000000E+00 -0.21797060744E+04  0.21797060744E+04  0.50400001928E-02 0.  1.
    10030    2    1    2    0    0  0.00000000000E+00  0.00000000000E+00 -0.15731054100E+04  0.27863067389E+04  0.22997488150E+04 0.  0.
        4    1    3    3  502    0  0.14262016701E+03 -0.64118485382E+03 -0.19300277304E+04  0.20387415682E+04  0.12699999809E+01 0.  1.
       -4    1    3    3    0  502 -0.14262016701E+03  0.64118485382E+03  0.35692232040E+03  0.74756517074E+03  0.12699999809E+01 0. -1.
</event>
<event>
 5   0  0.7607231E-07  0.2298912E+04  0.7818609E-02  0.8478350E-01
        1   -1    0    0  501    0  0.00000000000E+00  0.00000000000E+00  0.17744996964E+04  0.17744996964E+04  0.50400001928E-02 0. -1.
       -1   -1    0    0    0  501  0.00000000000E+00  0.00000000000E+00 -0.74457577552E+03  0.74457577554E+03  0.50400001928E-02 0.  1.
    10030    2    1    2    0    0  0.00000000000E+00  0.00000000000E+00  0.10299239209E+04  0.25190754719E+04  0.22989123408E+04 0.  0.
        2    1    3    3  502    0  0.39291550513E+03  0.27806913053E+03  0.16587386583E+04  0.17271707999E+04  0.25500000920E-02 0. -1.
       -2    1    3    3    0  502 -0.39291550513E+03 -0.27806913053E+03 -0.62881473744E+03  0.79190467201E+03  0.25500000920E-02 0.  1.
</event>
<event>
 5   0  0.1744876E-06  0.2301252E+04  0.7818609E-02  0.8477428E-01
        2   -1    0    0  501    0  0.00000000000E+00  0.00000000000E+00  0.13320260238E+04  0.13320260238E+04  0.25500000920E-02 0.  1.
       -2   -1    0    0    0  501  0.00000000000E+00  0.00000000000E+00 -0.99392924408E+03  0.99392924408E+03  0.25500000920E-02 0. -1.
    10030    2    1    2    0    0  0.00000000000E+00  0.00000000000E+00  0.33809677970E+03  0.23259552679E+04  0.23012515020E+04 0.  0.
        1    1    3    3  502    0  0.86476045227E+03 -0.57117921580E+03  0.67429786890E+03  0.12364198124E+04  0.50400001928E-02 0.  1.
       -1    1    3    3    0  502 -0.86476045227E+03  0.57117921580E+03 -0.33620108921E+03  0.10895354555E+04  0.50400001928E-02 0. -1.
</event>
<event>
 5   0  0.1825521E-06  0.2298144E+04  0.7818609E-02  0.8478653E-01
       -2   -1    0    0    0  501  0.00000000000E+00  0.00000000000E+00  0.89794104662E+03  0.89794104662E+03  0.25500000920E-02 0. -1.
        2   -1    0    0  501    0  0.00000000000E+00  0.00000000000E+00 -0.14704379490E+04  0.14704379491E+04  0.25500000920E-02 0.  1.
    10030    2    1    2    0    0  0.00000000000E+00  0.00000000000E+00 -0.57249690243E+03  0.23683789957E+04  0.22981441129E+04 0.  0.
        5    1    3    3  502    0 -0.38680643796E+03 -0.10600200043E+04 -0.62631145725E+02  0.11301355584E+04  0.46999998093E+01 0.  1.
       -5    1    3    3    0  502  0.38680643796E+03  0.10600200043E+04 -0.50986575670E+03  0.12382434372E+04  0.46999998093E+01 0. -1.
</event>
<event>
 5   0  0.1828646E-06  0.2300137E+04  0.7818609E-02  0.8477867E-01
       -2   -1    0    0    0  501  0.00000000000E+00  0.00000000000E+00  0.10316241653E+04  0.10316241653E+04  0.25500000920E-02 0.  1.
        2   -1    0    0  501    0  0.00000000000E+00  0.00000000000E+00 -0.12821113437E+04  0.12821113437E+04  0.25500000920E-02 0. -1.
    10030    2    1    2    0    0  0.00000000000E+00  0.00000000000E+00 -0.25048717840E+03  0.23137355091E+04  0.23001365567E+04 0.  0.
        3    1    3    3  502    0  0.36548891442E+03  0.87489943152E+03  0.52946996156E+03  0.10859878509E+04  0.10100000352E+00 0.  1.
       -3    1    3    3    0  502 -0.36548891442E+03 -0.87489943152E+03 -0.77995713996E+03  0.12277476582E+04  0.10100000352E+00 0. -1.
</event>
<event>
 5   0  0.8108242E-07  0.2299783E+04  0.7818609E-02  0.8478007E-01
        1   -1    0    0  501    0  0.00000000000E+00  0.00000000000E+00  0.17920167481E+04  0.17920167481E+04  0.50400001928E-02 0.  1.
       -1   -1    0    0    0  501  0.00000000000E+00  0.00000000000E+00 -0.73785623986E+03  0.73785623988E+03  0.50400001928E-02 0. -1.
    10030    2    1    2    0    0  0.00000000000E+00  0.00000000000E+00  0.10541605082E+04  0.25298729879E+04  0.22997832415E+04 0.  0.
        4    1    3    3  502    0  0.88447289805E+03 -0.53279510734E+03  0.10837593264E+04  0.14968963973E+04  0.12699999809E+01 0. -1.
       -4    1    3    3    0  502 -0.88447289805E+03  0.53279510734E+03 -0.29598818247E+02  0.10329765906E+04  0.12699999809E+01 0.  1.
</event>
<event>
 5   0  0.1744876E-06  0.2299537E+04  0.7818609E-02  0.8478104E-01
       -2   -1    0    0    0  501  0.00000000000E+00  0.00000000000E+00  0.61460779628E+03  0.61460779628E+03  0.25500000920E-02 0.  1.
        2   -1    0    0  501    0  0.00000000000E+00  0.00000000000E+00 -0.21509115974E+04  0.21509115974E+04  0.25500000920E-02 0. -1.
    10030    2    1    2    0    0  0.00000000000E+00  0.00000000000E+00 -0.15363038012E+04  0.27655193937E+04  0.22995365071E+04 0.  0.
        1    1    3    3  502    0 -0.37041069307E+03  0.24694186077E+03 -0.20430561404E+04  0.20909956377E+04  0.50400001928E-02 0. -1.
       -1    1    3    3    0  502  0.37041069307E+03 -0.24694186077E+03  0.50675233920E+03  0.67452375603E+03  0.50400001928E-02 0.  1.
</event>
<event>
 5   0  0.8108242E-07  0.2295753E+04  0.7818609E-02  0.8479598E-01
        1   -1    0    0  501    0  0.00000000000E+00  0.00000000000E+00  0.17653001305E+04  0.17653001305E+04  0.50400001928E-02 0.  1.
       -1   -1    0    0    0  501  0.00000000000E+00  0.00000000000E+00 -0.74640012921E+03  0.74640012923E+03  0.50400001928E-02 0. -1.
    10030    2    1    2    0    0  0.00000000000E+00  0.00000000000E+00  0.10189000013E+04  0.25117002597E+04  0.22957528138E+04 0.  0.
        4    1    3    3  502    0  0.56947313332E+03  0.93185730793E+03  0.89619956058E+03  0.14127395221E+04  0.12699999809E+01 0.  1.
       -4    1    3    3    0  502 -0.56947313332E+03 -0.93185730793E+03  0.12270044071E+03  0.10989607377E+04  0.12699999809E+01 0. -1.
</event>
<event>
 5   0  0.1828646E-06  0.2299500E+04  0.7818609E-02  0.8478118E-01
        2   -1    0    0  501    0  0.00000000000E+00  0.00000000000E+00  0.18425927851E+04  0.18425927851E+04  0.25500000920E-02 0. -1.
       -2   -1    0    0    0  501  0.00000000000E+00  0.00000000000E+00 -0.71742682175E+03  0.71742682176E+03  0.25500000920E-02 0.  1.
    10030    2    1    2    0    0  0.00000000000E+00  0.00000000000E+00  0.11251659633E+04  0.25600196068E+04  0.22995003680E+04 0.  0.
        3    1    3    3  502    0 -0.66112376298E+03 -0.73384510049E+03 -0.92571494363E+02  0.99205985367E+03  0.10100000352E+00 0.  1.
       -3    1    3    3    0  502  0.66112376298E+03  0.73384510049E+03  0.12177374577E+04  0.15679597532E+04  0.10100000352E+00 0. -1.
</event>
<event>
 5   0  0.1888779E-06  0.2305999E+04  0.7818609E-02  0.8475560E-01
        2   -1    0    0  501    0  0.00000000000E+00  0.00000000000E+00  0.26683079110E+04  0.26683079110E+04  0.25500000920E-02 0.  1.
       -2   -1    0    0    0  501  0.00000000000E+00  0.00000000000E+00 -0.49822119268E+03  0.49822119269E+03  0.25500000920E-02 0. -1.
    10030    2    1    2    0    0  0.00000000000E+00  0.00000000000E+00  0.21700867184E+04  0.31665291037E+04  0.23059987423E+04 0.  0.
        4    1    3    3  502    0  0.82954343381E+03  0.23621612485E+03  0.34352150874E+02  0.86320452350E+03  0.12699999809E+01 0. -1.
       -4    1    3    3    0  502 -0.82954343381E+03 -0.23621612485E+03  0.21357345675E+04  0.23033245802E+04  0.12699999809E+01 0.  1.
</event>
<event>
 5   0  0.7761069E-07  0.2299660E+04  0.7818609E-02  0.8478055E-01
        1   -1    0    0  501    0  0.00000000000E+00  0.00000000000E+00  0.14737620753E+04  0.14737620753E+04  0.50400001928E-02 0.  1.
       -1   -1    0    0    0  501  0.00000000000E+00  0.00000000000E+00 -0.89709817265E+03  0.89709817266E+03  0.50400001928E-02 0. -1.
    10030    2    1    2    0    0  0.00000000000E+00  0.00000000000E+00  0.57666390268E+03  0.23708602480E+04  0.22996602051E+04 0.  0.
        1    1    3    3  502    0  0.40979414581E+03  0.21982662474E+03 -0.79582269684E+03  0.92173138805E+03  0.50400001928E-02 0. -1.
       -1    1    3    3    0  502 -0.40979414581E+03 -0.21982662474E+03  0.13724865995E+04  0.14491288600E+04  0.50400001928E-02 0.  1.
</event>
<event>
 5   0  0.1744876E-06  0.2300184E+04  0.7818609E-02  0.8477848E-01
       -2   -1    0    0    0  501  0.00000000000E+00  0.00000000000E+00  0.14374992447E+04  0.14374992448E+04  0.25500000920E-02 0.  1.
        2   -1    0    0  501    0  0.00000000000E+00  0.00000000000E+00 -0.92014794943E+03  0.92014794943E+03  0.25500000920E-02 0. -1.
    10030    2    1    2    0    0  0.00000000000E+00  0.00000000000E+00  0.51735129532E+03  0.23576471942E+04  0.23001843251E+04 0.  0.
        1    1    3    3  502    0 -0.10993622652E+04  0.33105087470E+03  0.32758546526E+03  0.11939448517E+04  0.50400001928E-02 0. -1.
       -1    1    3    3    0  502  0.10993622652E+04 -0.33105087470E+03  0.18976583006E+03  0.11637023425E+04  0.50400001928E-02 0.  1.
</event>
<event>
 5   0  0.7932912E-07  0.2299973E+04  0.7818609E-02  0.8477932E-01
        1   -1    0    0  501    0  0.00000000000E+00  0.00000000000E+00  0.10467655990E+04  0.10467655990E+04  0.50400001928E-02 0.  1.
       -1   -1    0    0    0  501  0.00000000000E+00  0.00000000000E+00 -0.12633856579E+04  0.12633856579E+04  0.50400001928E-02 0. -1.
    10030    2    1    2    0    0  0.00000000000E+00  0.00000000000E+00 -0.21662005890E+03  0.23101512569E+04  0.22999727345E+04 0.  0.
        5    1    3    3  502    0 -0.13858831904E+03  0.86433957729E+03  0.64074962224E+03  0.10848372207E+04  0.46999998093E+01 0.  1.
       -5    1    3    3    0  502  0.13858831904E+03 -0.86433957729E+03 -0.85736968113E+03  0.12253140361E+04  0.46999998093E+01 0. -1.
</event>
<event>
 5   0  0.7932912E-07  0.2299682E+04  0.7818609E-02  0.8478047E-01
        1   -1    0    0  501    0  0.00000000000E+00  0.00000000000E+00  0.98028463081E+03  0.98028463082E+03  0.50400001928E-02 0.  1.
       -1   -1    0    0    0  501  0.00000000000E+00  0.00000000000E+00 -0.13487249416E+04  0.13487249416E+04  0.50400001928E-02 0. -1.
    10030    2    1    2    0    0  0.00000000000E+00  0.00000000000E+00 -0.36844031083E+03  0.23290095725E+04  0.22996820054E+04 0.  0.
        5    1    3    3  502    0 -0.98596409482E+03  0.45958291642E+03  0.19304978293E+03  0.11048221404E+04  0.46999998093E+01 0.  1.
       -5    1    3    3    0  502  0.98596409482E+03 -0.45958291642E+03 -0.56149009375E+03  0.12241874320E+04  0.46999998093E+01 0. -1.
</event>
<event>
 5   0  0.8108242E-07  0.2306064E+04  0.7818609E-02  0.8475534E-01
        1   -1    0    0  501    0  0.00000000000E+00  0.00000000000E+00  0.82572108540E+03  0.82572108541E+03  0.50400001928E-02 0. -1.
       -1   -1    0    0    0  501  0.00000000000E+00  0.00000000000E+00 -0.16100870021E+04  0.16100870021E+04  0.50400001928E-02 0.  1.
    10030    2    1    2    0    0  0.00000000000E+00  0.00000000000E+00 -0.78436591671E+03  0.24358080875E+04  0.23060639948E+04 0.  0.
        4    1    3    3  502    0  0.18649041431E+03 -0.22001493139E+03  0.78700300626E+03  0.83818887456E+03  0.12699999809E+01 0. -1.
       -4    1    3    3    0  502 -0.18649041431E+03  0.22001493139E+03 -0.15713689230E+04  0.15976192130E+04  0.12699999809E+01 0.  1.
</event>
<event>
 5   0  0.8097672E-07  0.2297965E+04  0.7818609E-02  0.8478724E-01
        1   -1    0    0  501    0  0.00000000000E+00  0.00000000000E+00  0.18182960177E+04  0.18182960177E+04  0.50400001928E-02 0. -1.
       -1   -1    0    0    0  501  0.00000000000E+00  0.00000000000E+00 -0.72604270614E+03  0.72604270615E+03  0.50400001928E-02 0.  1.
    10030    2    1    2    0    0  0.00000000000E+00  0.00000000000E+00  0.10922533115E+04  0.25443387238E+04  0.22979648050E+04 0.  0.
        3    1    3    3  502    0 -0.66260340871E+03 -0.16369600407E+03  0.15695187752E+04  0.17114990082E+04  0.10100000352E+00 0. -1.
       -3    1    3    3    0  502  0.66260340871E+03  0.16369600407E+03 -0.47726546368E+03  0.83283971567E+03  0.10100000352E+00 0.  1.
</event>
<event>
 5   0  0.8097672E-07  0.2301579E+04  0.7818609E-02  0.8477299E-01
        1   -1    0    0  501    0  0.00000000000E+00  0.00000000000E+00  0.13852853969E+04  0.13852853969E+04  0.50400001928E-02 0.  1.
       -1   -1    0    0    0  501  0.00000000000E+00  0.00000000000E+00 -0.95598822663E+03  0.95598822665E+03  0.50400001928E-02 0. -1.
    10030    2    1    2    0    0  0.00000000000E+00  0.00000000000E+00  0.42929717025E+03  0.23412736235E+04  0.23015790492E+04 0.  0.
        3    1    3    3  502    0 -0.42125276605E+02  0.11394087128E+04  0.56108917909E+02  0.11415668945E+04  0.10100000352E+00 0.  1.
       -3    1    3    3    0  502  0.42125276605E+02 -0.11394087128E+04  0.37318825234E+03  0.11997067290E+04  0.10100000352E+00 0. -1.
</event>
<event>
 5   0  0.8108242E-07  0.2300142E+04  0.7818609E-02  0.8477865E-01
        1   -1    0    0  501    0  0.00000000000E+00  0.00000000000E+00  0.91446024457E+03  0.91446024459E+03  0.50400001928E-02 0. -1.
       -1   -1    0    0    0  501  0.00000000000E+00  0.00000000000E+00 -0.14463867395E+04  0.14463867395E+04  0.50400001928E-02 0.  1.
    10030    2    1    2    0    0  0.00000000000E+00  0.00000000000E+00 -0.53192649490E+03  0.23608469841E+04  0.23001418839E+04 0.  0.
        4    1    3    3  502    0 -0.11116107279E+04  0.29191651263E+03 -0.30911930808E+03  0.11901470583E+04  0.12699999809E+01 0.  1.
       -4    1    3    3    0  502  0.11116107279E+04 -0.29191651263E+03 -0.22280718682E+03  0.11706999258E+04  0.12699999809E+01 0. -1.
</event>
<event>
 5   0  0.8097672E-07  0.2298744E+04  0.7818609E-02  0.8478416E-01
        1   -1    0    0  501    0  0.00000000000E+00  0.00000000000E+00  0.17166886581E+04  0.17166886581E+04  0.50400001928E-02 0.  1.
       -1   -1    0    0    0  501  0.00000000000E+00  0.00000000000E+00 -0.76953762765E+03  0.76953762767E+03  0.50400001928E-02 0. -1.
    10030    2    1    2    0    0  0.00000000000E+00  0.00000000000E+00  0.94715103045E+03  0.24862262858E+04  0.22987444550E+04 0.  0.
        3    1    3    3  502    0  0.26159175283E+03 -0.87298032263E+03 -0.28392592367E+03  0.95453592346E+03  0.10100000352E+00 0. -1.
       -3    1    3    3    0  502 -0.26159175283E+03  0.87298032263E+03  0.12310769541E+04  0.15316903623E+04  0.10100000352E+00 0.  1.
</event>
<event>
 5   0  0.7761069E-07  0.2301762E+04  0.7818609E-02  0.8477227E-01
       -1   -1    0    0    0  501  0.00000000000E+00  0.00000000000E+00  0.12430423353E+04  0.12430423353E+04  0.50400001928E-02 0.  1.
        1   -1    0    0  501    0  0.00000000000E+00  0.00000000000E+00 -0.10655530752E+04  0.10655530752E+04  0.50400001928E-02 0. -1.
    10030    2    1    2    0    0  0.00000000000E+00  0.00000000000E+00  0.17748926006E+03  0.23085954105E+04  0.23017624404E+04 0.  0.
        1    1    3    3  502    0 -0.52600511643E+03  0.99792118975E+03  0.31745555521E+03  0.11718814415E+04  0.50400001928E-02 0.  1.
       -1    1    3    3    0  502  0.52600511643E+03 -0.99792118975E+03 -0.13996629515E+03  0.11367139690E+04  0.50400001928E-02 0. -1.
</event>
<event>
 5   0  0.7932912E-07  0.2299818E+04  0.7818609E-02  0.8477993E-01
       -1   -1    0    0    0  501  0.00000000000E+00  0.00000000000E+00  0.81781489331E+03  0.81781489333E+03  0.50400001928E-02 0. -1.
        1   -1    0    0  501    0  0.00000000000E+00  0.00000000000E+00 -0.16168583642E+04  0.16168583642E+04  0.50400001928E-02 0.  1.
    10030    2    1    2    0    0  0.00000000000E+00  0.00000000000E+00 -0.79904347085E+03  0.24346732575E+04  0.22998181238E+04 0.  0.
        5    1    3    3  502    0  0.31974520067E+03 -0.74769234063E+03 -0.12602061886E+04  0.14998075068E+04  0.46999998093E+01 0.  1.
       -5    1    3    3    0  502 -0.31974520067E+03  0.74769234063E+03  0.46116271777E+03  0.93486575071E+03  0.46999998093E+01 0. -1.
</event>
<event>
 5   0  0.1828646E-06  0.2300305E+04  0.7818609E-02  0.8477801E-01
       -2   -1    0    0    0  501  0.00000000000E+00  0.00000000000E+00  0.71838111564E+03  0.71838111565E+03  0.25500000920E-02 0.  1.
        2   -1    0    0  501    0  0.00000000000E+00  0.00000000000E+00 -0.18414327617E+04  0.18414327617E+04  0.25500000920E-02 0. -1.
    10030    2    1    2    0    0  0.00000000000E+00  0.00000000000E+00 -0.11230516460E+04  0.25598138773E+04  0.23003047813E+04 0.  0.
        3    1    3    3  502    0 -0.41914679144E+03  0.31675709005E+03  0.57704849256E+03  0.78038712178E+03  0.10100000352E+00 0.  1.
       -3    1    3    3    0  502  0.41914679144E+03 -0.31675709005E+03 -0.17001001386E+04  0.17794267555E+04  0.10100000352E+00 0. -1.
</event>
<event>
 5   0  0.1689444E-06  0.2299122E+04  0.7818609E-02  0.8478267E-01
       -2   -1    0    0    0  501  0.00000000000E+00  0.00000000000E+00  0.98987440879E+03  0.98987440879E+03  0.25500000920E-02 0. -1.
        2   -1    0    0  501    0  0.00000000000E+00  0.00000000000E+00 -0.13350087750E+04  0.13350087750E+04  0.25500000920E-02 0.  1.
    10030    2    1    2    0    0  0.00000000000E+00  0.00000000000E+00 -0.34513436618E+03  0.23248831838E+04  0.22991224603E+04 0.  0.
        2    1    3    3  502    0 -0.53154030099E+03  0.10029512215E+04  0.11251837831E+02  0.11351532267E+04  0.25500000920E-02 0.  1.
       -2    1    3    3    0  502  0.53154030099E+03 -0.10029512215E+04 -0.35638620401E+03  0.11897299570E+04  0.25500000920E-02 0. -1.
</event>
<event>
 5   0  0.7932912E-07  0.2303863E+04  0.7818609E-02  0.8476400E-01
       -1   -1    0    0    0  501  0.00000000000E+00  0.00000000000E+00  0.73342565166E+03  0.73342565167E+03  0.50400001928E-02 0. -1.
        1   -1    0    0  501    0  0.00000000000E+00  0.00000000000E+00 -0.18092443603E+04  0.18092443603E+04  0.50400001928E-02 0.  1.
    10030    2    1    2    0    0  0.00000000000E+00  0.00000000000E+00 -0.10758187087E+04  0.25426700120E+04  0.23038630376E+04 0.  0.
        5    1    3    3  502    0  0.30677865819E+03 -0.10231124759E+04 -0.10139569115E+04  0.14727535408E+04  0.46999998093E+01 0.  1.
       -5    1    3    3    0  502 -0.30677865819E+03  0.10231124759E+04 -0.61861797197E+02  0.10699164712E+04  0.46999998093E+01 0. -1.
</event>
<event>
 5   0  0.1744876E-06  0.2300246E+04  0.7818609E-02  0.8477824E-01
        2   -1    0    0  501    0  0.00000000000E+00  0.00000000000E+00  0.19161662850E+04  0.19161662850E+04  0.25500000920E-02 0. -1.
       -2   -1    0    0    0  501  0.00000000000E+00  0.00000000000E+00 -0.69032774178E+03  0.69032774178E+03  0.25500000920E-02 0.  1.
    10030    2    1    2    0    0  0.00000000000E+00  0.00000000000E+00  0.12258385432E+04  0.26064940268E+04  0.23002458516E+04 0.  0.
        1    1    3    3  502    0  0.64826125927E+03  0.29647897896E+03 -0.40982115506E+03  0.82225046330E+03  0.50400001928E-02 0.  1.
       -1    1    3    3    0  502 -0.64826125927E+03 -0.29647897896E+03  0.16356596983E+04  0.17842435635E+04  0.50400001928E-02 0. -1.
</event>
<event>
 5   0  0.1744876E-06  0.2299733E+04  0.7818609E-02  0.8478027E-01
        2   -1    0    0  501    0  0.00000000000E+00  0.00000000000E+00  0.12493614725E+04  0.12493614725E+04  0.25500000920E-02 0. -1.
       -2   -1    0    0    0  501  0.00000000000E+00  0.00000000000E+00 -0.10582946889E+04  0.10582946889E+04  0.25500000920E-02 0.  1.
    10030    2    1    2    0    0  0.00000000000E+00  0.00000000000E+00  0.19106678359E+03  0.23076561614E+04  0.22997326896E+04 0.  0.
        1    1    3    3  502    0 -0.88172845587E+03 -0.67241046536E+03  0.40090361455E+03  0.11791117894E+04  0.50400001928E-02 0. -1.
       -1    1    3    3    0  502  0.88172845587E+03  0.67241046536E+03 -0.20983683096E+03  0.11285443720E+04  0.50400001928E-02 0.  1.
</event>
<event>
 5   0  0.1888779E-06  0.2299871E+04  0.7818609E-02  0.8477972E-01
       -2   -1    0    0    0  501  0.00000000000E+00  0.00000000000E+00  0.65526841064E+03  0.65526841065E+03  0.25500000920E-02 0.  1.
        2   -1    0    0  501    0  0.00000000000E+00  0.00000000000E+00 -0.20180296571E+04  0.20180296571E+04  0.25500000920E-02 0. -1.
    10030    2    1    2    0    0  0.00000000000E+00  0.00000000000E+00 -0.13627612464E+04  0.26732980677E+04  0.22998705059E+04 0.  0.
        4    1    3    3  502    0  0.35164840466E+03  0.68621280838E+02  0.58873498450E+03  0.68918500822E+03  0.12699999809E+01 0.  1.
       -4    1    3    3    0  502 -0.35164840466E+03 -0.68621280838E+02 -0.19514962309E+04  0.19841130595E+04  0.12699999809E+01 0. -1.
</event>
<event>
 5   0  0.1689444E-06  0.2299949E+04  0.7818609E-02  0.8477941E-01
        2   -1    0    0  501    0  0.00000000000E+00  0.00000000000E+00  0.60054160553E+03  0.60054160553E+03  0.25500000920E-02 0. -1.
       -2   -1    0    0    0  501  0.00000000000E+00  0.00000000000E+00 -0.22020816198E+04  0.22020816198E+04  0.25500000920E-02 0.  1.
    10030    2    1    2    0    0  0.00000000000E+00  0.00000000000E+00 -0.16015400143E+04  0.28026232254E+04  0.22999492442E+04 0.  0.
        2    1    3    3  502    0 -0.27729159535E+03 -0.93728235622E+02 -0.21559289551E+04  0.21757079929E+04  0.25500000920E-02 0.  1.
       -2    1    3    3    0  502  0.27729159535E+03  0.93728235622E+02  0.55438894079E+03  0.62691523245E+03  0.25500000920E-02 0. -1.
</event>
<event>
 5   0  0.7932912E-07  0.2299974E+04  0.7818609E-02  0.8477931E-01
       -1   -1    0    0    0  501  0.00000000000E+00  0.00000000000E+00  0.13622163791E+04  0.13622163791E+04  0.50400001928E-02 0. -1.
        1   -1    0    0  501    0  0.00000000000E+00  0.00000000000E+00 -0.97082208392E+03  0.97082208393E+03  0.50400001928E-02 0.  1.
    10030    2    1    2    0    0  0.00000000000E+00  0.00000000000E+00  0.39139429518E+03  0.23330384630E+04  0.22999736902E+04 0.  0.
        5    1    3    3  502    0 -0.96316965325E+03  0.77242575076E+02 -0.43679339580E+03  0.10604115979E+04  0.46999998093E+01 0.  1.
       -5    1    3    3    0  502  0.96316965325E+03 -0.77242575076E+02  0.82818769098E+03  0.12726268651E+04  0.46999998093E+01 0. -1.
</event>
<event>
 5   0  0.1689444E-06  0.2301140E+04  0.7818609E-02  0.8477472E-01
        2   -1    0    0  501    0  0.00000000000E+00  0.00000000000E+00  0.21172757602E+04  0.21172757602E+04  0.25500000920E-02 0. -1.
       -2   -1    0    0    0  501  0.00000000000E+00  0.00000000000E+00 -0.62524253914E+03  0.62524253914E+03  0.25500000920E-02 0.  1.
    10030    2    1    2    0    0  0.00000000000E+00  0.00000000000E+00  0.14920332210E+04  0.27425182993E+04  0.23011396067E+04 0.  0.
        2    1    3    3  502    0  0.80085532357E+03  0.80952383555E+03  0.94225935708E+03  0.14780225931E+04  0.25500000920E-02 0. -1.
       -2    1    3    3    0  502 -0.80085532357E+03 -0.80952383555E+03  0.54977386396E+03  0.12644957063E+04  0.25500000920E-02 0.  1.
</event>
<event>
 5   0  0.7932912E-07  0.2299624E+04  0.7818609E-02  0.8478069E-01
        1   -1    0    0  501    0  0.00000000000E+00  0.00000000000E+00  0.15616164435E+04  0.15616164435E+04  0.50400001928E-02 0. -1.
       -1   -1    0    0    0  501  0.00000000000E+00  0.00000000000E+00 -0.84660179584E+03  0.84660179586E+03  0.50400001928E-02 0.  1.
    10030    2    1    2    0    0  0.00000000000E+00  0.00000000000E+00  0.71501464762E+03  0.24082182393E+04  0.22996236957E+04 0.  0.
        5    1    3    3  502    0  0.71503447191E+03 -0.39112810281E+03  0.12068493285E+04  0.14562839285E+04  0.46999998093E+01 0. -1.
       -5    1    3    3    0  502 -0.71503447191E+03  0.39112810281E+03 -0.49183468084E+03  0.95193431082E+03  0.46999998093E+01 0.  1.
</event>
<event>
 5   0  0.7607231E-07  0.2299630E+04  0.7818609E-02  0.8478067E-01
       -1   -1    0    0    0  501  0.00000000000E+00  0.00000000000E+00  0.64107612738E+03  0.64107612740E+03  0.50400001928E-02 0.  1.
        1   -1    0    0  501    0  0.00000000000E+00  0.00000000000E+00 -0.20622736339E+04  0.20622736339E+04  0.50400001928E-02 0. -1.
    10030    2    1    2    0    0  0.00000000000E+00  0.00000000000E+00 -0.14211975065E+04  0.27033497613E+04  0.22996298788E+04 0.  0.
        2    1    3    3  502    0  0.31248665987E+03 -0.58603511827E+03 -0.18139902133E+04  0.19317467656E+04  0.25500000920E-02 0. -1.
       -2    1    3    3    0  502 -0.31248665987E+03  0.58603511827E+03  0.39279270679E+03  0.77160299569E+03  0.25500000920E-02 0.  1.
</event>
<event>
 5   0  0.7607231E-07  0.2299560E+04  0.7818609E-02  0.8478094E-01
       -1   -1    0    0    0  501  0.00000000000E+00  0.00000000000E+00  0.82961129341E+03  0.82961129342E+03  0.50400001928E-02 0.  1.
        1   -1    0    0  501    0  0.00000000000E+00  0.00000000000E+00 -0.15935106652E+04  0.15935106652E+04  0.50400001928E-02 0. -1.
    10030    2    1    2    0    0  0.00000000000E+00  0.00000000000E+00 -0.76389937181E+03  0.24231219586E+04  0.22995603441E+04 0.  0.
        2    1    3    3  502    0  0.77958762484E+02 -0.79896849588E+03  0.48542418478E+03  0.93811772461E+03  0.25500000920E-02 0.  1.
       -2    1    3    3    0  502 -0.77958762484E+02  0.79896849588E+03 -0.12493235566E+04  0.14850042340E+04  0.25500000920E-02 0. -1.
</event>
<event>
 5   0  0.7607231E-07  0.2300190E+04  0.7818609E-02  0.8477846E-01
       -1   -1    0    0    0  501  0.00000000000E+00  0.00000000000E+00  0.64721100175E+03  0.64721100177E+03  0.50400001928E-02 0. -1.
        1   -1    0    0  501    0  0.00000000000E+00  0.00000000000E+00 -0.20437214397E+04  0.20437214397E+04  0.50400001928E-02 0.  1.
    10030    2    1    2    0    0  0.00000000000E+00  0.00000000000E+00 -0.13965104379E+04  0.26909324415E+04  0.23001904272E+04 0.  0.
        2    1    3    3  502    0 -0.96392749601E+03  0.38581893181E+03 -0.12769662840E+04  0.16457993062E+04  0.25500000920E-02 0. -1.
       -2    1    3    3    0  502  0.96392749601E+03 -0.38581893181E+03 -0.11954415391E+03  0.10451331353E+04  0.25500000920E-02 0.  1.
</event>
<event>
 5   0  0.1744876E-06  0.2300336E+04  0.7818609E-02  0.8477789E-01
       -2   -1    0    0    0  501  0.00000000000E+00  0.00000000000E+00  0.60671627558E+03  0.60671627558E+03  0.25500000920E-02 0.  1.
        2   -1    0    0  501    0  0.00000000000E+00  0.00000000000E+00 -0.21804028887E+04  0.21804028887E+04  0.25500000920E-02 0. -1.
    10030    2    1    2    0    0  0.00000000000E+00  0.00000000000E+00 -0.15736866131E+04  0.27871191643E+04  0.23003355580E+04 0.  0.
        1    1    3    3  502    0  0.92076568350E+03 -0.61519735845E+03 -0.41025014227E+03  0.11809243892E+04  0.50400001928E-02 0. -1.
       -1    1    3    3    0  502 -0.92076568350E+03  0.61519735845E+03 -0.11634364708E+04  0.16061947751E+04  0.50400001928E-02 0.  1.
</event>
<event>
 5   0  0.1888779E-06  0.2299976E+04  0.7818609E-02  0.8477931E-01
       -2   -1    0    0    0  501  0.00000000000E+00  0.00000000000E+00  0.80293082426E+03  0.80293082426E+03  0.25500000920E-02 0.  1.
        2   -1    0    0  501    0  0.00000000000E+00  0.00000000000E+00 -0.16470565169E+04  0.16470565169E+04  0.25500000920E-02 0. -1.
    10030    2    1    2    0    0  0.00000000000E+00  0.00000000000E+00 -0.84412569264E+03  0.24499873412E+04  0.22999760405E+04 0.  0.
        4    1    3    3  502    0 -0.59965224908E+03  0.66789958479E+03  0.34371184221E+03  0.96115145454E+03  0.12699999809E+01 0.  1.
       -4    1    3    3    0  502  0.59965224908E+03 -0.66789958479E+03 -0.11878375349E+04  0.14888358866E+04  0.12699999809E+01 0. -1.
</event>
<event>
 5   0  0.8097672E-07  0.2297085E+04  0.7818609E-02  0.8479071E-01
        1   -1    0    0  501    0  0.00000000000E+00  0.00000000000E+00  0.89800696603E+03  0.89800696604E+03  0.50400001928E-02 0.  1.
       -1   -1    0    0    0  501  0.00000000000E+00  0.00000000000E+00 -0.14689751448E+04  0.14689751449E+04  0.50400001928E-02 0. -1.
    10030    2    1    2    0    0  0.00000000000E+00  0.00000000000E+00 -0.57096817882E+03  0.23669821109E+04  0.22970850337E+04 0.  0.
        3    1    3    3  502    0 -0.96567241738E+03 -0.50596683089E+03 -0.65790135780E+03  0.12733262969E+04  0.10100000352E+00 0. -1.
       -3    1    3    3    0  502  0.96567241738E+03  0.50596683089E+03  0.86933178977E+02  0.10936558140E+04  0.10100000352E+00 0.  1.
</event>
<event>
 5   0  0.1828646E-06  0.2299968E+04  0.7818609E-02  0.8477934E-01
       -2   -1    0    0    0  501  0.00000000000E+00  0.00000000000E+00  0.92843331303E+03  0.92843331304E+03  0.25500000920E-02 0. -1.
        2   -1    0    0  501    0  0.00000000000E+00  0.00000000000E+00 -0.14244028848E+04  0.14244028849E+04  0.25500000920E-02 0.  1.
    10030    2    1    2    0    0  0.00000000000E+00  0.00000000000E+00 -0.49596957182E+03  0.23528361979E+04  0.22999679037E+04 0.  0.
        3    1    3    3  502    0 -0.78180423328E+03  0.75178984938E+03 -0.63894401184E+03  0.12588309248E+04  0.10100000352E+00 0.  1.
       -3    1    3    3    0  502  0.78180423328E+03 -0.75178984938E+03  0.14297444002E+03  0.10940052731E+04  0.10100000352E+00 0. -1.
</event>
<event>
 5   0  0.8097672E-07  0.2300180E+04  0.7818609E-02  0.8477850E-01
        1   -1    0    0  501    0  0.00000000000E+00  0.00000000000E+00  0.14944951940E+04  0.14944951940E+04  0.50400001928E-02 0.  1.
       -1   -1    0    0    0  501  0.00000000000E+00  0.00000000000E+00 -0.88505256314E+03  0.88505256315E+03  0.50400001928E-02 0. -1.
    10030    2    1    2    0    0  0.00000000000E+00  0.00000000000E+00  0.60944263084E+03  0.23795477571E+04  0.23001798208E+04 0.  0.
        3    1    3    3  502    0 -0.41522123135E+03 -0.89481859863E+03  0.91639103234E+03  0.13464328909E+04  0.10100000352E+00 0.  1.
       -3    1    3    3    0  502  0.41522123135E+03  0.89481859863E+03 -0.30694840149E+03  0.10331148662E+04  0.10100000352E+00 0. -1.
</event>
<event>
 5   0  0.7607231E-07  0.2299340E+04  0.7818609E-02  0.8478182E-01
       -1   -1    0    0    0  501  0.00000000000E+00  0.00000000000E+00  0.16478106469E+04  0.16478106469E+04  0.50400001928E-02 0. -1.
        1   -1    0    0  501    0  0.00000000000E+00  0.00000000000E+00 -0.80211925917E+03  0.80211925918E+03  0.50400001928E-02 0.  1.
    10030    2    1    2    0    0  0.00000000000E+00  0.00000000000E+00  0.84569138773E+03  0.24499299061E+04  0.22993396055E+04 0.  0.
        2    1    3    3  502    0  0.57822046036E+03  0.44242500837E+03 -0.52518064213E+03  0.89771570983E+03  0.25500000920E-02 0.  1.
       -2    1    3    3    0  502 -0.57822046036E+03 -0.44242500837E+03  0.13708720299E+04  0.15522141963E+04  0.25500000920E-02 0. -1.
</event>
<event>
 5   0  0.1689444E-06  0.2299129E+04  0.7818609E-02  0.8478265E-01
        2   -1    0    0  501    0  0.00000000000E+00  0.00000000000E+00  0.14848847395E+04  0.14848847395E+04  0.25500000920E-02 0.  1.
       -2   -1    0    0    0  501  0.00000000000E+00  0.00000000000E+00 -0.88996724154E+03  0.88996724154E+03  0.25500000920E-02 0. -1.
    10030    2    1    2    0    0  0.00000000000E+00  0.00000000000E+00  0.59491749794E+03  0.23748519810E+04  0.22991292052E+04 0.  0.
        2    1    3    3  502    0  0.70373526772E+03  0.89066334817E+03  0.10988993894E+03  0.11404386549E+04  0.25500000920E-02 0. -1.
       -2    1    3    3    0  502 -0.70373526772E+03 -0.89066334817E+03  0.48502755899E+03  0.12344133262E+04  0.25500000920E-02 0.  1.
</event>
<event>
 5   0  0.7932912E-07  0.2299266E+04  0.7818609E-02  0.8478211E-01
        1   -1    0    0  501    0  0.00000000000E+00  0.00000000000E+00  0.95478241078E+03  0.95478241079E+03  0.50400001928E-02 0.  1.
       -1   -1    0    0    0  501  0.00000000000E+00  0.00000000000E+00 -0.13842483014E+04  0.13842483014E+04  0.50400001928E-02 0. -1.
    10030    2    1    2    0    0  0.00000000000E+00  0.00000000000E+00 -0.42946589065E+03  0.23390307122E+04  0.22992659093E+04 0.  0.
        5    1    3    3  502    0  0.33904130718E+03 -0.59686151778E+03 -0.11528755512E+04  0.13417663008E+04  0.46999998093E+01 0. -1.
       -5    1    3    3    0  502 -0.33904130718E+03  0.59686151778E+03  0.72340966054E+03  0.99726441145E+03  0.46999998093E+01 0.  1.
</event>
<event>
 5   0  0.7761069E-07  0.2300576E+04  0.7818609E-02  0.8477694E-01
        1   -1    0    0  501    0  0.00000000000E+00  0.00000000000E+00  0.11399321207E+04  0.11399321207E+04  0.50400001928E-02 0. -1.
       -1   -1    0    0    0  501  0.00000000000E+00  0.00000000000E+00 -0.11607384374E+04  0.11607384374E+04  0.50400001928E-02 0.  1.
    10030    2    1    2    0    0  0.00000000000E+00  0.00000000000E+00 -0.20806316716E+02  0.23006705581E+04  0.23005764742E+04 0.  0.
        1    1    3    3  502    0 -0.79934701128E+03  0.64800357204E+03 -0.52452412899E+03  0.11549847773E+04  0.50400001928E-02 0.  1.
       -1    1    3    3    0  502  0.79934701128E+03 -0.64800357204E+03  0.50371781228E+03  0.11456857808E+04  0.50400001928E-02 0. -1.
</event>
<event>
 5   0  0.1888779E-06  0.2300070E+04  0.7818609E-02  0.8477894E-01
        2   -1    0    0  501    0  0.00000000000E+00  0.00000000000E+00  0.20749474975E+04  0.20749474975E+04  0.25500000920E-02 0. -1.
       -2   -1    0    0    0  501  0.00000000000E+00  0.00000000000E+00 -0.63740421395E+03  0.63740421395E+03  0.25500000920E-02 0.  1.
    10030    2    1    2    0    0  0.00000000000E+00  0.00000000000E+00  0.14375432835E+04  0.27123517114E+04  0.23000698064E+04 0.  0.
        4    1    3    3  502    0 -0.75853589496E+03 -0.68833670831E+02  0.17348861551E+04  0.18947153776E+04  0.12699999809E+01 0. -1.
       -4    1    3    3    0  502  0.75853589496E+03  0.68833670831E+02 -0.29734287156E+03  0.81763633380E+03  0.12699999809E+01 0.  1.
</event>
<event>
 5   0  0.7761069E-07  0.2301656E+04  0.7818609E-02  0.8477268E-01
        1   -1    0    0  501    0  0.00000000000E+00  0.00000000000E+00  0.20135869987E+04  0.20135869987E+04  0.50400001928E-02 0.  1.
       -1   -1    0    0    0  501  0.00000000000E+00  0.00000000000E+00 -0.65773435898E+03  0.65773435900E+03  0.50400001928E-02 0. -1.
    10030    2    1    2    0    0  0.00000000000E+00  0.00000000000E+00  0.13558526397E+04  0.26713213577E+04  0.23016562331E+04 0.  0.
        1    1    3    3  502    0 -0.75551520980E+03 -0.86221690128E+03  0.56080180948E+03  0.12762131039E+04  0.50400001928E-02 0. -1.
       -1    1    3    3    0  502  0.75551520980E+03  0.86221690128E+03  0.79505083023E+03  0.13951082538E+04  0.50400001928E-02 0.  1.
</event>
<event>
 5   0  0.1888779E-06  0.2303521E+04  0.7818609E-02  0.8476534E-01
        2   -1    0    0  501    0  0.00000000000E+00  0.00000000000E+00  0.11915473226E+04  0.11915473226E+04  0.25500000920E-02 0. -1.
       -2   -1    0    0    0  501  0.00000000000E+00  0.00000000000E+00 -0.11133019455E+04  0.11133019455E+04  0.25500000920E-02 0.  1.
    10030    2    1    2    0    0  0.00000000000E+00  0.00000000000E+00  0.78245377145E+02  0.23048492681E+04  0.23035207422E+04 0.  0.
        4    1    3    3  502    0 -0.11246734413E+04 -0.21585872123E+03 -0.83687671442E+02  0.11482554491E+04  0.12699999809E+01 0. -1.
       -4    1    3    3    0  502  0.11246734413E+04  0.21585872123E+03  0.16193304859E+03  0.11565938190E+04  0.12699999809E+01 0.  1.
</event>
<event>
 5   0  0.1825521E-06  0.2300043E+04  0.7818609E-02  0.8477904E-01
        2   -1    0    0  501    0  0.00000000000E+00  0.00000000000E+00  0.83664883119E+03  0.83664883120E+03  0.25500000920E-02 0. -1.
       -2   -1    0    0    0  501  0.00000000000E+00  0.00000000000E+00 -0.15807702678E+04  0.15807702678E+04  0.25500000920E-02 0.  1.
    10030    2    1    2    0    0  0.00000000000E+00  0.00000000000E+00 -0.74412143665E+03  0.24174190990E+04  0.23000431274E+04 0.  0.
        5    1    3    3  502    0  0.10801107157E+04  0.99722265238E+02  0.29460797515E+02  0.10851146101E+04  0.46999998093E+01 0.  1.
       -5    1    3    3    0  502 -0.10801107157E+04 -0.99722265238E+02 -0.77358223416E+03  0.13323044890E+04  0.46999998093E+01 0. -1.
</event>
<event>
 5   0  0.8108242E-07  0.2299757E+04  0.7818609E-02  0.8478017E-01
        1   -1    0    0  501    0  0.00000000000E+00  0.00000000000E+00  0.16407574833E+04  0.16407574833E+04  0.50400001928E-02 0. -1.
       -1   -1    0    0    0  501  0.00000000000E+00  0.00000000000E+00 -0.80585954190E+03  0.80585954192E+03  0.50400001928E-02 0.  1.
    10030    2    1    2    0    0  0.00000000000E+00  0.00000000000E+00  0.83489794139E+03  0.24466170252E+04  0.22997565731E+04 0.  0.
        4    1    3    3  502    0 -0.99429778555E+02  0.59087113070E+03  0.14615514999E+04  0.15796041826E+04  0.12699999809E+01 0. -1.
       -4    1    3    3    0  502  0.99429778555E+02 -0.59087113070E+03 -0.62665355851E+03  0.86701284261E+03  0.12699999809E+01 0.  1.
</event>
<event>
 5   0  0.1825521E-06  0.2308906E+04  0.7818609E-02  0.8474418E-01
       -2   -1    0    0    0  501  0.00000000000E+00  0.00000000000E+00  0.89281686206E+03  0.89281686206E+03  0.25500000920E-02 0. -1.
        2   -1    0    0  501    0  0.00000000000E+00  0.00000000000E+00 -0.14927609818E+04  0.14927609818E+04  0.25500000920E-02 0.  1.
    10030    2    1    2    0    0  0.00000000000E+00  0.00000000000E+00 -0.59994411973E+03  0.23855778439E+04  0.23089063866E+04 0.  0.
        5    1    3    3  502    0 -0.45073503669E+03 -0.95798837654E+03 -0.77551248418E+03  0.13123816160E+04  0.46999998093E+01 0.  1.
       -5    1    3    3    0  502  0.45073503669E+03  0.95798837654E+03  0.17556836445E+03  0.10731962279E+04  0.46999998093E+01 0. -1.
</event>
<event>
 5   0  0.7607231E-07  0.2305086E+04  0.7818609E-02  0.8475918E-01
       -1   -1    0    0    0  501  0.00000000000E+00  0.00000000000E+00  0.65108816016E+03  0.65108816018E+03  0.50400001928E-02 0.  1.
        1   -1    0    0  501    0  0.00000000000E+00  0.00000000000E+00 -0.20402085104E+04  0.20402085104E+04  0.50400001928E-02 0. -1.
    10030    2    1    2    0    0  0.00000000000E+00  0.00000000000E+00 -0.13891203502E+04  0.26912966706E+04  0.23050862070E+04 0.  0.
        2    1    3    3  502    0  0.83804061462E+03  0.17147302119E+03  0.20728249622E+03  0.88015970255E+03  0.25500000920E-02 0.  1.
       -2    1    3    3    0  502 -0.83804061462E+03 -0.17147302119E+03 -0.15964028465E+04  0.18111369680E+04  0.25500000920E-02 0. -1.
</event>
<event>
 5   0  0.1689444E-06  0.2302189E+04  0.7818609E-02  0.8477059E-01
       -2   -1    0    0    0  501  0.00000000000E+00  0.00000000000E+00  0.20791710056E+04  0.20791710056E+04  0.25500000920E-02 0.  1.
        2   -1    0    0  501    0  0.00000000000E+00  0.00000000000E+00 -0.63728191450E+03  0.63728191450E+03  0.25500000920E-02 0. -1.
    10030    2    1    2    0    0  0.00000000000E+00  0.00000000000E+00  0.14418890911E+04  0.27164529201E+04  0.23021885926E+04 0.  0.
        2    1    3    3  502    0 -0.53063338935E+02  0.40317972721E+03 -0.54970113446E+03  0.68376965975E+03  0.25500000920E-02 0. -1.
       -2    1    3    3    0  502  0.53063338935E+02 -0.40317972721E+03  0.19915902256E+04  0.20326832604E+04  0.25500000920E-02 0.  1.
</event>
<event>
 5   0  0.7932912E-07  0.2300482E+04  0.7818609E-02  0.8477731E-01
        1   -1    0    0  501    0  0.00000000000E+00  0.00000000000E+00  0.16451011288E+04  0.16451011288E+04  0.50400001928E-02 0.  1.
       -1   -1    0    0    0  501  0.00000000000E+00  0.00000000000E+00 -0.80423898026E+03  0.80423898027E+03  0.50400001928E-02 0. -1.
    10030    2    1    2    0    0  0.00000000000E+00  0.00000000000E+00  0.84086214852E+03  0.24493401091E+04  0.23004820836E+04 0.  0.
        5    1    3    3  502    0 -0.96945745961E+03 -0.24380801096E+03  0.10262319974E+04  0.14326424239E+04  0.46999998093E+01 0. -1.
       -5    1    3    3    0  502  0.96945745961E+03  0.24380801096E+03 -0.18536984887E+03  0.10166976852E+04  0.46999998093E+01 0.  1.
</event>
</LesHouchesEvents>
